<LesHouchesEvents version="3.0">
<header>
<!--
#*********************************************************************
#                                                                    *
#                        MadGraph5_aMC@NLO                           *
#                                                                    *
#                           Going Beyond                             *
#                                                                    *
#                   http://madgraph.hep.uiuc.edu                     *
#                   http://madgraph.phys.ucl.ac.be                   *
#                   http://amcatnlo.cern.ch                          *
#                                                                    *
#                     The MadGraph5_aMC@NLO team                     *
#                                                                    *
#....................................................................*
#                                                                    *
# This file contains all the information necessary to reproduce      *
# the events generated:                                              *
#                                                                    *
# 1. software version                                                *
# 2. proc_card          : code generation info including model       *
# 3. param_card         : model primary parameters in the LH format  *
# 4. run_card           : running parameters (collider and cuts)     *
# 5. pythia_card        : present only if pythia has been run        *
# 6. pgs_card           : present only if pgs has been run           *
# 7. delphes_cards      : present only if delphes has been run       *
#                                                                    *
#                                                                    *
#*********************************************************************
-->
<MGVersion>
#5.2.2.3
</MGVersion>
<MG5ProcCard>
#************************************************************
#*                     MadGraph5_aMC@NLO                    *
#*                                                          *
#*                *                       *                 *
#*                  *        * *        *                   *
#*                    * * * * 5 * * * *                     *
#*                  *        * *        *                   *
#*                *                       *                 *
#*                                                          *
#*                                                          *
#*         VERSION 2.2.3                 2015-02-10         *
#*                                                          *
#*    The MadGraph5_aMC@NLO Development Team - Find us at   *
#*    https://server06.fynu.ucl.ac.be/projects/madgraph     *
#*                                                          *
#************************************************************
#*                                                          *
#*               Command File for MadGraph5_aMC@NLO         *
#*                                                          *
#*     run as ./bin/mg5_aMC  filename                       *
#*                                                          *
#************************************************************
set group_subprocesses Auto
set ignore_six_quark_processes False
set loop_optimized_output True
set gauge unitary
set complex_mass_scheme False
import model sm
define p = g u c d s u~ c~ d~ s~
define j = g u c d s u~ c~ d~ s~
define l+ = e+ mu+
define l- = e- mu-
define vl = ve vm vt
define vl~ = ve~ vm~ vt~
import model Zprime_UFO
generate p p > zph, zph > j j
add process p p > zph, zph > b b~
output Dijet_signal
</MG5ProcCard>
<MGProcCard>
#*********************************************************************
#                        MadGraph/MadEvent                           *
#                   http://madgraph.hep.uiuc.edu                     *
#                                                                    *
#                          proc_card.dat                             *
#*********************************************************************
#                                                                    *
#            This Files is generated by MADGRAPH 5                   *
#                                                                    *
# WARNING: This Files is generated for MADEVENT (compatibility issue)*
#          This files is NOT a valid MG4 proc_card.dat               *
#          Running this in MG4 will NEVER reproduce the result of MG5*
#                                                                    *
#*********************************************************************
#*********************************************************************
# Process(es) requested : mg2 input                                  *
#*********************************************************************
# Begin PROCESS # This is TAG. Do not modify this line
p p > zph , zph > j j           #Process
# Be carefull the coupling are here in MG5 convention
          
end_coup           # End the couplings input

done               # this tells MG there are no more procs
# End PROCESS  # This is TAG. Do not modify this line
#*********************************************************************
# Model information                                                  *
#*********************************************************************
# Begin MODEL  # This is TAG. Do not modify this line
Zprime_UFO
# End   MODEL  # This is TAG. Do not modify this line
#*********************************************************************
# Start multiparticle definitions                                    *
#*********************************************************************
# Begin MULTIPARTICLES # This is TAG. Do not modify this line

# End  MULTIPARTICLES # This is TAG. Do not modify this line
</MGProcCard>
<MGRunCard>
#*********************************************************************
#                       MadGraph5_aMC@NLO                            *
#                                                                    *
#                     run_card.dat MadEvent                          *
#                                                                    *
#  This file is used to set the parameters of the run.               *
#                                                                    *
#  Some notation/conventions:                                        *
#                                                                    *
#   Lines starting with a '# ' are info or comments                  *
#                                                                    *
#   mind the format:   value    = variable     ! comment             *
#*********************************************************************
#
#*******************                                                 
# Running parameters
#*******************                                                 
#                                                                    
#*********************************************************************
# Tag name for the run (one word)                                    *
#*********************************************************************
  tag_1     = run_tag ! name of the run 
#*********************************************************************
# Run to generate the grid pack                                      *
#*********************************************************************
  .false.     = gridpack  !True = setting up the grid pack
#*********************************************************************
# Number of events and rnd seed                                      *
# Warning: Do not generate more than 1M events in a single run       *
# If you want to run Pythia, avoid more than 50k events in a run.    *
#*********************************************************************
  2000 = nevents ! Number of unweighted events requested 
 2352 = iseed   ! rnd seed (0=assigned automatically=default))
#*********************************************************************
# Collider type and energy                                           *
# lpp: 0=No PDF, 1=proton, -1=antiproton, 2=photon from proton,      *
#                                         3=photon from electron     *
#*********************************************************************
        1     = lpp1    ! beam 1 type 
        1     = lpp2    ! beam 2 type
     4000     = ebeam1  ! beam 1 total energy in GeV
     4000     = ebeam2  ! beam 2 total energy in GeV
#*********************************************************************
# Beam polarization from -100 (left-handed) to 100 (right-handed)    *
#*********************************************************************
        0     = polbeam1 ! beam polarization for beam 1
        0     = polbeam2 ! beam polarization for beam 2
#*********************************************************************
# PDF CHOICE: this automatically fixes also alpha_s and its evol.    *
#*********************************************************************
 'nn23lo1'    = pdlabel     ! PDF set                                     
 230000    = lhaid     ! if pdlabel=lhapdf, this is the lhapdf number
#*********************************************************************
# Renormalization and factorization scales                           *
#*********************************************************************
 F        = fixed_ren_scale  ! if .true. use fixed ren scale
 F        = fixed_fac_scale  ! if .true. use fixed fac scale
 91.1880  = scale            ! fixed ren scale
 91.1880  = dsqrt_q2fact1    ! fixed fact scale for pdf1
 91.1880  = dsqrt_q2fact2    ! fixed fact scale for pdf2
 1        = scalefact        ! scale factor for event-by-event scales
#*********************************************************************
# Matching - Warning! ickkw > 1 is still beta
#*********************************************************************
 0        = ickkw            ! 0 no matching, 1 MLM, 2 CKKW matching
 1        = highestmult      ! for ickkw=2, highest mult group
 1        = ktscheme         ! for ickkw=1, 1 Durham kT, 2 Pythia pTE
 1        = alpsfact         ! scale factor for QCD emission vx
 F        = chcluster        ! cluster only according to channel diag
 T        = pdfwgt           ! for ickkw=1, perform pdf reweighting
 5        = asrwgtflavor     ! highest quark flavor for a_s reweight
 T        = clusinfo         ! include clustering tag in output
 3.0      = lhe_version       ! Change the way clustering information pass to shower.        
#*********************************************************************
#**********************************************************
#
#**********************************************************
# Automatic ptj and mjj cuts if xqcut > 0
# (turn off for VBF and single top processes)
#**********************************************************
   T  = auto_ptj_mjj  ! Automatic setting of ptj and mjj
#**********************************************************
#                                                                    
#**********************************
# BW cutoff (M+/-bwcutoff*Gamma)
#**********************************
  15  = bwcutoff      ! (M+/-bwcutoff*Gamma)
#**********************************************************
# Apply pt/E/eta/dr/mij cuts on decay products or not
# (note that etmiss/ptll/ptheavy/ht/sorted cuts always apply)
#**********************************************************
   T  = cut_decays    ! Cut decay products 
#*************************************************************
# Number of helicities to sum per event (0 = all helicities)
# 0 gives more stable result, but longer run time (needed for
# long decay chains e.g.).
# Use >=2 if most helicities contribute, e.g. pure QCD.
#*************************************************************
   0  = nhel          ! Number of helicities used per event
#*******************                                                 
# Standard Cuts
#*******************                                                 
#                                                                    
#*********************************************************************
# Minimum and maximum pt's (for max, -1 means no cut)                *
#*********************************************************************
 20  = ptj       ! minimum pt for the jets 
  0  = ptb       ! minimum pt for the b 
 10  = pta       ! minimum pt for the photons 
 10  = ptl       ! minimum pt for the charged leptons 
  0  = misset    ! minimum missing Et (sum of neutrino's momenta)
  0  = ptheavy   ! minimum pt for one heavy final state
 1.0 = ptonium   ! minimum pt for the quarkonium states
 -1  = ptjmax    ! maximum pt for the jets
 -1  = ptbmax    ! maximum pt for the b
 -1  = ptamax    ! maximum pt for the photons
 -1  = ptlmax    ! maximum pt for the charged leptons
 -1  = missetmax ! maximum missing Et (sum of neutrino's momenta)
#*********************************************************************
# Minimum and maximum E's (in the center of mass frame)              *
#*********************************************************************
  0  = ej     ! minimum E for the jets 
  0  = eb     ! minimum E for the b 
  0  = ea     ! minimum E for the photons 
  0  = el     ! minimum E for the charged leptons 
 -1   = ejmax ! maximum E for the jets
 -1   = ebmax ! maximum E for the b
 -1   = eamax ! maximum E for the photons
 -1   = elmax ! maximum E for the charged leptons
#*********************************************************************
# Maximum and minimum absolute rapidity (for max, -1 means no cut)   *
#*********************************************************************
   5  = etaj    ! max rap for the jets 
  -1  = etab    ! max rap for the b
 2.5  = etaa    ! max rap for the photons 
 2.5  = etal    ! max rap for the charged leptons 
 0.6  = etaonium ! max rap for the quarkonium states
   0  = etajmin ! min rap for the jets
   0  = etabmin ! min rap for the b
   0  = etaamin ! min rap for the photons
   0  = etalmin ! main rap for the charged leptons
#*********************************************************************
# Minimum and maximum DeltaR distance                                *
#*********************************************************************
 0.4 = drjj    ! min distance between jets 
 0   = drbb    ! min distance between b's 
 0.4 = drll    ! min distance between leptons 
 0.4 = draa    ! min distance between gammas 
 0   = drbj    ! min distance between b and jet 
 0.4 = draj    ! min distance between gamma and jet 
 0.4 = drjl    ! min distance between jet and lepton 
 0   = drab    ! min distance between gamma and b 
 0   = drbl    ! min distance between b and lepton 
 0.4 = dral    ! min distance between gamma and lepton 
 -1  = drjjmax ! max distance between jets
 -1  = drbbmax ! max distance between b's
 -1  = drllmax ! max distance between leptons
 -1  = draamax ! max distance between gammas
 -1  = drbjmax ! max distance between b and jet
 -1  = drajmax ! max distance between gamma and jet
 -1  = drjlmax ! max distance between jet and lepton
 -1  = drabmax ! max distance between gamma and b
 -1  = drblmax ! max distance between b and lepton
 -1  = dralmax ! maxdistance between gamma and lepton
#*********************************************************************
# Minimum and maximum invariant mass for pairs                       *
# WARNING: for four lepton final state mmll cut require to have      *
#          different lepton masses for each flavor!                  *           
#*********************************************************************
 0   = mmjj    ! min invariant mass of a jet pair 
 0   = mmbb    ! min invariant mass of a b pair 
 0   = mmaa    ! min invariant mass of gamma gamma pair
 0   = mmll    ! min invariant mass of l+l- (same flavour) lepton pair
 -1  = mmjjmax ! max invariant mass of a jet pair
 -1  = mmbbmax ! max invariant mass of a b pair
 -1  = mmaamax ! max invariant mass of gamma gamma pair
 -1  = mmllmax ! max invariant mass of l+l- (same flavour) lepton pair
#*********************************************************************
# Minimum and maximum invariant mass for all letpons                 *
#*********************************************************************
 0   = mmnl    ! min invariant mass for all letpons (l+- and vl) 
 -1  = mmnlmax ! max invariant mass for all letpons (l+- and vl) 
#*********************************************************************
# Minimum and maximum pt for 4-momenta sum of leptons                *
#*********************************************************************
 0   = ptllmin  ! Minimum pt for 4-momenta sum of leptons(l and vl)
 -1  = ptllmax  ! Maximum pt for 4-momenta sum of leptons(l and vl)
#*********************************************************************
# Inclusive cuts                                                     *
#*********************************************************************
 0  = xptj ! minimum pt for at least one jet  
 0  = xptb ! minimum pt for at least one b 
 0  = xpta ! minimum pt for at least one photon 
 0  = xptl ! minimum pt for at least one charged lepton 
#*********************************************************************
# Control the pt's of the jets sorted by pt                          *
#*********************************************************************
 0   = ptj1min ! minimum pt for the leading jet in pt
 0   = ptj2min ! minimum pt for the second jet in pt
 0   = ptj3min ! minimum pt for the third jet in pt
 0   = ptj4min ! minimum pt for the fourth jet in pt
 -1  = ptj1max ! maximum pt for the leading jet in pt 
 -1  = ptj2max ! maximum pt for the second jet in pt
 -1  = ptj3max ! maximum pt for the third jet in pt
 -1  = ptj4max ! maximum pt for the fourth jet in pt
 0   = cutuse  ! reject event if fails any (0) / all (1) jet pt cuts
#*********************************************************************
# Control the pt's of leptons sorted by pt                           *
#*********************************************************************
 0   = ptl1min ! minimum pt for the leading lepton in pt
 0   = ptl2min ! minimum pt for the second lepton in pt
 0   = ptl3min ! minimum pt for the third lepton in pt
 0   = ptl4min ! minimum pt for the fourth lepton in pt
 -1  = ptl1max ! maximum pt for the leading lepton in pt 
 -1  = ptl2max ! maximum pt for the second lepton in pt
 -1  = ptl3max ! maximum pt for the third lepton in pt
 -1  = ptl4max ! maximum pt for the fourth lepton in pt
#*********************************************************************
# Control the Ht(k)=Sum of k leading jets                            *
#*********************************************************************
 0   = htjmin ! minimum jet HT=Sum(jet pt)
 -1  = htjmax ! maximum jet HT=Sum(jet pt)
 0   = ihtmin  !inclusive Ht for all partons (including b)
 -1  = ihtmax  !inclusive Ht for all partons (including b)
 0   = ht2min ! minimum Ht for the two leading jets
 0   = ht3min ! minimum Ht for the three leading jets
 0   = ht4min ! minimum Ht for the four leading jets
 -1  = ht2max ! maximum Ht for the two leading jets
 -1  = ht3max ! maximum Ht for the three leading jets
 -1  = ht4max ! maximum Ht for the four leading jets
#***********************************************************************
# Photon-isolation cuts, according to hep-ph/9801442                   *
# When ptgmin=0, all the other parameters are ignored                  *
# When ptgmin>0, pta and draj are not going to be used                 *
#***********************************************************************
   0 = ptgmin ! Min photon transverse momentum
 0.4 = R0gamma ! Radius of isolation code
 1.0 = xn ! n parameter of eq.(3.4) in hep-ph/9801442
 1.0 = epsgamma ! epsilon_gamma parameter of eq.(3.4) in hep-ph/9801442
 .true. = isoEM ! isolate photons from EM energy (photons and leptons)
#*********************************************************************
# WBF cuts                                                           *
#*********************************************************************
 0   = xetamin ! minimum rapidity for two jets in the WBF case  
 0   = deltaeta ! minimum rapidity for two jets in the WBF case 
#*********************************************************************
# KT DURHAM CUT                                                      *
#*********************************************************************
 -1    =  ktdurham        
 0.4  =  dparameter 
#*********************************************************************
# maximal pdg code for quark to be considered as a light jet         *
# (otherwise b cuts are applied)                                     *
#*********************************************************************
 4 = maxjetflavor    ! Maximum jet pdg code
#*********************************************************************
# Jet measure cuts                                                   *
#*********************************************************************
 0   = xqcut   ! minimum kt jet measure between partons
#*********************************************************************
#
#*********************************************************************
# Store info for systematics studies                                 *
# WARNING: If use_syst is T, matched Pythia output is                *
#          meaningful ONLY if plotted taking matchscale              *
#          reweighting into account!                                 *
#*********************************************************************
   F  = use_syst      ! Enable systematics studies
#
#**************************************
# Parameter of the systematics study
#  will be used by SysCalc (if installed)
#**************************************                                  
#
0.5 1 2 = sys_scalefact  # factorization/renormalization scale factor
0.5 1 2 = sys_alpsfact  # \alpha_s emission scale factors
30 50 = sys_matchscale # variation of merging scale
# PDF sets and number of members (0 or none for all members).
CT10nlo.LHgrid = sys_pdf # matching scales
# MSTW2008nlo68cl.LHgrid 1  = sys_pdf
</MGRunCard>
<slha>
######################################################################
## PARAM_CARD AUTOMATICALY GENERATED BY MG5 FOLLOWING UFO MODEL   ####
######################################################################
##                                                                  ##
##  Width set on Auto will be computed following the information    ##
##        present in the decay.py files of the model.               ##
##        See  arXiv:1402.1178 for more details.                    ##
##                                                                  ##
######################################################################

###################################
## INFORMATION FOR CKMBLOCK
###################################
Block ckmblock 
    1 2.277360e-01 # cabi 

###################################
## INFORMATION FOR FRBLOCK
###################################
Block frblock 
    1 1.200000e+00 # gz 

###################################
## INFORMATION FOR MASS
###################################
Block mass 
    1 5.040000e-03 # MD 
    2 2.550000e-03 # MU 
    3 1.010000e-01 # MS 
    4 1.270000e+00 # MC 
    5 4.700000e+00 # MB 
    6 1.720000e+02 # MT 
   11 5.110000e-04 # Me 
   13 1.056600e-01 # MM 
   15 1.777000e+00 # MTA 
   23 9.118760e+01 # MZ 
   25 1.200000e+02 # MH 
  10030 3.100000e+03 # MZph 
  10031 3.000000e+02 # MZpl 
## Dependent parameters, given by model restrictions.
## Those values should be edited following the 
## analytical expression. MG5 ignores those values 
## but they are important for interfacing the output of MG5
## to external program such as Pythia.
  12 0.000000 # ve : 0.0 
  14 0.000000 # vm : 0.0 
  16 0.000000 # vt : 0.0 
  21 0.000000 # g : 0.0 
  22 0.000000 # a : 0.0 
  24 79.824360 # w+ : cmath.sqrt(MZ__exp__2/2. + cmath.sqrt(MZ__exp__4/4. - (aEW*cmath.pi*MZ__exp__2)/(Gf*sqrt__2))) 

###################################
## INFORMATION FOR SMINPUTS
###################################
Block sminputs 
    1 1.279000e+02 # aEWM1 
    2 1.166370e-05 # Gf 
    3 1.184000e-01 # aS 

###################################
## INFORMATION FOR YUKAWA
###################################
Block yukawa 
    1 5.040000e-03 # ymdo 
    2 2.550000e-03 # ymup 
    3 1.010000e-01 # yms 
    4 1.270000e+00 # ymc 
    5 4.700000e+00 # ymb 
    6 1.720000e+02 # ymt 
   11 5.110000e-04 # yme 
   13 1.056600e-01 # ymm 
   15 1.777000e+00 # ymtau 

###################################
## INFORMATION FOR DECAY
###################################
DECAY   6 1.508336e+00 # WT 
DECAY  23 2.495200e+00 # WZ 
DECAY  24 2.085000e+00 # WW 
DECAY  25 5.753088e-03 # WH 
## Dependent parameters, given by model restrictions.
## Those values should be edited following the 
## analytical expression. MG5 ignores those values 
## but they are important for interfacing the output of MG5
## to external program such as Pythia.
DECAY  1 0.000000 # d : 0.0 
DECAY  2 0.000000 # u : 0.0 
DECAY  3 0.000000 # s : 0.0 
DECAY  4 0.000000 # c : 0.0 
DECAY  5 0.000000 # b : 0.0 
DECAY  11 0.000000 # e- : 0.0 
DECAY  12 0.000000 # ve : 0.0 
DECAY  13 0.000000 # mu- : 0.0 
DECAY  14 0.000000 # vm : 0.0 
DECAY  15 0.000000 # ta- : 0.0 
DECAY  16 0.000000 # vt : 0.0 
DECAY  21 0.000000 # g : 0.0 
DECAY  22 0.000000 # a : 0.0 
DECAY  10030 0.308725 # zph : (gz__exp__2*MZph*(5 + cmath.sqrt(1 - (4*MT__exp__2)/MZph__exp__2)))/(144.*cmath.pi) 
DECAY  10031 0.132629 # zpl : (5*gz__exp__2*MZpl)/(144.*cmath.pi) 
#===========================================================
# QUANTUM NUMBERS OF NEW STATE(S) (NON SM PDG CODE)
#===========================================================

Block QNUMBERS 10030  # zph 
        1 0  # 3 times electric charge
        2 3  # number of spin states (2S+1)
        3 1  # colour rep (1: singlet, 3: triplet, 8: octet)
        4 0  # Particle/Antiparticle distinction (0=own anti)
Block QNUMBERS 10031  # zpl 
        1 0  # 3 times electric charge
        2 3  # number of spin states (2S+1)
        3 1  # colour rep (1: singlet, 3: triplet, 8: octet)
        4 0  # Particle/Antiparticle distinction (0=own anti)
</slha>
## END BANNER##
<MGGenerationInfo>
#  Number of Events        :         3860
#  Integrated weight (pb)  :  0.13199E-02
#  Max wgt                 :  0.53284E-06
#  Average wgt             :  0.34194E-06
</MGGenerationInfo>
</header>
<init>
     2212     2212  0.40000000000E+04  0.40000000000E+04 0 0  247000  247000 2   1
  0.13203110184E-02  0.28499872131E-05  0.53283680000E-06   0
</init>
<event>
 5   0  0.5328368E-06  0.3130589E+04  0.7818609E-02  0.8207393E-01
       -2   -1    0    0    0  501  0.00000000000E+00  0.00000000000E+00  0.12228330242E+04  0.12228330242E+04  0.25500000920E-02 0.  1.
        2   -1    0    0  501    0  0.00000000000E+00  0.00000000000E+00 -0.20036643277E+04  0.20036643277E+04  0.25500000920E-02 0. -1.
    10030    2    1    2    0    0  0.00000000000E+00  0.00000000000E+00 -0.78083130348E+03  0.32264973519E+04  0.31305890240E+04 0.  0.
        1    1    3    3  502    0  0.11872589711E+04 -0.10199721611E+04 -0.37513456284E+03  0.16095505627E+04  0.50400001928E-02 0. -1.
       -1    1    3    3    0  502 -0.11872589711E+04  0.10199721611E+04 -0.40569674063E+03  0.16169467892E+04  0.50400001928E-02 0.  1.
</event>
<event>
 5   0  0.5328368E-06  0.2618782E+04  0.7818609E-02  0.8361849E-01
       -2   -1    0    0    0  501  0.00000000000E+00  0.00000000000E+00  0.13640438946E+04  0.13640438946E+04  0.25500000920E-02 0. -1.
        2   -1    0    0  501    0  0.00000000000E+00  0.00000000000E+00 -0.12569281750E+04  0.12569281750E+04  0.25500000920E-02 0.  1.
    10030    2    1    2    0    0  0.00000000000E+00  0.00000000000E+00  0.10711571959E+03  0.26209720696E+04  0.26187823148E+04 0.  0.
        1    1    3    3  502    0  0.48724318218E+03  0.74397197335E+03 -0.90828943577E+03  0.12711765868E+04  0.50400001928E-02 0.  1.
       -1    1    3    3    0  502 -0.48724318218E+03 -0.74397197335E+03  0.10154051554E+04  0.13497954828E+04  0.50400001928E-02 0. -1.
</event>
<event>
 5   0  0.5001658E-06  0.3141940E+04  0.7818609E-02  0.8204321E-01
        2   -1    0    0  501    0  0.00000000000E+00  0.00000000000E+00  0.17721429555E+04  0.17721429555E+04  0.25500000920E-02 0.  1.
       -2   -1    0    0    0  501  0.00000000000E+00  0.00000000000E+00 -0.13926339445E+04  0.13926339445E+04  0.25500000920E-02 0. -1.
    10030    2    1    2    0    0  0.00000000000E+00  0.00000000000E+00  0.37950901108E+03  0.31647769000E+04  0.31419398048E+04 0.  0.
        3    1    3    3  502    0  0.12706803628E+04 -0.46541038702E+03  0.99349605534E+03  0.16787703342E+04  0.10100000352E+00 0.  1.
       -3    1    3    3    0  502 -0.12706803628E+04  0.46541038702E+03 -0.61398704426E+03  0.14860065658E+04  0.10100000352E+00 0. -1.
</event>
<event>
 5   0  0.5328368E-06  0.3018994E+04  0.7818609E-02  0.8238328E-01
        2   -1    0    0  501    0  0.00000000000E+00  0.00000000000E+00  0.26991045906E+04  0.26991045906E+04  0.25500000920E-02 0.  1.
       -2   -1    0    0    0  501  0.00000000000E+00  0.00000000000E+00 -0.84419898599E+03  0.84419898599E+03  0.25500000920E-02 0. -1.
    10030    2    1    2    0    0  0.00000000000E+00  0.00000000000E+00  0.18549056046E+04  0.35433035766E+04  0.30189941096E+04 0.  0.
        1    1    3    3  502    0 -0.11273543583E+04 -0.53667185290E+03  0.19230938390E+04  0.22928659883E+04  0.50400001928E-02 0.  1.
       -1    1    3    3    0  502  0.11273543583E+04  0.53667185290E+03 -0.68188234360E+02  0.12504375883E+04  0.50400001928E-02 0. -1.
</event>
<event>
 5   0  0.5001658E-06  0.3078899E+04  0.7818609E-02  0.8221553E-01
       -2   -1    0    0    0  501  0.00000000000E+00  0.00000000000E+00  0.91691200570E+03  0.91691200570E+03  0.25500000920E-02 0. -1.
        2   -1    0    0  501    0  0.00000000000E+00  0.00000000000E+00 -0.25846586712E+04  0.25846586712E+04  0.25500000920E-02 0.  1.
    10030    2    1    2    0    0  0.00000000000E+00  0.00000000000E+00 -0.16677466655E+04  0.35015706769E+04  0.30788988722E+04 0.  0.
        3    1    3    3  502    0 -0.88773310736E+03 -0.11639494054E+04 -0.29195453002E+03  0.14926773750E+04  0.10100000352E+00 0. -1.
       -3    1    3    3    0  502  0.88773310736E+03  0.11639494054E+04 -0.13757921355E+04  0.20088933019E+04  0.10100000352E+00 0.  1.
</event>
<event>
 5   0  0.1840431E-06  0.2261060E+04  0.7818609E-02  0.8493435E-01
       -1   -1    0    0    0  501  0.00000000000E+00  0.00000000000E+00  0.96813713654E+03  0.96813713656E+03  0.50400001928E-02 0. -1.
        1   -1    0    0  501    0  0.00000000000E+00  0.00000000000E+00 -0.13201625719E+04  0.13201625720E+04  0.50400001928E-02 0.  1.
    10030    2    1    2    0    0  0.00000000000E+00  0.00000000000E+00 -0.35202543540E+03  0.22882997085E+04  0.22610602930E+04 0.  0.
        1    1    3    3  502    0 -0.16765394247E+03 -0.11007021874E+04 -0.37444950032E+03  0.11746767973E+04  0.50400001928E-02 0.  1.
       -1    1    3    3    0  502  0.16765394247E+03  0.11007021874E+04  0.22424064916E+02  0.11136229112E+04  0.50400001928E-02 0. -1.
</event>
<event>
 5   0  0.1885307E-06  0.3021875E+04  0.7818609E-02  0.8237512E-01
        1   -1    0    0  501    0  0.00000000000E+00  0.00000000000E+00  0.15482025954E+04  0.15482025954E+04  0.50400001928E-02 0. -1.
       -1   -1    0    0    0  501  0.00000000000E+00  0.00000000000E+00 -0.14745697343E+04  0.14745697343E+04  0.50400001928E-02 0.  1.
    10030    2    1    2    0    0  0.00000000000E+00  0.00000000000E+00  0.73632861147E+02  0.30227723297E+04  0.30218753712E+04 0.  0.
        3    1    3    3  502    0 -0.13486801718E+04 -0.46254908574E+03  0.53700766942E+03  0.15235705135E+04  0.10100000352E+00 0. -1.
       -3    1    3    3    0  502  0.13486801718E+04  0.46254908574E+03 -0.46337480827E+03  0.14992018162E+04  0.10100000352E+00 0.  1.
</event>
<event>
 5   0  0.5328368E-06  0.2976526E+04  0.7818609E-02  0.8250466E-01
       -2   -1    0    0    0  501  0.00000000000E+00  0.00000000000E+00  0.12097690329E+04  0.12097690329E+04  0.25500000920E-02 0. -1.
        2   -1    0    0  501    0  0.00000000000E+00  0.00000000000E+00 -0.18308676908E+04  0.18308676908E+04  0.25500000920E-02 0.  1.
    10030    2    1    2    0    0  0.00000000000E+00  0.00000000000E+00 -0.62109865795E+03  0.30406367237E+04  0.29765261871E+04 0.  0.
        1    1    3    3  502    0 -0.55409387763E+03  0.40624159128E+03 -0.16591641290E+04  0.17957944935E+04  0.50400001928E-02 0.  1.
       -1    1    3    3    0  502  0.55409387763E+03 -0.40624159128E+03  0.10380654711E+04  0.12448422302E+04  0.50400001928E-02 0. -1.
</event>
<event>
 5   0  0.1836401E-06  0.3107979E+04  0.7818609E-02  0.8213552E-01
       -1   -1    0    0    0  501  0.00000000000E+00  0.00000000000E+00  0.17364532833E+04  0.17364532833E+04  0.50400001928E-02 0. -1.
        1   -1    0    0  501    0  0.00000000000E+00  0.00000000000E+00 -0.13906986605E+04  0.13906986605E+04  0.50400001928E-02 0.  1.
    10030    2    1    2    0    0  0.00000000000E+00  0.00000000000E+00  0.34575462287E+03  0.31271519438E+04  0.31079789286E+04 0.  0.
        2    1    3    3  502    0 -0.10932222673E+04 -0.11025119089E+04  0.10754741771E+03  0.15563527499E+04  0.25500000920E-02 0. -1.
       -2    1    3    3    0  502  0.10932222673E+04  0.11025119089E+04  0.23820720517E+03  0.15707991939E+04  0.25500000920E-02 0.  1.
</event>
<event>
 5   0  0.5328368E-06  0.3123008E+04  0.7818609E-02  0.8209452E-01
        2   -1    0    0  501    0  0.00000000000E+00  0.00000000000E+00  0.15748429706E+04  0.15748429707E+04  0.25500000920E-02 0.  1.
       -2   -1    0    0    0  501  0.00000000000E+00  0.00000000000E+00 -0.15482779236E+04  0.15482779236E+04  0.25500000920E-02 0. -1.
    10030    2    1    2    0    0  0.00000000000E+00  0.00000000000E+00  0.26565047045E+02  0.31231208943E+04  0.31230079120E+04 0.  0.
        1    1    3    3  502    0 -0.30066897606E+03 -0.12721914087E+03  0.15403309101E+04  0.15745494135E+04  0.50400001928E-02 0.  1.
       -1    1    3    3    0  502  0.30066897606E+03  0.12721914087E+03 -0.15137658630E+04  0.15485714808E+04  0.50400001928E-02 0. -1.
</event>
<event>
 5   0  0.1836401E-06  0.3106863E+04  0.7818609E-02  0.8213857E-01
       -1   -1    0    0    0  501  0.00000000000E+00  0.00000000000E+00  0.17514136211E+04  0.17514136211E+04  0.50400001928E-02 0. -1.
        1   -1    0    0  501    0  0.00000000000E+00  0.00000000000E+00 -0.13778299642E+04  0.13778299642E+04  0.50400001928E-02 0.  1.
    10030    2    1    2    0    0  0.00000000000E+00  0.00000000000E+00  0.37358365686E+03  0.31292435853E+04  0.31068634775E+04 0.  0.
        2    1    3    3  502    0 -0.46614941086E+03 -0.12472474307E+04  0.99269856083E+03  0.16608346876E+04  0.25500000920E-02 0. -1.
       -2    1    3    3    0  502  0.46614941086E+03  0.12472474307E+04 -0.61911490397E+03  0.14684088978E+04  0.25500000920E-02 0.  1.
</event>
<event>
 5   0  0.4927533E-06  0.3062241E+04  0.7818609E-02  0.8226178E-01
       -2   -1    0    0    0  501  0.00000000000E+00  0.00000000000E+00  0.14943635123E+04  0.14943635123E+04  0.25500000920E-02 0. -1.
        2   -1    0    0  501    0  0.00000000000E+00  0.00000000000E+00 -0.15687818304E+04  0.15687818304E+04  0.25500000920E-02 0.  1.
    10030    2    1    2    0    0  0.00000000000E+00  0.00000000000E+00 -0.74418318144E+02  0.30631453427E+04  0.30622412225E+04 0.  0.
        5    1    3    3  502    0 -0.25148471801E+03  0.14342316074E+04  0.43626278859E+03  0.15200697937E+04  0.46999998093E+01 0.  1.
       -5    1    3    3    0  502  0.25148471801E+03 -0.14342316074E+04 -0.51068110674E+03  0.15430755490E+04  0.46999998093E+01 0. -1.
</event>
<event>
 5   0  0.1853742E-06  0.3075245E+04  0.7818609E-02  0.8222565E-01
       -1   -1    0    0    0  501  0.00000000000E+00  0.00000000000E+00  0.16412451036E+04  0.16412451036E+04  0.50400001928E-02 0. -1.
        1   -1    0    0  501    0  0.00000000000E+00  0.00000000000E+00 -0.14405427033E+04  0.14405427033E+04  0.50400001928E-02 0.  1.
    10030    2    1    2    0    0  0.00000000000E+00  0.00000000000E+00  0.20070240035E+03  0.30817878069E+04  0.30752454590E+04 0.  0.
        5    1    3    3  502    0 -0.11269815873E+04  0.63408626951E+03 -0.73334935833E+03  0.14865988923E+04  0.46999998093E+01 0.  1.
       -5    1    3    3    0  502  0.11269815873E+04 -0.63408626951E+03  0.93405175869E+03  0.15951889146E+04  0.46999998093E+01 0. -1.
</event>
<event>
 5   0  0.1840431E-06  0.3052304E+04  0.7818609E-02  0.8228951E-01
        1   -1    0    0  501    0  0.00000000000E+00  0.00000000000E+00  0.22835446145E+04  0.22835446145E+04  0.50400001928E-02 0.  1.
       -1   -1    0    0    0  501  0.00000000000E+00  0.00000000000E+00 -0.10199668273E+04  0.10199668273E+04  0.50400001928E-02 0. -1.
    10030    2    1    2    0    0  0.00000000000E+00  0.00000000000E+00  0.12635777872E+04  0.33035114419E+04  0.30523038876E+04 0.  0.
        1    1    3    3  502    0 -0.52427015758E+03  0.12416963031E+04  0.14065764346E+04  0.19481083578E+04  0.50400001928E-02 0.  1.
       -1    1    3    3    0  502  0.52427015758E+03 -0.12416963031E+04 -0.14299864744E+03  0.13554030841E+04  0.50400001928E-02 0. -1.
</event>
<event>
 5   0  0.1885307E-06  0.3143622E+04  0.7818609E-02  0.8203867E-01
       -1   -1    0    0    0  501  0.00000000000E+00  0.00000000000E+00  0.11744197772E+04  0.11744197772E+04  0.50400001928E-02 0.  1.
        1   -1    0    0  501    0  0.00000000000E+00  0.00000000000E+00 -0.21036677917E+04  0.21036677917E+04  0.50400001928E-02 0. -1.
    10030    2    1    2    0    0  0.00000000000E+00  0.00000000000E+00 -0.92924801442E+03  0.32780875689E+04  0.31436215162E+04 0.  0.
        3    1    3    3  502    0  0.70080982080E+03 -0.13929061372E+04 -0.25798851556E+03  0.15804682839E+04  0.10100000352E+00 0.  1.
       -3    1    3    3    0  502 -0.70080982080E+03  0.13929061372E+04 -0.67125949887E+03  0.16976192850E+04  0.10100000352E+00 0. -1.
</event>
<event>
 5   0  0.1885307E-06  0.3054543E+04  0.7818609E-02  0.8228325E-01
       -1   -1    0    0    0  501  0.00000000000E+00  0.00000000000E+00  0.11696911211E+04  0.11696911211E+04  0.50400001928E-02 0.  1.
        1   -1    0    0  501    0  0.00000000000E+00  0.00000000000E+00 -0.19941662127E+04  0.19941662127E+04  0.50400001928E-02 0. -1.
    10030    2    1    2    0    0  0.00000000000E+00  0.00000000000E+00 -0.82447509157E+03  0.31638573339E+04  0.30545431823E+04 0.  0.
        3    1    3    3  502    0 -0.40661253620E+03 -0.42756094561E+03 -0.18713441560E+04  0.19621597991E+04  0.10100000352E+00 0. -1.
       -3    1    3    3    0  502  0.40661253620E+03  0.42756094561E+03  0.10468690644E+04  0.12016975348E+04  0.10100000352E+00 0.  1.
</event>
<event>
 5   0  0.5328368E-06  0.3007503E+04  0.7818609E-02  0.8241592E-01
       -2   -1    0    0    0  501  0.00000000000E+00  0.00000000000E+00  0.12277182740E+04  0.12277182740E+04  0.25500000920E-02 0. -1.
        2   -1    0    0  501    0  0.00000000000E+00  0.00000000000E+00 -0.18418462543E+04  0.18418462543E+04  0.25500000920E-02 0.  1.
    10030    2    1    2    0    0  0.00000000000E+00  0.00000000000E+00 -0.61412798037E+03  0.30695645283E+04  0.30075028208E+04 0.  0.
        1    1    3    3  502    0  0.14591028638E+04  0.95209869026E+02 -0.66533794278E+03  0.16064621578E+04  0.50400001928E-02 0. -1.
       -1    1    3    3    0  502 -0.14591028638E+04 -0.95209869026E+02  0.51209962409E+02  0.14631023705E+04  0.50400001928E-02 0.  1.
</event>
<event>
 5   0  0.1843709E-06  0.3105660E+04  0.7818609E-02  0.8214186E-01
       -1   -1    0    0    0  501  0.00000000000E+00  0.00000000000E+00  0.10842151294E+04  0.10842151294E+04  0.50400001928E-02 0. -1.
        1   -1    0    0  501    0  0.00000000000E+00  0.00000000000E+00 -0.22239880033E+04  0.22239880033E+04  0.50400001928E-02 0.  1.
    10030    2    1    2    0    0  0.00000000000E+00  0.00000000000E+00 -0.11397728739E+04  0.33082031327E+04  0.31056602782E+04 0.  0.
        4    1    3    3  502    0 -0.11247249947E+04  0.33029036685E+03 -0.16547263677E+04  0.20278606966E+04  0.12699999809E+01 0.  1.
       -4    1    3    3    0  502  0.11247249947E+04 -0.33029036685E+03  0.51495349381E+03  0.12803424361E+04  0.12699999809E+01 0. -1.
</event>
<event>
 5   0  0.1840431E-06  0.3048645E+04  0.7818609E-02  0.8229975E-01
       -1   -1    0    0    0  501  0.00000000000E+00  0.00000000000E+00  0.11671103977E+04  0.11671103977E+04  0.50400001928E-02 0.  1.
        1   -1    0    0  501    0  0.00000000000E+00  0.00000000000E+00 -0.19908650948E+04  0.19908650948E+04  0.50400001928E-02 0. -1.
    10030    2    1    2    0    0  0.00000000000E+00  0.00000000000E+00 -0.82375469712E+03  0.31579754926E+04  0.30486451762E+04 0.  0.
        1    1    3    3  502    0 -0.10736500438E+04 -0.66587222124E+03  0.47161580043E+03  0.13485294564E+04  0.50400001928E-02 0.  1.
       -1    1    3    3    0  502  0.10736500438E+04  0.66587222124E+03 -0.12953704976E+04  0.18094460361E+04  0.50400001928E-02 0. -1.
</event>
<event>
 5   0  0.5114870E-06  0.3062077E+04  0.7818609E-02  0.8226223E-01
       -2   -1    0    0    0  501  0.00000000000E+00  0.00000000000E+00  0.10064311906E+04  0.10064311906E+04  0.25500000920E-02 0. -1.
        2   -1    0    0  501    0  0.00000000000E+00  0.00000000000E+00 -0.23290995183E+04  0.23290995183E+04  0.25500000920E-02 0.  1.
    10030    2    1    2    0    0  0.00000000000E+00  0.00000000000E+00 -0.13226683277E+04  0.33355307089E+04  0.30620766818E+04 0.  0.
        2    1    3    3  502    0 -0.80232789572E+02 -0.94419348873E+03  0.64861370892E+03  0.11483198109E+04  0.25500000920E-02 0. -1.
       -2    1    3    3    0  502  0.80232789572E+02  0.94419348873E+03 -0.19712820366E+04  0.21872108981E+04  0.25500000920E-02 0.  1.
</event>
<event>
 5   0  0.1885307E-06  0.3118259E+04  0.7818609E-02  0.8210745E-01
       -1   -1    0    0    0  501  0.00000000000E+00  0.00000000000E+00  0.78245728139E+03  0.78245728141E+03  0.50400001928E-02 0. -1.
        1   -1    0    0  501    0  0.00000000000E+00  0.00000000000E+00 -0.31067325904E+04  0.31067325904E+04  0.50400001928E-02 0.  1.
    10030    2    1    2    0    0  0.00000000000E+00  0.00000000000E+00 -0.23242753090E+04  0.38891898718E+04  0.31182594740E+04 0.  0.
        3    1    3    3  502    0  0.15264150450E+04 -0.14869631605E+03 -0.15123232556E+04  0.21538744447E+04  0.10100000352E+00 0. -1.
       -3    1    3    3    0  502 -0.15264150450E+04  0.14869631605E+03 -0.81195205341E+03  0.17353154271E+04  0.10100000352E+00 0.  1.
</event>
<event>
 5   0  0.5001658E-06  0.3101023E+04  0.7818609E-02  0.8215457E-01
        2   -1    0    0  501    0  0.00000000000E+00  0.00000000000E+00  0.23316083403E+04  0.23316083403E+04  0.25500000920E-02 0. -1.
       -2   -1    0    0    0  501  0.00000000000E+00  0.00000000000E+00 -0.10310851135E+04  0.10310851135E+04  0.25500000920E-02 0.  1.
    10030    2    1    2    0    0  0.00000000000E+00  0.00000000000E+00  0.13005232268E+04  0.33626934537E+04  0.31010234763E+04 0.  0.
        3    1    3    3  502    0  0.93451603562E+03  0.51629994897E+03  0.18695045594E+04  0.21528894923E+04  0.10100000352E+00 0. -1.
       -3    1    3    3    0  502 -0.93451603562E+03 -0.51629994897E+03 -0.56898133261E+03  0.12098039615E+04  0.10100000352E+00 0.  1.
</event>
<event>
 5   0  0.1840431E-06  0.2975372E+04  0.7818609E-02  0.8250799E-01
        1   -1    0    0  501    0  0.00000000000E+00  0.00000000000E+00  0.14513104020E+04  0.14513104020E+04  0.50400001928E-02 0. -1.
       -1   -1    0    0    0  501  0.00000000000E+00  0.00000000000E+00 -0.15249734623E+04  0.15249734623E+04  0.50400001928E-02 0.  1.
    10030    2    1    2    0    0  0.00000000000E+00  0.00000000000E+00 -0.73663060310E+02  0.29762838643E+04  0.29753721439E+04 0.  0.
        1    1    3    3  502    0 -0.30904138011E+03  0.12500450786E+04 -0.78210383735E+03  0.15065874304E+04  0.50400001928E-02 0.  1.
       -1    1    3    3    0  502  0.30904138011E+03 -0.12500450786E+04  0.70844077704E+03  0.14696964339E+04  0.50400001928E-02 0. -1.
</event>
<event>
 5   0  0.5114870E-06  0.3051843E+04  0.7818609E-02  0.8229080E-01
        2   -1    0    0  501    0  0.00000000000E+00  0.00000000000E+00  0.32808135144E+04  0.32808135144E+04  0.25500000920E-02 0. -1.
       -2   -1    0    0    0  501  0.00000000000E+00  0.00000000000E+00 -0.70971325791E+03  0.70971325792E+03  0.25500000920E-02 0.  1.
    10030    2    1    2    0    0  0.00000000000E+00  0.00000000000E+00  0.25711002565E+04  0.39905267724E+04  0.30518432777E+04 0.  0.
        2    1    3    3  502    0 -0.93653491733E+03 -0.38281968624E+03  0.27791629246E+04  0.29575995545E+04  0.25500000920E-02 0. -1.
       -2    1    3    3    0  502  0.93653491733E+03  0.38281968624E+03 -0.20806266803E+03  0.10329272179E+04  0.25500000920E-02 0.  1.
</event>
<event>
 5   0  0.1836401E-06  0.3118281E+04  0.7818609E-02  0.8210739E-01
       -1   -1    0    0    0  501  0.00000000000E+00  0.00000000000E+00  0.11325978796E+04  0.11325978796E+04  0.50400001928E-02 0.  1.
        1   -1    0    0  501    0  0.00000000000E+00  0.00000000000E+00 -0.21463213677E+04  0.21463213677E+04  0.50400001928E-02 0. -1.
    10030    2    1    2    0    0  0.00000000000E+00  0.00000000000E+00 -0.10137234881E+04  0.32789192473E+04  0.31182809559E+04 0.  0.
        2    1    3    3  502    0 -0.92599857208E+03  0.49488890073E+03 -0.17188579712E+04  0.20141651136E+04  0.25500000920E-02 0. -1.
       -2    1    3    3    0  502  0.92599857208E+03 -0.49488890073E+03  0.70513448310E+03  0.12647541337E+04  0.25500000920E-02 0.  1.
</event>
<event>
 5   0  0.5001658E-06  0.3274842E+04  0.7818609E-02  0.8169327E-01
        2   -1    0    0  501    0  0.00000000000E+00  0.00000000000E+00  0.16922355946E+04  0.16922355946E+04  0.25500000920E-02 0. -1.
       -2   -1    0    0    0  501  0.00000000000E+00  0.00000000000E+00 -0.15843816123E+04  0.15843816123E+04  0.25500000920E-02 0.  1.
    10030    2    1    2    0    0  0.00000000000E+00  0.00000000000E+00  0.10785398226E+03  0.32766172069E+04  0.32748416509E+04 0.  0.
        3    1    3    3  502    0 -0.12153689326E+04 -0.10818848776E+04  0.23719403485E+03  0.16443410690E+04  0.10100000352E+00 0.  1.
       -3    1    3    3    0  502  0.12153689326E+04  0.10818848776E+04 -0.12934005259E+03  0.16322761379E+04  0.10100000352E+00 0. -1.
</event>
<event>
 5   0  0.4927533E-06  0.3026473E+04  0.7818609E-02  0.8236211E-01
        2   -1    0    0  501    0  0.00000000000E+00  0.00000000000E+00  0.22188571915E+04  0.22188571915E+04  0.25500000920E-02 0. -1.
       -2   -1    0    0    0  501  0.00000000000E+00  0.00000000000E+00 -0.10320109881E+04  0.10320109881E+04  0.25500000920E-02 0.  1.
    10030    2    1    2    0    0  0.00000000000E+00  0.00000000000E+00  0.11868462034E+04  0.32508681796E+04  0.30264731967E+04 0.  0.
        5    1    3    3  502    0  0.98782086236E+03 -0.54587208799E+03 -0.48933142855E+03  0.12301356549E+04  0.46999998093E+01 0.  1.
       -5    1    3    3    0  502 -0.98782086236E+03  0.54587208799E+03  0.16761776319E+04  0.20207325247E+04  0.46999998093E+01 0. -1.
</event>
<event>
 5   0  0.1836401E-06  0.3127638E+04  0.7818609E-02  0.8208194E-01
       -1   -1    0    0    0  501  0.00000000000E+00  0.00000000000E+00  0.21778959553E+04  0.21778959553E+04  0.50400001928E-02 0. -1.
        1   -1    0    0  501    0  0.00000000000E+00  0.00000000000E+00 -0.11228866541E+04  0.11228866541E+04  0.50400001928E-02 0.  1.
    10030    2    1    2    0    0  0.00000000000E+00  0.00000000000E+00  0.10550093012E+04  0.33007826095E+04  0.31276382798E+04 0.  0.
        2    1    3    3  502    0 -0.51683137829E+03 -0.43988948400E+03 -0.95935893877E+03  0.11751540346E+04  0.25500000920E-02 0.  1.
       -2    1    3    3    0  502  0.51683137829E+03  0.43988948400E+03  0.20143682400E+04  0.21256285748E+04  0.25500000920E-02 0. -1.
</event>
<event>
 5   0  0.5001658E-06  0.3077667E+04  0.7818609E-02  0.8221894E-01
        2   -1    0    0  501    0  0.00000000000E+00  0.00000000000E+00  0.24944037347E+04  0.24944037347E+04  0.25500000920E-02 0.  1.
       -2   -1    0    0    0  501  0.00000000000E+00  0.00000000000E+00 -0.94932829262E+03  0.94932829262E+03  0.25500000920E-02 0. -1.
    10030    2    1    2    0    0  0.00000000000E+00  0.00000000000E+00  0.15450754421E+04  0.34437320273E+04  0.30776666737E+04 0.  0.
        3    1    3    3  502    0  0.26728901450E+03 -0.17613898960E+03  0.24567374889E+04  0.24775042806E+04  0.10100000352E+00 0.  1.
       -3    1    3    3    0  502 -0.26728901450E+03  0.17613898960E+03 -0.91166204675E+03  0.96622774676E+03  0.10100000352E+00 0. -1.
</event>
<event>
 5   0  0.5328368E-06  0.3179336E+04  0.7818609E-02  0.8194296E-01
       -2   -1    0    0    0  501  0.00000000000E+00  0.00000000000E+00  0.13986605795E+04  0.13986605795E+04  0.25500000920E-02 0.  1.
        2   -1    0    0  501    0  0.00000000000E+00  0.00000000000E+00 -0.18067607880E+04  0.18067607880E+04  0.25500000920E-02 0. -1.
    10030    2    1    2    0    0  0.00000000000E+00  0.00000000000E+00 -0.40810020849E+03  0.32054213674E+04  0.31793364658E+04 0.  0.
        1    1    3    3  502    0  0.29366786722E+02  0.11886823008E+04 -0.12677976350E+04  0.17381423600E+04  0.50400001928E-02 0. -1.
       -1    1    3    3    0  502 -0.29366786722E+02 -0.11886823008E+04  0.85969742650E+03  0.14672790074E+04  0.50400001928E-02 0.  1.
</event>
<event>
 5   0  0.1853742E-06  0.3097761E+04  0.7818609E-02  0.8216353E-01
        1   -1    0    0  501    0  0.00000000000E+00  0.00000000000E+00  0.20055049262E+04  0.20055049262E+04  0.50400001928E-02 0.  1.
       -1   -1    0    0    0  501  0.00000000000E+00  0.00000000000E+00 -0.11962226737E+04  0.11962226737E+04  0.50400001928E-02 0. -1.
    10030    2    1    2    0    0  0.00000000000E+00  0.00000000000E+00  0.80928225252E+03  0.32017275999E+04  0.30977607815E+04 0.  0.
        5    1    3    3  502    0  0.63440862691E+03  0.13372335463E+04  0.87640357153E+03  0.17201084772E+04  0.46999998093E+01 0. -1.
       -5    1    3    3    0  502 -0.63440862691E+03 -0.13372335463E+04 -0.67121319007E+02  0.14816191227E+04  0.46999998093E+01 0.  1.
</event>
<event>
 5   0  0.5001658E-06  0.3057187E+04  0.7818609E-02  0.8227587E-01
        2   -1    0    0  501    0  0.00000000000E+00  0.00000000000E+00  0.21344448587E+04  0.21344448587E+04  0.25500000920E-02 0. -1.
       -2   -1    0    0    0  501  0.00000000000E+00  0.00000000000E+00 -0.10947100594E+04  0.10947100594E+04  0.25500000920E-02 0.  1.
    10030    2    1    2    0    0  0.00000000000E+00  0.00000000000E+00  0.10397347993E+04  0.32291549181E+04  0.30571871111E+04 0.  0.
        3    1    3    3  502    0 -0.88908718016E+03 -0.60021570843E+03 -0.63036125334E+03  0.12442227415E+04  0.10100000352E+00 0.  1.
       -3    1    3    3    0  502  0.88908718016E+03  0.60021570843E+03  0.16700960527E+04  0.19849321766E+04  0.10100000352E+00 0. -1.
</event>
<event>
 5   0  0.1843709E-06  0.3140379E+04  0.7818609E-02  0.8204743E-01
        1   -1    0    0  501    0  0.00000000000E+00  0.00000000000E+00  0.28758636136E+04  0.28758636136E+04  0.50400001928E-02 0.  1.
       -1   -1    0    0    0  501  0.00000000000E+00  0.00000000000E+00 -0.85730611550E+03  0.85730611552E+03  0.50400001928E-02 0. -1.
    10030    2    1    2    0    0  0.00000000000E+00  0.00000000000E+00  0.20185574981E+04  0.37331697291E+04  0.31403792531E+04 0.  0.
        4    1    3    3  502    0  0.40860410332E+03  0.25035584521E+03  0.27868122414E+04  0.28277127584E+04  0.12699999809E+01 0.  1.
       -4    1    3    3    0  502 -0.40860410332E+03 -0.25035584521E+03 -0.76825474324E+03  0.90545697076E+03  0.12699999809E+01 0. -1.
</event>
<event>
 5   0  0.1840431E-06  0.3204559E+04  0.7818609E-02  0.8187614E-01
       -1   -1    0    0    0  501  0.00000000000E+00  0.00000000000E+00  0.19805098611E+04  0.19805098611E+04  0.50400001928E-02 0.  1.
        1   -1    0    0  501    0  0.00000000000E+00  0.00000000000E+00 -0.12962820233E+04  0.12962820233E+04  0.50400001928E-02 0. -1.
    10030    2    1    2    0    0  0.00000000000E+00  0.00000000000E+00  0.68422783781E+03  0.32767918845E+04  0.32045588339E+04 0.  0.
        1    1    3    3  502    0  0.46633605355E+03 -0.15051415791E+04  0.63914191853E+03  0.17004184426E+04  0.50400001928E-02 0. -1.
       -1    1    3    3    0  502 -0.46633605355E+03  0.15051415791E+04  0.45085919278E+02  0.15763734418E+04  0.50400001928E-02 0.  1.
</event>
<event>
 5   0  0.1853742E-06  0.3130526E+04  0.7818609E-02  0.8207410E-01
       -1   -1    0    0    0  501  0.00000000000E+00  0.00000000000E+00  0.10250845348E+04  0.10250845348E+04  0.50400001928E-02 0.  1.
        1   -1    0    0  501    0  0.00000000000E+00  0.00000000000E+00 -0.23900944922E+04  0.23900944922E+04  0.50400001928E-02 0. -1.
    10030    2    1    2    0    0  0.00000000000E+00  0.00000000000E+00 -0.13650099574E+04  0.34151790270E+04  0.31305264098E+04 0.  0.
        5    1    3    3  502    0  0.97821000241E+03 -0.65621313680E+03 -0.18070164956E+04  0.21570445510E+04  0.46999998093E+01 0. -1.
       -5    1    3    3    0  502 -0.97821000241E+03  0.65621313680E+03  0.44200653824E+03  0.12581344759E+04  0.46999998093E+01 0.  1.
</event>
<event>
 5   0  0.4900679E-06  0.2651030E+04  0.7818609E-02  0.8351071E-01
        2   -1    0    0  501    0  0.00000000000E+00  0.00000000000E+00  0.25609256440E+04  0.25609256440E+04  0.25500000920E-02 0. -1.
       -2   -1    0    0    0  501  0.00000000000E+00  0.00000000000E+00 -0.68607631772E+03  0.68607631773E+03  0.25500000920E-02 0.  1.
    10030    2    1    2    0    0  0.00000000000E+00  0.00000000000E+00  0.18748493263E+04  0.32470019617E+04  0.26510303173E+04 0.  0.
        4    1    3    3  502    0  0.37956884403E+03 -0.11128203618E+04  0.16870100468E+04  0.20563185979E+04  0.12699999809E+01 0. -1.
       -4    1    3    3    0  502 -0.37956884403E+03  0.11128203618E+04  0.18783927942E+03  0.11906833638E+04  0.12699999809E+01 0.  1.
</event>
<event>
 5   0  0.4900679E-06  0.3025883E+04  0.7818609E-02  0.8236378E-01
       -2   -1    0    0    0  501  0.00000000000E+00  0.00000000000E+00  0.86247933244E+03  0.86247933244E+03  0.25500000920E-02 0.  1.
        2   -1    0    0  501    0  0.00000000000E+00  0.00000000000E+00 -0.26539669736E+04  0.26539669736E+04  0.25500000920E-02 0. -1.
    10030    2    1    2    0    0  0.00000000000E+00  0.00000000000E+00 -0.17914876412E+04  0.35164463061E+04  0.30258827894E+04 0.  0.
        4    1    3    3  502    0  0.62204524507E+03  0.68192444265E+03  0.49736367210E+03  0.10484910432E+04  0.12699999809E+01 0.  1.
       -4    1    3    3    0  502 -0.62204524507E+03 -0.68192444265E+03 -0.22888513133E+04  0.24679552629E+04  0.12699999809E+01 0. -1.
</event>
<event>
 5   0  0.1836401E-06  0.3088369E+04  0.7818609E-02  0.8218937E-01
        1   -1    0    0  501    0  0.00000000000E+00  0.00000000000E+00  0.15563457526E+04  0.15563457526E+04  0.50400001928E-02 0. -1.
       -1   -1    0    0    0  501  0.00000000000E+00  0.00000000000E+00 -0.15321186079E+04  0.15321186079E+04  0.50400001928E-02 0.  1.
    10030    2    1    2    0    0  0.00000000000E+00  0.00000000000E+00  0.24227144745E+02  0.30884643606E+04  0.30883693354E+04 0.  0.
        2    1    3    3  502    0  0.73781240359E+03  0.10016821663E+04 -0.90266698947E+03  0.15370562771E+04  0.25500000920E-02 0.  1.
       -2    1    3    3    0  502 -0.73781240359E+03 -0.10016821663E+04  0.92689413422E+03  0.15514080834E+04  0.25500000920E-02 0. -1.
</event>
<event>
 5   0  0.1853742E-06  0.3103823E+04  0.7818609E-02  0.8214689E-01
       -1   -1    0    0    0  501  0.00000000000E+00  0.00000000000E+00  0.13201990944E+04  0.13201990944E+04  0.50400001928E-02 0.  1.
        1   -1    0    0  501    0  0.00000000000E+00  0.00000000000E+00 -0.18242927127E+04  0.18242927127E+04  0.50400001928E-02 0. -1.
    10030    2    1    2    0    0  0.00000000000E+00  0.00000000000E+00 -0.50409361828E+03  0.31444918072E+04  0.31038231827E+04 0.  0.
        5    1    3    3  502    0 -0.10650040918E+04 -0.11034283220E+04 -0.10980036208E+02  0.15336004787E+04  0.46999998093E+01 0.  1.
       -5    1    3    3    0  502  0.10650040918E+04  0.11034283220E+04 -0.49311358208E+03  0.16108913284E+04  0.46999998093E+01 0. -1.
</event>
<event>
 5   0  0.1853742E-06  0.3086147E+04  0.7818609E-02  0.8219550E-01
        1   -1    0    0  501    0  0.00000000000E+00  0.00000000000E+00  0.13713818103E+04  0.13713818103E+04  0.50400001928E-02 0.  1.
       -1   -1    0    0    0  501  0.00000000000E+00  0.00000000000E+00 -0.17362600837E+04  0.17362600837E+04  0.50400001928E-02 0. -1.
    10030    2    1    2    0    0  0.00000000000E+00  0.00000000000E+00 -0.36487827341E+03  0.31076418940E+04  0.30861467864E+04 0.  0.
        5    1    3    3  502    0  0.11521906472E+03  0.31849578134E+03  0.13334825595E+04  0.13758316838E+04  0.46999998093E+01 0.  1.
       -5    1    3    3    0  502 -0.11521906472E+03 -0.31849578134E+03 -0.16983608329E+04  0.17318102103E+04  0.46999998093E+01 0. -1.
</event>
<event>
 5   0  0.5114870E-06  0.2896529E+04  0.7818609E-02  0.8273911E-01
        2   -1    0    0  501    0  0.00000000000E+00  0.00000000000E+00  0.12238914586E+04  0.12238914586E+04  0.25500000920E-02 0. -1.
       -2   -1    0    0    0  501  0.00000000000E+00  0.00000000000E+00 -0.17137710453E+04  0.17137710453E+04  0.25500000920E-02 0.  1.
    10030    2    1    2    0    0  0.00000000000E+00  0.00000000000E+00 -0.48987958672E+03  0.29376625038E+04  0.28965287806E+04 0.  0.
        2    1    3    3  502    0  0.47104482439E+02  0.73832680090E+03  0.10177810074E+04  0.12582620857E+04  0.25500000920E-02 0. -1.
       -2    1    3    3    0  502 -0.47104482439E+02 -0.73832680090E+03 -0.15076605942E+04  0.16794004181E+04  0.25500000920E-02 0.  1.
</event>
<event>
 5   0  0.5001658E-06  0.3086722E+04  0.7818609E-02  0.8219391E-01
        2   -1    0    0  501    0  0.00000000000E+00  0.00000000000E+00  0.14970941832E+04  0.14970941832E+04  0.25500000920E-02 0. -1.
       -2   -1    0    0    0  501  0.00000000000E+00  0.00000000000E+00 -0.15910576559E+04  0.15910576559E+04  0.25500000920E-02 0.  1.
    10030    2    1    2    0    0  0.00000000000E+00  0.00000000000E+00 -0.93963472700E+02  0.30881518391E+04  0.30867219906E+04 0.  0.
        3    1    3    3  502    0 -0.10338817612E+04  0.10690156383E+04  0.36583177126E+03  0.15315152060E+04  0.10100000352E+00 0.  1.
       -3    1    3    3    0  502  0.10338817612E+04 -0.10690156383E+04 -0.45979524396E+03  0.15566366332E+04  0.10100000352E+00 0. -1.
</event>
<event>
 5   0  0.5328368E-06  0.3059538E+04  0.7818609E-02  0.8226931E-01
        2   -1    0    0  501    0  0.00000000000E+00  0.00000000000E+00  0.12255387470E+04  0.12255387470E+04  0.25500000920E-02 0. -1.
       -2   -1    0    0    0  501  0.00000000000E+00  0.00000000000E+00 -0.19095215629E+04  0.19095215629E+04  0.25500000920E-02 0.  1.
    10030    2    1    2    0    0  0.00000000000E+00  0.00000000000E+00 -0.68398281592E+03  0.31350603099E+04  0.30595376537E+04 0.  0.
        1    1    3    3  502    0 -0.56432160378E+02  0.12137282707E+02  0.12244224462E+04  0.12257822927E+04  0.50400001928E-02 0. -1.
       -1    1    3    3    0  502  0.56432160378E+02 -0.12137282707E+02 -0.19084052621E+04  0.19092780172E+04  0.50400001928E-02 0.  1.
</event>
<event>
 5   0  0.5114870E-06  0.3094984E+04  0.7818609E-02  0.8217116E-01
        2   -1    0    0  501    0  0.00000000000E+00  0.00000000000E+00  0.27991456923E+04  0.27991456923E+04  0.25500000920E-02 0. -1.
       -2   -1    0    0    0  501  0.00000000000E+00  0.00000000000E+00 -0.85552238402E+03  0.85552238403E+03  0.25500000920E-02 0.  1.
    10030    2    1    2    0    0  0.00000000000E+00  0.00000000000E+00  0.19436233083E+04  0.36546680764E+04  0.30949841977E+04 0.  0.
        2    1    3    3  502    0  0.82938123489E+03 -0.42971650088E+03 -0.48507474684E+03  0.10525336165E+04  0.25500000920E-02 0.  1.
       -2    1    3    3    0  502 -0.82938123489E+03  0.42971650088E+03  0.24286980551E+04  0.26021344598E+04  0.25500000920E-02 0. -1.
</event>
<event>
 5   0  0.5001658E-06  0.3049430E+04  0.7818609E-02  0.8229755E-01
        2   -1    0    0  501    0  0.00000000000E+00  0.00000000000E+00  0.20700630852E+04  0.20700630852E+04  0.25500000920E-02 0. -1.
       -2   -1    0    0    0  501  0.00000000000E+00  0.00000000000E+00 -0.11230358603E+04  0.11230358603E+04  0.25500000920E-02 0.  1.
    10030    2    1    2    0    0  0.00000000000E+00  0.00000000000E+00  0.94702722488E+03  0.31930989455E+04  0.30494295059E+04 0.  0.
        3    1    3    3  502    0 -0.30559816539E+02 -0.14293110158E+04  0.10284750846E+04  0.17611430641E+04  0.10100000352E+00 0. -1.
       -3    1    3    3    0  502  0.30559816539E+02  0.14293110158E+04 -0.81447859679E+02  0.14319558815E+04  0.10100000352E+00 0.  1.
</event>
<event>
 5   0  0.1853742E-06  0.3098866E+04  0.7818609E-02  0.8216049E-01
        1   -1    0    0  501    0  0.00000000000E+00  0.00000000000E+00  0.80527861322E+03  0.80527861324E+03  0.50400001928E-02 0. -1.
       -1   -1    0    0    0  501  0.00000000000E+00  0.00000000000E+00 -0.29812577659E+04  0.29812577659E+04  0.50400001928E-02 0.  1.
    10030    2    1    2    0    0  0.00000000000E+00  0.00000000000E+00 -0.21759791527E+04  0.37865363792E+04  0.30988663214E+04 0.  0.
        5    1    3    3  502    0 -0.71296260467E+01 -0.23548498899E+03  0.78325610072E+03  0.81793411771E+03  0.46999998093E+01 0. -1.
       -5    1    3    3    0  502  0.71296260467E+01  0.23548498899E+03 -0.29592352534E+04  0.29686022615E+04  0.46999998093E+01 0.  1.
</event>
<event>
 5   0  0.4927533E-06  0.3106973E+04  0.7818609E-02  0.8213827E-01
        2   -1    0    0  501    0  0.00000000000E+00  0.00000000000E+00  0.20091495171E+04  0.20091495171E+04  0.25500000920E-02 0.  1.
       -2   -1    0    0    0  501  0.00000000000E+00  0.00000000000E+00 -0.12011648547E+04  0.12011648547E+04  0.25500000920E-02 0. -1.
    10030    2    1    2    0    0  0.00000000000E+00  0.00000000000E+00  0.80798466240E+03  0.32103143719E+04  0.31069726667E+04 0.  0.
        5    1    3    3  502    0  0.13271450309E+04 -0.38636549315E+03  0.11365923680E+04  0.17895408708E+04  0.46999998093E+01 0.  1.
       -5    1    3    3    0  502 -0.13271450309E+04  0.38636549315E+03 -0.32860770558E+03  0.14207735011E+04  0.46999998093E+01 0. -1.
</event>
<event>
 5   0  0.1853742E-06  0.3080985E+04  0.7818609E-02  0.8220976E-01
       -1   -1    0    0    0  501  0.00000000000E+00  0.00000000000E+00  0.14682941904E+04  0.14682941904E+04  0.50400001928E-02 0.  1.
        1   -1    0    0  501    0  0.00000000000E+00  0.00000000000E+00 -0.16162414250E+04  0.16162414250E+04  0.50400001928E-02 0. -1.
    10030    2    1    2    0    0  0.00000000000E+00  0.00000000000E+00 -0.14794723456E+03  0.30845356154E+04  0.30809854882E+04 0.  0.
        5    1    3    3  502    0  0.41824638109E+03 -0.43341895287E+03 -0.14934627149E+04  0.16103524443E+04  0.46999998093E+01 0. -1.
       -5    1    3    3    0  502 -0.41824638109E+03  0.43341895287E+03  0.13455154804E+04  0.14741831711E+04  0.46999998093E+01 0.  1.
</event>
<event>
 5   0  0.1885307E-06  0.3103157E+04  0.7818609E-02  0.8214872E-01
       -1   -1    0    0    0  501  0.00000000000E+00  0.00000000000E+00  0.11384806185E+04  0.11384806185E+04  0.50400001928E-02 0.  1.
        1   -1    0    0  501    0  0.00000000000E+00  0.00000000000E+00 -0.21145694223E+04  0.21145694223E+04  0.50400001928E-02 0. -1.
    10030    2    1    2    0    0  0.00000000000E+00  0.00000000000E+00 -0.97608880381E+03  0.32530500407E+04  0.31031572978E+04 0.  0.
        3    1    3    3  502    0  0.56117290494E+03  0.37229824312E+03  0.97728536846E+03  0.11868478052E+04  0.10100000352E+00 0.  1.
       -3    1    3    3    0  502 -0.56117290494E+03 -0.37229824312E+03 -0.19533741723E+04  0.20662022356E+04  0.10100000352E+00 0. -1.
</event>
<event>
 5   0  0.5001658E-06  0.3076559E+04  0.7818609E-02  0.8222201E-01
       -2   -1    0    0    0  501  0.00000000000E+00  0.00000000000E+00  0.12238782031E+04  0.12238782031E+04  0.25500000920E-02 0.  1.
        2   -1    0    0  501    0  0.00000000000E+00  0.00000000000E+00 -0.19334472805E+04  0.19334472805E+04  0.25500000920E-02 0. -1.
    10030    2    1    2    0    0  0.00000000000E+00  0.00000000000E+00 -0.70956907741E+03  0.31573254836E+04  0.30765591062E+04 0.  0.
        3    1    3    3  502    0  0.76950304151E+03 -0.37921385154E+03 -0.16651626594E+04  0.18731536959E+04  0.10100000352E+00 0. -1.
       -3    1    3    3    0  502 -0.76950304151E+03  0.37921385154E+03  0.95559358201E+03  0.12841717877E+04  0.10100000352E+00 0.  1.
</event>
<event>
 5   0  0.1840431E-06  0.2895488E+04  0.7818609E-02  0.8274221E-01
        1   -1    0    0  501    0  0.00000000000E+00  0.00000000000E+00  0.15093031713E+04  0.15093031713E+04  0.50400001928E-02 0. -1.
       -1   -1    0    0    0  501  0.00000000000E+00  0.00000000000E+00 -0.13886958848E+04  0.13886958848E+04  0.50400001928E-02 0.  1.
    10030    2    1    2    0    0  0.00000000000E+00  0.00000000000E+00  0.12060728655E+03  0.28979990561E+04  0.28954882855E+04 0.  0.
        1    1    3    3  502    0 -0.99236218173E+03 -0.45856535899E+03 -0.88967598148E+03  0.14094638130E+04  0.50400001928E-02 0.  1.
       -1    1    3    3    0  502  0.99236218173E+03  0.45856535899E+03  0.10102832680E+04  0.14885352431E+04  0.50400001928E-02 0. -1.
</event>
<event>
 5   0  0.1853742E-06  0.2721971E+04  0.7818609E-02  0.8327911E-01
        1   -1    0    0  501    0  0.00000000000E+00  0.00000000000E+00  0.18503919048E+04  0.18503919048E+04  0.50400001928E-02 0.  1.
       -1   -1    0    0    0  501  0.00000000000E+00  0.00000000000E+00 -0.10010212623E+04  0.10010212623E+04  0.50400001928E-02 0. -1.
    10030    2    1    2    0    0  0.00000000000E+00  0.00000000000E+00  0.84937064243E+03  0.28514131671E+04  0.27219710802E+04 0.  0.
        5    1    3    3  502    0  0.12765990374E+04 -0.21279793002E+03  0.86574371389E+03  0.15570877719E+04  0.46999998093E+01 0.  1.
       -5    1    3    3    0  502 -0.12765990374E+04  0.21279793002E+03 -0.16373071451E+02  0.12943253952E+04  0.46999998093E+01 0. -1.
</event>
<event>
 5   0  0.1843709E-06  0.3065041E+04  0.7818609E-02  0.8225398E-01
        1   -1    0    0  501    0  0.00000000000E+00  0.00000000000E+00  0.25650765604E+04  0.25650765604E+04  0.50400001928E-02 0. -1.
       -1   -1    0    0    0  501  0.00000000000E+00  0.00000000000E+00 -0.91561344776E+03  0.91561344778E+03  0.50400001928E-02 0.  1.
    10030    2    1    2    0    0  0.00000000000E+00  0.00000000000E+00  0.16494631126E+04  0.34806900081E+04  0.30650406805E+04 0.  0.
        4    1    3    3  502    0 -0.12535881959E+04 -0.25370665053E+03  0.17834757767E+04  0.21946840065E+04  0.12699999809E+01 0. -1.
       -4    1    3    3    0  502  0.12535881959E+04  0.25370665053E+03 -0.13401266407E+03  0.12860060017E+04  0.12699999809E+01 0.  1.
</event>
<event>
 5   0  0.1853742E-06  0.3069384E+04  0.7818609E-02  0.8224191E-01
       -1   -1    0    0    0  501  0.00000000000E+00  0.00000000000E+00  0.14397430624E+04  0.14397430624E+04  0.50400001928E-02 0.  1.
        1   -1    0    0  501    0  0.00000000000E+00  0.00000000000E+00 -0.16359025527E+04  0.16359025527E+04  0.50400001928E-02 0. -1.
    10030    2    1    2    0    0  0.00000000000E+00  0.00000000000E+00 -0.19615949034E+03  0.30756456151E+04  0.30693838802E+04 0.  0.
        5    1    3    3  502    0 -0.10335230369E+04 -0.15170456443E+03  0.10285239809E+04  0.14659699219E+04  0.46999998093E+01 0.  1.
       -5    1    3    3    0  502  0.10335230369E+04  0.15170456443E+03 -0.12246834712E+04  0.16096756932E+04  0.46999998093E+01 0. -1.
</event>
<event>
 5   0  0.4900679E-06  0.2675895E+04  0.7818609E-02  0.8342869E-01
        2   -1    0    0  501    0  0.00000000000E+00  0.00000000000E+00  0.16609291119E+04  0.16609291119E+04  0.25500000920E-02 0. -1.
       -2   -1    0    0    0  501  0.00000000000E+00  0.00000000000E+00 -0.10777726000E+04  0.10777726000E+04  0.25500000920E-02 0.  1.
    10030    2    1    2    0    0  0.00000000000E+00  0.00000000000E+00  0.58315651189E+03  0.27387017120E+04  0.26758952801E+04 0.  0.
        4    1    3    3  502    0  0.53482604592E+03  0.39360354267E+03 -0.89720880360E+03  0.11162203628E+04  0.12699999809E+01 0.  1.
       -4    1    3    3    0  502 -0.53482604592E+03 -0.39360354267E+03  0.14803653155E+04  0.16224813492E+04  0.12699999809E+01 0. -1.
</event>
<event>
 5   0  0.5328368E-06  0.3113006E+04  0.7818609E-02  0.8212177E-01
       -2   -1    0    0    0  501  0.00000000000E+00  0.00000000000E+00  0.82127716703E+03  0.82127716703E+03  0.25500000920E-02 0.  1.
        2   -1    0    0  501    0  0.00000000000E+00  0.00000000000E+00 -0.29499203401E+04  0.29499203401E+04  0.25500000920E-02 0. -1.
    10030    2    1    2    0    0  0.00000000000E+00  0.00000000000E+00 -0.21286431731E+04  0.37711975071E+04  0.31130064053E+04 0.  0.
        1    1    3    3  502    0  0.64486863977E+03 -0.13731034458E+04 -0.64216976159E+03  0.16473161925E+04  0.50400001928E-02 0.  1.
       -1    1    3    3    0  502 -0.64486863977E+03  0.13731034458E+04 -0.14864734115E+04  0.21238813146E+04  0.50400001928E-02 0. -1.
</event>
<event>
 5   0  0.1843709E-06  0.3198010E+04  0.7818609E-02  0.8189343E-01
        1   -1    0    0  501    0  0.00000000000E+00  0.00000000000E+00  0.22532922169E+04  0.22532922169E+04  0.50400001928E-02 0. -1.
       -1   -1    0    0    0  501  0.00000000000E+00  0.00000000000E+00 -0.11347027580E+04  0.11347027580E+04  0.50400001928E-02 0.  1.
    10030    2    1    2    0    0  0.00000000000E+00  0.00000000000E+00  0.11185894589E+04  0.33879949748E+04  0.31980099393E+04 0.  0.
        4    1    3    3  502    0 -0.76621088108E+03  0.11365953803E+03 -0.92267089392E+03  0.12047077638E+04  0.12699999809E+01 0.  1.
       -4    1    3    3    0  502  0.76621088108E+03 -0.11365953803E+03  0.20412603528E+04  0.21832872110E+04  0.12699999809E+01 0. -1.
</event>
<event>
 5   0  0.5114870E-06  0.3176030E+04  0.7818609E-02  0.8195176E-01
       -2   -1    0    0    0  501  0.00000000000E+00  0.00000000000E+00  0.10831940138E+04  0.10831940138E+04  0.25500000920E-02 0. -1.
        2   -1    0    0  501    0  0.00000000000E+00  0.00000000000E+00 -0.23281074549E+04  0.23281074549E+04  0.25500000920E-02 0.  1.
    10030    2    1    2    0    0  0.00000000000E+00  0.00000000000E+00 -0.12449134410E+04  0.34113014687E+04  0.31760302635E+04 0.  0.
        2    1    3    3  502    0 -0.15803855013E+04 -0.85368213994E+02 -0.76202887582E+03  0.17565859137E+04  0.25500000920E-02 0. -1.
       -2    1    3    3    0  502  0.15803855013E+04  0.85368213994E+02 -0.48288456520E+03  0.16547155550E+04  0.25500000920E-02 0.  1.
</event>
<event>
 5   0  0.1853742E-06  0.3041631E+04  0.7818609E-02  0.8231942E-01
        1   -1    0    0  501    0  0.00000000000E+00  0.00000000000E+00  0.18349007308E+04  0.18349007308E+04  0.50400001928E-02 0.  1.
       -1   -1    0    0    0  501  0.00000000000E+00  0.00000000000E+00 -0.12604934503E+04  0.12604934503E+04  0.50400001928E-02 0. -1.
    10030    2    1    2    0    0  0.00000000000E+00  0.00000000000E+00  0.57440728052E+03  0.30953941812E+04  0.30416313736E+04 0.  0.
        5    1    3    3  502    0 -0.79679673956E+03 -0.78305864915E+03  0.13373306965E+04  0.17425674661E+04  0.46999998093E+01 0.  1.
       -5    1    3    3    0  502  0.79679673956E+03  0.78305864915E+03 -0.76292341601E+03  0.13528267150E+04  0.46999998093E+01 0. -1.
</event>
<event>
 5   0  0.5114870E-06  0.3121147E+04  0.7818609E-02  0.8209958E-01
        2   -1    0    0  501    0  0.00000000000E+00  0.00000000000E+00  0.16364005741E+04  0.16364005741E+04  0.25500000920E-02 0.  1.
       -2   -1    0    0    0  501  0.00000000000E+00  0.00000000000E+00 -0.14882596117E+04  0.14882596117E+04  0.25500000920E-02 0. -1.
    10030    2    1    2    0    0  0.00000000000E+00  0.00000000000E+00  0.14814096245E+03  0.31246601858E+04  0.31211465092E+04 0.  0.
        2    1    3    3  502    0  0.42427647944E+03 -0.14931176838E+04  0.23542864573E+03  0.15699801260E+04  0.25500000920E-02 0. -1.
       -2    1    3    3    0  502 -0.42427647944E+03  0.14931176838E+04 -0.87287683278E+02  0.15546800598E+04  0.25500000920E-02 0.  1.
</event>
<event>
 5   0  0.1843709E-06  0.3097738E+04  0.7818609E-02  0.8216359E-01
        1   -1    0    0  501    0  0.00000000000E+00  0.00000000000E+00  0.24708639324E+04  0.24708639324E+04  0.50400001928E-02 0. -1.
       -1   -1    0    0    0  501  0.00000000000E+00  0.00000000000E+00 -0.97091375546E+03  0.97091375548E+03  0.50400001928E-02 0.  1.
    10030    2    1    2    0    0  0.00000000000E+00  0.00000000000E+00  0.14999501769E+04  0.34417776879E+04  0.30977383878E+04 0.  0.
        4    1    3    3  502    0  0.14370683212E+04 -0.51390992381E+03  0.10433571638E+04  0.18487467522E+04  0.12699999809E+01 0.  1.
       -4    1    3    3    0  502 -0.14370683212E+04  0.51390992381E+03  0.45659301313E+03  0.15930309357E+04  0.12699999809E+01 0. -1.
</event>
<event>
 5   0  0.1843709E-06  0.3082036E+04  0.7818609E-02  0.8220685E-01
       -1   -1    0    0    0  501  0.00000000000E+00  0.00000000000E+00  0.10765961723E+04  0.10765961723E+04  0.50400001928E-02 0.  1.
        1   -1    0    0  501    0  0.00000000000E+00  0.00000000000E+00 -0.22057821657E+04  0.22057821657E+04  0.50400001928E-02 0. -1.
    10030    2    1    2    0    0  0.00000000000E+00  0.00000000000E+00 -0.11291859934E+04  0.32823783379E+04  0.30820361039E+04 0.  0.
        4    1    3    3  502    0  0.78124329981E+03  0.12314022150E+04 -0.34180217394E+02  0.14587194414E+04  0.12699999809E+01 0.  1.
       -4    1    3    3    0  502 -0.78124329981E+03 -0.12314022150E+04 -0.10950057760E+04  0.18236588966E+04  0.12699999809E+01 0. -1.
</event>
<event>
 5   0  0.1843709E-06  0.3125644E+04  0.7818609E-02  0.8208735E-01
        1   -1    0    0  501    0  0.00000000000E+00  0.00000000000E+00  0.14589949309E+04  0.14589949309E+04  0.50400001928E-02 0. -1.
       -1   -1    0    0    0  501  0.00000000000E+00  0.00000000000E+00 -0.16740376198E+04  0.16740376199E+04  0.50400001928E-02 0.  1.
    10030    2    1    2    0    0  0.00000000000E+00  0.00000000000E+00 -0.21504268894E+03  0.31330325508E+04  0.31256438706E+04 0.  0.
        4    1    3    3  502    0  0.96541626773E+03  0.55499966939E+02 -0.13381458156E+04  0.16509829354E+04  0.12699999809E+01 0.  1.
       -4    1    3    3    0  502 -0.96541626773E+03 -0.55499966939E+02  0.11231031267E+04  0.14820496153E+04  0.12699999809E+01 0. -1.
</event>
<event>
 5   0  0.5114870E-06  0.3104179E+04  0.7818609E-02  0.8214592E-01
        2   -1    0    0  501    0  0.00000000000E+00  0.00000000000E+00  0.17558042786E+04  0.17558042786E+04  0.25500000920E-02 0.  1.
       -2   -1    0    0    0  501  0.00000000000E+00  0.00000000000E+00 -0.13720105814E+04  0.13720105814E+04  0.25500000920E-02 0. -1.
    10030    2    1    2    0    0  0.00000000000E+00  0.00000000000E+00  0.38379369719E+03  0.31278148600E+04  0.31041791502E+04 0.  0.
        2    1    3    3  502    0  0.59217477087E+02  0.32786596396E+03 -0.13355542402E+04  0.13764839005E+04  0.25500000920E-02 0. -1.
       -2    1    3    3    0  502 -0.59217477087E+02 -0.32786596396E+03  0.17193479374E+04  0.17513309595E+04  0.25500000920E-02 0.  1.
</event>
<event>
 5   0  0.1649875E-06  0.2990181E+04  0.7818609E-02  0.8246540E-01
        3   -1    0    0  501    0  0.00000000000E+00  0.00000000000E+00  0.19394778757E+04  0.19394778783E+04  0.10100000352E+00 0. -1.
       -3   -1    0    0    0  501  0.00000000000E+00  0.00000000000E+00 -0.11525243510E+04  0.11525243554E+04  0.10100000352E+00 0.  1.
    10030    2    1    2    0    0  0.00000000000E+00  0.00000000000E+00  0.78695352475E+03  0.30920022337E+04  0.29901809248E+04 0.  0.
        5    1    3    3  502    0 -0.77358475196E+03 -0.11925113736E+04  0.87267548203E+03  0.16679632285E+04  0.46999998093E+01 0. -1.
       -5    1    3    3    0  502  0.77358475196E+03  0.11925113736E+04 -0.85721957279E+02  0.14240390053E+04  0.46999998093E+01 0.  1.
</event>
<event>
 5   0  0.4927533E-06  0.3104223E+04  0.7818609E-02  0.8214580E-01
        2   -1    0    0  501    0  0.00000000000E+00  0.00000000000E+00  0.16512478223E+04  0.16512478223E+04  0.25500000920E-02 0. -1.
       -2   -1    0    0    0  501  0.00000000000E+00  0.00000000000E+00 -0.14589269663E+04  0.14589269663E+04  0.25500000920E-02 0.  1.
    10030    2    1    2    0    0  0.00000000000E+00  0.00000000000E+00  0.19232085592E+03  0.31101747886E+04  0.31042229147E+04 0.  0.
        5    1    3    3  502    0  0.15311558910E+04 -0.15940868968E+03 -0.10215440829E+03  0.15428243925E+04  0.46999998093E+01 0.  1.
       -5    1    3    3    0  502 -0.15311558910E+04  0.15940868968E+03  0.29447526421E+03  0.15673503961E+04  0.46999998093E+01 0. -1.
</event>
<event>
 5   0  0.4927533E-06  0.3145539E+04  0.7818609E-02  0.8203350E-01
       -2   -1    0    0    0  501  0.00000000000E+00  0.00000000000E+00  0.98106122851E+03  0.98106122851E+03  0.25500000920E-02 0. -1.
        2   -1    0    0  501    0  0.00000000000E+00  0.00000000000E+00 -0.25213546404E+04  0.25213546404E+04  0.25500000920E-02 0.  1.
    10030    2    1    2    0    0  0.00000000000E+00  0.00000000000E+00 -0.15402934118E+04  0.35024158689E+04  0.31455386063E+04 0.  0.
        5    1    3    3  502    0  0.12127250411E+04 -0.71202363556E+03  0.13951403418E+02  0.14063770528E+04  0.46999998093E+01 0. -1.
       -5    1    3    3    0  502 -0.12127250411E+04  0.71202363556E+03 -0.15542448153E+04  0.20960388161E+04  0.46999998093E+01 0.  1.
</event>
<event>
 5   0  0.4900679E-06  0.2836404E+04  0.7818609E-02  0.8292055E-01
        2   -1    0    0  501    0  0.00000000000E+00  0.00000000000E+00  0.17763481711E+04  0.17763481711E+04  0.25500000920E-02 0.  1.
       -2   -1    0    0    0  501  0.00000000000E+00  0.00000000000E+00 -0.11322650555E+04  0.11322650555E+04  0.25500000920E-02 0. -1.
    10030    2    1    2    0    0  0.00000000000E+00  0.00000000000E+00  0.64408311561E+03  0.29086132266E+04  0.28364040336E+04 0.  0.
        4    1    3    3  502    0  0.21181292741E+03 -0.13598687770E+04  0.67308317007E+03  0.15320412441E+04  0.12699999809E+01 0.  1.
       -4    1    3    3    0  502 -0.21181292741E+03  0.13598687770E+04 -0.29000054465E+02  0.13765719825E+04  0.12699999809E+01 0. -1.
</event>
<event>
 5   0  0.1843709E-06  0.3051146E+04  0.7818609E-02  0.8229275E-01
       -1   -1    0    0    0  501  0.00000000000E+00  0.00000000000E+00  0.10440892474E+04  0.10440892474E+04  0.50400001928E-02 0. -1.
        1   -1    0    0  501    0  0.00000000000E+00  0.00000000000E+00 -0.22290937893E+04  0.22290937893E+04  0.50400001928E-02 0.  1.
    10030    2    1    2    0    0  0.00000000000E+00  0.00000000000E+00 -0.11850045419E+04  0.32731830367E+04  0.30511459203E+04 0.  0.
        4    1    3    3  502    0  0.13870316435E+04 -0.28569127223E+03  0.16143211142E+02  0.14162409750E+04  0.12699999809E+01 0. -1.
       -4    1    3    3    0  502 -0.13870316435E+04  0.28569127223E+03 -0.12011477530E+04  0.18569420617E+04  0.12699999809E+01 0.  1.
</event>
<event>
 5   0  0.1836401E-06  0.3090714E+04  0.7818609E-02  0.8218291E-01
        1   -1    0    0  501    0  0.00000000000E+00  0.00000000000E+00  0.17686772958E+04  0.17686772958E+04  0.50400001928E-02 0.  1.
       -1   -1    0    0    0  501  0.00000000000E+00  0.00000000000E+00 -0.13502336066E+04  0.13502336066E+04  0.50400001928E-02 0. -1.
    10030    2    1    2    0    0  0.00000000000E+00  0.00000000000E+00  0.41844368918E+03  0.31189109023E+04  0.30907135253E+04 0.  0.
        2    1    3    3  502    0  0.95644280898E+03 -0.12439437163E+03  0.14276606502E+04  0.17229253433E+04  0.25500000920E-02 0. -1.
       -2    1    3    3    0  502 -0.95644280898E+03  0.12439437163E+03 -0.10092169610E+04  0.13959855590E+04  0.25500000920E-02 0.  1.
</event>
<event>
 5   0  0.5114870E-06  0.3184656E+04  0.7818609E-02  0.8192881E-01
        2   -1    0    0  501    0  0.00000000000E+00  0.00000000000E+00  0.18137235980E+04  0.18137235980E+04  0.25500000920E-02 0.  1.
       -2   -1    0    0    0  501  0.00000000000E+00  0.00000000000E+00 -0.13979571516E+04  0.13979571516E+04  0.25500000920E-02 0. -1.
    10030    2    1    2    0    0  0.00000000000E+00  0.00000000000E+00  0.41576644635E+03  0.32116807496E+04  0.31846556328E+04 0.  0.
        2    1    3    3  502    0 -0.14259859017E+04 -0.43683329194E+03 -0.35474783808E+03  0.15330052660E+04  0.25500000920E-02 0. -1.
       -2    1    3    3    0  502  0.14259859017E+04  0.43683329194E+03  0.77051428443E+03  0.16786754836E+04  0.25500000920E-02 0.  1.
</event>
<event>
 5   0  0.1836401E-06  0.3234189E+04  0.7818609E-02  0.8179846E-01
        1   -1    0    0  501    0  0.00000000000E+00  0.00000000000E+00  0.16337374213E+04  0.16337374213E+04  0.50400001928E-02 0.  1.
       -1   -1    0    0    0  501  0.00000000000E+00  0.00000000000E+00 -0.16006213823E+04  0.16006213823E+04  0.50400001928E-02 0. -1.
    10030    2    1    2    0    0  0.00000000000E+00  0.00000000000E+00  0.33116039010E+02  0.32343588036E+04  0.32341892645E+04 0.  0.
        2    1    3    3  502    0 -0.57159304879E+02  0.11283002933E+04  0.11736261521E+04  0.16290264218E+04  0.25500000920E-02 0.  1.
       -2    1    3    3    0  502  0.57159304879E+02 -0.11283002933E+04 -0.11405101131E+04  0.16053323818E+04  0.25500000920E-02 0. -1.
</event>
<event>
 5   0  0.5001658E-06  0.3142891E+04  0.7818609E-02  0.8204064E-01
       -2   -1    0    0    0  501  0.00000000000E+00  0.00000000000E+00  0.13015098822E+04  0.13015098822E+04  0.25500000920E-02 0. -1.
        2   -1    0    0  501    0  0.00000000000E+00  0.00000000000E+00 -0.18973663827E+04  0.18973663827E+04  0.25500000920E-02 0.  1.
    10030    2    1    2    0    0  0.00000000000E+00  0.00000000000E+00 -0.59585650057E+03  0.31988762649E+04  0.31428910877E+04 0.  0.
        3    1    3    3  502    0  0.47611699912E+03 -0.75574474574E+03 -0.16138642108E+04  0.18445582720E+04  0.10100000352E+00 0.  1.
       -3    1    3    3    0  502 -0.47611699912E+03  0.75574474574E+03  0.10180077103E+04  0.13543179929E+04  0.10100000352E+00 0. -1.
</event>
<event>
 5   0  0.4927533E-06  0.2951468E+04  0.7818609E-02  0.8257727E-01
        2   -1    0    0  501    0  0.00000000000E+00  0.00000000000E+00  0.23196300583E+04  0.23196300583E+04  0.25500000920E-02 0.  1.
       -2   -1    0    0    0  501  0.00000000000E+00  0.00000000000E+00 -0.93885259864E+03  0.93885259864E+03  0.25500000920E-02 0. -1.
    10030    2    1    2    0    0  0.00000000000E+00  0.00000000000E+00  0.13807774596E+04  0.32584826569E+04  0.29514679115E+04 0.  0.
        5    1    3    3  502    0 -0.70934117422E+03 -0.12766887172E+04  0.45705175919E+03  0.15303651141E+04  0.46999998093E+01 0. -1.
       -5    1    3    3    0  502  0.70934117422E+03  0.12766887172E+04  0.92372570042E+03  0.17281175428E+04  0.46999998093E+01 0.  1.
</event>
<event>
 5   0  0.1853742E-06  0.3067678E+04  0.7818609E-02  0.8224665E-01
       -1   -1    0    0    0  501  0.00000000000E+00  0.00000000000E+00  0.89114967388E+03  0.89114967389E+03  0.50400001928E-02 0.  1.
        1   -1    0    0  501    0  0.00000000000E+00  0.00000000000E+00 -0.26400303910E+04  0.26400303910E+04  0.50400001928E-02 0. -1.
    10030    2    1    2    0    0  0.00000000000E+00  0.00000000000E+00 -0.17488807171E+04  0.35311800649E+04  0.30676780939E+04 0.  0.
        5    1    3    3  502    0 -0.81155052456E+03 -0.13015126431E+04 -0.88540405257E+03  0.17710200000E+04  0.46999998093E+01 0. -1.
       -5    1    3    3    0  502  0.81155052456E+03  0.13015126431E+04 -0.86347666456E+03  0.17601600649E+04  0.46999998093E+01 0.  1.
</event>
<event>
 5   0  0.1885307E-06  0.2718766E+04  0.7818609E-02  0.8328942E-01
       -1   -1    0    0    0  501  0.00000000000E+00  0.00000000000E+00  0.96533645307E+03  0.96533645308E+03  0.50400001928E-02 0.  1.
        1   -1    0    0  501    0  0.00000000000E+00  0.00000000000E+00 -0.19142772823E+04  0.19142772823E+04  0.50400001928E-02 0. -1.
    10030    2    1    2    0    0  0.00000000000E+00  0.00000000000E+00 -0.94894082920E+03  0.28796137353E+04  0.27187656331E+04 0.  0.
        3    1    3    3  502    0  0.94541020090E+03  0.54818850877E+02 -0.15074202394E+04  0.17802026129E+04  0.10100000352E+00 0. -1.
       -3    1    3    3    0  502 -0.94541020090E+03 -0.54818850877E+02  0.55847941024E+03  0.10994111225E+04  0.10100000352E+00 0.  1.
</event>
<event>
 5   0  0.5001658E-06  0.2416558E+04  0.7818609E-02  0.8433330E-01
       -2   -1    0    0    0  501  0.00000000000E+00  0.00000000000E+00  0.23091928098E+04  0.23091928098E+04  0.25500000920E-02 0. -1.
        2   -1    0    0  501    0  0.00000000000E+00  0.00000000000E+00 -0.63222889048E+03  0.63222889048E+03  0.25500000920E-02 0.  1.
    10030    2    1    2    0    0  0.00000000000E+00  0.00000000000E+00  0.16769639193E+04  0.29414217003E+04  0.24165582203E+04 0.  0.
        3    1    3    3  502    0 -0.10144603186E+04  0.74817060686E+02  0.16321927953E+04  0.19232214281E+04  0.10100000352E+00 0.  1.
       -3    1    3    3    0  502  0.10144603186E+04 -0.74817060686E+02  0.44771124063E+02  0.10182002722E+04  0.10100000352E+00 0. -1.
</event>
<event>
 5   0  0.5328368E-06  0.3103690E+04  0.7818609E-02  0.8214726E-01
        2   -1    0    0  501    0  0.00000000000E+00  0.00000000000E+00  0.29573441678E+04  0.29573441678E+04  0.25500000920E-02 0. -1.
       -2   -1    0    0    0  501  0.00000000000E+00  0.00000000000E+00 -0.81431949181E+03  0.81431949181E+03  0.25500000920E-02 0.  1.
    10030    2    1    2    0    0  0.00000000000E+00  0.00000000000E+00  0.21430246760E+04  0.37716636596E+04  0.31036900617E+04 0.  0.
        1    1    3    3  502    0  0.44070119171E+03 -0.73345849577E+03 -0.50173618180E+03  0.99192645974E+03  0.50400001928E-02 0.  1.
       -1    1    3    3    0  502 -0.44070119171E+03  0.73345849577E+03  0.26447608578E+04  0.27797371998E+04  0.50400001928E-02 0. -1.
</event>
<event>
 5   0  0.5328368E-06  0.3094223E+04  0.7818609E-02  0.8217325E-01
       -2   -1    0    0    0  501  0.00000000000E+00  0.00000000000E+00  0.10879799050E+04  0.10879799050E+04  0.25500000920E-02 0.  1.
        2   -1    0    0  501    0  0.00000000000E+00  0.00000000000E+00 -0.21999985076E+04  0.21999985076E+04  0.25500000920E-02 0. -1.
    10030    2    1    2    0    0  0.00000000000E+00  0.00000000000E+00 -0.11120186027E+04  0.32879784126E+04  0.30942231124E+04 0.  0.
        1    1    3    3  502    0  0.86040297701E+03 -0.11302466401E+04 -0.12074242101E+04  0.18643025435E+04  0.50400001928E-02 0. -1.
       -1    1    3    3    0  502 -0.86040297701E+03  0.11302466401E+04  0.95405607418E+02  0.14236758691E+04  0.50400001928E-02 0.  1.
</event>
<event>
 5   0  0.5114870E-06  0.2953270E+04  0.7818609E-02  0.8257202E-01
        2   -1    0    0  501    0  0.00000000000E+00  0.00000000000E+00  0.22348980769E+04  0.22348980769E+04  0.25500000920E-02 0. -1.
       -2   -1    0    0    0  501  0.00000000000E+00  0.00000000000E+00 -0.97563769499E+03  0.97563769500E+03  0.25500000920E-02 0.  1.
    10030    2    1    2    0    0  0.00000000000E+00  0.00000000000E+00  0.12592603819E+04  0.32105357719E+04  0.29532699222E+04 0.  0.
        2    1    3    3  502    0 -0.39431668228E+03 -0.84374421229E+03  0.18753397584E+04  0.20938694207E+04  0.25500000920E-02 0. -1.
       -2    1    3    3    0  502  0.39431668228E+03  0.84374421229E+03 -0.61607937648E+03  0.11166663512E+04  0.25500000920E-02 0.  1.
</event>
<event>
 5   0  0.1840431E-06  0.3128275E+04  0.7818609E-02  0.8208021E-01
        1   -1    0    0  501    0  0.00000000000E+00  0.00000000000E+00  0.27845606409E+04  0.27845606409E+04  0.50400001928E-02 0. -1.
       -1   -1    0    0    0  501  0.00000000000E+00  0.00000000000E+00 -0.87860421026E+03  0.87860421028E+03  0.50400001928E-02 0.  1.
    10030    2    1    2    0    0  0.00000000000E+00  0.00000000000E+00  0.19059564307E+04  0.36631648512E+04  0.31282753734E+04 0.  0.
        1    1    3    3  502    0  0.12809465074E+04  0.55741209424E+03  0.12912151779E+03  0.14029271413E+04  0.50400001928E-02 0.  1.
       -1    1    3    3    0  502 -0.12809465074E+04 -0.55741209424E+03  0.17768349129E+04  0.22602377099E+04  0.50400001928E-02 0. -1.
</event>
<event>
 5   0  0.5328368E-06  0.3067805E+04  0.7818609E-02  0.8224629E-01
       -2   -1    0    0    0  501  0.00000000000E+00  0.00000000000E+00  0.15609374271E+04  0.15609374271E+04  0.25500000920E-02 0. -1.
        2   -1    0    0  501    0  0.00000000000E+00  0.00000000000E+00 -0.15073362112E+04  0.15073362112E+04  0.25500000920E-02 0.  1.
    10030    2    1    2    0    0  0.00000000000E+00  0.00000000000E+00  0.53601215829E+02  0.30682736383E+04  0.30678054093E+04 0.  0.
        1    1    3    3  502    0 -0.13361374650E+04  0.46394874153E+03  0.62047839089E+03  0.15445080750E+04  0.50400001928E-02 0. -1.
       -1    1    3    3    0  502  0.13361374650E+04 -0.46394874153E+03 -0.56687717506E+03  0.15237655633E+04  0.50400001928E-02 0.  1.
</event>
<event>
 5   0  0.4900679E-06  0.3091706E+04  0.7818609E-02  0.8218018E-01
       -2   -1    0    0    0  501  0.00000000000E+00  0.00000000000E+00  0.14698476149E+04  0.14698476149E+04  0.25500000920E-02 0. -1.
        2   -1    0    0  501    0  0.00000000000E+00  0.00000000000E+00 -0.16257890728E+04  0.16257890728E+04  0.25500000920E-02 0.  1.
    10030    2    1    2    0    0  0.00000000000E+00  0.00000000000E+00 -0.15594145788E+03  0.30956366877E+04  0.30917064486E+04 0.  0.
        4    1    3    3  502    0 -0.14103630830E+02  0.66947675599E+03  0.13170924308E+04  0.14775425961E+04  0.12699999809E+01 0. -1.
       -4    1    3    3    0  502  0.14103630830E+02 -0.66947675599E+03 -0.14730338887E+04  0.16180940916E+04  0.12699999809E+01 0.  1.
</event>
<event>
 5   0  0.5001658E-06  0.3063162E+04  0.7818609E-02  0.8225921E-01
       -2   -1    0    0    0  501  0.00000000000E+00  0.00000000000E+00  0.78641089493E+03  0.78641089493E+03  0.25500000920E-02 0.  1.
        2   -1    0    0  501    0  0.00000000000E+00  0.00000000000E+00 -0.29828439344E+04  0.29828439344E+04  0.25500000920E-02 0. -1.
    10030    2    1    2    0    0  0.00000000000E+00  0.00000000000E+00 -0.21964330395E+04  0.37692548293E+04  0.30631623972E+04 0.  0.
        3    1    3    3  502    0  0.72663998861E+03 -0.76224940212E+03  0.27020411118E+03  0.10872166739E+04  0.10100000352E+00 0.  1.
       -3    1    3    3    0  502 -0.72663998861E+03  0.76224940212E+03 -0.24666371506E+04  0.26820381554E+04  0.10100000352E+00 0. -1.
</event>
<event>
 5   0  0.1853742E-06  0.3130662E+04  0.7818609E-02  0.8207373E-01
        1   -1    0    0  501    0  0.00000000000E+00  0.00000000000E+00  0.15907030206E+04  0.15907030206E+04  0.50400001928E-02 0. -1.
       -1   -1    0    0    0  501  0.00000000000E+00  0.00000000000E+00 -0.15403641076E+04  0.15403641076E+04  0.50400001928E-02 0.  1.
    10030    2    1    2    0    0  0.00000000000E+00  0.00000000000E+00  0.50338913057E+02  0.31310671282E+04  0.31306624467E+04 0.  0.
        5    1    3    3  502    0 -0.65795487022E+03  0.15581675457E+03  0.14371083965E+04  0.15882336432E+04  0.46999998093E+01 0. -1.
       -5    1    3    3    0  502  0.65795487022E+03 -0.15581675457E+03 -0.13867694834E+04  0.15428334850E+04  0.46999998093E+01 0.  1.
</event>
<event>
 5   0  0.1836401E-06  0.3088155E+04  0.7818609E-02  0.8218996E-01
        1   -1    0    0  501    0  0.00000000000E+00  0.00000000000E+00  0.91776235732E+03  0.91776235733E+03  0.50400001928E-02 0.  1.
       -1   -1    0    0    0  501  0.00000000000E+00  0.00000000000E+00 -0.25978128549E+04  0.25978128549E+04  0.50400001928E-02 0. -1.
    10030    2    1    2    0    0  0.00000000000E+00  0.00000000000E+00 -0.16800504976E+04  0.35155752123E+04  0.30881546915E+04 0.  0.
        2    1    3    3  502    0 -0.55886409591E+03 -0.14381926640E+04 -0.90686854824E+03  0.17897312033E+04  0.25500000920E-02 0.  1.
       -2    1    3    3    0  502  0.55886409591E+03  0.14381926640E+04 -0.77318194937E+03  0.17258440089E+04  0.25500000920E-02 0. -1.
</event>
<event>
 5   0  0.5328368E-06  0.3036287E+04  0.7818609E-02  0.8233444E-01
        2   -1    0    0  501    0  0.00000000000E+00  0.00000000000E+00  0.29495099310E+04  0.29495099310E+04  0.25500000920E-02 0.  1.
       -2   -1    0    0    0  501  0.00000000000E+00  0.00000000000E+00 -0.78140431365E+03  0.78140431366E+03  0.25500000920E-02 0. -1.
    10030    2    1    2    0    0  0.00000000000E+00  0.00000000000E+00  0.21681056173E+04  0.37309142447E+04  0.30362870637E+04 0.  0.
        1    1    3    3  502    0  0.55160654317E+03 -0.13130252599E+04  0.43797562479E+03  0.14900093152E+04  0.50400001928E-02 0. -1.
       -1    1    3    3    0  502 -0.55160654317E+03  0.13130252599E+04  0.17301299926E+04  0.22409049294E+04  0.50400001928E-02 0.  1.
</event>
<event>
 5   0  0.4900679E-06  0.3117184E+04  0.7818609E-02  0.8211038E-01
       -2   -1    0    0    0  501  0.00000000000E+00  0.00000000000E+00  0.12276003637E+04  0.12276003637E+04  0.25500000920E-02 0. -1.
        2   -1    0    0  501    0  0.00000000000E+00  0.00000000000E+00 -0.19788277737E+04  0.19788277737E+04  0.25500000920E-02 0.  1.
    10030    2    1    2    0    0  0.00000000000E+00  0.00000000000E+00 -0.75122741001E+03  0.32064281374E+04  0.31171844313E+04 0.  0.
        4    1    3    3  502    0 -0.73060976501E+03  0.10443761644E+04  0.54711684886E+03  0.13870294376E+04  0.12699999809E+01 0. -1.
       -4    1    3    3    0  502  0.73060976501E+03 -0.10443761644E+04 -0.12983442589E+04  0.18193986998E+04  0.12699999809E+01 0.  1.
</event>
<event>
 5   0  0.5001658E-06  0.3054436E+04  0.7818609E-02  0.8228355E-01
       -2   -1    0    0    0  501  0.00000000000E+00  0.00000000000E+00  0.23487326365E+04  0.23487326365E+04  0.25500000920E-02 0.  1.
        2   -1    0    0  501    0  0.00000000000E+00  0.00000000000E+00 -0.99304403824E+03  0.99304403825E+03  0.25500000920E-02 0. -1.
    10030    2    1    2    0    0  0.00000000000E+00  0.00000000000E+00  0.13556885983E+04  0.33417766748E+04  0.30544360803E+04 0.  0.
        3    1    3    3  502    0  0.43693417772E+03 -0.14633724997E+04  0.68324676767E+03  0.16730800054E+04  0.10100000352E+00 0.  1.
       -3    1    3    3    0  502 -0.43693417772E+03  0.14633724997E+04  0.67244183059E+03  0.16686966694E+04  0.10100000352E+00 0. -1.
</event>
<event>
 5   0  0.1885307E-06  0.3088666E+04  0.7818609E-02  0.8218855E-01
       -1   -1    0    0    0  501  0.00000000000E+00  0.00000000000E+00  0.11069068916E+04  0.11069068917E+04  0.50400001928E-02 0.  1.
        1   -1    0    0  501    0  0.00000000000E+00  0.00000000000E+00 -0.21546206891E+04  0.21546206891E+04  0.50400001928E-02 0. -1.
    10030    2    1    2    0    0  0.00000000000E+00  0.00000000000E+00 -0.10477137975E+04  0.32615275808E+04  0.30886660485E+04 0.  0.
        3    1    3    3  502    0  0.31633716542E+03  0.59570876317E+03 -0.19908623243E+04  0.21020159222E+04  0.10100000352E+00 0. -1.
       -3    1    3    3    0  502 -0.31633716542E+03 -0.59570876317E+03  0.94314852676E+03  0.11595116586E+04  0.10100000352E+00 0.  1.
</event>
<event>
 5   0  0.5114870E-06  0.3109486E+04  0.7818609E-02  0.8213139E-01
       -2   -1    0    0    0  501  0.00000000000E+00  0.00000000000E+00  0.21489316996E+04  0.21489316996E+04  0.25500000920E-02 0.  1.
        2   -1    0    0  501    0  0.00000000000E+00  0.00000000000E+00 -0.11248498102E+04  0.11248498102E+04  0.25500000920E-02 0. -1.
    10030    2    1    2    0    0  0.00000000000E+00  0.00000000000E+00  0.10240818893E+04  0.32737815098E+04  0.31094857545E+04 0.  0.
        2    1    3    3  502    0  0.10179240705E+04  0.11442147880E+04  0.79421012674E+03  0.17251569841E+04  0.25500000920E-02 0.  1.
       -2    1    3    3    0  502 -0.10179240705E+04 -0.11442147880E+04  0.22987176260E+03  0.15486245257E+04  0.25500000920E-02 0. -1.
</event>
<event>
 5   0  0.1840431E-06  0.3152691E+04  0.7818609E-02  0.8201424E-01
        1   -1    0    0  501    0  0.00000000000E+00  0.00000000000E+00  0.13072328147E+04  0.13072328147E+04  0.50400001928E-02 0.  1.
       -1   -1    0    0    0  501  0.00000000000E+00  0.00000000000E+00 -0.19008585185E+04  0.19008585185E+04  0.50400001928E-02 0. -1.
    10030    2    1    2    0    0  0.00000000000E+00  0.00000000000E+00 -0.59362570381E+03  0.32080913332E+04  0.31526906804E+04 0.  0.
        1    1    3    3  502    0  0.78573846770E+03 -0.11833794394E+04 -0.99226450667E+03  0.17327321456E+04  0.50400001928E-02 0. -1.
       -1    1    3    3    0  502 -0.78573846770E+03  0.11833794394E+04  0.39863880286E+03  0.14753591876E+04  0.50400001928E-02 0.  1.
</event>
<event>
 5   0  0.1836401E-06  0.3102268E+04  0.7818609E-02  0.8215116E-01
       -1   -1    0    0    0  501  0.00000000000E+00  0.00000000000E+00  0.15096700168E+04  0.15096700168E+04  0.50400001928E-02 0.  1.
        1   -1    0    0  501    0  0.00000000000E+00  0.00000000000E+00 -0.15937366521E+04  0.15937366521E+04  0.50400001928E-02 0. -1.
    10030    2    1    2    0    0  0.00000000000E+00  0.00000000000E+00 -0.84066635228E+02  0.31034066689E+04  0.31022678404E+04 0.  0.
        2    1    3    3  502    0  0.13922795543E+04  0.87206111301E+02  0.63642592382E+03  0.15333248905E+04  0.25500000920E-02 0.  1.
       -2    1    3    3    0  502 -0.13922795543E+04 -0.87206111301E+02 -0.72049255905E+03  0.15700817784E+04  0.25500000920E-02 0. -1.
</event>
<event>
 5   0  0.4927533E-06  0.3119573E+04  0.7818609E-02  0.8210387E-01
       -2   -1    0    0    0  501  0.00000000000E+00  0.00000000000E+00  0.12815972371E+04  0.12815972371E+04  0.25500000920E-02 0.  1.
        2   -1    0    0  501    0  0.00000000000E+00  0.00000000000E+00 -0.18983608430E+04  0.18983608430E+04  0.25500000920E-02 0. -1.
    10030    2    1    2    0    0  0.00000000000E+00  0.00000000000E+00 -0.61676360584E+03  0.31799580801E+04  0.31195730550E+04 0.  0.
        5    1    3    3  502    0  0.18339825804E+03  0.15322084040E+04 -0.76796120865E+02  0.15450622151E+04  0.46999998093E+01 0. -1.
       -5    1    3    3    0  502 -0.18339825804E+03 -0.15322084040E+04 -0.53996748497E+03  0.16348958650E+04  0.46999998093E+01 0.  1.
</event>
<event>
 5   0  0.1840431E-06  0.3134419E+04  0.7818609E-02  0.8206355E-01
       -1   -1    0    0    0  501  0.00000000000E+00  0.00000000000E+00  0.11854532560E+04  0.11854532560E+04  0.50400001928E-02 0.  1.
        1   -1    0    0  501    0  0.00000000000E+00  0.00000000000E+00 -0.20719039953E+04  0.20719039953E+04  0.50400001928E-02 0. -1.
    10030    2    1    2    0    0  0.00000000000E+00  0.00000000000E+00 -0.88645073927E+03  0.32573572513E+04  0.31344188216E+04 0.  0.
        1    1    3    3  502    0 -0.12457450205E+04 -0.88836244718E+03 -0.90690291599E+02  0.15327404290E+04  0.50400001928E-02 0.  1.
       -1    1    3    3    0  502  0.12457450205E+04  0.88836244718E+03 -0.79576044767E+03  0.17246168223E+04  0.50400001928E-02 0. -1.
</event>
<event>
 5   0  0.4900679E-06  0.3083812E+04  0.7818609E-02  0.8220195E-01
       -2   -1    0    0    0  501  0.00000000000E+00  0.00000000000E+00  0.89180763600E+03  0.89180763600E+03  0.25500000920E-02 0.  1.
        2   -1    0    0  501    0  0.00000000000E+00  0.00000000000E+00 -0.26659041280E+04  0.26659041281E+04  0.25500000920E-02 0. -1.
    10030    2    1    2    0    0  0.00000000000E+00  0.00000000000E+00 -0.17740964921E+04  0.35577117641E+04  0.30838117052E+04 0.  0.
        4    1    3    3  502    0  0.15377808368E+04 -0.25693857644E+01 -0.10170378215E+04  0.18436767740E+04  0.12699999809E+01 0. -1.
       -4    1    3    3    0  502 -0.15377808368E+04  0.25693857644E+01 -0.75705867053E+03  0.17140349901E+04  0.12699999809E+01 0.  1.
</event>
<event>
 5   0  0.5001658E-06  0.2638347E+04  0.7818609E-02  0.8355291E-01
       -2   -1    0    0    0  501  0.00000000000E+00  0.00000000000E+00  0.12614378182E+04  0.12614378182E+04  0.25500000920E-02 0.  1.
        2   -1    0    0  501    0  0.00000000000E+00  0.00000000000E+00 -0.13795515336E+04  0.13795515336E+04  0.25500000920E-02 0. -1.
    10030    2    1    2    0    0  0.00000000000E+00  0.00000000000E+00 -0.11811371541E+03  0.26409893519E+04  0.26383468132E+04 0.  0.
        3    1    3    3  502    0  0.80747980293E+03 -0.49458145687E+03  0.86033136922E+03  0.12793766157E+04  0.10100000352E+00 0.  1.
       -3    1    3    3    0  502 -0.80747980293E+03  0.49458145687E+03 -0.97844508463E+03  0.13616127362E+04  0.10100000352E+00 0. -1.
</event>
<event>
 5   0  0.5001658E-06  0.3055356E+04  0.7818609E-02  0.8228098E-01
       -2   -1    0    0    0  501  0.00000000000E+00  0.00000000000E+00  0.13612206265E+04  0.13612206265E+04  0.25500000920E-02 0.  1.
        2   -1    0    0  501    0  0.00000000000E+00  0.00000000000E+00 -0.17144907876E+04  0.17144907876E+04  0.25500000920E-02 0. -1.
    10030    2    1    2    0    0  0.00000000000E+00  0.00000000000E+00 -0.35327016117E+03  0.30757114141E+04  0.30553560997E+04 0.  0.
        3    1    3    3  502    0  0.12339381858E+04  0.48548270176E+03  0.58703832062E+03  0.14501416828E+04  0.10100000352E+00 0.  1.
       -3    1    3    3    0  502 -0.12339381858E+04 -0.48548270176E+03 -0.94030848180E+03  0.16255697313E+04  0.10100000352E+00 0. -1.
</event>
<event>
 5   0  0.1885307E-06  0.3019621E+04  0.7818609E-02  0.8238150E-01
        1   -1    0    0  501    0  0.00000000000E+00  0.00000000000E+00  0.17728795766E+04  0.17728795766E+04  0.50400001928E-02 0.  1.
       -1   -1    0    0    0  501  0.00000000000E+00  0.00000000000E+00 -0.12857769038E+04  0.12857769038E+04  0.50400001928E-02 0. -1.
    10030    2    1    2    0    0  0.00000000000E+00  0.00000000000E+00  0.48710267280E+03  0.30586564804E+04  0.30196209118E+04 0.  0.
        3    1    3    3  502    0  0.13728839244E+04  0.92248139174E+02 -0.38593846007E+03  0.14290795969E+04  0.10100000352E+00 0. -1.
       -3    1    3    3    0  502 -0.13728839244E+04 -0.92248139174E+02  0.87304113287E+03  0.16295768834E+04  0.10100000352E+00 0.  1.
</event>
<event>
 5   0  0.5114870E-06  0.3121131E+04  0.7818609E-02  0.8209963E-01
        2   -1    0    0  501    0  0.00000000000E+00  0.00000000000E+00  0.20547992880E+04  0.20547992880E+04  0.25500000920E-02 0. -1.
       -2   -1    0    0    0  501  0.00000000000E+00  0.00000000000E+00 -0.11852078168E+04  0.11852078168E+04  0.25500000920E-02 0.  1.
    10030    2    1    2    0    0  0.00000000000E+00  0.00000000000E+00  0.86959147125E+03  0.32400071048E+04  0.31211306785E+04 0.  0.
        2    1    3    3  502    0  0.41932834671E+03  0.14127960865E+04 -0.98113529654E+02  0.14769750537E+04  0.25500000920E-02 0.  1.
       -2    1    3    3    0  502 -0.41932834671E+03 -0.14127960865E+04  0.96770500090E+03  0.17630320511E+04  0.25500000920E-02 0. -1.
</event>
<event>
 5   0  0.4900679E-06  0.3244574E+04  0.7818609E-02  0.8177144E-01
       -2   -1    0    0    0  501  0.00000000000E+00  0.00000000000E+00  0.19883355552E+04  0.19883355552E+04  0.25500000920E-02 0. -1.
        2   -1    0    0  501    0  0.00000000000E+00  0.00000000000E+00 -0.13236272136E+04  0.13236272136E+04  0.25500000920E-02 0.  1.
    10030    2    1    2    0    0  0.00000000000E+00  0.00000000000E+00  0.66470834167E+03  0.33119627688E+04  0.32445739632E+04 0.  0.
        4    1    3    3  502    0  0.15740930637E+04  0.30625045913E+03  0.58292167539E+03  0.17062700869E+04  0.12699999809E+01 0. -1.
       -4    1    3    3    0  502 -0.15740930637E+04 -0.30625045913E+03  0.81786666284E+02  0.16056926819E+04  0.12699999809E+01 0.  1.
</event>
<event>
 5   0  0.4900679E-06  0.3073300E+04  0.7818609E-02  0.8223104E-01
       -2   -1    0    0    0  501  0.00000000000E+00  0.00000000000E+00  0.15621925936E+04  0.15621925936E+04  0.25500000920E-02 0.  1.
        2   -1    0    0  501    0  0.00000000000E+00  0.00000000000E+00 -0.15115246466E+04  0.15115246466E+04  0.25500000920E-02 0. -1.
    10030    2    1    2    0    0  0.00000000000E+00  0.00000000000E+00  0.50667946996E+02  0.30737172403E+04  0.30732996002E+04 0.  0.
        4    1    3    3  502    0  0.71692027802E+03 -0.12256373150E+04 -0.56222307914E+03  0.15271731783E+04  0.12699999809E+01 0. -1.
       -4    1    3    3    0  502 -0.71692027802E+03  0.12256373150E+04  0.61289102613E+03  0.15465440620E+04  0.12699999809E+01 0.  1.
</event>
<event>
 5   0  0.1843709E-06  0.3151032E+04  0.7818609E-02  0.8201871E-01
        1   -1    0    0  501    0  0.00000000000E+00  0.00000000000E+00  0.21195708436E+04  0.21195708436E+04  0.50400001928E-02 0. -1.
       -1   -1    0    0    0  501  0.00000000000E+00  0.00000000000E+00 -0.11711097126E+04  0.11711097126E+04  0.50400001928E-02 0.  1.
    10030    2    1    2    0    0  0.00000000000E+00  0.00000000000E+00  0.94846113102E+03  0.32906805562E+04  0.31510315781E+04 0.  0.
        4    1    3    3  502    0  0.12845264677E+03  0.15685971490E+04  0.39855320484E+03  0.16235280621E+04  0.12699999809E+01 0. -1.
       -4    1    3    3    0  502 -0.12845264677E+03 -0.15685971490E+04  0.54990792618E+03  0.16671524941E+04  0.12699999809E+01 0.  1.
</event>
<event>
 5   0  0.1853742E-06  0.3097133E+04  0.7818609E-02  0.8216525E-01
       -1   -1    0    0    0  501  0.00000000000E+00  0.00000000000E+00  0.15222018901E+04  0.15222018901E+04  0.50400001928E-02 0.  1.
        1   -1    0    0  501    0  0.00000000000E+00  0.00000000000E+00 -0.15753876378E+04  0.15753876378E+04  0.50400001928E-02 0. -1.
    10030    2    1    2    0    0  0.00000000000E+00  0.00000000000E+00 -0.53185747711E+02  0.30975895279E+04  0.30971328934E+04 0.  0.
        5    1    3    3  502    0  0.66613312101E+03  0.91926025484E+03 -0.10799638045E+04  0.15668811889E+04  0.46999998093E+01 0. -1.
       -5    1    3    3    0  502 -0.66613312101E+03 -0.91926025484E+03  0.10267780568E+04  0.15307083390E+04  0.46999998093E+01 0.  1.
</event>
<event>
 5   0  0.1840431E-06  0.3135385E+04  0.7818609E-02  0.8206093E-01
        1   -1    0    0  501    0  0.00000000000E+00  0.00000000000E+00  0.17089925132E+04  0.17089925132E+04  0.50400001928E-02 0. -1.
       -1   -1    0    0    0  501  0.00000000000E+00  0.00000000000E+00 -0.14380754378E+04  0.14380754378E+04  0.50400001928E-02 0.  1.
    10030    2    1    2    0    0  0.00000000000E+00  0.00000000000E+00  0.27091707542E+03  0.31470679510E+04  0.31353852437E+04 0.  0.
        1    1    3    3  502    0 -0.85260057886E+03 -0.78845670814E+03  0.11925057411E+04  0.16645304654E+04  0.50400001928E-02 0. -1.
       -1    1    3    3    0  502  0.85260057886E+03  0.78845670814E+03 -0.92158866564E+03  0.14825374856E+04  0.50400001928E-02 0.  1.
</event>
<event>
 5   0  0.1843709E-06  0.2842881E+04  0.7818609E-02  0.8290078E-01
       -1   -1    0    0    0  501  0.00000000000E+00  0.00000000000E+00  0.12488840833E+04  0.12488840834E+04  0.50400001928E-02 0.  1.
        1   -1    0    0  501    0  0.00000000000E+00  0.00000000000E+00 -0.16178386203E+04  0.16178386203E+04  0.50400001928E-02 0. -1.
    10030    2    1    2    0    0  0.00000000000E+00  0.00000000000E+00 -0.36895453696E+03  0.28667227037E+04  0.28428808644E+04 0.  0.
        4    1    3    3  502    0 -0.11627118185E+04  0.22719335971E+03  0.60758815141E+03  0.13314205084E+04  0.12699999809E+01 0.  1.
       -4    1    3    3    0  502  0.11627118185E+04 -0.22719335971E+03 -0.97654268837E+03  0.15353021952E+04  0.12699999809E+01 0. -1.
</event>
<event>
 5   0  0.1840431E-06  0.2924032E+04  0.7818609E-02  0.8265763E-01
       -1   -1    0    0    0  501  0.00000000000E+00  0.00000000000E+00  0.20124705630E+04  0.20124705630E+04  0.50400001928E-02 0.  1.
        1   -1    0    0  501    0  0.00000000000E+00  0.00000000000E+00 -0.10621227308E+04  0.10621227309E+04  0.50400001928E-02 0. -1.
    10030    2    1    2    0    0  0.00000000000E+00  0.00000000000E+00  0.95034783213E+03  0.30745932938E+04  0.29240319630E+04 0.  0.
        1    1    3    3  502    0  0.33013318365E+03  0.38672137609E+03  0.19165028368E+04  0.19828072183E+04  0.50400001928E-02 0.  1.
       -1    1    3    3    0  502 -0.33013318365E+03 -0.38672137609E+03 -0.96615500463E+03  0.10917860755E+04  0.50400001928E-02 0. -1.
</event>
<event>
 5   0  0.5114870E-06  0.3064852E+04  0.7818609E-02  0.8225451E-01
        2   -1    0    0  501    0  0.00000000000E+00  0.00000000000E+00  0.18959465102E+04  0.18959465102E+04  0.25500000920E-02 0. -1.
       -2   -1    0    0    0  501  0.00000000000E+00  0.00000000000E+00 -0.12386051421E+04  0.12386051421E+04  0.25500000920E-02 0.  1.
    10030    2    1    2    0    0  0.00000000000E+00  0.00000000000E+00  0.65734136809E+03  0.31345516523E+04  0.30648517724E+04 0.  0.
        2    1    3    3  502    0 -0.89644193989E+03 -0.58759709753E+02 -0.94104086619E+03  0.13010068282E+04  0.25500000920E-02 0. -1.
       -2    1    3    3    0  502  0.89644193989E+03  0.58759709753E+02  0.15983822343E+04  0.18335448241E+04  0.25500000920E-02 0.  1.
</event>
<event>
 5   0  0.1843709E-06  0.3087277E+04  0.7818609E-02  0.8219238E-01
       -1   -1    0    0    0  501  0.00000000000E+00  0.00000000000E+00  0.98682744203E+03  0.98682744204E+03  0.50400001928E-02 0. -1.
        1   -1    0    0  501    0  0.00000000000E+00  0.00000000000E+00 -0.24146272822E+04  0.24146272822E+04  0.50400001928E-02 0.  1.
    10030    2    1    2    0    0  0.00000000000E+00  0.00000000000E+00 -0.14277998402E+04  0.34014547243E+04  0.30872774183E+04 0.  0.
        4    1    3    3  502    0 -0.85260508569E+03  0.10135821665E+04  0.15958143077E+03  0.13340734936E+04  0.12699999809E+01 0. -1.
       -4    1    3    3    0  502  0.85260508569E+03 -0.10135821665E+04 -0.15873812710E+04  0.20673812306E+04  0.12699999809E+01 0.  1.
</event>
<event>
 5   0  0.4900679E-06  0.3151519E+04  0.7818609E-02  0.8201739E-01
        2   -1    0    0  501    0  0.00000000000E+00  0.00000000000E+00  0.17192104754E+04  0.17192104754E+04  0.25500000920E-02 0.  1.
       -2   -1    0    0    0  501  0.00000000000E+00  0.00000000000E+00 -0.14442781126E+04  0.14442781126E+04  0.25500000920E-02 0. -1.
    10030    2    1    2    0    0  0.00000000000E+00  0.00000000000E+00  0.27493236283E+03  0.31634885880E+04  0.31515190373E+04 0.  0.
        4    1    3    3  502    0 -0.29219437916E+03 -0.13075574212E+04  0.97003328193E+03  0.16541010084E+04  0.12699999809E+01 0.  1.
       -4    1    3    3    0  502  0.29219437916E+03  0.13075574212E+04 -0.69510091909E+03  0.15093875797E+04  0.12699999809E+01 0. -1.
</event>
<event>
 5   0  0.1840431E-06  0.3271239E+04  0.7818609E-02  0.8170252E-01
       -1   -1    0    0    0  501  0.00000000000E+00  0.00000000000E+00  0.13711549727E+04  0.13711549727E+04  0.50400001928E-02 0.  1.
        1   -1    0    0  501    0  0.00000000000E+00  0.00000000000E+00 -0.19510936824E+04  0.19510936824E+04  0.50400001928E-02 0. -1.
    10030    2    1    2    0    0  0.00000000000E+00  0.00000000000E+00 -0.57993870966E+03  0.33222486551E+04  0.32712394011E+04 0.  0.
        1    1    3    3  502    0 -0.22467596084E+03  0.12691832141E+04  0.73268135253E+03  0.14826082701E+04  0.50400001928E-02 0.  1.
       -1    1    3    3    0  502  0.22467596084E+03 -0.12691832141E+04 -0.13126200622E+04  0.18396403850E+04  0.50400001928E-02 0. -1.
</event>
<event>
 5   0  0.1885307E-06  0.3099506E+04  0.7818609E-02  0.8215874E-01
        1   -1    0    0  501    0  0.00000000000E+00  0.00000000000E+00  0.22823015021E+04  0.22823015021E+04  0.50400001928E-02 0. -1.
       -1   -1    0    0    0  501  0.00000000000E+00  0.00000000000E+00 -0.10523296737E+04  0.10523296737E+04  0.50400001928E-02 0.  1.
    10030    2    1    2    0    0  0.00000000000E+00  0.00000000000E+00  0.12299718285E+04  0.33346311758E+04  0.30995055057E+04 0.  0.
        3    1    3    3  502    0 -0.10595770309E+04 -0.78952205238E+03 -0.25618431940E+03  0.13459862448E+04  0.10100000352E+00 0.  1.
       -3    1    3    3    0  502  0.10595770309E+04  0.78952205238E+03  0.14861561479E+04  0.19886449310E+04  0.10100000352E+00 0. -1.
</event>
<event>
 5   0  0.5114870E-06  0.3155912E+04  0.7818609E-02  0.8200559E-01
       -2   -1    0    0    0  501  0.00000000000E+00  0.00000000000E+00  0.20158252670E+04  0.20158252670E+04  0.25500000920E-02 0.  1.
        2   -1    0    0  501    0  0.00000000000E+00  0.00000000000E+00 -0.12351992799E+04  0.12351992799E+04  0.25500000920E-02 0. -1.
    10030    2    1    2    0    0  0.00000000000E+00  0.00000000000E+00  0.78062598709E+03  0.32510245469E+04  0.31559124945E+04 0.  0.
        2    1    3    3  502    0 -0.28593225116E+03 -0.98662771054E+03 -0.84359870726E+03  0.13292292016E+04  0.25500000920E-02 0. -1.
       -2    1    3    3    0  502  0.28593225116E+03  0.98662771054E+03  0.16242246943E+04  0.19217953453E+04  0.25500000920E-02 0.  1.
</event>
<event>
 5   0  0.5001658E-06  0.2876557E+04  0.7818609E-02  0.8279887E-01
       -2   -1    0    0    0  501  0.00000000000E+00  0.00000000000E+00  0.21940422562E+04  0.21940422562E+04  0.25500000920E-02 0. -1.
        2   -1    0    0  501    0  0.00000000000E+00  0.00000000000E+00 -0.94284679951E+03  0.94284679951E+03  0.25500000920E-02 0.  1.
    10030    2    1    2    0    0  0.00000000000E+00  0.00000000000E+00  0.12511954567E+04  0.31368890557E+04  0.28765574698E+04 0.  0.
        3    1    3    3  502    0 -0.12019761186E+04  0.77131756118E+03  0.81120197265E+03  0.16424755768E+04  0.10100000352E+00 0. -1.
       -3    1    3    3    0  502  0.12019761186E+04 -0.77131756118E+03  0.43999348406E+03  0.14944134789E+04  0.10100000352E+00 0.  1.
</event>
<event>
 5   0  0.4927533E-06  0.3011448E+04  0.7818609E-02  0.8240469E-01
        2   -1    0    0  501    0  0.00000000000E+00  0.00000000000E+00  0.23483694346E+04  0.23483694346E+04  0.25500000920E-02 0.  1.
       -2   -1    0    0    0  501  0.00000000000E+00  0.00000000000E+00 -0.96543807152E+03  0.96543807152E+03  0.25500000920E-02 0. -1.
    10030    2    1    2    0    0  0.00000000000E+00  0.00000000000E+00  0.13829313631E+04  0.33138075061E+04  0.30114483281E+04 0.  0.
        5    1    3    3  502    0  0.12916915431E+04 -0.22960687285E+03  0.15045712103E+04  0.19962321948E+04  0.46999998093E+01 0.  1.
       -5    1    3    3    0  502 -0.12916915431E+04  0.22960687285E+03 -0.12163984728E+03  0.13175753113E+04  0.46999998093E+01 0. -1.
</event>
<event>
 5   0  0.1843709E-06  0.3103437E+04  0.7818609E-02  0.8214795E-01
        1   -1    0    0  501    0  0.00000000000E+00  0.00000000000E+00  0.79825918878E+03  0.79825918880E+03  0.50400001928E-02 0.  1.
       -1   -1    0    0    0  501  0.00000000000E+00  0.00000000000E+00 -0.30163505678E+04  0.30163505678E+04  0.50400001928E-02 0. -1.
    10030    2    1    2    0    0  0.00000000000E+00  0.00000000000E+00 -0.22180913790E+04  0.38146097566E+04  0.31034365193E+04 0.  0.
        4    1    3    3  502    0 -0.63192737766E+03 -0.13780973805E+04 -0.70259915562E+03  0.16709673208E+04  0.12699999809E+01 0. -1.
       -4    1    3    3    0  502  0.63192737766E+03  0.13780973805E+04 -0.15154922234E+04  0.21436424358E+04  0.12699999809E+01 0.  1.
</event>
<event>
 5   0  0.1840431E-06  0.2892459E+04  0.7818609E-02  0.8275125E-01
       -1   -1    0    0    0  501  0.00000000000E+00  0.00000000000E+00  0.13276174318E+04  0.13276174318E+04  0.50400001928E-02 0.  1.
        1   -1    0    0  501    0  0.00000000000E+00  0.00000000000E+00 -0.15754387778E+04  0.15754387778E+04  0.50400001928E-02 0. -1.
    10030    2    1    2    0    0  0.00000000000E+00  0.00000000000E+00 -0.24782134606E+03  0.29030562096E+04  0.28924591504E+04 0.  0.
        1    1    3    3  502    0 -0.36494534391E+03 -0.83275873495E+02 -0.15259753193E+04  0.15712162964E+04  0.50400001928E-02 0. -1.
       -1    1    3    3    0  502  0.36494534391E+03  0.83275873495E+02  0.12781539732E+04  0.13318399132E+04  0.50400001928E-02 0.  1.
</event>
<event>
 5   0  0.1853742E-06  0.3097452E+04  0.7818609E-02  0.8216438E-01
        1   -1    0    0  501    0  0.00000000000E+00  0.00000000000E+00  0.10846008116E+04  0.10846008116E+04  0.50400001928E-02 0. -1.
       -1   -1    0    0    0  501  0.00000000000E+00  0.00000000000E+00 -0.22114604552E+04  0.22114604552E+04  0.50400001928E-02 0.  1.
    10030    2    1    2    0    0  0.00000000000E+00  0.00000000000E+00 -0.11268596436E+04  0.32960612668E+04  0.30974517298E+04 0.  0.
        5    1    3    3  502    0  0.56156322213E+03 -0.10766114162E+04 -0.15863612674E+04  0.19977511243E+04  0.46999998093E+01 0.  1.
       -5    1    3    3    0  502 -0.56156322213E+03  0.10766114162E+04  0.45950162382E+03  0.12983101425E+04  0.46999998093E+01 0. -1.
</event>
<event>
 5   0  0.5001658E-06  0.3105558E+04  0.7818609E-02  0.8214214E-01
        2   -1    0    0  501    0  0.00000000000E+00  0.00000000000E+00  0.14953312772E+04  0.14953312772E+04  0.25500000920E-02 0. -1.
       -2   -1    0    0    0  501  0.00000000000E+00  0.00000000000E+00 -0.16124337281E+04  0.16124337281E+04  0.25500000920E-02 0.  1.
    10030    2    1    2    0    0  0.00000000000E+00  0.00000000000E+00 -0.11710245084E+03  0.31077650053E+04  0.31055579763E+04 0.  0.
        3    1    3    3  502    0  0.49051538255E+02  0.47923654536E+01  0.14945483683E+04  0.14953607777E+04  0.10100000352E+00 0. -1.
       -3    1    3    3    0  502 -0.49051538255E+02 -0.47923654536E+01 -0.16116508191E+04  0.16124042276E+04  0.10100000352E+00 0.  1.
</event>
<event>
 5   0  0.5114870E-06  0.3104572E+04  0.7818609E-02  0.8214484E-01
       -2   -1    0    0    0  501  0.00000000000E+00  0.00000000000E+00  0.13381415195E+04  0.13381415195E+04  0.25500000920E-02 0.  1.
        2   -1    0    0  501    0  0.00000000000E+00  0.00000000000E+00 -0.18007000881E+04  0.18007000881E+04  0.25500000920E-02 0. -1.
    10030    2    1    2    0    0  0.00000000000E+00  0.00000000000E+00 -0.46255856861E+03  0.31388416075E+04  0.31045718236E+04 0.  0.
        2    1    3    3  502    0 -0.99018961582E+02 -0.96298539665E+03  0.99555913056E+03  0.13886265198E+04  0.25500000920E-02 0.  1.
       -2    1    3    3    0  502  0.99018961582E+02  0.96298539665E+03 -0.14581176992E+04  0.17502150878E+04  0.25500000920E-02 0. -1.
</event>
<event>
 5   0  0.1836401E-06  0.3011447E+04  0.7818609E-02  0.8240470E-01
       -1   -1    0    0    0  501  0.00000000000E+00  0.00000000000E+00  0.12816301925E+04  0.12816301926E+04  0.50400001928E-02 0.  1.
        1   -1    0    0  501    0  0.00000000000E+00  0.00000000000E+00 -0.17689994143E+04  0.17689994143E+04  0.50400001928E-02 0. -1.
    10030    2    1    2    0    0  0.00000000000E+00  0.00000000000E+00 -0.48736922175E+03  0.30506296069E+04  0.30114468682E+04 0.  0.
        2    1    3    3  502    0 -0.61497792040E+03  0.11032107836E+04 -0.10740642166E+04  0.16579764223E+04  0.25500000920E-02 0. -1.
       -2    1    3    3    0  502  0.61497792040E+03 -0.11032107836E+04  0.58669499481E+03  0.13926531846E+04  0.25500000920E-02 0.  1.
</event>
<event>
 5   0  0.1836401E-06  0.3100234E+04  0.7818609E-02  0.8215674E-01
        1   -1    0    0  501    0  0.00000000000E+00  0.00000000000E+00  0.27994645616E+04  0.27994645616E+04  0.50400001928E-02 0.  1.
       -1   -1    0    0    0  501  0.00000000000E+00  0.00000000000E+00 -0.85832937370E+03  0.85832937372E+03  0.50400001928E-02 0. -1.
    10030    2    1    2    0    0  0.00000000000E+00  0.00000000000E+00  0.19411351879E+04  0.36577939353E+04  0.31002339679E+04 0.  0.
        2    1    3    3  502    0 -0.57645098118E+03  0.22013341400E+03 -0.70718130103E+03  0.93854133963E+03  0.25500000920E-02 0. -1.
       -2    1    3    3    0  502  0.57645098118E+03 -0.22013341400E+03  0.26483164889E+04  0.27192525957E+04  0.25500000920E-02 0.  1.
</event>
<event>
 5   0  0.4900679E-06  0.3035592E+04  0.7818609E-02  0.8233640E-01
        2   -1    0    0  501    0  0.00000000000E+00  0.00000000000E+00  0.18263739695E+04  0.18263739695E+04  0.25500000920E-02 0. -1.
       -2   -1    0    0    0  501  0.00000000000E+00  0.00000000000E+00 -0.12613546019E+04  0.12613546019E+04  0.25500000920E-02 0.  1.
    10030    2    1    2    0    0  0.00000000000E+00  0.00000000000E+00  0.56501936756E+03  0.30877285714E+04  0.30355923384E+04 0.  0.
        4    1    3    3  502    0 -0.19283600184E+03  0.19834682664E+03 -0.12354945313E+04  0.12660867021E+04  0.12699999809E+01 0.  1.
       -4    1    3    3    0  502  0.19283600184E+03 -0.19834682664E+03  0.18005138989E+04  0.18216418694E+04  0.12699999809E+01 0. -1.
</event>
<event>
 5   0  0.1885307E-06  0.2960064E+04  0.7818609E-02  0.8255228E-01
       -1   -1    0    0    0  501  0.00000000000E+00  0.00000000000E+00  0.10892932073E+04  0.10892932073E+04  0.50400001928E-02 0. -1.
        1   -1    0    0  501    0  0.00000000000E+00  0.00000000000E+00 -0.20109317612E+04  0.20109317612E+04  0.50400001928E-02 0.  1.
    10030    2    1    2    0    0  0.00000000000E+00  0.00000000000E+00 -0.92163855385E+03  0.31002249685E+04  0.29600637209E+04 0.  0.
        3    1    3    3  502    0  0.56889274575E+03  0.63521034725E+03  0.80615619643E+03  0.11734645136E+04  0.10100000352E+00 0. -1.
       -3    1    3    3    0  502 -0.56889274575E+03 -0.63521034725E+03 -0.17277947503E+04  0.19267604549E+04  0.10100000352E+00 0.  1.
</event>
<event>
 5   0  0.5328368E-06  0.2851613E+04  0.7818609E-02  0.8287421E-01
        2   -1    0    0  501    0  0.00000000000E+00  0.00000000000E+00  0.15449768214E+04  0.15449768214E+04  0.25500000920E-02 0.  1.
       -2   -1    0    0    0  501  0.00000000000E+00  0.00000000000E+00 -0.13158287062E+04  0.13158287062E+04  0.25500000920E-02 0. -1.
    10030    2    1    2    0    0  0.00000000000E+00  0.00000000000E+00  0.22914811516E+03  0.28608055276E+04  0.28516134745E+04 0.  0.
        1    1    3    3  502    0  0.10459055559E+03  0.11761937029E+04  0.91624567294E+03  0.14946159855E+04  0.50400001928E-02 0.  1.
       -1    1    3    3    0  502 -0.10459055559E+03 -0.11761937029E+04 -0.68709755778E+03  0.13661895421E+04  0.50400001928E-02 0. -1.
</event>
<event>
 5   0  0.1836401E-06  0.3089445E+04  0.7818609E-02  0.8218641E-01
        1   -1    0    0  501    0  0.00000000000E+00  0.00000000000E+00  0.16726379185E+04  0.16726379185E+04  0.50400001928E-02 0.  1.
       -1   -1    0    0    0  501  0.00000000000E+00  0.00000000000E+00 -0.14265890622E+04  0.14265890622E+04  0.50400001928E-02 0. -1.
    10030    2    1    2    0    0  0.00000000000E+00  0.00000000000E+00  0.24604885628E+03  0.30992269807E+04  0.30894445841E+04 0.  0.
        2    1    3    3  502    0  0.13454664666E+03  0.43040303239E+03 -0.13590898019E+04  0.14319478552E+04  0.25500000920E-02 0. -1.
       -2    1    3    3    0  502 -0.13454664666E+03 -0.43040303239E+03  0.16051386582E+04  0.16672791255E+04  0.25500000920E-02 0.  1.
</event>
<event>
 5   0  0.1843709E-06  0.2224943E+04  0.7818609E-02  0.8508117E-01
       -1   -1    0    0    0  501  0.00000000000E+00  0.00000000000E+00  0.15739685570E+04  0.15739685570E+04  0.50400001928E-02 0.  1.
        1   -1    0    0  501    0  0.00000000000E+00  0.00000000000E+00 -0.78628820232E+03  0.78628820233E+03  0.50400001928E-02 0. -1.
    10030    2    1    2    0    0  0.00000000000E+00  0.00000000000E+00  0.78768035468E+03  0.23602567593E+04  0.22249430619E+04 0.  0.
        4    1    3    3  502    0  0.63869690672E+03 -0.63008136553E+03 -0.30392810821E+03  0.94726457429E+03  0.12699999809E+01 0. -1.
       -4    1    3    3    0  502 -0.63869690672E+03  0.63008136553E+03  0.10916084629E+04  0.14129921850E+04  0.12699999809E+01 0.  1.
</event>
<event>
 5   0  0.4900679E-06  0.3240496E+04  0.7818609E-02  0.8178203E-01
       -2   -1    0    0    0  501  0.00000000000E+00  0.00000000000E+00  0.26072615844E+04  0.26072615844E+04  0.25500000920E-02 0.  1.
        2   -1    0    0  501    0  0.00000000000E+00  0.00000000000E+00 -0.10068817890E+04  0.10068817890E+04  0.25500000920E-02 0. -1.
    10030    2    1    2    0    0  0.00000000000E+00  0.00000000000E+00  0.16003797954E+04  0.36141433734E+04  0.32404963870E+04 0.  0.
        4    1    3    3  502    0 -0.19983256668E+03  0.24162461021E+03  0.25731001591E+04  0.25921345545E+04  0.12699999809E+01 0.  1.
       -4    1    3    3    0  502  0.19983256668E+03 -0.24162461021E+03 -0.97272036370E+03  0.10220088189E+04  0.12699999809E+01 0. -1.
</event>
<event>
 5   0  0.5114870E-06  0.3161383E+04  0.7818609E-02  0.8199091E-01
        2   -1    0    0  501    0  0.00000000000E+00  0.00000000000E+00  0.18541991465E+04  0.18541991465E+04  0.25500000920E-02 0.  1.
       -2   -1    0    0    0  501  0.00000000000E+00  0.00000000000E+00 -0.13475281555E+04  0.13475281555E+04  0.25500000920E-02 0. -1.
    10030    2    1    2    0    0  0.00000000000E+00  0.00000000000E+00  0.50667099100E+03  0.32017273020E+04  0.31613829605E+04 0.  0.
        2    1    3    3  502    0  0.37261749021E+03 -0.60165472409E+03  0.16847920303E+04  0.18273905949E+04  0.25500000920E-02 0.  1.
       -2    1    3    3    0  502 -0.37261749021E+03  0.60165472409E+03 -0.11781210393E+04  0.13743367070E+04  0.25500000920E-02 0. -1.
</event>
<event>
 5   0  0.1853742E-06  0.3052659E+04  0.7818609E-02  0.8228852E-01
       -1   -1    0    0    0  501  0.00000000000E+00  0.00000000000E+00  0.98336018151E+03  0.98336018153E+03  0.50400001928E-02 0. -1.
        1   -1    0    0  501    0  0.00000000000E+00  0.00000000000E+00 -0.23691028621E+04  0.23691028621E+04  0.50400001928E-02 0.  1.
    10030    2    1    2    0    0  0.00000000000E+00  0.00000000000E+00 -0.13857426806E+04  0.33524630436E+04  0.30526587890E+04 0.  0.
        5    1    3    3  502    0  0.91410301476E+02  0.13822399640E+04 -0.13966832890E+04  0.19671526278E+04  0.46999998093E+01 0.  1.
       -5    1    3    3    0  502 -0.91410301476E+02 -0.13822399640E+04  0.10940608429E+02  0.13853104158E+04  0.46999998093E+01 0. -1.
</event>
<event>
 5   0  0.4927533E-06  0.2510234E+04  0.7818609E-02  0.8399349E-01
        2   -1    0    0  501    0  0.00000000000E+00  0.00000000000E+00  0.17146342329E+04  0.17146342329E+04  0.25500000920E-02 0.  1.
       -2   -1    0    0    0  501  0.00000000000E+00  0.00000000000E+00 -0.91874946476E+03  0.91874946476E+03  0.25500000920E-02 0. -1.
    10030    2    1    2    0    0  0.00000000000E+00  0.00000000000E+00  0.79588476817E+03  0.26333836977E+04  0.25102344781E+04 0.  0.
        5    1    3    3  502    0 -0.18768454552E+03  0.96781246147E+03  0.12128462384E+04  0.15629793784E+04  0.46999998093E+01 0.  1.
       -5    1    3    3    0  502  0.18768454552E+03 -0.96781246147E+03 -0.41696147022E+03  0.10704043193E+04  0.46999998093E+01 0. -1.
</event>
<event>
 5   0  0.5114870E-06  0.3090616E+04  0.7818609E-02  0.8218318E-01
       -2   -1    0    0    0  501  0.00000000000E+00  0.00000000000E+00  0.11220250393E+04  0.11220250393E+04  0.25500000920E-02 0. -1.
        2   -1    0    0  501    0  0.00000000000E+00  0.00000000000E+00 -0.21282744194E+04  0.21282744194E+04  0.25500000920E-02 0.  1.
    10030    2    1    2    0    0  0.00000000000E+00  0.00000000000E+00 -0.10062493801E+04  0.32502994586E+04  0.30906162421E+04 0.  0.
        2    1    3    3  502    0 -0.28714608681E+03 -0.12856059330E+04  0.34654274122E+03  0.13621040202E+04  0.25500000920E-02 0. -1.
       -2    1    3    3    0  502  0.28714608681E+03  0.12856059330E+04 -0.13527921213E+04  0.18881954385E+04  0.25500000920E-02 0.  1.
</event>
<event>
 5   0  0.1649875E-06  0.3062285E+04  0.7818609E-02  0.8226165E-01
       -4   -1    0    0    0  501  0.00000000000E+00  0.00000000000E+00  0.12908337552E+04  0.12908343799E+04  0.12699999809E+01 0.  1.
        4   -1    0    0  501    0  0.00000000000E+00  0.00000000000E+00 -0.18161866215E+04  0.18161870655E+04  0.12699999809E+01 0. -1.
    10030    2    1    2    0    0  0.00000000000E+00  0.00000000000E+00 -0.52535286631E+03  0.31070214455E+04  0.30622845440E+04 0.  0.
        5    1    3    3  502    0 -0.34995261219E+03  0.62169858177E+03 -0.16372370852E+04  0.17859292596E+04  0.46999998093E+01 0. -1.
       -5    1    3    3    0  502  0.34995261219E+03 -0.62169858177E+03  0.11118842189E+04  0.13210921858E+04  0.46999998093E+01 0.  1.
</event>
<event>
 5   0  0.1885307E-06  0.3099526E+04  0.7818609E-02  0.8215868E-01
        1   -1    0    0  501    0  0.00000000000E+00  0.00000000000E+00  0.16176965632E+04  0.16176965632E+04  0.50400001928E-02 0. -1.
       -1   -1    0    0    0  501  0.00000000000E+00  0.00000000000E+00 -0.14846824225E+04  0.14846824225E+04  0.50400001928E-02 0.  1.
    10030    2    1    2    0    0  0.00000000000E+00  0.00000000000E+00  0.13301414075E+03  0.31023789857E+04  0.30995261911E+04 0.  0.
        3    1    3    3  502    0 -0.32523921901E+03  0.12203113323E+04  0.96556837385E+03  0.15897366424E+04  0.10100000352E+00 0. -1.
       -3    1    3    3    0  502  0.32523921901E+03 -0.12203113323E+04 -0.83255423310E+03  0.15126423433E+04  0.10100000352E+00 0.  1.
</event>
<event>
 5   0  0.5328368E-06  0.3080102E+04  0.7818609E-02  0.8221220E-01
        2   -1    0    0  501    0  0.00000000000E+00  0.00000000000E+00  0.23144391041E+04  0.23144391041E+04  0.25500000920E-02 0. -1.
       -2   -1    0    0    0  501  0.00000000000E+00  0.00000000000E+00 -0.10247653887E+04  0.10247653887E+04  0.25500000920E-02 0.  1.
    10030    2    1    2    0    0  0.00000000000E+00  0.00000000000E+00  0.12896737154E+04  0.33392044928E+04  0.30801020036E+04 0.  0.
        1    1    3    3  502    0 -0.73580774512E+03 -0.10412375999E+04 -0.29163842110E+03  0.13079150377E+04  0.50400001928E-02 0.  1.
       -1    1    3    3    0  502  0.73580774512E+03  0.10412375999E+04  0.15813121365E+04  0.20312894550E+04  0.50400001928E-02 0. -1.
</event>
<event>
 5   0  0.1885307E-06  0.3177307E+04  0.7818609E-02  0.8194836E-01
       -1   -1    0    0    0  501  0.00000000000E+00  0.00000000000E+00  0.10763023438E+04  0.10763023438E+04  0.50400001928E-02 0.  1.
        1   -1    0    0  501    0  0.00000000000E+00  0.00000000000E+00 -0.23448984704E+04  0.23448984704E+04  0.50400001928E-02 0. -1.
    10030    2    1    2    0    0  0.00000000000E+00  0.00000000000E+00 -0.12685961266E+04  0.34212008142E+04  0.31773068594E+04 0.  0.
        3    1    3    3  502    0 -0.39344967171E+03  0.76843933632E+03 -0.20702785724E+04  0.22430682190E+04  0.10100000352E+00 0. -1.
       -3    1    3    3    0  502  0.39344967171E+03 -0.76843933632E+03  0.80168244581E+03  0.11781325952E+04  0.10100000352E+00 0.  1.
</event>
<event>
 5   0  0.5114870E-06  0.3119305E+04  0.7818609E-02  0.8210460E-01
        2   -1    0    0  501    0  0.00000000000E+00  0.00000000000E+00  0.22825445160E+04  0.22825445160E+04  0.25500000920E-02 0. -1.
       -2   -1    0    0    0  501  0.00000000000E+00  0.00000000000E+00 -0.10657038358E+04  0.10657038358E+04  0.25500000920E-02 0.  1.
    10030    2    1    2    0    0  0.00000000000E+00  0.00000000000E+00  0.12168406801E+04  0.33482483518E+04  0.31193053369E+04 0.  0.
        2    1    3    3  502    0 -0.54705609480E+03  0.14492221739E+04  0.80341576263E+03  0.17449905925E+04  0.25500000920E-02 0. -1.
       -2    1    3    3    0  502  0.54705609480E+03 -0.14492221739E+04  0.41342491750E+03  0.16032577593E+04  0.25500000920E-02 0.  1.
</event>
<event>
 5   0  0.5001658E-06  0.3107495E+04  0.7818609E-02  0.8213684E-01
       -2   -1    0    0    0  501  0.00000000000E+00  0.00000000000E+00  0.20967307843E+04  0.20967307843E+04  0.25500000920E-02 0.  1.
        2   -1    0    0  501    0  0.00000000000E+00  0.00000000000E+00 -0.11513785072E+04  0.11513785072E+04  0.25500000920E-02 0. -1.
    10030    2    1    2    0    0  0.00000000000E+00  0.00000000000E+00  0.94535227706E+03  0.32481092915E+04  0.31074946567E+04 0.  0.
        3    1    3    3  502    0 -0.33657341805E+03  0.11310334013E+04 -0.58380889385E+03  0.13165679076E+04  0.10100000352E+00 0. -1.
       -3    1    3    3    0  502  0.33657341805E+03 -0.11310334013E+04  0.15291611709E+04  0.19315413838E+04  0.10100000352E+00 0.  1.
</event>
<event>
 5   0  0.5328368E-06  0.3126186E+04  0.7818609E-02  0.8208588E-01
        2   -1    0    0  501    0  0.00000000000E+00  0.00000000000E+00  0.16712952742E+04  0.16712952742E+04  0.25500000920E-02 0. -1.
       -2   -1    0    0    0  501  0.00000000000E+00  0.00000000000E+00 -0.14618956350E+04  0.14618956350E+04  0.25500000920E-02 0.  1.
    10030    2    1    2    0    0  0.00000000000E+00  0.00000000000E+00  0.20939963914E+03  0.31331909092E+04  0.31261857054E+04 0.  0.
        1    1    3    3  502    0  0.78007179698E+03  0.13301431459E+04  0.36113732517E+03  0.15837338680E+04  0.50400001928E-02 0.  1.
       -1    1    3    3    0  502 -0.78007179698E+03 -0.13301431459E+04 -0.15173768603E+03  0.15494570412E+04  0.50400001928E-02 0. -1.
</event>
<event>
 5   0  0.4927533E-06  0.3181775E+04  0.7818609E-02  0.8193647E-01
        2   -1    0    0  501    0  0.00000000000E+00  0.00000000000E+00  0.25386237490E+04  0.25386237490E+04  0.25500000920E-02 0.  1.
       -2   -1    0    0    0  501  0.00000000000E+00  0.00000000000E+00 -0.99696639987E+03  0.99696639988E+03  0.25500000920E-02 0. -1.
    10030    2    1    2    0    0  0.00000000000E+00  0.00000000000E+00  0.15416573491E+04  0.35355901489E+04  0.31817747121E+04 0.  0.
        5    1    3    3  502    0 -0.21230064253E+03 -0.12913218131E+04  0.17760304570E+04  0.22061028675E+04  0.46999998093E+01 0.  1.
       -5    1    3    3    0  502  0.21230064253E+03  0.12913218131E+04 -0.23437310787E+03  0.13294872814E+04  0.46999998093E+01 0. -1.
</event>
<event>
 5   0  0.1843709E-06  0.2956686E+04  0.7818609E-02  0.8256209E-01
        1   -1    0    0  501    0  0.00000000000E+00  0.00000000000E+00  0.19255689239E+04  0.19255689239E+04  0.50400001928E-02 0. -1.
       -1   -1    0    0    0  501  0.00000000000E+00  0.00000000000E+00 -0.11349882921E+04  0.11349882921E+04  0.50400001928E-02 0.  1.
    10030    2    1    2    0    0  0.00000000000E+00  0.00000000000E+00  0.79058063182E+03  0.30605572160E+04  0.29566861073E+04 0.  0.
        4    1    3    3  502    0  0.81342833013E+03  0.54040831479E+03  0.15441409805E+04  0.18270412627E+04  0.12699999809E+01 0. -1.
       -4    1    3    3    0  502 -0.81342833013E+03 -0.54040831479E+03 -0.75356034871E+03  0.12335159533E+04  0.12699999809E+01 0.  1.
</event>
<event>
 5   0  0.1853742E-06  0.2883499E+04  0.7818609E-02  0.8277804E-01
        1   -1    0    0  501    0  0.00000000000E+00  0.00000000000E+00  0.10994910949E+04  0.10994910949E+04  0.50400001928E-02 0. -1.
       -1   -1    0    0    0  501  0.00000000000E+00  0.00000000000E+00 -0.18905493774E+04  0.18905493774E+04  0.50400001928E-02 0.  1.
    10030    2    1    2    0    0  0.00000000000E+00  0.00000000000E+00 -0.79105828255E+03  0.29900404723E+04  0.28834994052E+04 0.  0.
        5    1    3    3  502    0 -0.13533441271E+04 -0.44008030172E+03 -0.63517222439E+03  0.15584212662E+04  0.46999998093E+01 0.  1.
       -5    1    3    3    0  502  0.13533441271E+04  0.44008030172E+03 -0.15588605816E+03  0.14316192061E+04  0.46999998093E+01 0. -1.
</event>
<event>
 5   0  0.4900679E-06  0.3099242E+04  0.7818609E-02  0.8215946E-01
        2   -1    0    0  501    0  0.00000000000E+00  0.00000000000E+00  0.15444794457E+04  0.15444794457E+04  0.25500000920E-02 0. -1.
       -2   -1    0    0    0  501  0.00000000000E+00  0.00000000000E+00 -0.15547794110E+04  0.15547794110E+04  0.25500000920E-02 0.  1.
    10030    2    1    2    0    0  0.00000000000E+00  0.00000000000E+00 -0.10299965287E+02  0.30992588567E+04  0.30992417414E+04 0.  0.
        4    1    3    3  502    0  0.15216432376E+04  0.12056260698E+03  0.26204008819E+03  0.15487414585E+04  0.12699999809E+01 0. -1.
       -4    1    3    3    0  502 -0.15216432376E+04 -0.12056260698E+03 -0.27234005348E+03  0.15505173982E+04  0.12699999809E+01 0.  1.
</event>
<event>
 5   0  0.1843709E-06  0.2223431E+04  0.7818609E-02  0.8508738E-01
       -1   -1    0    0    0  501  0.00000000000E+00  0.00000000000E+00  0.12086713128E+04  0.12086713128E+04  0.50400001928E-02 0.  1.
        1   -1    0    0  501    0  0.00000000000E+00  0.00000000000E+00 -0.10225373897E+04  0.10225373897E+04  0.50400001928E-02 0. -1.
    10030    2    1    2    0    0  0.00000000000E+00  0.00000000000E+00  0.18613392307E+03  0.22312087025E+04  0.22234312305E+04 0.  0.
        4    1    3    3  502    0  0.73964069340E+03  0.38884004582E+03  0.82887465336E+03  0.11769875702E+04  0.12699999809E+01 0.  1.
       -4    1    3    3    0  502 -0.73964069340E+03 -0.38884004582E+03 -0.64274073029E+03  0.10542211323E+04  0.12699999809E+01 0. -1.
</event>
<event>
 5   0  0.1885307E-06  0.2306760E+04  0.7818609E-02  0.8475260E-01
        1   -1    0    0  501    0  0.00000000000E+00  0.00000000000E+00  0.11109446981E+04  0.11109446981E+04  0.50400001928E-02 0. -1.
       -1   -1    0    0    0  501  0.00000000000E+00  0.00000000000E+00 -0.11974362896E+04  0.11974362896E+04  0.50400001928E-02 0.  1.
    10030    2    1    2    0    0  0.00000000000E+00  0.00000000000E+00 -0.86491591467E+02  0.23083809878E+04  0.23067600632E+04 0.  0.
        3    1    3    3  502    0 -0.57231210383E+03  0.31583858940E+03 -0.99417155985E+03  0.11898202635E+04  0.10100000352E+00 0.  1.
       -3    1    3    3    0  502  0.57231210383E+03 -0.31583858940E+03  0.90767996838E+03  0.11185607243E+04  0.10100000352E+00 0. -1.
</event>
<event>
 5   0  0.5328368E-06  0.3088318E+04  0.7818609E-02  0.8218951E-01
       -2   -1    0    0    0  501  0.00000000000E+00  0.00000000000E+00  0.17611021021E+04  0.17611021021E+04  0.25500000920E-02 0. -1.
        2   -1    0    0  501    0  0.00000000000E+00  0.00000000000E+00 -0.13539406261E+04  0.13539406261E+04  0.25500000920E-02 0.  1.
    10030    2    1    2    0    0  0.00000000000E+00  0.00000000000E+00  0.40716147601E+03  0.31150427282E+04  0.30883184309E+04 0.  0.
        1    1    3    3  502    0  0.90428493950E+03  0.44455017031E+03 -0.97661763599E+03  0.14032598165E+04  0.50400001928E-02 0.  1.
       -1    1    3    3    0  502 -0.90428493950E+03 -0.44455017031E+03  0.13837791120E+04  0.17117829116E+04  0.50400001928E-02 0. -1.
</event>
<event>
 5   0  0.1853742E-06  0.3126363E+04  0.7818609E-02  0.8208540E-01
       -1   -1    0    0    0  501  0.00000000000E+00  0.00000000000E+00  0.14703055060E+04  0.14703055060E+04  0.50400001928E-02 0.  1.
        1   -1    0    0  501    0  0.00000000000E+00  0.00000000000E+00 -0.16619237428E+04  0.16619237428E+04  0.50400001928E-02 0. -1.
    10030    2    1    2    0    0  0.00000000000E+00  0.00000000000E+00 -0.19161823679E+03  0.31322292489E+04  0.31263625060E+04 0.  0.
        5    1    3    3  502    0  0.79932578248E+03  0.35482460995E+03  0.12022654180E+04  0.14867032103E+04  0.46999998093E+01 0.  1.
       -5    1    3    3    0  502 -0.79932578248E+03 -0.35482460995E+03 -0.13938836548E+04  0.16455260385E+04  0.46999998093E+01 0. -1.
</event>
<event>
 5   0  0.4900679E-06  0.2849115E+04  0.7818609E-02  0.8288180E-01
       -2   -1    0    0    0  501  0.00000000000E+00  0.00000000000E+00  0.13190741372E+04  0.13190741372E+04  0.25500000920E-02 0.  1.
        2   -1    0    0  501    0  0.00000000000E+00  0.00000000000E+00 -0.15384764623E+04  0.15384764623E+04  0.25500000920E-02 0. -1.
    10030    2    1    2    0    0  0.00000000000E+00  0.00000000000E+00 -0.21940232510E+03  0.28575505994E+04  0.28491153097E+04 0.  0.
        4    1    3    3  502    0  0.51847539313E+03 -0.13065466852E+04  0.12224512115E+03  0.14109664973E+04  0.12699999809E+01 0. -1.
       -4    1    3    3    0  502 -0.51847539313E+03  0.13065466852E+04 -0.34164744625E+03  0.14465841021E+04  0.12699999809E+01 0.  1.
</event>
<event>
 5   0  0.5328368E-06  0.3075139E+04  0.7818609E-02  0.8222594E-01
        2   -1    0    0  501    0  0.00000000000E+00  0.00000000000E+00  0.26747765415E+04  0.26747765415E+04  0.25500000920E-02 0.  1.
       -2   -1    0    0    0  501  0.00000000000E+00  0.00000000000E+00 -0.88385700478E+03  0.88385700478E+03  0.25500000920E-02 0. -1.
    10030    2    1    2    0    0  0.00000000000E+00  0.00000000000E+00  0.17909195367E+04  0.35586335463E+04  0.30751390098E+04 0.  0.
        1    1    3    3  502    0 -0.14549719918E+04  0.49339663953E+03  0.96619503511E+03  0.18149150357E+04  0.50400001928E-02 0.  1.
       -1    1    3    3    0  502  0.14549719918E+04 -0.49339663953E+03  0.82472450163E+03  0.17437185106E+04  0.50400001928E-02 0. -1.
</event>
<event>
 5   0  0.5001658E-06  0.2552583E+04  0.7818609E-02  0.8384488E-01
        2   -1    0    0  501    0  0.00000000000E+00  0.00000000000E+00  0.22207739523E+04  0.22207739523E+04  0.25500000920E-02 0.  1.
       -2   -1    0    0    0  501  0.00000000000E+00  0.00000000000E+00 -0.73349201084E+03  0.73349201084E+03  0.25500000920E-02 0. -1.
    10030    2    1    2    0    0  0.00000000000E+00  0.00000000000E+00  0.14872819414E+04  0.29542659631E+04  0.25525829678E+04 0.  0.
        3    1    3    3  502    0 -0.25104173349E+03 -0.73947686254E+03 -0.42470684167E+03  0.88894538289E+03  0.10100000352E+00 0. -1.
       -3    1    3    3    0  502  0.25104173349E+03  0.73947686254E+03  0.19119887831E+04  0.20653205802E+04  0.10100000352E+00 0.  1.
</event>
<event>
 5   0  0.5114870E-06  0.3159580E+04  0.7818609E-02  0.8199574E-01
        2   -1    0    0  501    0  0.00000000000E+00  0.00000000000E+00  0.13128919836E+04  0.13128919836E+04  0.25500000920E-02 0.  1.
       -2   -1    0    0    0  501  0.00000000000E+00  0.00000000000E+00 -0.19009454543E+04  0.19009454543E+04  0.25500000920E-02 0. -1.
    10030    2    1    2    0    0  0.00000000000E+00  0.00000000000E+00 -0.58805347070E+03  0.32138374379E+04  0.31595797494E+04 0.  0.
        2    1    3    3  502    0 -0.12464127331E+04  0.21461070341E+03 -0.12569262389E+04  0.17831057247E+04  0.25500000920E-02 0. -1.
       -2    1    3    3    0  502  0.12464127331E+04 -0.21461070341E+03  0.66887276824E+03  0.14307317132E+04  0.25500000920E-02 0.  1.
</event>
<event>
 5   0  0.5328368E-06  0.3080337E+04  0.7818609E-02  0.8221155E-01
        2   -1    0    0  501    0  0.00000000000E+00  0.00000000000E+00  0.18202177549E+04  0.18202177549E+04  0.25500000920E-02 0.  1.
       -2   -1    0    0    0  501  0.00000000000E+00  0.00000000000E+00 -0.13032058039E+04  0.13032058039E+04  0.25500000920E-02 0. -1.
    10030    2    1    2    0    0  0.00000000000E+00  0.00000000000E+00  0.51701195097E+03  0.31234235588E+04  0.30803365677E+04 0.  0.
        1    1    3    3  502    0 -0.14955921943E+04 -0.25547991760E+03 -0.98702508819E+01  0.15172881802E+04  0.50400001928E-02 0.  1.
       -1    1    3    3    0  502  0.14955921943E+04  0.25547991760E+03  0.52688220185E+03  0.16061353786E+04  0.50400001928E-02 0. -1.
</event>
<event>
 5   0  0.4927533E-06  0.3088867E+04  0.7818609E-02  0.8218800E-01
       -2   -1    0    0    0  501  0.00000000000E+00  0.00000000000E+00  0.17233519922E+04  0.17233519922E+04  0.25500000920E-02 0. -1.
        2   -1    0    0  501    0  0.00000000000E+00  0.00000000000E+00 -0.13840902691E+04  0.13840902691E+04  0.25500000920E-02 0.  1.
    10030    2    1    2    0    0  0.00000000000E+00  0.00000000000E+00  0.33926172314E+03  0.31074422614E+04  0.30888669267E+04 0.  0.
        5    1    3    3  502    0 -0.22731478030E+02 -0.15270286306E+04 -0.61794860951E+02  0.15284547274E+04  0.46999998093E+01 0.  1.
       -5    1    3    3    0  502  0.22731478030E+02  0.15270286306E+04  0.40105658409E+03  0.15789875340E+04  0.46999998093E+01 0. -1.
</event>
<event>
 5   0  0.5114870E-06  0.3105914E+04  0.7818609E-02  0.8214117E-01
       -2   -1    0    0    0  501  0.00000000000E+00  0.00000000000E+00  0.11589332980E+04  0.11589332980E+04  0.25500000920E-02 0.  1.
        2   -1    0    0  501    0  0.00000000000E+00  0.00000000000E+00 -0.20809438067E+04  0.20809438067E+04  0.25500000920E-02 0. -1.
    10030    2    1    2    0    0  0.00000000000E+00  0.00000000000E+00 -0.92201050864E+03  0.32398771047E+04  0.31059137585E+04 0.  0.
        2    1    3    3  502    0  0.14584098572E+04 -0.52994194930E+03 -0.52595884400E+03  0.16384231708E+04  0.25500000920E-02 0. -1.
       -2    1    3    3    0  502 -0.14584098572E+04  0.52994194930E+03 -0.39605166464E+03  0.16014539339E+04  0.25500000920E-02 0.  1.
</event>
<event>
 5   0  0.1885307E-06  0.3107446E+04  0.7818609E-02  0.8213697E-01
        1   -1    0    0  501    0  0.00000000000E+00  0.00000000000E+00  0.15536995430E+04  0.15536995430E+04  0.50400001928E-02 0.  1.
       -1   -1    0    0    0  501  0.00000000000E+00  0.00000000000E+00 -0.15537465295E+04  0.15537465295E+04  0.50400001928E-02 0. -1.
    10030    2    1    2    0    0  0.00000000000E+00  0.00000000000E+00 -0.46986481465E-01  0.31074460725E+04  0.31074460722E+04 0.  0.
        3    1    3    3  502    0  0.23418023326E+02 -0.12839965310E+04  0.87453912164E+03  0.15537098123E+04  0.10100000352E+00 0.  1.
       -3    1    3    3    0  502 -0.23418023326E+02  0.12839965310E+04 -0.87458610812E+03  0.15537362602E+04  0.10100000352E+00 0. -1.
</event>
<event>
 5   0  0.1840431E-06  0.2422324E+04  0.7818609E-02  0.8431193E-01
       -1   -1    0    0    0  501  0.00000000000E+00  0.00000000000E+00  0.14221233280E+04  0.14221233280E+04  0.50400001928E-02 0.  1.
        1   -1    0    0  501    0  0.00000000000E+00  0.00000000000E+00 -0.10314952475E+04  0.10314952475E+04  0.50400001928E-02 0. -1.
    10030    2    1    2    0    0  0.00000000000E+00  0.00000000000E+00  0.39062808045E+03  0.24536185755E+04  0.24223240528E+04 0.  0.
        1    1    3    3  502    0  0.38959422422E+03 -0.10465337482E+04 -0.27967585556E+03  0.11511885727E+04  0.50400001928E-02 0.  1.
       -1    1    3    3    0  502 -0.38959422422E+03  0.10465337482E+04  0.67030393601E+03  0.13024300028E+04  0.50400001928E-02 0. -1.
</event>
<event>
 5   0  0.5114870E-06  0.3132270E+04  0.7818609E-02  0.8206937E-01
       -2   -1    0    0    0  501  0.00000000000E+00  0.00000000000E+00  0.13974608747E+04  0.13974608747E+04  0.25500000920E-02 0.  1.
        2   -1    0    0  501    0  0.00000000000E+00  0.00000000000E+00 -0.17551676498E+04  0.17551676498E+04  0.25500000920E-02 0. -1.
    10030    2    1    2    0    0  0.00000000000E+00  0.00000000000E+00 -0.35770677503E+03  0.31526285245E+04  0.31322695408E+04 0.  0.
        2    1    3    3  502    0  0.12124197576E+04 -0.42991031269E+03 -0.10779645103E+04  0.16783301317E+04  0.25500000920E-02 0. -1.
       -2    1    3    3    0  502 -0.12124197576E+04  0.42991031269E+03  0.72025773525E+03  0.14742983927E+04  0.25500000920E-02 0.  1.
</event>
<event>
 5   0  0.4927533E-06  0.3247564E+04  0.7818609E-02  0.8176367E-01
        2   -1    0    0  501    0  0.00000000000E+00  0.00000000000E+00  0.24331836254E+04  0.24331836254E+04  0.25500000920E-02 0.  1.
       -2   -1    0    0    0  501  0.00000000000E+00  0.00000000000E+00 -0.10836288116E+04  0.10836288116E+04  0.25500000920E-02 0. -1.
    10030    2    1    2    0    0  0.00000000000E+00  0.00000000000E+00  0.13495548138E+04  0.35168124370E+04  0.32475639364E+04 0.  0.
        5    1    3    3  502    0 -0.75857620392E+03 -0.33832398111E+03  0.21857132023E+04  0.23382183957E+04  0.46999998093E+01 0.  1.
       -5    1    3    3    0  502  0.75857620392E+03  0.33832398111E+03 -0.83615838849E+03  0.11785940412E+04  0.46999998093E+01 0. -1.
</event>
<event>
 5   0  0.4927533E-06  0.3116951E+04  0.7818609E-02  0.8211101E-01
        2   -1    0    0  501    0  0.00000000000E+00  0.00000000000E+00  0.16333480267E+04  0.16333480267E+04  0.25500000920E-02 0. -1.
       -2   -1    0    0    0  501  0.00000000000E+00  0.00000000000E+00 -0.14870355730E+04  0.14870355730E+04  0.25500000920E-02 0.  1.
    10030    2    1    2    0    0  0.00000000000E+00  0.00000000000E+00  0.14631245371E+03  0.31203835996E+04  0.31169514713E+04 0.  0.
        5    1    3    3  502    0  0.11128543088E+04 -0.84183243389E+03 -0.62165264253E+03  0.15276127315E+04  0.46999998093E+01 0.  1.
       -5    1    3    3    0  502 -0.11128543088E+04  0.84183243389E+03  0.76796509624E+03  0.15927708681E+04  0.46999998093E+01 0. -1.
</event>
<event>
 5   0  0.1843709E-06  0.3092333E+04  0.7818609E-02  0.8217845E-01
        1   -1    0    0  501    0  0.00000000000E+00  0.00000000000E+00  0.18042138635E+04  0.18042138635E+04  0.50400001928E-02 0.  1.
       -1   -1    0    0    0  501  0.00000000000E+00  0.00000000000E+00 -0.13250261351E+04  0.13250261351E+04  0.50400001928E-02 0. -1.
    10030    2    1    2    0    0  0.00000000000E+00  0.00000000000E+00  0.47918772844E+03  0.31292399986E+04  0.30923327909E+04 0.  0.
        4    1    3    3  502    0 -0.70879427520E+03  0.50623462483E+02 -0.11499948615E+04  0.13518290771E+04  0.12699999809E+01 0. -1.
       -4    1    3    3    0  502  0.70879427520E+03 -0.50623462483E+02  0.16291825899E+04  0.17774109214E+04  0.12699999809E+01 0.  1.
</event>
<event>
 5   0  0.1649875E-06  0.2702647E+04  0.7818609E-02  0.8334146E-01
        3   -1    0    0  501    0  0.00000000000E+00  0.00000000000E+00  0.73184677064E+03  0.73184677761E+03  0.10100000352E+00 0.  1.
       -3   -1    0    0    0  501  0.00000000000E+00  0.00000000000E+00 -0.24951614615E+04  0.24951614635E+04  0.10100000352E+00 0. -1.
    10030    2    1    2    0    0  0.00000000000E+00  0.00000000000E+00 -0.17633146908E+04  0.32270082411E+04  0.27026474963E+04 0.  0.
        4    1    3    3  502    0  0.20973241790E+03  0.42083452771E+03 -0.23943341290E+04  0.24400669911E+04  0.12699999809E+01 0. -1.
       -4    1    3    3    0  502 -0.20973241790E+03 -0.42083452771E+03  0.63101943814E+03  0.78694125006E+03  0.12699999809E+01 0.  1.
</event>
<event>
 5   0  0.5328368E-06  0.3218625E+04  0.7818609E-02  0.8183916E-01
        2   -1    0    0  501    0  0.00000000000E+00  0.00000000000E+00  0.17363788545E+04  0.17363788545E+04  0.25500000920E-02 0. -1.
       -2   -1    0    0    0  501  0.00000000000E+00  0.00000000000E+00 -0.14915450989E+04  0.14915450989E+04  0.25500000920E-02 0.  1.
    10030    2    1    2    0    0  0.00000000000E+00  0.00000000000E+00  0.24483375559E+03  0.32279239534E+04  0.32186254024E+04 0.  0.
        1    1    3    3  502    0 -0.11502366310E+04 -0.69617070763E+03  0.10093866627E+04  0.16812374598E+04  0.50400001928E-02 0. -1.
       -1    1    3    3    0  502  0.11502366310E+04  0.69617070763E+03 -0.76455290715E+03  0.15466864935E+04  0.50400001928E-02 0.  1.
</event>
<event>
 5   0  0.4900679E-06  0.3144181E+04  0.7818609E-02  0.8203716E-01
        2   -1    0    0  501    0  0.00000000000E+00  0.00000000000E+00  0.25016874993E+04  0.25016874993E+04  0.25500000920E-02 0. -1.
       -2   -1    0    0    0  501  0.00000000000E+00  0.00000000000E+00 -0.98792077735E+03  0.98792077736E+03  0.25500000920E-02 0.  1.
    10030    2    1    2    0    0  0.00000000000E+00  0.00000000000E+00  0.15137667220E+04  0.34896082767E+04  0.31441813300E+04 0.  0.
        4    1    3    3  502    0 -0.27436570195E+03  0.14684308767E+04  0.13004912210E+04  0.19806172792E+04  0.12699999809E+01 0. -1.
       -4    1    3    3    0  502  0.27436570195E+03 -0.14684308767E+04  0.21327550103E+03  0.15089909975E+04  0.12699999809E+01 0.  1.
</event>
<event>
 5   0  0.5114870E-06  0.2695788E+04  0.7818609E-02  0.8336373E-01
       -2   -1    0    0    0  501  0.00000000000E+00  0.00000000000E+00  0.13699037307E+04  0.13699037307E+04  0.25500000920E-02 0. -1.
        2   -1    0    0  501    0  0.00000000000E+00  0.00000000000E+00 -0.13262379968E+04  0.13262379968E+04  0.25500000920E-02 0.  1.
    10030    2    1    2    0    0  0.00000000000E+00  0.00000000000E+00  0.43665733902E+02  0.26961417275E+04  0.26957881072E+04 0.  0.
        2    1    3    3  502    0  0.40659254839E+03 -0.53353037985E+03  0.11911082105E+04  0.13670080233E+04  0.25500000920E-02 0. -1.
       -2    1    3    3    0  502 -0.40659254839E+03  0.53353037985E+03 -0.11474424766E+04  0.13291337042E+04  0.25500000920E-02 0.  1.
</event>
<event>
 5   0  0.5114870E-06  0.3094951E+04  0.7818609E-02  0.8217125E-01
       -2   -1    0    0    0  501  0.00000000000E+00  0.00000000000E+00  0.20911324555E+04  0.20911324555E+04  0.25500000920E-02 0. -1.
        2   -1    0    0  501    0  0.00000000000E+00  0.00000000000E+00 -0.11451595664E+04  0.11451595664E+04  0.25500000920E-02 0.  1.
    10030    2    1    2    0    0  0.00000000000E+00  0.00000000000E+00  0.94597288908E+03  0.32362920219E+04  0.30949509437E+04 0.  0.
        2    1    3    3  502    0  0.11485569295E+04  0.93855012236E+03  0.93429208456E+03  0.17529863239E+04  0.25500000920E-02 0.  1.
       -2    1    3    3    0  502 -0.11485569295E+04 -0.93855012236E+03  0.11680804521E+02  0.14833056980E+04  0.25500000920E-02 0. -1.
</event>
<event>
 5   0  0.1836401E-06  0.3073155E+04  0.7818609E-02  0.8223144E-01
        1   -1    0    0  501    0  0.00000000000E+00  0.00000000000E+00  0.20497121568E+04  0.20497121568E+04  0.50400001928E-02 0.  1.
       -1   -1    0    0    0  501  0.00000000000E+00  0.00000000000E+00 -0.11519037111E+04  0.11519037111E+04  0.50400001928E-02 0. -1.
    10030    2    1    2    0    0  0.00000000000E+00  0.00000000000E+00  0.89780844570E+03  0.32016158679E+04  0.30731554078E+04 0.  0.
        2    1    3    3  502    0  0.87025733562E+03  0.12663683006E+04  0.44278173459E+03  0.15990910441E+04  0.25500000920E-02 0.  1.
       -2    1    3    3    0  502 -0.87025733562E+03 -0.12663683006E+04  0.45502671111E+03  0.16025248238E+04  0.25500000920E-02 0. -1.
</event>
<event>
 5   0  0.1885307E-06  0.3097069E+04  0.7818609E-02  0.8216543E-01
        1   -1    0    0  501    0  0.00000000000E+00  0.00000000000E+00  0.19484918151E+04  0.19484918151E+04  0.50400001928E-02 0. -1.
       -1   -1    0    0    0  501  0.00000000000E+00  0.00000000000E+00 -0.12306746468E+04  0.12306746468E+04  0.50400001928E-02 0.  1.
    10030    2    1    2    0    0  0.00000000000E+00  0.00000000000E+00  0.71781716829E+03  0.31791664619E+04  0.30970692445E+04 0.  0.
        3    1    3    3  502    0  0.12084097577E+04 -0.92273795862E+00  0.13529290964E+04  0.18140209878E+04  0.10100000352E+00 0. -1.
       -3    1    3    3    0  502 -0.12084097577E+04  0.92273795862E+00 -0.63511192812E+03  0.13651454741E+04  0.10100000352E+00 0.  1.
</event>
<event>
 5   0  0.4927533E-06  0.3164282E+04  0.7818609E-02  0.8198314E-01
       -2   -1    0    0    0  501  0.00000000000E+00  0.00000000000E+00  0.10831190470E+04  0.10831190470E+04  0.25500000920E-02 0. -1.
        2   -1    0    0  501    0  0.00000000000E+00  0.00000000000E+00 -0.23110763303E+04  0.23110763303E+04  0.25500000920E-02 0.  1.
    10030    2    1    2    0    0  0.00000000000E+00  0.00000000000E+00 -0.12279572833E+04  0.33941953774E+04  0.31642824100E+04 0.  0.
        5    1    3    3  502    0  0.43357182970E+03 -0.15006472108E+04 -0.88368806940E+03  0.17946735850E+04  0.46999998093E+01 0.  1.
       -5    1    3    3    0  502 -0.43357182970E+03  0.15006472108E+04 -0.34426921393E+03  0.15995217924E+04  0.46999998093E+01 0. -1.
</event>
<event>
 5   0  0.5328368E-06  0.2373027E+04  0.7818609E-02  0.8449672E-01
        2   -1    0    0  501    0  0.00000000000E+00  0.00000000000E+00  0.10087845893E+04  0.10087845893E+04  0.25500000920E-02 0. -1.
       -2   -1    0    0    0  501  0.00000000000E+00  0.00000000000E+00 -0.13955544186E+04  0.13955544186E+04  0.25500000920E-02 0.  1.
    10030    2    1    2    0    0  0.00000000000E+00  0.00000000000E+00 -0.38676982938E+03  0.24043390079E+04  0.23730265831E+04 0.  0.
        1    1    3    3  502    0  0.11360685180E+04  0.20793300116E+03  0.82096082113E+02  0.11578547306E+04  0.50400001928E-02 0. -1.
       -1    1    3    3    0  502 -0.11360685180E+04 -0.20793300116E+03 -0.46886591149E+03  0.12464842773E+04  0.50400001928E-02 0.  1.
</event>
<event>
 5   0  0.1843709E-06  0.3165304E+04  0.7818609E-02  0.8198041E-01
       -1   -1    0    0    0  501  0.00000000000E+00  0.00000000000E+00  0.20758977796E+04  0.20758977796E+04  0.50400001928E-02 0.  1.
        1   -1    0    0  501    0  0.00000000000E+00  0.00000000000E+00 -0.12066047115E+04  0.12066047115E+04  0.50400001928E-02 0. -1.
    10030    2    1    2    0    0  0.00000000000E+00  0.00000000000E+00  0.86929306813E+03  0.32825024912E+04  0.31653044350E+04 0.  0.
        4    1    3    3  502    0  0.99681555836E+03  0.30782302445E+03  0.16688337061E+04  0.19680964974E+04  0.12699999809E+01 0.  1.
       -4    1    3    3    0  502 -0.99681555836E+03 -0.30782302445E+03 -0.79954063793E+03  0.13144059937E+04  0.12699999809E+01 0. -1.
</event>
<event>
 5   0  0.1885307E-06  0.3138145E+04  0.7818609E-02  0.8205347E-01
        1   -1    0    0  501    0  0.00000000000E+00  0.00000000000E+00  0.14774453500E+04  0.14774453500E+04  0.50400001928E-02 0. -1.
       -1   -1    0    0    0  501  0.00000000000E+00  0.00000000000E+00 -0.16663821013E+04  0.16663821013E+04  0.50400001928E-02 0.  1.
    10030    2    1    2    0    0  0.00000000000E+00  0.00000000000E+00 -0.18893675129E+03  0.31438274513E+04  0.31381449851E+04 0.  0.
        3    1    3    3  502    0  0.16543201623E+03  0.34993509120E+03  0.14288659117E+04  0.14803648618E+04  0.10100000352E+00 0. -1.
       -3    1    3    3    0  502 -0.16543201623E+03 -0.34993509120E+03 -0.16178026630E+04  0.16634625895E+04  0.10100000352E+00 0.  1.
</event>
<event>
 5   0  0.4927533E-06  0.3068597E+04  0.7818609E-02  0.8224409E-01
       -2   -1    0    0    0  501  0.00000000000E+00  0.00000000000E+00  0.12447972150E+04  0.12447972150E+04  0.25500000920E-02 0. -1.
        2   -1    0    0  501    0  0.00000000000E+00  0.00000000000E+00 -0.18911287562E+04  0.18911287562E+04  0.25500000920E-02 0.  1.
    10030    2    1    2    0    0  0.00000000000E+00  0.00000000000E+00 -0.64633154116E+03  0.31359259712E+04  0.30685969490E+04 0.  0.
        5    1    3    3  502    0  0.46693160309E+03  0.10279596855E+04 -0.13848656446E+04  0.17867851524E+04  0.46999998093E+01 0.  1.
       -5    1    3    3    0  502 -0.46693160309E+03 -0.10279596855E+04  0.73853410347E+03  0.13491408188E+04  0.46999998093E+01 0. -1.
</event>
<event>
 5   0  0.4927533E-06  0.3358366E+04  0.7818609E-02  0.8148201E-01
       -2   -1    0    0    0  501  0.00000000000E+00  0.00000000000E+00  0.20826921632E+04  0.20826921632E+04  0.25500000920E-02 0.  1.
        2   -1    0    0  501    0  0.00000000000E+00  0.00000000000E+00 -0.13538511950E+04  0.13538511950E+04  0.25500000920E-02 0. -1.
    10030    2    1    2    0    0  0.00000000000E+00  0.00000000000E+00  0.72884096823E+03  0.34365433582E+04  0.33583658371E+04 0.  0.
        5    1    3    3  502    0 -0.51887142221E+03 -0.20455157219E+03 -0.12562937327E+04  0.13745417168E+04  0.46999998093E+01 0. -1.
       -5    1    3    3    0  502  0.51887142221E+03  0.20455157219E+03  0.19851347009E+04  0.20620016414E+04  0.46999998093E+01 0.  1.
</event>
<event>
 5   0  0.5114870E-06  0.3168589E+04  0.7818609E-02  0.8197162E-01
       -2   -1    0    0    0  501  0.00000000000E+00  0.00000000000E+00  0.12899298823E+04  0.12899298823E+04  0.25500000920E-02 0.  1.
        2   -1    0    0  501    0  0.00000000000E+00  0.00000000000E+00 -0.19458334617E+04  0.19458334617E+04  0.25500000920E-02 0. -1.
    10030    2    1    2    0    0  0.00000000000E+00  0.00000000000E+00 -0.65590357935E+03  0.32357633440E+04  0.31685887889E+04 0.  0.
        2    1    3    3  502    0  0.15011131834E+04 -0.61058628594E+02 -0.84152489157E+03  0.17219852173E+04  0.25500000920E-02 0.  1.
       -2    1    3    3    0  502 -0.15011131834E+04  0.61058628594E+02  0.18562131222E+03  0.15137781267E+04  0.25500000920E-02 0. -1.
</event>
<event>
 5   0  0.4900679E-06  0.3195361E+04  0.7818609E-02  0.8190043E-01
       -2   -1    0    0    0  501  0.00000000000E+00  0.00000000000E+00  0.12175216181E+04  0.12175216181E+04  0.25500000920E-02 0.  1.
        2   -1    0    0  501    0  0.00000000000E+00  0.00000000000E+00 -0.20965406065E+04  0.20965406065E+04  0.25500000920E-02 0. -1.
    10030    2    1    2    0    0  0.00000000000E+00  0.00000000000E+00 -0.87901898842E+03  0.33140622246E+04  0.31953613327E+04 0.  0.
        4    1    3    3  502    0 -0.33323472155E+03  0.41831692464E+03 -0.20009415554E+04  0.20711839972E+04  0.12699999809E+01 0. -1.
       -4    1    3    3    0  502  0.33323472155E+03 -0.41831692464E+03  0.11219225670E+04  0.12428782275E+04  0.12699999809E+01 0.  1.
</event>
<event>
 5   0  0.1840431E-06  0.3118086E+04  0.7818609E-02  0.8210792E-01
       -1   -1    0    0    0  501  0.00000000000E+00  0.00000000000E+00  0.12447136342E+04  0.12447136342E+04  0.50400001928E-02 0. -1.
        1   -1    0    0  501    0  0.00000000000E+00  0.00000000000E+00 -0.19527503126E+04  0.19527503126E+04  0.50400001928E-02 0.  1.
    10030    2    1    2    0    0  0.00000000000E+00  0.00000000000E+00 -0.70803667839E+03  0.31974639469E+04  0.31180859118E+04 0.  0.
        1    1    3    3  502    0 -0.25631599845E+03 -0.64078791229E+03 -0.17875723922E+04  0.19161738170E+04  0.50400001928E-02 0.  1.
       -1    1    3    3    0  502  0.25631599845E+03  0.64078791229E+03  0.10795357138E+04  0.12812901299E+04  0.50400001928E-02 0. -1.
</event>
<event>
 5   0  0.1840431E-06  0.3231131E+04  0.7818609E-02  0.8180644E-01
        1   -1    0    0  501    0  0.00000000000E+00  0.00000000000E+00  0.12143633254E+04  0.12143633254E+04  0.50400001928E-02 0.  1.
       -1   -1    0    0    0  501  0.00000000000E+00  0.00000000000E+00 -0.21493170137E+04  0.21493170137E+04  0.50400001928E-02 0. -1.
    10030    2    1    2    0    0  0.00000000000E+00  0.00000000000E+00 -0.93495368827E+03  0.33636803392E+04  0.32311309204E+04 0.  0.
        1    1    3    3  502    0 -0.12574969769E+04  0.53865602628E+03  0.42719884126E+03  0.14331600789E+04  0.50400001928E-02 0.  1.
       -1    1    3    3    0  502  0.12574969769E+04 -0.53865602628E+03 -0.13621525295E+04  0.19305202603E+04  0.50400001928E-02 0. -1.
</event>
<event>
 5   0  0.1853742E-06  0.2971148E+04  0.7818609E-02  0.8252018E-01
       -1   -1    0    0    0  501  0.00000000000E+00  0.00000000000E+00  0.16586262264E+04  0.16586262264E+04  0.50400001928E-02 0.  1.
        1   -1    0    0  501    0  0.00000000000E+00  0.00000000000E+00 -0.13305772306E+04  0.13305772306E+04  0.50400001928E-02 0. -1.
    10030    2    1    2    0    0  0.00000000000E+00  0.00000000000E+00  0.32804899579E+03  0.29892034570E+04  0.29711481221E+04 0.  0.
        5    1    3    3  502    0 -0.14836239816E+04 -0.72306457827E+01  0.24008683813E+03  0.15029491611E+04  0.46999998093E+01 0.  1.
       -5    1    3    3    0  502  0.14836239816E+04  0.72306457827E+01  0.87962157653E+02  0.14862542959E+04  0.46999998093E+01 0. -1.
</event>
<event>
 5   0  0.5328368E-06  0.3083229E+04  0.7818609E-02  0.8220356E-01
       -2   -1    0    0    0  501  0.00000000000E+00  0.00000000000E+00  0.18383828990E+04  0.18383828990E+04  0.25500000920E-02 0. -1.
        2   -1    0    0  501    0  0.00000000000E+00  0.00000000000E+00 -0.12927533340E+04  0.12927533340E+04  0.25500000920E-02 0.  1.
    10030    2    1    2    0    0  0.00000000000E+00  0.00000000000E+00  0.54562956500E+03  0.31311362330E+04  0.30832292305E+04 0.  0.
        1    1    3    3  502    0  0.81237351119E+03  0.10841441053E+04 -0.47431783234E+03  0.14353733204E+04  0.50400001928E-02 0.  1.
       -1    1    3    3    0  502 -0.81237351119E+03 -0.10841441053E+04  0.10199473973E+04  0.16957629127E+04  0.50400001928E-02 0. -1.
</event>
<event>
 5   0  0.4900679E-06  0.3038438E+04  0.7818609E-02  0.8232839E-01
       -2   -1    0    0    0  501  0.00000000000E+00  0.00000000000E+00  0.92232383836E+03  0.92232383836E+03  0.25500000920E-02 0.  1.
        2   -1    0    0  501    0  0.00000000000E+00  0.00000000000E+00 -0.25024041319E+04  0.25024041319E+04  0.25500000920E-02 0. -1.
    10030    2    1    2    0    0  0.00000000000E+00  0.00000000000E+00 -0.15800802935E+04  0.34247279702E+04  0.30384384042E+04 0.  0.
        4    1    3    3  502    0 -0.13462349401E+04  0.36650451733E+03 -0.14675887470E+04  0.20249672635E+04  0.12699999809E+01 0. -1.
       -4    1    3    3    0  502  0.13462349401E+04 -0.36650451733E+03 -0.11249154648E+03  0.13997607067E+04  0.12699999809E+01 0.  1.
</event>
<event>
 5   0  0.1843709E-06  0.3021591E+04  0.7818609E-02  0.8237592E-01
       -1   -1    0    0    0  501  0.00000000000E+00  0.00000000000E+00  0.14218231064E+04  0.14218231064E+04  0.50400001928E-02 0. -1.
        1   -1    0    0  501    0  0.00000000000E+00  0.00000000000E+00 -0.16053358606E+04  0.16053358606E+04  0.50400001928E-02 0.  1.
    10030    2    1    2    0    0  0.00000000000E+00  0.00000000000E+00 -0.18351275424E+03  0.30271589670E+04  0.30215913821E+04 0.  0.
        4    1    3    3  502    0 -0.13899400804E+04 -0.15838216762E+03 -0.66331936296E+03  0.15482288359E+04  0.12699999809E+01 0.  1.
       -4    1    3    3    0  502  0.13899400804E+04  0.15838216762E+03  0.47980660872E+03  0.14789301311E+04  0.12699999809E+01 0. -1.
</event>
<event>
 5   0  0.1649875E-06  0.3119763E+04  0.7818609E-02  0.8210335E-01
       -3   -1    0    0    0  501  0.00000000000E+00  0.00000000000E+00  0.23864184930E+04  0.23864184951E+04  0.10100000352E+00 0. -1.
        3   -1    0    0  501    0  0.00000000000E+00  0.00000000000E+00 -0.10196161057E+04  0.10196161107E+04  0.10100000352E+00 0.  1.
    10030    2    1    2    0    0  0.00000000000E+00  0.00000000000E+00  0.13668023872E+04  0.34060346059E+04  0.31197632876E+04 0.  0.
        2    1    3    3  502    0 -0.11621128234E+04  0.10312020910E+04  0.83525710860E+03  0.17639553294E+04  0.25500000920E-02 0. -1.
       -2    1    3    3    0  502  0.11621128234E+04 -0.10312020910E+04  0.53154527864E+03  0.16420792764E+04  0.25500000920E-02 0.  1.
</event>
<event>
 5   0  0.5328368E-06  0.2986769E+04  0.7818609E-02  0.8247519E-01
       -2   -1    0    0    0  501  0.00000000000E+00  0.00000000000E+00  0.10218868923E+04  0.10218868923E+04  0.25500000920E-02 0. -1.
        2   -1    0    0  501    0  0.00000000000E+00  0.00000000000E+00 -0.21824307068E+04  0.21824307068E+04  0.25500000920E-02 0.  1.
    10030    2    1    2    0    0  0.00000000000E+00  0.00000000000E+00 -0.11605438145E+04  0.32043175990E+04  0.29867690453E+04 0.  0.
        1    1    3    3  502    0 -0.14548140681E+04  0.32989158501E+03 -0.50528907557E+03  0.15750014224E+04  0.50400001928E-02 0.  1.
       -1    1    3    3    0  502  0.14548140681E+04 -0.32989158501E+03 -0.65525473894E+03  0.16293161766E+04  0.50400001928E-02 0. -1.
</event>
<event>
 5   0  0.1885307E-06  0.3141554E+04  0.7818609E-02  0.8204425E-01
       -1   -1    0    0    0  501  0.00000000000E+00  0.00000000000E+00  0.21164290248E+04  0.21164290248E+04  0.50400001928E-02 0. -1.
        1   -1    0    0  501    0  0.00000000000E+00  0.00000000000E+00 -0.11658037207E+04  0.11658037207E+04  0.50400001928E-02 0.  1.
    10030    2    1    2    0    0  0.00000000000E+00  0.00000000000E+00  0.95062530413E+03  0.32822327455E+04  0.31415542852E+04 0.  0.
        3    1    3    3  502    0  0.13399522104E+04  0.42925383374E+03 -0.25424753439E+03  0.14298155821E+04  0.10100000352E+00 0.  1.
       -3    1    3    3    0  502 -0.13399522104E+04 -0.42925383374E+03  0.12048728385E+04  0.18524171634E+04  0.10100000352E+00 0. -1.
</event>
<event>
 5   0  0.5114870E-06  0.3208014E+04  0.7818609E-02  0.8186704E-01
       -2   -1    0    0    0  501  0.00000000000E+00  0.00000000000E+00  0.10448907333E+04  0.10448907333E+04  0.25500000920E-02 0. -1.
        2   -1    0    0  501    0  0.00000000000E+00  0.00000000000E+00 -0.24623034381E+04  0.24623034381E+04  0.25500000920E-02 0.  1.
    10030    2    1    2    0    0  0.00000000000E+00  0.00000000000E+00 -0.14174127048E+04  0.35071941713E+04  0.32080137437E+04 0.  0.
        2    1    3    3  502    0 -0.77136945607E+03 -0.65797695303E+00 -0.22462155284E+04  0.23749727305E+04  0.25500000920E-02 0.  1.
       -2    1    3    3    0  502  0.77136945607E+03  0.65797695303E+00  0.82880282357E+03  0.11322214408E+04  0.25500000920E-02 0. -1.
</event>
<event>
 5   0  0.5114870E-06  0.3046317E+04  0.7818609E-02  0.8230627E-01
        2   -1    0    0  501    0  0.00000000000E+00  0.00000000000E+00  0.17521924260E+04  0.17521924260E+04  0.25500000920E-02 0. -1.
       -2   -1    0    0    0  501  0.00000000000E+00  0.00000000000E+00 -0.13240623477E+04  0.13240623477E+04  0.25500000920E-02 0.  1.
    10030    2    1    2    0    0  0.00000000000E+00  0.00000000000E+00  0.42813007830E+03  0.30762547737E+04  0.30463171320E+04 0.  0.
        2    1    3    3  502    0 -0.41496658227E+03  0.51314526886E+03  0.16003256289E+04  0.17310567437E+04  0.25500000920E-02 0. -1.
       -2    1    3    3    0  502  0.41496658227E+03 -0.51314526886E+03 -0.11721955506E+04  0.13451980301E+04  0.25500000920E-02 0.  1.
</event>
<event>
 5   0  0.4900679E-06  0.3277452E+04  0.7818609E-02  0.8168656E-01
       -2   -1    0    0    0  501  0.00000000000E+00  0.00000000000E+00  0.17796760333E+04  0.17796760333E+04  0.25500000920E-02 0.  1.
        2   -1    0    0  501    0  0.00000000000E+00  0.00000000000E+00 -0.15089394687E+04  0.15089394687E+04  0.25500000920E-02 0. -1.
    10030    2    1    2    0    0  0.00000000000E+00  0.00000000000E+00  0.27073656460E+03  0.32886155021E+04  0.32774523083E+04 0.  0.
        4    1    3    3  502    0 -0.14873398189E+03  0.32115100343E+03  0.17408687820E+04  0.17764812111E+04  0.12699999809E+01 0.  1.
       -4    1    3    3    0  502  0.14873398189E+03 -0.32115100343E+03 -0.14701322174E+04  0.15121342910E+04  0.12699999809E+01 0. -1.
</event>
<event>
 5   0  0.4927533E-06  0.3072866E+04  0.7818609E-02  0.8223224E-01
       -2   -1    0    0    0  501  0.00000000000E+00  0.00000000000E+00  0.13945764324E+04  0.13945764324E+04  0.25500000920E-02 0.  1.
        2   -1    0    0  501    0  0.00000000000E+00  0.00000000000E+00 -0.16927195767E+04  0.16927195767E+04  0.25500000920E-02 0. -1.
    10030    2    1    2    0    0  0.00000000000E+00  0.00000000000E+00 -0.29814314431E+03  0.30872960092E+04  0.30728663026E+04 0.  0.
        5    1    3    3  502    0 -0.26344935442E+03 -0.86888257641E+03 -0.13943442466E+04  0.16639051842E+04  0.46999998093E+01 0. -1.
       -5    1    3    3    0  502  0.26344935442E+03  0.86888257641E+03  0.10962011023E+04  0.14233908250E+04  0.46999998093E+01 0.  1.
</event>
<event>
 5   0  0.5328368E-06  0.3092441E+04  0.7818609E-02  0.8217815E-01
        2   -1    0    0  501    0  0.00000000000E+00  0.00000000000E+00  0.20786470245E+04  0.20786470245E+04  0.25500000920E-02 0.  1.
       -2   -1    0    0    0  501  0.00000000000E+00  0.00000000000E+00 -0.11501703164E+04  0.11501703164E+04  0.25500000920E-02 0. -1.
    10030    2    1    2    0    0  0.00000000000E+00  0.00000000000E+00  0.92847670805E+03  0.32288173409E+04  0.30924411754E+04 0.  0.
        1    1    3    3  502    0  0.65603628917E+03 -0.84920422635E+03  0.16265548874E+04  0.19486436905E+04  0.50400001928E-02 0.  1.
       -1    1    3    3    0  502 -0.65603628917E+03  0.84920422635E+03 -0.69807817931E+03  0.12801736504E+04  0.50400001928E-02 0. -1.
</event>
<event>
 5   0  0.4927533E-06  0.3168023E+04  0.7818609E-02  0.8197313E-01
        2   -1    0    0  501    0  0.00000000000E+00  0.00000000000E+00  0.19135850112E+04  0.19135850112E+04  0.25500000920E-02 0. -1.
       -2   -1    0    0    0  501  0.00000000000E+00  0.00000000000E+00 -0.13112002888E+04  0.13112002888E+04  0.25500000920E-02 0.  1.
    10030    2    1    2    0    0  0.00000000000E+00  0.00000000000E+00  0.60238472248E+03  0.32247853000E+04  0.31680234969E+04 0.  0.
        5    1    3    3  502    0  0.12658880011E+04  0.47729540561E+03 -0.53745507451E+03  0.14557346539E+04  0.46999998093E+01 0.  1.
       -5    1    3    3    0  502 -0.12658880011E+04 -0.47729540561E+03  0.11398397970E+04  0.17690506461E+04  0.46999998093E+01 0. -1.
</event>
<event>
 5   0  0.1843709E-06  0.3099221E+04  0.7818609E-02  0.8215952E-01
       -1   -1    0    0    0  501  0.00000000000E+00  0.00000000000E+00  0.14301623927E+04  0.14301623927E+04  0.50400001928E-02 0.  1.
        1   -1    0    0  501    0  0.00000000000E+00  0.00000000000E+00 -0.16790345573E+04  0.16790345573E+04  0.50400001928E-02 0. -1.
    10030    2    1    2    0    0  0.00000000000E+00  0.00000000000E+00 -0.24887216461E+03  0.31091969500E+04  0.30992205988E+04 0.  0.
        4    1    3    3  502    0 -0.30545445945E+03 -0.92979653343E+03 -0.13297469980E+04  0.16510762284E+04  0.12699999809E+01 0. -1.
       -4    1    3    3    0  502  0.30545445945E+03  0.92979653343E+03  0.10808748334E+04  0.14581207216E+04  0.12699999809E+01 0.  1.
</event>
<event>
 5   0  0.1853742E-06  0.3112232E+04  0.7818609E-02  0.8212389E-01
       -1   -1    0    0    0  501  0.00000000000E+00  0.00000000000E+00  0.16218031496E+04  0.16218031496E+04  0.50400001928E-02 0. -1.
        1   -1    0    0  501    0  0.00000000000E+00  0.00000000000E+00 -0.14930891984E+04  0.14930891984E+04  0.50400001928E-02 0.  1.
    10030    2    1    2    0    0  0.00000000000E+00  0.00000000000E+00  0.12871395123E+03  0.31148923480E+04  0.31122318452E+04 0.  0.
        5    1    3    3  502    0  0.18426261455E+03 -0.13757101716E+04 -0.63976663389E+03  0.15283502947E+04  0.46999998093E+01 0.  1.
       -5    1    3    3    0  502 -0.18426261455E+03  0.13757101716E+04  0.76848058513E+03  0.15865420534E+04  0.46999998093E+01 0. -1.
</event>
<event>
 5   0  0.4900679E-06  0.3091315E+04  0.7818609E-02  0.8218125E-01
       -2   -1    0    0    0  501  0.00000000000E+00  0.00000000000E+00  0.10088123617E+04  0.10088123617E+04  0.25500000920E-02 0. -1.
        2   -1    0    0  501    0  0.00000000000E+00  0.00000000000E+00 -0.23681876730E+04  0.23681876730E+04  0.25500000920E-02 0.  1.
    10030    2    1    2    0    0  0.00000000000E+00  0.00000000000E+00 -0.13593753113E+04  0.33770000346E+04  0.30913149301E+04 0.  0.
        4    1    3    3  502    0 -0.55132390040E+03 -0.13108877026E+04 -0.18193576200E+02  0.14222226377E+04  0.12699999809E+01 0. -1.
       -4    1    3    3    0  502  0.55132390040E+03  0.13108877026E+04 -0.13411817351E+04  0.19547773969E+04  0.12699999809E+01 0.  1.
</event>
<event>
 5   0  0.5114870E-06  0.3122999E+04  0.7818609E-02  0.8209454E-01
       -2   -1    0    0    0  501  0.00000000000E+00  0.00000000000E+00  0.11921646731E+04  0.11921646731E+04  0.25500000920E-02 0. -1.
        2   -1    0    0  501    0  0.00000000000E+00  0.00000000000E+00 -0.20452555032E+04  0.20452555032E+04  0.25500000920E-02 0.  1.
    10030    2    1    2    0    0  0.00000000000E+00  0.00000000000E+00 -0.85309083015E+03  0.32374201763E+04  0.31229994290E+04 0.  0.
        2    1    3    3  502    0 -0.12135145123E+03  0.85963693537E+03 -0.17720120199E+04  0.19732532615E+04  0.25500000920E-02 0.  1.
       -2    1    3    3    0  502  0.12135145123E+03 -0.85963693537E+03  0.91892118977E+03  0.12641669148E+04  0.25500000920E-02 0. -1.
</event>
<event>
 5   0  0.1853742E-06  0.2947560E+04  0.7818609E-02  0.8258866E-01
       -1   -1    0    0    0  501  0.00000000000E+00  0.00000000000E+00  0.12761727134E+04  0.12761727134E+04  0.50400001928E-02 0. -1.
        1   -1    0    0  501    0  0.00000000000E+00  0.00000000000E+00 -0.17019850181E+04  0.17019850181E+04  0.50400001928E-02 0.  1.
    10030    2    1    2    0    0  0.00000000000E+00  0.00000000000E+00 -0.42581230470E+03  0.29781577314E+04  0.29475595591E+04 0.  0.
        5    1    3    3  502    0 -0.41358227658E+03 -0.38378645142E+03  0.11627200121E+04  0.12923940020E+04  0.46999998093E+01 0. -1.
       -5    1    3    3    0  502  0.41358227658E+03  0.38378645142E+03 -0.15885323168E+04  0.16857637294E+04  0.46999998093E+01 0.  1.
</event>
<event>
 5   0  0.1843709E-06  0.3085739E+04  0.7818609E-02  0.8219663E-01
       -1   -1    0    0    0  501  0.00000000000E+00  0.00000000000E+00  0.14281911623E+04  0.14281911623E+04  0.50400001928E-02 0.  1.
        1   -1    0    0  501    0  0.00000000000E+00  0.00000000000E+00 -0.16667562278E+04  0.16667562278E+04  0.50400001928E-02 0. -1.
    10030    2    1    2    0    0  0.00000000000E+00  0.00000000000E+00 -0.23856506549E+03  0.30949473901E+04  0.30857391427E+04 0.  0.
        4    1    3    3  502    0 -0.97284097482E+03 -0.12168959489E+03  0.10755814245E+04  0.14553710638E+04  0.12699999809E+01 0.  1.
       -4    1    3    3    0  502  0.97284097482E+03  0.12168959489E+03 -0.13141464900E+04  0.16395763263E+04  0.12699999809E+01 0. -1.
</event>
<event>
 5   0  0.4927533E-06  0.3379137E+04  0.7818609E-02  0.8143046E-01
        2   -1    0    0  501    0  0.00000000000E+00  0.00000000000E+00  0.93190331717E+03  0.93190331717E+03  0.25500000920E-02 0.  1.
       -2   -1    0    0    0  501  0.00000000000E+00  0.00000000000E+00 -0.30632372467E+04  0.30632372467E+04  0.25500000920E-02 0. -1.
    10030    2    1    2    0    0  0.00000000000E+00  0.00000000000E+00 -0.21313339295E+04  0.39951405639E+04  0.33791365474E+04 0.  0.
        5    1    3    3  502    0  0.83487989238E+03 -0.70116182907E+03 -0.25916842633E+04  0.28116724126E+04  0.46999998093E+01 0. -1.
       -5    1    3    3    0  502 -0.83487989238E+03  0.70116182907E+03  0.46035033377E+03  0.11834681513E+04  0.46999998093E+01 0.  1.
</event>
<event>
 5   0  0.1836401E-06  0.3076760E+04  0.7818609E-02  0.8222145E-01
       -1   -1    0    0    0  501  0.00000000000E+00  0.00000000000E+00  0.15584048185E+04  0.15584048185E+04  0.50400001928E-02 0. -1.
        1   -1    0    0  501    0  0.00000000000E+00  0.00000000000E+00 -0.15186120052E+04  0.15186120053E+04  0.50400001928E-02 0.  1.
    10030    2    1    2    0    0  0.00000000000E+00  0.00000000000E+00  0.39792813279E+02  0.30770168238E+04  0.30767595073E+04 0.  0.
        2    1    3    3  502    0 -0.71878630037E+03 -0.85336992955E+03 -0.10393041956E+04  0.15248105434E+04  0.25500000920E-02 0.  1.
       -2    1    3    3    0  502  0.71878630037E+03  0.85336992955E+03  0.10790970089E+04  0.15522062804E+04  0.25500000920E-02 0. -1.
</event>
<event>
 5   0  0.1885307E-06  0.3094161E+04  0.7818609E-02  0.8217342E-01
        1   -1    0    0  501    0  0.00000000000E+00  0.00000000000E+00  0.26976263420E+04  0.26976263420E+04  0.50400001928E-02 0. -1.
       -1   -1    0    0    0  501  0.00000000000E+00  0.00000000000E+00 -0.88724617649E+03  0.88724617650E+03  0.50400001928E-02 0.  1.
    10030    2    1    2    0    0  0.00000000000E+00  0.00000000000E+00  0.18103801655E+04  0.35848725185E+04  0.30941613776E+04 0.  0.
        3    1    3    3  502    0 -0.78457419766E+03 -0.97075829068E+03  0.19642288590E+04  0.23272566148E+04  0.10100000352E+00 0. -1.
       -3    1    3    3    0  502  0.78457419766E+03  0.97075829068E+03 -0.15384869346E+03  0.12576159037E+04  0.10100000352E+00 0.  1.
</event>
<event>
 5   0  0.1840431E-06  0.2432097E+04  0.7818609E-02  0.8427584E-01
        1   -1    0    0  501    0  0.00000000000E+00  0.00000000000E+00  0.17577009375E+04  0.17577009375E+04  0.50400001928E-02 0.  1.
       -1   -1    0    0    0  501  0.00000000000E+00  0.00000000000E+00 -0.84131129253E+03  0.84131129254E+03  0.50400001928E-02 0. -1.
    10030    2    1    2    0    0  0.00000000000E+00  0.00000000000E+00  0.91638964493E+03  0.25990122300E+04  0.24320967477E+04 0.  0.
        1    1    3    3  502    0  0.63273288616E+03 -0.12942492626E+03 -0.64289473483E+03  0.91127128610E+03  0.50400001928E-02 0. -1.
       -1    1    3    3    0  502 -0.63273288616E+03  0.12942492626E+03  0.15592843798E+04  0.16877409439E+04  0.50400001928E-02 0.  1.
</event>
<event>
 5   0  0.5328368E-06  0.2753932E+04  0.7818609E-02  0.8317715E-01
       -2   -1    0    0    0  501  0.00000000000E+00  0.00000000000E+00  0.92029595005E+03  0.92029595005E+03  0.25500000920E-02 0.  1.
        2   -1    0    0  501    0  0.00000000000E+00  0.00000000000E+00 -0.20602456183E+04  0.20602456183E+04  0.25500000920E-02 0. -1.
    10030    2    1    2    0    0  0.00000000000E+00  0.00000000000E+00 -0.11399496682E+04  0.29805415683E+04  0.27539322422E+04 0.  0.
        1    1    3    3  502    0 -0.26622789694E+03  0.13235380643E+04 -0.86320316651E+03  0.16024200472E+04  0.50400001928E-02 0. -1.
       -1    1    3    3    0  502  0.26622789694E+03 -0.13235380643E+04 -0.27674650173E+03  0.13781215212E+04  0.50400001928E-02 0.  1.
</event>
<event>
 5   0  0.5001658E-06  0.3227567E+04  0.7818609E-02  0.8181575E-01
        2   -1    0    0  501    0  0.00000000000E+00  0.00000000000E+00  0.21677191712E+04  0.21677191712E+04  0.25500000920E-02 0. -1.
       -2   -1    0    0    0  501  0.00000000000E+00  0.00000000000E+00 -0.12013993994E+04  0.12013993994E+04  0.25500000920E-02 0.  1.
    10030    2    1    2    0    0  0.00000000000E+00  0.00000000000E+00  0.96631977180E+03  0.33691185706E+04  0.32275665820E+04 0.  0.
        3    1    3    3  502    0  0.34600187682E+03 -0.15574378389E+04  0.73664009270E+03  0.17572616644E+04  0.10100000352E+00 0. -1.
       -3    1    3    3    0  502 -0.34600187682E+03  0.15574378389E+04  0.22967967910E+03  0.16118569062E+04  0.10100000352E+00 0.  1.
</event>
<event>
 5   0  0.4927533E-06  0.3082361E+04  0.7818609E-02  0.8220595E-01
       -2   -1    0    0    0  501  0.00000000000E+00  0.00000000000E+00  0.10821740805E+04  0.10821740805E+04  0.25500000920E-02 0. -1.
        2   -1    0    0  501    0  0.00000000000E+00  0.00000000000E+00 -0.21948754702E+04  0.21948754702E+04  0.25500000920E-02 0.  1.
    10030    2    1    2    0    0  0.00000000000E+00  0.00000000000E+00 -0.11127013897E+04  0.32770495507E+04  0.30823610066E+04 0.  0.
        5    1    3    3  502    0  0.14129047553E+04 -0.59906303060E+03 -0.40585074543E+03  0.15874234721E+04  0.46999998093E+01 0. -1.
       -5    1    3    3    0  502 -0.14129047553E+04  0.59906303060E+03 -0.70685064424E+03  0.16896260786E+04  0.46999998093E+01 0.  1.
</event>
<event>
 5   0  0.4900679E-06  0.3115336E+04  0.7818609E-02  0.8211542E-01
       -2   -1    0    0    0  501  0.00000000000E+00  0.00000000000E+00  0.20323711712E+04  0.20323711712E+04  0.25500000920E-02 0.  1.
        2   -1    0    0  501    0  0.00000000000E+00  0.00000000000E+00 -0.11938418211E+04  0.11938418211E+04  0.25500000920E-02 0. -1.
    10030    2    1    2    0    0  0.00000000000E+00  0.00000000000E+00  0.83852935007E+03  0.32262129924E+04  0.31153360655E+04 0.  0.
        4    1    3    3  502    0  0.98281577363E+03  0.85185597450E+03 -0.46841393603E+03  0.13823887567E+04  0.12699999809E+01 0. -1.
       -4    1    3    3    0  502 -0.98281577363E+03 -0.85185597450E+03  0.13069432861E+04  0.18438242357E+04  0.12699999809E+01 0.  1.
</event>
<event>
 5   0  0.5328368E-06  0.3051833E+04  0.7818609E-02  0.8229083E-01
        2   -1    0    0  501    0  0.00000000000E+00  0.00000000000E+00  0.13564862034E+04  0.13564862034E+04  0.25500000920E-02 0.  1.
       -2   -1    0    0    0  501  0.00000000000E+00  0.00000000000E+00 -0.17165095642E+04  0.17165095642E+04  0.25500000920E-02 0. -1.
    10030    2    1    2    0    0  0.00000000000E+00  0.00000000000E+00 -0.36002336075E+03  0.30729957676E+04  0.30518332470E+04 0.  0.
        1    1    3    3  502    0 -0.13473321887E+04 -0.68186782750E+03  0.40995574227E+02  0.15106053084E+04  0.50400001928E-02 0. -1.
       -1    1    3    3    0  502  0.13473321887E+04  0.68186782750E+03 -0.40101893498E+03  0.15623904592E+04  0.50400001928E-02 0.  1.
</event>
<event>
 5   0  0.1836401E-06  0.3136532E+04  0.7818609E-02  0.8205783E-01
       -1   -1    0    0    0  501  0.00000000000E+00  0.00000000000E+00  0.15437929753E+04  0.15437929753E+04  0.50400001928E-02 0.  1.
        1   -1    0    0  501    0  0.00000000000E+00  0.00000000000E+00 -0.15931266091E+04  0.15931266091E+04  0.50400001928E-02 0. -1.
    10030    2    1    2    0    0  0.00000000000E+00  0.00000000000E+00 -0.49333633766E+02  0.31369195844E+04  0.31365316308E+04 0.  0.
        2    1    3    3  502    0  0.34336366940E+03  0.66185936509E+03  0.13551781568E+04  0.15467592784E+04  0.25500000920E-02 0.  1.
       -2    1    3    3    0  502 -0.34336366940E+03 -0.66185936509E+03 -0.14045117906E+04  0.15901603059E+04  0.25500000920E-02 0. -1.
</event>
<event>
 5   0  0.1885307E-06  0.3186403E+04  0.7818609E-02  0.8192417E-01
       -1   -1    0    0    0  501  0.00000000000E+00  0.00000000000E+00  0.15617093063E+04  0.15617093063E+04  0.50400001928E-02 0.  1.
        1   -1    0    0  501    0  0.00000000000E+00  0.00000000000E+00 -0.16253285561E+04  0.16253285561E+04  0.50400001928E-02 0. -1.
    10030    2    1    2    0    0  0.00000000000E+00  0.00000000000E+00 -0.63619249788E+02  0.31870378623E+04  0.31864028193E+04 0.  0.
        3    1    3    3  502    0 -0.15467310728E+04  0.78534062782E+02 -0.40571043887E+03  0.16009826923E+04  0.10100000352E+00 0. -1.
       -3    1    3    3    0  502  0.15467310728E+04 -0.78534062782E+02  0.34209118908E+03  0.15860551701E+04  0.10100000352E+00 0.  1.
</event>
<event>
 5   0  0.5001658E-06  0.3116246E+04  0.7818609E-02  0.8211293E-01
       -2   -1    0    0    0  501  0.00000000000E+00  0.00000000000E+00  0.11197966707E+04  0.11197966707E+04  0.25500000920E-02 0. -1.
        2   -1    0    0  501    0  0.00000000000E+00  0.00000000000E+00 -0.21680248466E+04  0.21680248466E+04  0.25500000920E-02 0.  1.
    10030    2    1    2    0    0  0.00000000000E+00  0.00000000000E+00 -0.10482281758E+04  0.32878215173E+04  0.31162458217E+04 0.  0.
        3    1    3    3  502    0 -0.10623213896E+04  0.90608120024E+03  0.20550832228E+03  0.14112914501E+04  0.10100000352E+00 0. -1.
       -3    1    3    3    0  502  0.10623213896E+04 -0.90608120024E+03 -0.12537364981E+04  0.18765300672E+04  0.10100000352E+00 0.  1.
</event>
<event>
 5   0  0.5001658E-06  0.3114082E+04  0.7818609E-02  0.8211884E-01
       -2   -1    0    0    0  501  0.00000000000E+00  0.00000000000E+00  0.15679260423E+04  0.15679260423E+04  0.25500000920E-02 0.  1.
        2   -1    0    0  501    0  0.00000000000E+00  0.00000000000E+00 -0.15462312444E+04  0.15462312444E+04  0.25500000920E-02 0. -1.
    10030    2    1    2    0    0  0.00000000000E+00  0.00000000000E+00  0.21694797866E+02  0.31141572867E+04  0.31140817173E+04 0.  0.
        3    1    3    3  502    0  0.39645684540E+03 -0.98075066299E+03 -0.11316891149E+04  0.15491191550E+04  0.10100000352E+00 0. -1.
       -3    1    3    3    0  502 -0.39645684540E+03  0.98075066299E+03  0.11533839128E+04  0.15650381317E+04  0.10100000352E+00 0.  1.
</event>
<event>
 5   0  0.1843709E-06  0.3082859E+04  0.7818609E-02  0.8220458E-01
       -1   -1    0    0    0  501  0.00000000000E+00  0.00000000000E+00  0.13235240769E+04  0.13235240770E+04  0.50400001928E-02 0.  1.
        1   -1    0    0  501    0  0.00000000000E+00  0.00000000000E+00 -0.17952110985E+04  0.17952110985E+04  0.50400001928E-02 0. -1.
    10030    2    1    2    0    0  0.00000000000E+00  0.00000000000E+00 -0.47168702152E+03  0.31187351754E+04  0.30828591353E+04 0.  0.
        4    1    3    3  502    0 -0.14390281913E+04 -0.53847513261E+03 -0.11093233843E+03  0.15404756410E+04  0.12699999809E+01 0. -1.
       -4    1    3    3    0  502  0.14390281913E+04  0.53847513261E+03 -0.36075468308E+03  0.15782595344E+04  0.12699999809E+01 0.  1.
</event>
<event>
 5   0  0.1840431E-06  0.3098120E+04  0.7818609E-02  0.8216254E-01
        1   -1    0    0  501    0  0.00000000000E+00  0.00000000000E+00  0.10960960513E+04  0.10960960513E+04  0.50400001928E-02 0. -1.
       -1   -1    0    0    0  501  0.00000000000E+00  0.00000000000E+00 -0.21892120728E+04  0.21892120728E+04  0.50400001928E-02 0.  1.
    10030    2    1    2    0    0  0.00000000000E+00  0.00000000000E+00 -0.10931160214E+04  0.32853081241E+04  0.30981198870E+04 0.  0.
        1    1    3    3  502    0 -0.14090056888E+04 -0.61740497451E+02 -0.12259535937E+04  0.18687084133E+04  0.50400001928E-02 0.  1.
       -1    1    3    3    0  502  0.14090056888E+04  0.61740497451E+02  0.13283757231E+03  0.14165997108E+04  0.50400001928E-02 0. -1.
</event>
<event>
 5   0  0.4927533E-06  0.3097297E+04  0.7818609E-02  0.8216480E-01
       -2   -1    0    0    0  501  0.00000000000E+00  0.00000000000E+00  0.17788030985E+04  0.17788030985E+04  0.25500000920E-02 0.  1.
        2   -1    0    0  501    0  0.00000000000E+00  0.00000000000E+00 -0.13482731669E+04  0.13482731669E+04  0.25500000920E-02 0. -1.
    10030    2    1    2    0    0  0.00000000000E+00  0.00000000000E+00  0.43052993161E+03  0.31270762654E+04  0.30972972004E+04 0.  0.
        5    1    3    3  502    0 -0.11576178751E+04 -0.32954959622E+02  0.12533162518E+04  0.17064550657E+04  0.46999998093E+01 0.  1.
       -5    1    3    3    0  502  0.11576178751E+04  0.32954959622E+02 -0.82278632024E+03  0.14206211997E+04  0.46999998093E+01 0. -1.
</event>
<event>
 5   0  0.1843709E-06  0.3106627E+04  0.7818609E-02  0.8213922E-01
        1   -1    0    0  501    0  0.00000000000E+00  0.00000000000E+00  0.21103694625E+04  0.21103694625E+04  0.50400001928E-02 0. -1.
       -1   -1    0    0    0  501  0.00000000000E+00  0.00000000000E+00 -0.11432988224E+04  0.11432988224E+04  0.50400001928E-02 0.  1.
    10030    2    1    2    0    0  0.00000000000E+00  0.00000000000E+00  0.96707064012E+03  0.32536682849E+04  0.31066270592E+04 0.  0.
        4    1    3    3  502    0 -0.59309925156E+03 -0.99637007296E+03  0.15660228293E+04  0.19485761877E+04  0.12699999809E+01 0. -1.
       -4    1    3    3    0  502  0.59309925156E+03  0.99637007296E+03 -0.59895218914E+03  0.13050920972E+04  0.12699999809E+01 0.  1.
</event>
<event>
 5   0  0.1840431E-06  0.3084848E+04  0.7818609E-02  0.8219909E-01
       -1   -1    0    0    0  501  0.00000000000E+00  0.00000000000E+00  0.12646812534E+04  0.12646812534E+04  0.50400001928E-02 0.  1.
        1   -1    0    0  501    0  0.00000000000E+00  0.00000000000E+00 -0.18811630348E+04  0.18811630348E+04  0.50400001928E-02 0. -1.
    10030    2    1    2    0    0  0.00000000000E+00  0.00000000000E+00 -0.61648178141E+03  0.31458442882E+04  0.30848478891E+04 0.  0.
        1    1    3    3  502    0  0.10049936737E+04  0.26210786458E+03  0.85463956065E+03  0.13450359086E+04  0.50400001928E-02 0.  1.
       -1    1    3    3    0  502 -0.10049936737E+04 -0.26210786458E+03 -0.14711213421E+04  0.18008083796E+04  0.50400001928E-02 0. -1.
</event>
<event>
 5   0  0.4900679E-06  0.3068878E+04  0.7818609E-02  0.8224331E-01
        2   -1    0    0  501    0  0.00000000000E+00  0.00000000000E+00  0.12971350488E+04  0.12971350488E+04  0.25500000920E-02 0.  1.
       -2   -1    0    0    0  501  0.00000000000E+00  0.00000000000E+00 -0.18151559909E+04  0.18151559909E+04  0.25500000920E-02 0. -1.
    10030    2    1    2    0    0  0.00000000000E+00  0.00000000000E+00 -0.51802094209E+03  0.31122910397E+04  0.30688776156E+04 0.  0.
        4    1    3    3  502    0 -0.14449745852E+04 -0.15536837036E+03 -0.75832690782E+03  0.16392535479E+04  0.12699999809E+01 0. -1.
       -4    1    3    3    0  502  0.14449745852E+04  0.15536837036E+03  0.24030596572E+03  0.14730374918E+04  0.12699999809E+01 0.  1.
</event>
<event>
 5   0  0.1885307E-06  0.3098245E+04  0.7818609E-02  0.8216220E-01
       -1   -1    0    0    0  501  0.00000000000E+00  0.00000000000E+00  0.11611270839E+04  0.11611270839E+04  0.50400001928E-02 0. -1.
        1   -1    0    0  501    0  0.00000000000E+00  0.00000000000E+00 -0.20667681633E+04  0.20667681633E+04  0.50400001928E-02 0.  1.
    10030    2    1    2    0    0  0.00000000000E+00  0.00000000000E+00 -0.90564107949E+03  0.32278952472E+04  0.30982449810E+04 0.  0.
        3    1    3    3  502    0 -0.27840986310E+03 -0.75553282530E+03  0.92597901135E+03  0.12271018872E+04  0.10100000352E+00 0. -1.
       -3    1    3    3    0  502  0.27840986310E+03  0.75553282530E+03 -0.18316200908E+04  0.20007933600E+04  0.10100000352E+00 0.  1.
</event>
<event>
 5   0  0.1885307E-06  0.2997295E+04  0.7818609E-02  0.8244504E-01
       -1   -1    0    0    0  501  0.00000000000E+00  0.00000000000E+00  0.11964078820E+04  0.11964078820E+04  0.50400001928E-02 0. -1.
        1   -1    0    0  501    0  0.00000000000E+00  0.00000000000E+00 -0.18772395317E+04  0.18772395317E+04  0.50400001928E-02 0.  1.
    10030    2    1    2    0    0  0.00000000000E+00  0.00000000000E+00 -0.68083164965E+03  0.30736474137E+04  0.29972948952E+04 0.  0.
        3    1    3    3  502    0 -0.13644528161E+03  0.98500809563E+03 -0.14901754403E+04  0.17915024746E+04  0.10100000352E+00 0.  1.
       -3    1    3    3    0  502  0.13644528161E+03 -0.98500809563E+03  0.80934379064E+03  0.12821449391E+04  0.10100000352E+00 0. -1.
</event>
<event>
 5   0  0.1840431E-06  0.3118866E+04  0.7818609E-02  0.8210579E-01
        1   -1    0    0  501    0  0.00000000000E+00  0.00000000000E+00  0.10518524912E+04  0.10518524912E+04  0.50400001928E-02 0. -1.
       -1   -1    0    0    0  501  0.00000000000E+00  0.00000000000E+00 -0.23119510580E+04  0.23119510580E+04  0.50400001928E-02 0.  1.
    10030    2    1    2    0    0  0.00000000000E+00  0.00000000000E+00 -0.12600985669E+04  0.33638035492E+04  0.31188661272E+04 0.  0.
        1    1    3    3  502    0  0.58648937726E+03 -0.50559874532E+03  0.82985396580E+03  0.11350143107E+04  0.50400001928E-02 0. -1.
       -1    1    3    3    0  502 -0.58648937726E+03  0.50559874532E+03 -0.20899525327E+04  0.22287892385E+04  0.50400001928E-02 0.  1.
</event>
<event>
 5   0  0.1853742E-06  0.3033850E+04  0.7818609E-02  0.8234130E-01
       -1   -1    0    0    0  501  0.00000000000E+00  0.00000000000E+00  0.11676066373E+04  0.11676066373E+04  0.50400001928E-02 0.  1.
        1   -1    0    0  501    0  0.00000000000E+00  0.00000000000E+00 -0.19707511581E+04  0.19707511581E+04  0.50400001928E-02 0. -1.
    10030    2    1    2    0    0  0.00000000000E+00  0.00000000000E+00 -0.80314452088E+03  0.31383577954E+04  0.30338504463E+04 0.  0.
        5    1    3    3  502    0  0.64750722907E+03 -0.44196565937E+03 -0.17449366601E+04  0.19129624391E+04  0.46999998093E+01 0. -1.
       -5    1    3    3    0  502 -0.64750722907E+03  0.44196565937E+03  0.94179213920E+03  0.12253953563E+04  0.46999998093E+01 0.  1.
</event>
<event>
 5   0  0.1853742E-06  0.3117000E+04  0.7818609E-02  0.8211088E-01
        1   -1    0    0  501    0  0.00000000000E+00  0.00000000000E+00  0.23970959812E+04  0.23970959812E+04  0.50400001928E-02 0.  1.
       -1   -1    0    0    0  501  0.00000000000E+00  0.00000000000E+00 -0.10132771808E+04  0.10132771808E+04  0.50400001928E-02 0. -1.
    10030    2    1    2    0    0  0.00000000000E+00  0.00000000000E+00  0.13838188004E+04  0.34103731619E+04  0.31170002617E+04 0.  0.
        5    1    3    3  502    0 -0.15261507007E+04 -0.22010042748E+01  0.10374847573E+04  0.18454098508E+04  0.46999998093E+01 0.  1.
       -5    1    3    3    0  502  0.15261507007E+04  0.22010042748E+01  0.34633404311E+03  0.15649633111E+04  0.46999998093E+01 0. -1.
</event>
<event>
 5   0  0.1836401E-06  0.3162587E+04  0.7818609E-02  0.8198768E-01
       -1   -1    0    0    0  501  0.00000000000E+00  0.00000000000E+00  0.24038941009E+04  0.24038941009E+04  0.50400001928E-02 0. -1.
        1   -1    0    0  501    0  0.00000000000E+00  0.00000000000E+00 -0.10401824517E+04  0.10401824518E+04  0.50400001928E-02 0.  1.
    10030    2    1    2    0    0  0.00000000000E+00  0.00000000000E+00  0.13637116492E+04  0.34440765527E+04  0.31625865741E+04 0.  0.
        2    1    3    3  502    0  0.18482854928E+03 -0.57016990494E+03 -0.91168191039E+03  0.10910633432E+04  0.25500000920E-02 0.  1.
       -2    1    3    3    0  502 -0.18482854928E+03  0.57016990494E+03  0.22753935596E+04  0.23530132095E+04  0.25500000920E-02 0. -1.
</event>
<event>
 5   0  0.1836401E-06  0.2799056E+04  0.7818609E-02  0.8303562E-01
       -1   -1    0    0    0  501  0.00000000000E+00  0.00000000000E+00  0.10921238895E+04  0.10921238895E+04  0.50400001928E-02 0. -1.
        1   -1    0    0  501    0  0.00000000000E+00  0.00000000000E+00 -0.17934581454E+04  0.17934581454E+04  0.50400001928E-02 0.  1.
    10030    2    1    2    0    0  0.00000000000E+00  0.00000000000E+00 -0.70133425594E+03  0.28855820349E+04  0.27990559019E+04 0.  0.
        2    1    3    3  502    0  0.13769849252E+04 -0.25397830028E+02 -0.60725038713E+03  0.15051530044E+04  0.25500000920E-02 0.  1.
       -2    1    3    3    0  502 -0.13769849252E+04  0.25397830028E+02 -0.94083868808E+02  0.13804290305E+04  0.25500000920E-02 0. -1.
</event>
<event>
 5   0  0.1836401E-06  0.3150654E+04  0.7818609E-02  0.8201972E-01
        1   -1    0    0  501    0  0.00000000000E+00  0.00000000000E+00  0.89868239421E+03  0.89868239423E+03  0.50400001928E-02 0. -1.
       -1   -1    0    0    0  501  0.00000000000E+00  0.00000000000E+00 -0.27614367352E+04  0.27614367352E+04  0.50400001928E-02 0.  1.
    10030    2    1    2    0    0  0.00000000000E+00  0.00000000000E+00 -0.18627543410E+04  0.36601191295E+04  0.31506536317E+04 0.  0.
        2    1    3    3  502    0 -0.73141288192E+03  0.11679900904E+04 -0.44755392806E+02  0.13788287422E+04  0.25500000920E-02 0. -1.
       -2    1    3    3    0  502  0.73141288192E+03 -0.11679900904E+04 -0.18179989482E+04  0.22812903872E+04  0.25500000920E-02 0.  1.
</event>
<event>
 5   0  0.4927533E-06  0.3171918E+04  0.7818609E-02  0.8196273E-01
        2   -1    0    0  501    0  0.00000000000E+00  0.00000000000E+00  0.22700521202E+04  0.22700521202E+04  0.25500000920E-02 0.  1.
       -2   -1    0    0    0  501  0.00000000000E+00  0.00000000000E+00 -0.11080211737E+04  0.11080211737E+04  0.25500000920E-02 0. -1.
    10030    2    1    2    0    0  0.00000000000E+00  0.00000000000E+00  0.11620309465E+04  0.33780732938E+04  0.31719179147E+04 0.  0.
        5    1    3    3  502    0  0.57745675378E+03 -0.10829659374E+04  0.16507763939E+04  0.20570260856E+04  0.46999998093E+01 0.  1.
       -5    1    3    3    0  502 -0.57745675378E+03  0.10829659374E+04 -0.48874544739E+03  0.13210472082E+04  0.46999998093E+01 0. -1.
</event>
<event>
 5   0  0.1840431E-06  0.3094087E+04  0.7818609E-02  0.8217362E-01
       -1   -1    0    0    0  501  0.00000000000E+00  0.00000000000E+00  0.11443212399E+04  0.11443212399E+04  0.50400001928E-02 0. -1.
        1   -1    0    0  501    0  0.00000000000E+00  0.00000000000E+00 -0.20914965733E+04  0.20914965733E+04  0.50400001928E-02 0.  1.
    10030    2    1    2    0    0  0.00000000000E+00  0.00000000000E+00 -0.94717533343E+03  0.32358178133E+04  0.30940872335E+04 0.  0.
        1    1    3    3  502    0 -0.13161311860E+04  0.51210576002E+03  0.18692061789E+03  0.14245676276E+04  0.50400001928E-02 0. -1.
       -1    1    3    3    0  502  0.13161311860E+04 -0.51210576002E+03 -0.11340959513E+04  0.18112501857E+04  0.50400001928E-02 0.  1.
</event>
<event>
 5   0  0.4927533E-06  0.3100321E+04  0.7818609E-02  0.8215650E-01
        2   -1    0    0  501    0  0.00000000000E+00  0.00000000000E+00  0.22222471030E+04  0.22222471030E+04  0.25500000920E-02 0. -1.
       -2   -1    0    0    0  501  0.00000000000E+00  0.00000000000E+00 -0.10813370828E+04  0.10813370828E+04  0.25500000920E-02 0.  1.
    10030    2    1    2    0    0  0.00000000000E+00  0.00000000000E+00  0.11409100202E+04  0.33035841857E+04  0.31003214024E+04 0.  0.
        5    1    3    3  502    0  0.19988756870E+03  0.19041906820E+03 -0.10549238556E+04  0.10904590285E+04  0.46999998093E+01 0.  1.
       -5    1    3    3    0  502 -0.19988756870E+03 -0.19041906820E+03  0.21958338758E+04  0.22131251573E+04  0.46999998093E+01 0. -1.
</event>
<event>
 5   0  0.1843709E-06  0.3097600E+04  0.7818609E-02  0.8216397E-01
       -1   -1    0    0    0  501  0.00000000000E+00  0.00000000000E+00  0.13367397697E+04  0.13367397697E+04  0.50400001928E-02 0.  1.
        1   -1    0    0  501    0  0.00000000000E+00  0.00000000000E+00 -0.17945018846E+04  0.17945018846E+04  0.50400001928E-02 0. -1.
    10030    2    1    2    0    0  0.00000000000E+00  0.00000000000E+00 -0.45776211487E+03  0.31312416543E+04  0.30976003848E+04 0.  0.
        4    1    3    3  502    0 -0.12372416366E+04  0.86667009037E+03  0.11673345406E+03  0.15150947908E+04  0.12699999809E+01 0.  1.
       -4    1    3    3    0  502  0.12372416366E+04 -0.86667009037E+03 -0.57449556893E+03  0.16161468635E+04  0.12699999809E+01 0. -1.
</event>
<event>
 5   0  0.4900679E-06  0.2914258E+04  0.7818609E-02  0.8268648E-01
       -2   -1    0    0    0  501  0.00000000000E+00  0.00000000000E+00  0.17889229745E+04  0.17889229745E+04  0.25500000920E-02 0.  1.
        2   -1    0    0  501    0  0.00000000000E+00  0.00000000000E+00 -0.11868733390E+04  0.11868733390E+04  0.25500000920E-02 0. -1.
    10030    2    1    2    0    0  0.00000000000E+00  0.00000000000E+00  0.60204963550E+03  0.29757963135E+04  0.29142580420E+04 0.  0.
        4    1    3    3  502    0  0.17248368420E+03 -0.79945608712E+03 -0.93040191581E+03  0.12387614760E+04  0.12699999809E+01 0. -1.
       -4    1    3    3    0  502 -0.17248368420E+03  0.79945608712E+03  0.15324515513E+04  0.17370348375E+04  0.12699999809E+01 0.  1.
</event>
<event>
 5   0  0.5328368E-06  0.3073983E+04  0.7818609E-02  0.8222915E-01
        2   -1    0    0  501    0  0.00000000000E+00  0.00000000000E+00  0.20576807588E+04  0.20576807588E+04  0.25500000920E-02 0. -1.
       -2   -1    0    0    0  501  0.00000000000E+00  0.00000000000E+00 -0.11480607780E+04  0.11480607780E+04  0.25500000920E-02 0.  1.
    10030    2    1    2    0    0  0.00000000000E+00  0.00000000000E+00  0.90961998082E+03  0.32057415368E+04  0.30739828059E+04 0.  0.
        1    1    3    3  502    0  0.95935695221E+03  0.62155403823E+02  0.17054250514E+04  0.19577292106E+04  0.50400001928E-02 0. -1.
       -1    1    3    3    0  502 -0.95935695221E+03 -0.62155403823E+02 -0.79580507056E+03  0.12480123262E+04  0.50400001928E-02 0.  1.
</event>
<event>
 5   0  0.1885307E-06  0.3075365E+04  0.7818609E-02  0.8222532E-01
        1   -1    0    0  501    0  0.00000000000E+00  0.00000000000E+00  0.19902942453E+04  0.19902942453E+04  0.50400001928E-02 0. -1.
       -1   -1    0    0    0  501  0.00000000000E+00  0.00000000000E+00 -0.11879988001E+04  0.11879988002E+04  0.50400001928E-02 0.  1.
    10030    2    1    2    0    0  0.00000000000E+00  0.00000000000E+00  0.80229544513E+03  0.31782930454E+04  0.30753648079E+04 0.  0.
        3    1    3    3  502    0  0.70959807984E+02  0.80095278661E+03 -0.95340857365E+03  0.12472163322E+04  0.10100000352E+00 0.  1.
       -3    1    3    3    0  502 -0.70959807984E+02 -0.80095278661E+03  0.17557040188E+04  0.19310767133E+04  0.10100000352E+00 0. -1.
</event>
<event>
 5   0  0.5001658E-06  0.2636530E+04  0.7818609E-02  0.8355898E-01
        2   -1    0    0  501    0  0.00000000000E+00  0.00000000000E+00  0.18013391101E+04  0.18013391101E+04  0.25500000920E-02 0. -1.
       -2   -1    0    0    0  501  0.00000000000E+00  0.00000000000E+00 -0.96473893733E+03  0.96473893734E+03  0.25500000920E-02 0.  1.
    10030    2    1    2    0    0  0.00000000000E+00  0.00000000000E+00  0.83660017278E+03  0.27660780475E+04  0.26365295211E+04 0.  0.
        3    1    3    3  502    0 -0.85053968670E+03 -0.83995636428E+03  0.10013757827E+04  0.15593902401E+04  0.10100000352E+00 0. -1.
       -3    1    3    3    0  502  0.85053968670E+03  0.83995636428E+03 -0.16477560994E+03  0.12066878073E+04  0.10100000352E+00 0.  1.
</event>
<event>
 5   0  0.1843709E-06  0.3036807E+04  0.7818609E-02  0.8233298E-01
       -1   -1    0    0    0  501  0.00000000000E+00  0.00000000000E+00  0.27272919453E+04  0.27272919453E+04  0.50400001928E-02 0.  1.
        1   -1    0    0  501    0  0.00000000000E+00  0.00000000000E+00 -0.84536199153E+03  0.84536199154E+03  0.50400001928E-02 0. -1.
    10030    2    1    2    0    0  0.00000000000E+00  0.00000000000E+00  0.18819299538E+04  0.35726539369E+04  0.30368068430E+04 0.  0.
        4    1    3    3  502    0 -0.19119446924E+03  0.63224184507E+03 -0.66748996822E+03  0.93905779710E+03  0.12699999809E+01 0. -1.
       -4    1    3    3    0  502  0.19119446924E+03 -0.63224184507E+03  0.25494199220E+04  0.26335961398E+04  0.12699999809E+01 0.  1.
</event>
<event>
 5   0  0.5114870E-06  0.3103707E+04  0.7818609E-02  0.8214721E-01
       -2   -1    0    0    0  501  0.00000000000E+00  0.00000000000E+00  0.16514846934E+04  0.16514846934E+04  0.25500000920E-02 0.  1.
        2   -1    0    0  501    0  0.00000000000E+00  0.00000000000E+00 -0.14582329036E+04  0.14582329036E+04  0.25500000920E-02 0. -1.
    10030    2    1    2    0    0  0.00000000000E+00  0.00000000000E+00  0.19325178972E+03  0.31097175970E+04  0.31037070221E+04 0.  0.
        2    1    3    3  502    0  0.93918461290E+03 -0.73137132264E+03 -0.90093145387E+03  0.14928661136E+04  0.25500000920E-02 0. -1.
       -2    1    3    3    0  502 -0.93918461290E+03  0.73137132264E+03  0.10941832436E+04  0.16168514834E+04  0.25500000920E-02 0.  1.
</event>
<event>
 5   0  0.1843709E-06  0.3143867E+04  0.7818609E-02  0.8203801E-01
       -1   -1    0    0    0  501  0.00000000000E+00  0.00000000000E+00  0.13090334752E+04  0.13090334752E+04  0.50400001928E-02 0. -1.
        1   -1    0    0  501    0  0.00000000000E+00  0.00000000000E+00 -0.18876333416E+04  0.18876333416E+04  0.50400001928E-02 0.  1.
    10030    2    1    2    0    0  0.00000000000E+00  0.00000000000E+00 -0.57859986641E+03  0.31966668168E+04  0.31438671938E+04 0.  0.
        4    1    3    3  502    0 -0.12297256423E+04 -0.33328040757E+03 -0.12254538584E+04  0.17677781980E+04  0.12699999809E+01 0.  1.
       -4    1    3    3    0  502  0.12297256423E+04  0.33328040757E+03  0.64685399195E+03  0.14288886189E+04  0.12699999809E+01 0. -1.
</event>
<event>
 5   0  0.1843709E-06  0.3105824E+04  0.7818609E-02  0.8214141E-01
        1   -1    0    0  501    0  0.00000000000E+00  0.00000000000E+00  0.12146348396E+04  0.12146348396E+04  0.50400001928E-02 0.  1.
       -1   -1    0    0    0  501  0.00000000000E+00  0.00000000000E+00 -0.19853996968E+04  0.19853996968E+04  0.50400001928E-02 0. -1.
    10030    2    1    2    0    0  0.00000000000E+00  0.00000000000E+00 -0.77076485718E+03  0.32000345363E+04  0.31058239758E+04 0.  0.
        4    1    3    3  502    0  0.16797188636E+03  0.10343519678E+04  0.79543349031E+03  0.13156042711E+04  0.12699999809E+01 0.  1.
       -4    1    3    3    0  502 -0.16797188636E+03 -0.10343519678E+04 -0.15661983475E+04  0.18844302652E+04  0.12699999809E+01 0. -1.
</event>
<event>
 5   0  0.1836401E-06  0.3049480E+04  0.7818609E-02  0.8229741E-01
        1   -1    0    0  501    0  0.00000000000E+00  0.00000000000E+00  0.14613984241E+04  0.14613984241E+04  0.50400001928E-02 0. -1.
       -1   -1    0    0    0  501  0.00000000000E+00  0.00000000000E+00 -0.15908267130E+04  0.15908267130E+04  0.50400001928E-02 0.  1.
    10030    2    1    2    0    0  0.00000000000E+00  0.00000000000E+00 -0.12942828883E+03  0.30522251371E+04  0.30494797271E+04 0.  0.
        2    1    3    3  502    0 -0.11740213382E+04  0.60974017050E+03 -0.82350118355E+03  0.15582886053E+04  0.25500000920E-02 0.  1.
       -2    1    3    3    0  502  0.11740213382E+04 -0.60974017050E+03  0.69407289472E+03  0.14939365319E+04  0.25500000920E-02 0. -1.
</event>
<event>
 5   0  0.5114870E-06  0.3091471E+04  0.7818609E-02  0.8218083E-01
        2   -1    0    0  501    0  0.00000000000E+00  0.00000000000E+00  0.19017313109E+04  0.19017313109E+04  0.25500000920E-02 0. -1.
       -2   -1    0    0    0  501  0.00000000000E+00  0.00000000000E+00 -0.12563804124E+04  0.12563804124E+04  0.25500000920E-02 0.  1.
    10030    2    1    2    0    0  0.00000000000E+00  0.00000000000E+00  0.64535089858E+03  0.31581117233E+04  0.30914708271E+04 0.  0.
        2    1    3    3  502    0  0.88450533577E+03  0.88043280601E+03  0.12543585814E+04  0.17694425861E+04  0.25500000920E-02 0. -1.
       -2    1    3    3    0  502 -0.88450533577E+03 -0.88043280601E+03 -0.60900768277E+03  0.13886691372E+04  0.25500000920E-02 0.  1.
</event>
<event>
 5   0  0.5328368E-06  0.3090792E+04  0.7818609E-02  0.8218270E-01
        2   -1    0    0  501    0  0.00000000000E+00  0.00000000000E+00  0.16987553618E+04  0.16987553618E+04  0.25500000920E-02 0.  1.
       -2   -1    0    0    0  501  0.00000000000E+00  0.00000000000E+00 -0.14058810852E+04  0.14058810852E+04  0.25500000920E-02 0. -1.
    10030    2    1    2    0    0  0.00000000000E+00  0.00000000000E+00  0.29287427661E+03  0.31046364470E+04  0.30907915048E+04 0.  0.
        1    1    3    3  502    0  0.65296908365E+03  0.35905020713E+03 -0.12134968079E+04  0.14240295567E+04  0.50400001928E-02 0. -1.
       -1    1    3    3    0  502 -0.65296908365E+03 -0.35905020713E+03  0.15063710845E+04  0.16806068903E+04  0.50400001928E-02 0.  1.
</event>
<event>
 5   0  0.1649875E-06  0.3031791E+04  0.7818609E-02  0.8234711E-01
       -4   -1    0    0    0  501  0.00000000000E+00  0.00000000000E+00  0.14112038305E+04  0.14112044019E+04  0.12699999809E+01 0.  1.
        4   -1    0    0  501    0  0.00000000000E+00  0.00000000000E+00 -0.16283526667E+04  0.16283531620E+04  0.12699999809E+01 0. -1.
    10030    2    1    2    0    0  0.00000000000E+00  0.00000000000E+00 -0.21714883622E+03  0.30395575639E+04  0.30317909834E+04 0.  0.
        4    1    3    3  502    0  0.67140414171E+03  0.92133304941E+03 -0.11102833006E+04  0.15913418017E+04  0.12699999809E+01 0. -1.
       -4    1    3    3    0  502 -0.67140414171E+03 -0.92133304941E+03  0.89313446437E+03  0.14482157622E+04  0.12699999809E+01 0.  1.
</event>
<event>
 5   0  0.5328368E-06  0.3063532E+04  0.7818609E-02  0.8225818E-01
       -2   -1    0    0    0  501  0.00000000000E+00  0.00000000000E+00  0.13164649085E+04  0.13164649085E+04  0.25500000920E-02 0.  1.
        2   -1    0    0  501    0  0.00000000000E+00  0.00000000000E+00 -0.17822789424E+04  0.17822789424E+04  0.25500000920E-02 0. -1.
    10030    2    1    2    0    0  0.00000000000E+00  0.00000000000E+00 -0.46581403388E+03  0.30987438509E+04  0.30635323957E+04 0.  0.
        1    1    3    3  502    0  0.42342592897E+03 -0.58469302343E+03  0.11336027754E+04  0.13439533851E+04  0.50400001928E-02 0.  1.
       -1    1    3    3    0  502 -0.42342592897E+03  0.58469302343E+03 -0.15994168093E+04  0.17547904658E+04  0.50400001928E-02 0. -1.
</event>
<event>
 5   0  0.1840431E-06  0.3121734E+04  0.7818609E-02  0.8209798E-01
       -1   -1    0    0    0  501  0.00000000000E+00  0.00000000000E+00  0.14850265081E+04  0.14850265081E+04  0.50400001928E-02 0.  1.
        1   -1    0    0  501    0  0.00000000000E+00  0.00000000000E+00 -0.16405811509E+04  0.16405811509E+04  0.50400001928E-02 0. -1.
    10030    2    1    2    0    0  0.00000000000E+00  0.00000000000E+00 -0.15555464275E+03  0.31256076590E+04  0.31217344524E+04 0.  0.
        1    1    3    3  502    0  0.11614348396E+03 -0.32825404322E+03  0.14456447300E+04  0.14869864529E+04  0.50400001928E-02 0.  1.
       -1    1    3    3    0  502 -0.11614348396E+03  0.32825404322E+03 -0.16011993727E+04  0.16386212061E+04  0.50400001928E-02 0. -1.
</event>
<event>
 5   0  0.4927533E-06  0.3083570E+04  0.7818609E-02  0.8220262E-01
        2   -1    0    0  501    0  0.00000000000E+00  0.00000000000E+00  0.15361368765E+04  0.15361368765E+04  0.25500000920E-02 0. -1.
       -2   -1    0    0    0  501  0.00000000000E+00  0.00000000000E+00 -0.15474534122E+04  0.15474534122E+04  0.25500000920E-02 0.  1.
    10030    2    1    2    0    0  0.00000000000E+00  0.00000000000E+00 -0.11316535702E+02  0.30835902887E+04  0.30835695232E+04 0.  0.
        5    1    3    3  502    0  0.70586061917E+02  0.84305112924E+03  0.12832881773E+04  0.15370648115E+04  0.46999998093E+01 0. -1.
       -5    1    3    3    0  502 -0.70586061917E+02 -0.84305112924E+03 -0.12946047130E+04  0.15465254772E+04  0.46999998093E+01 0.  1.
</event>
<event>
 5   0  0.4900679E-06  0.3077168E+04  0.7818609E-02  0.8222032E-01
        2   -1    0    0  501    0  0.00000000000E+00  0.00000000000E+00  0.11818354385E+04  0.11818354385E+04  0.25500000920E-02 0. -1.
       -2   -1    0    0    0  501  0.00000000000E+00  0.00000000000E+00 -0.20030202269E+04  0.20030202269E+04  0.25500000920E-02 0.  1.
    10030    2    1    2    0    0  0.00000000000E+00  0.00000000000E+00 -0.82118478834E+03  0.31848556654E+04  0.30771677160E+04 0.  0.
        4    1    3    3  502    0  0.13878653343E+04  0.66022130261E+03 -0.48505687734E+03  0.16116277925E+04  0.12699999809E+01 0.  1.
       -4    1    3    3    0  502 -0.13878653343E+04 -0.66022130261E+03 -0.33612791100E+03  0.15732278729E+04  0.12699999809E+01 0. -1.
</event>
<event>
 5   0  0.4900679E-06  0.3033407E+04  0.7818609E-02  0.8234255E-01
        2   -1    0    0  501    0  0.00000000000E+00  0.00000000000E+00  0.11642917469E+04  0.11642917469E+04  0.25500000920E-02 0.  1.
       -2   -1    0    0    0  501  0.00000000000E+00  0.00000000000E+00 -0.19757843938E+04  0.19757843938E+04  0.25500000920E-02 0. -1.
    10030    2    1    2    0    0  0.00000000000E+00  0.00000000000E+00 -0.81149264687E+03  0.31400761408E+04  0.30334069713E+04 0.  0.
        4    1    3    3  502    0 -0.69918954989E+03 -0.58160976443E+03  0.85071175868E+03  0.12453304999E+04  0.12699999809E+01 0.  1.
       -4    1    3    3    0  502  0.69918954989E+03  0.58160976443E+03 -0.16622044055E+04  0.18947456408E+04  0.12699999809E+01 0. -1.
</event>
<event>
 5   0  0.1836401E-06  0.3161897E+04  0.7818609E-02  0.8198953E-01
       -1   -1    0    0    0  501  0.00000000000E+00  0.00000000000E+00  0.22581044431E+04  0.22581044431E+04  0.50400001928E-02 0.  1.
        1   -1    0    0  501    0  0.00000000000E+00  0.00000000000E+00 -0.11068568925E+04  0.11068568925E+04  0.50400001928E-02 0. -1.
    10030    2    1    2    0    0  0.00000000000E+00  0.00000000000E+00  0.11512475506E+04  0.33649613357E+04  0.31618971944E+04 0.  0.
        2    1    3    3  502    0  0.13195415713E+04  0.17711536025E+03 -0.33167712545E+03  0.13720676094E+04  0.25500000920E-02 0. -1.
       -2    1    3    3    0  502 -0.13195415713E+04 -0.17711536025E+03  0.14829246761E+04  0.19928937263E+04  0.25500000920E-02 0.  1.
</event>
<event>
 5   0  0.1885307E-06  0.3070972E+04  0.7818609E-02  0.8223750E-01
        1   -1    0    0  501    0  0.00000000000E+00  0.00000000000E+00  0.17457874625E+04  0.17457874625E+04  0.50400001928E-02 0.  1.
       -1   -1    0    0    0  501  0.00000000000E+00  0.00000000000E+00 -0.13505176552E+04  0.13505176552E+04  0.50400001928E-02 0. -1.
    10030    2    1    2    0    0  0.00000000000E+00  0.00000000000E+00  0.39526980724E+03  0.30963051177E+04  0.30709716966E+04 0.  0.
        3    1    3    3  502    0  0.40820919514E+02  0.10878140920E+04 -0.89421621645E+03  0.14087684331E+04  0.10100000352E+00 0. -1.
       -3    1    3    3    0  502 -0.40820919514E+02 -0.10878140920E+04  0.12894860237E+04  0.16875366846E+04  0.10100000352E+00 0.  1.
</event>
<event>
 5   0  0.1853742E-06  0.3139410E+04  0.7818609E-02  0.8205005E-01
       -1   -1    0    0    0  501  0.00000000000E+00  0.00000000000E+00  0.19616028065E+04  0.19616028065E+04  0.50400001928E-02 0.  1.
        1   -1    0    0  501    0  0.00000000000E+00  0.00000000000E+00 -0.12561019593E+04  0.12561019593E+04  0.50400001928E-02 0. -1.
    10030    2    1    2    0    0  0.00000000000E+00  0.00000000000E+00  0.70550084718E+03  0.32177047658E+04  0.31394095805E+04 0.  0.
        5    1    3    3  502    0 -0.13830838497E+04  0.45251950855E+03  0.95586106643E+03  0.17410879671E+04  0.46999998093E+01 0.  1.
       -5    1    3    3    0  502  0.13830838497E+04 -0.45251950855E+03 -0.25036021925E+03  0.14766167987E+04  0.46999998093E+01 0. -1.
</event>
<event>
 5   0  0.4900679E-06  0.2873982E+04  0.7818609E-02  0.8280661E-01
        2   -1    0    0  501    0  0.00000000000E+00  0.00000000000E+00  0.15567421055E+04  0.15567421055E+04  0.25500000920E-02 0.  1.
       -2   -1    0    0    0  501  0.00000000000E+00  0.00000000000E+00 -0.13264519720E+04  0.13264519720E+04  0.25500000920E-02 0. -1.
    10030    2    1    2    0    0  0.00000000000E+00  0.00000000000E+00  0.23029013350E+03  0.28831940775E+04  0.28739823491E+04 0.  0.
        4    1    3    3  502    0 -0.80148643655E+03  0.53448540860E+03  0.11848115914E+04  0.15270347998E+04  0.12699999809E+01 0.  1.
       -4    1    3    3    0  502  0.80148643655E+03 -0.53448540860E+03 -0.95452145786E+03  0.13561592777E+04  0.12699999809E+01 0. -1.
</event>
<event>
 5   0  0.4927533E-06  0.3084168E+04  0.7818609E-02  0.8220096E-01
       -2   -1    0    0    0  501  0.00000000000E+00  0.00000000000E+00  0.15799979725E+04  0.15799979725E+04  0.25500000920E-02 0.  1.
        2   -1    0    0  501    0  0.00000000000E+00  0.00000000000E+00 -0.15050802257E+04  0.15050802257E+04  0.25500000920E-02 0. -1.
    10030    2    1    2    0    0  0.00000000000E+00  0.00000000000E+00  0.74917746801E+02  0.30850781982E+04  0.30841684164E+04 0.  0.
        5    1    3    3  502    0  0.95952092874E+03  0.99603752473E+03  0.71973811520E+03  0.15591075036E+04  0.46999998093E+01 0.  1.
       -5    1    3    3    0  502 -0.95952092874E+03 -0.99603752473E+03 -0.64482036840E+03  0.15259706946E+04  0.46999998093E+01 0. -1.
</event>
<event>
 5   0  0.5328368E-06  0.3096839E+04  0.7818609E-02  0.8216606E-01
       -2   -1    0    0    0  501  0.00000000000E+00  0.00000000000E+00  0.14774291762E+04  0.14774291762E+04  0.25500000920E-02 0.  1.
        2   -1    0    0  501    0  0.00000000000E+00  0.00000000000E+00 -0.16228212548E+04  0.16228212548E+04  0.25500000920E-02 0. -1.
    10030    2    1    2    0    0  0.00000000000E+00  0.00000000000E+00 -0.14539207867E+03  0.31002504310E+04  0.30968393369E+04 0.  0.
        1    1    3    3  502    0  0.10429138453E+04 -0.88833721940E+03  0.64975747150E+03  0.15162443985E+04  0.50400001928E-02 0.  1.
       -1    1    3    3    0  502 -0.10429138453E+04  0.88833721940E+03 -0.79514955016E+03  0.15840060326E+04  0.50400001928E-02 0. -1.
</event>
<event>
 5   0  0.5328368E-06  0.3101853E+04  0.7818609E-02  0.8215230E-01
       -2   -1    0    0    0  501  0.00000000000E+00  0.00000000000E+00  0.19817691393E+04  0.19817691393E+04  0.25500000920E-02 0.  1.
        2   -1    0    0  501    0  0.00000000000E+00  0.00000000000E+00 -0.12137501456E+04  0.12137501456E+04  0.25500000920E-02 0. -1.
    10030    2    1    2    0    0  0.00000000000E+00  0.00000000000E+00  0.76801899369E+03  0.31955192849E+04  0.31018527247E+04 0.  0.
        1    1    3    3  502    0 -0.27302178845E+03  0.63935406663E+03 -0.10442381608E+04  0.12544910745E+04  0.50400001928E-02 0. -1.
       -1    1    3    3    0  502  0.27302178845E+03 -0.63935406663E+03  0.18122571545E+04  0.19410282104E+04  0.50400001928E-02 0.  1.
</event>
<event>
 5   0  0.1649875E-06  0.3207957E+04  0.7818609E-02  0.8186719E-01
       -3   -1    0    0    0  501  0.00000000000E+00  0.00000000000E+00  0.21471100141E+04  0.21471100165E+04  0.10100000352E+00 0.  1.
        3   -1    0    0  501    0  0.00000000000E+00  0.00000000000E+00 -0.11982370112E+04  0.11982370154E+04  0.10100000352E+00 0. -1.
    10030    2    1    2    0    0  0.00000000000E+00  0.00000000000E+00  0.94887300295E+03  0.33453470319E+04  0.32079567934E+04 0.  0.
        3    1    3    3  502    0 -0.13971562054E+04 -0.41477659621E+03 -0.22407267553E+03  0.14745486296E+04  0.10100000352E+00 0. -1.
       -3    1    3    3    0  502  0.13971562054E+04  0.41477659621E+03  0.11729456785E+04  0.18707984023E+04  0.10100000352E+00 0.  1.
</event>
<event>
 5   0  0.1649875E-06  0.3163070E+04  0.7818609E-02  0.8198639E-01
        3   -1    0    0  501    0  0.00000000000E+00  0.00000000000E+00  0.11769375193E+04  0.11769375236E+04  0.10100000352E+00 0.  1.
       -3   -1    0    0    0  501  0.00000000000E+00  0.00000000000E+00 -0.21252216624E+04  0.21252216648E+04  0.10100000352E+00 0. -1.
    10030    2    1    2    0    0  0.00000000000E+00  0.00000000000E+00 -0.94828414315E+03  0.33021591884E+04  0.31630701051E+04 0.  0.
        5    1    3    3  502    0  0.14872003530E+04  0.27867557431E+03  0.63191992332E+01  0.15131050816E+04  0.46999998093E+01 0.  1.
       -5    1    3    3    0  502 -0.14872003530E+04 -0.27867557431E+03 -0.95460334239E+03  0.17890541068E+04  0.46999998093E+01 0. -1.
</event>
<event>
 5   0  0.4900679E-06  0.3101519E+04  0.7818609E-02  0.8215321E-01
       -2   -1    0    0    0  501  0.00000000000E+00  0.00000000000E+00  0.13434696911E+04  0.13434696911E+04  0.25500000920E-02 0. -1.
        2   -1    0    0  501    0  0.00000000000E+00  0.00000000000E+00 -0.17900324074E+04  0.17900324074E+04  0.25500000920E-02 0.  1.
    10030    2    1    2    0    0  0.00000000000E+00  0.00000000000E+00 -0.44656271626E+03  0.31335020985E+04  0.31015185220E+04 0.  0.
        4    1    3    3  502    0 -0.93116115741E+03 -0.47326423192E+03  0.93475531213E+03  0.14017165337E+04  0.12699999809E+01 0. -1.
       -4    1    3    3    0  502  0.93116115741E+03  0.47326423192E+03 -0.13813180284E+04  0.17317855649E+04  0.12699999809E+01 0.  1.
</event>
<event>
 5   0  0.1843709E-06  0.3014425E+04  0.7818609E-02  0.8239624E-01
       -1   -1    0    0    0  501  0.00000000000E+00  0.00000000000E+00  0.67783682067E+03  0.67783682069E+03  0.50400001928E-02 0.  1.
        1   -1    0    0  501    0  0.00000000000E+00  0.00000000000E+00 -0.33513806040E+04  0.33513806040E+04  0.50400001928E-02 0. -1.
    10030    2    1    2    0    0  0.00000000000E+00  0.00000000000E+00 -0.26735437834E+04  0.40292174247E+04  0.30144247700E+04 0.  0.
        4    1    3    3  502    0 -0.13339201136E+04  0.64658623429E+03 -0.97249997302E+03  0.17729000079E+04  0.12699999809E+01 0.  1.
       -4    1    3    3    0  502  0.13339201136E+04 -0.64658623429E+03 -0.17010438104E+04  0.22563174168E+04  0.12699999809E+01 0. -1.
</event>
<event>
 5   0  0.4900679E-06  0.3085373E+04  0.7818609E-02  0.8219764E-01
        2   -1    0    0  501    0  0.00000000000E+00  0.00000000000E+00  0.16461179395E+04  0.16461179395E+04  0.25500000920E-02 0. -1.
       -2   -1    0    0    0  501  0.00000000000E+00  0.00000000000E+00 -0.14457543378E+04  0.14457543378E+04  0.25500000920E-02 0.  1.
    10030    2    1    2    0    0  0.00000000000E+00  0.00000000000E+00  0.20036360168E+03  0.30918722774E+04  0.30853733334E+04 0.  0.
        4    1    3    3  502    0  0.96603238583E+03  0.10361004021E+04 -0.51197144753E+03  0.15062665732E+04  0.12699999809E+01 0.  1.
       -4    1    3    3    0  502 -0.96603238583E+03 -0.10361004021E+04  0.71233504921E+03  0.15856057041E+04  0.12699999809E+01 0. -1.
</event>
<event>
 5   0  0.1885307E-06  0.3088884E+04  0.7818609E-02  0.8218795E-01
        1   -1    0    0  501    0  0.00000000000E+00  0.00000000000E+00  0.17896231661E+04  0.17896231661E+04  0.50400001928E-02 0. -1.
       -1   -1    0    0    0  501  0.00000000000E+00  0.00000000000E+00 -0.13328508268E+04  0.13328508268E+04  0.50400001928E-02 0.  1.
    10030    2    1    2    0    0  0.00000000000E+00  0.00000000000E+00  0.45677233929E+03  0.31224739930E+04  0.30888837574E+04 0.  0.
        3    1    3    3  502    0  0.46783756259E+02 -0.12849749019E+04 -0.63645909911E+03  0.14347227653E+04  0.10100000352E+00 0.  1.
       -3    1    3    3    0  502 -0.46783756259E+02  0.12849749019E+04  0.10932314384E+04  0.16877512276E+04  0.10100000352E+00 0. -1.
</event>
<event>
 5   0  0.1843709E-06  0.2971017E+04  0.7818609E-02  0.8252056E-01
       -1   -1    0    0    0  501  0.00000000000E+00  0.00000000000E+00  0.15850183597E+04  0.15850183597E+04  0.50400001928E-02 0. -1.
        1   -1    0    0  501    0  0.00000000000E+00  0.00000000000E+00 -0.13922456506E+04  0.13922456507E+04  0.50400001928E-02 0.  1.
    10030    2    1    2    0    0  0.00000000000E+00  0.00000000000E+00  0.19277270909E+03  0.29772640104E+04  0.29710166055E+04 0.  0.
        4    1    3    3  502    0  0.63395687184E+03 -0.11526600212E+04 -0.59514216287E+03  0.14438567265E+04  0.12699999809E+01 0.  1.
       -4    1    3    3    0  502 -0.63395687184E+03  0.11526600212E+04  0.78791487196E+03  0.15334072839E+04  0.12699999809E+01 0. -1.
</event>
<event>
 5   0  0.1836401E-06  0.3104283E+04  0.7818609E-02  0.8214564E-01
        1   -1    0    0  501    0  0.00000000000E+00  0.00000000000E+00  0.26628381415E+04  0.26628381415E+04  0.50400001928E-02 0. -1.
       -1   -1    0    0    0  501  0.00000000000E+00  0.00000000000E+00 -0.90472743197E+03  0.90472743198E+03  0.50400001928E-02 0.  1.
    10030    2    1    2    0    0  0.00000000000E+00  0.00000000000E+00  0.17581107096E+04  0.35675655735E+04  0.31042826634E+04 0.  0.
        2    1    3    3  502    0 -0.20707836237E+03 -0.61533979743E+03 -0.74117657755E+03  0.98532595296E+03  0.25500000920E-02 0.  1.
       -2    1    3    3    0  502  0.20707836237E+03  0.61533979743E+03  0.24992872871E+04  0.25822396206E+04  0.25500000920E-02 0. -1.
</event>
<event>
 5   0  0.5328368E-06  0.3057991E+04  0.7818609E-02  0.8227362E-01
        2   -1    0    0  501    0  0.00000000000E+00  0.00000000000E+00  0.95388273771E+03  0.95388273771E+03  0.25500000920E-02 0.  1.
       -2   -1    0    0    0  501  0.00000000000E+00  0.00000000000E+00 -0.24508540467E+04  0.24508540467E+04  0.25500000920E-02 0. -1.
    10030    2    1    2    0    0  0.00000000000E+00  0.00000000000E+00 -0.14969713090E+04  0.34047367844E+04  0.30579910842E+04 0.  0.
        1    1    3    3  502    0  0.12526638260E+04 -0.20542285667E+03 -0.16974585883E+04  0.21196063007E+04  0.50400001928E-02 0. -1.
       -1    1    3    3    0  502 -0.12526638260E+04  0.20542285667E+03  0.20048727932E+03  0.12851304837E+04  0.50400001928E-02 0.  1.
</event>
<event>
 5   0  0.1885307E-06  0.3089344E+04  0.7818609E-02  0.8218668E-01
       -1   -1    0    0    0  501  0.00000000000E+00  0.00000000000E+00  0.12065633831E+04  0.12065633831E+04  0.50400001928E-02 0. -1.
        1   -1    0    0  501    0  0.00000000000E+00  0.00000000000E+00 -0.19775272178E+04  0.19775272179E+04  0.50400001928E-02 0.  1.
    10030    2    1    2    0    0  0.00000000000E+00  0.00000000000E+00 -0.77096383478E+03  0.31840906009E+04  0.30893442217E+04 0.  0.
        3    1    3    3  502    0  0.56539982521E+03 -0.12375277042E+04  0.36828874822E+03  0.14095348145E+04  0.10100000352E+00 0. -1.
       -3    1    3    3    0  502 -0.56539982521E+03  0.12375277042E+04 -0.11392525830E+04  0.17745557864E+04  0.10100000352E+00 0.  1.
</event>
<event>
 5   0  0.5328368E-06  0.3379441E+04  0.7818609E-02  0.8142971E-01
       -2   -1    0    0    0  501  0.00000000000E+00  0.00000000000E+00  0.11275085398E+04  0.11275085398E+04  0.25500000920E-02 0. -1.
        2   -1    0    0  501    0  0.00000000000E+00  0.00000000000E+00 -0.25322693370E+04  0.25322693370E+04  0.25500000920E-02 0.  1.
    10030    2    1    2    0    0  0.00000000000E+00  0.00000000000E+00 -0.14047607972E+04  0.36597778768E+04  0.33794409612E+04 0.  0.
        1    1    3    3  502    0 -0.15844831605E+04 -0.55595105021E+03 -0.90638669263E+03  0.19081942493E+04  0.50400001928E-02 0.  1.
       -1    1    3    3    0  502  0.15844831605E+04  0.55595105021E+03 -0.49837410459E+03  0.17515836276E+04  0.50400001928E-02 0. -1.
</event>
<event>
 5   0  0.5114870E-06  0.3092259E+04  0.7818609E-02  0.8217866E-01
        2   -1    0    0  501    0  0.00000000000E+00  0.00000000000E+00  0.94249677229E+03  0.94249677230E+03  0.25500000920E-02 0. -1.
       -2   -1    0    0    0  501  0.00000000000E+00  0.00000000000E+00 -0.25363658757E+04  0.25363658757E+04  0.25500000920E-02 0.  1.
    10030    2    1    2    0    0  0.00000000000E+00  0.00000000000E+00 -0.15938691034E+04  0.34788626480E+04  0.30922591426E+04 0.  0.
        2    1    3    3  502    0  0.81136358025E+03 -0.10834863972E+04 -0.16375179919E+04  0.21245514365E+04  0.25500000920E-02 0.  1.
       -2    1    3    3    0  502 -0.81136358025E+03  0.10834863972E+04  0.43648888488E+02  0.13543112116E+04  0.25500000920E-02 0. -1.
</event>
<event>
 5   0  0.4900679E-06  0.3017969E+04  0.7818609E-02  0.8238618E-01
       -2   -1    0    0    0  501  0.00000000000E+00  0.00000000000E+00  0.12771416493E+04  0.12771416493E+04  0.25500000920E-02 0. -1.
        2   -1    0    0  501    0  0.00000000000E+00  0.00000000000E+00 -0.17829144205E+04  0.17829144205E+04  0.25500000920E-02 0.  1.
    10030    2    1    2    0    0  0.00000000000E+00  0.00000000000E+00 -0.50577277118E+03  0.30600560698E+04  0.30179690280E+04 0.  0.
        4    1    3    3  502    0  0.93856058630E+03  0.10163740408E+04  0.35811188496E+03  0.14290409022E+04  0.12699999809E+01 0. -1.
       -4    1    3    3    0  502 -0.93856058630E+03 -0.10163740408E+04 -0.86388465614E+03  0.16310151676E+04  0.12699999809E+01 0.  1.
</event>
<event>
 5   0  0.1843709E-06  0.3134234E+04  0.7818609E-02  0.8206405E-01
       -1   -1    0    0    0  501  0.00000000000E+00  0.00000000000E+00  0.12990630581E+04  0.12990630581E+04  0.50400001928E-02 0. -1.
        1   -1    0    0  501    0  0.00000000000E+00  0.00000000000E+00 -0.18904826161E+04  0.18904826161E+04  0.50400001928E-02 0.  1.
    10030    2    1    2    0    0  0.00000000000E+00  0.00000000000E+00 -0.59141955798E+03  0.31895456741E+04  0.31342342787E+04 0.  0.
        4    1    3    3  502    0  0.78094428343E+03 -0.87194861838E+03 -0.13560604560E+04  0.17913877135E+04  0.12699999809E+01 0.  1.
       -4    1    3    3    0  502 -0.78094428343E+03  0.87194861838E+03  0.76464089806E+03  0.13981579606E+04  0.12699999809E+01 0. -1.
</event>
<event>
 5   0  0.1840431E-06  0.3055953E+04  0.7818609E-02  0.8227931E-01
        1   -1    0    0  501    0  0.00000000000E+00  0.00000000000E+00  0.10049210697E+04  0.10049210697E+04  0.50400001928E-02 0.  1.
       -1   -1    0    0    0  501  0.00000000000E+00  0.00000000000E+00 -0.23232790113E+04  0.23232790113E+04  0.50400001928E-02 0. -1.
    10030    2    1    2    0    0  0.00000000000E+00  0.00000000000E+00 -0.13183579415E+04  0.33282000810E+04  0.30559528984E+04 0.  0.
        1    1    3    3  502    0  0.28047402540E+03  0.14357299570E+04 -0.11397687882E+04  0.18544700264E+04  0.50400001928E-02 0. -1.
       -1    1    3    3    0  502 -0.28047402540E+03 -0.14357299570E+04 -0.17858915334E+03  0.14737300546E+04  0.50400001928E-02 0.  1.
</event>
<event>
 5   0  0.4900679E-06  0.2426256E+04  0.7818609E-02  0.8429739E-01
       -2   -1    0    0    0  501  0.00000000000E+00  0.00000000000E+00  0.48787245040E+03  0.48787245041E+03  0.25500000920E-02 0.  1.
        2   -1    0    0  501    0  0.00000000000E+00  0.00000000000E+00 -0.30165242581E+04  0.30165242581E+04  0.25500000920E-02 0. -1.
    10030    2    1    2    0    0  0.00000000000E+00  0.00000000000E+00 -0.25286518077E+04  0.35043967085E+04  0.24262556184E+04 0.  0.
        4    1    3    3  502    0  0.48880289454E+03 -0.10777264853E+04 -0.87877312408E+03  0.14739967650E+04  0.12699999809E+01 0. -1.
       -4    1    3    3    0  502 -0.48880289454E+03  0.10777264853E+04 -0.16498786837E+04  0.20303999435E+04  0.12699999809E+01 0.  1.
</event>
<event>
 5   0  0.4927533E-06  0.3047524E+04  0.7818609E-02  0.8230289E-01
       -2   -1    0    0    0  501  0.00000000000E+00  0.00000000000E+00  0.12647119377E+04  0.12647119377E+04  0.25500000920E-02 0. -1.
        2   -1    0    0  501    0  0.00000000000E+00  0.00000000000E+00 -0.18358736365E+04  0.18358736365E+04  0.25500000920E-02 0.  1.
    10030    2    1    2    0    0  0.00000000000E+00  0.00000000000E+00 -0.57116169882E+03  0.31005855742E+04  0.30475244407E+04 0.  0.
        5    1    3    3  502    0 -0.34329055760E+03  0.14829757336E+04 -0.35580272226E+03  0.15632284224E+04  0.46999998093E+01 0. -1.
       -5    1    3    3    0  502  0.34329055760E+03 -0.14829757336E+04 -0.21535897656E+03  0.15373571518E+04  0.46999998093E+01 0.  1.
</event>
<event>
 5   0  0.1836401E-06  0.2412927E+04  0.7818609E-02  0.8434680E-01
        1   -1    0    0  501    0  0.00000000000E+00  0.00000000000E+00  0.10632606471E+04  0.10632606471E+04  0.50400001928E-02 0.  1.
       -1   -1    0    0    0  501  0.00000000000E+00  0.00000000000E+00 -0.13689538274E+04  0.13689538274E+04  0.50400001928E-02 0. -1.
    10030    2    1    2    0    0  0.00000000000E+00  0.00000000000E+00 -0.30569318030E+03  0.24322144745E+04  0.24129274605E+04 0.  0.
        2    1    3    3  502    0 -0.23232770048E+03  0.72741233500E+02 -0.13439377307E+04  0.13658096762E+04  0.25500000920E-02 0. -1.
       -2    1    3    3    0  502  0.23232770048E+03 -0.72741233500E+02  0.10382445504E+04  0.10664047984E+04  0.25500000920E-02 0.  1.
</event>
<event>
 5   0  0.1885307E-06  0.3028340E+04  0.7818609E-02  0.8235684E-01
        1   -1    0    0  501    0  0.00000000000E+00  0.00000000000E+00  0.12289101213E+04  0.12289101213E+04  0.50400001928E-02 0. -1.
       -1   -1    0    0    0  501  0.00000000000E+00  0.00000000000E+00 -0.18656457634E+04  0.18656457634E+04  0.50400001928E-02 0.  1.
    10030    2    1    2    0    0  0.00000000000E+00  0.00000000000E+00 -0.63673564208E+03  0.30945558848E+04  0.30283401140E+04 0.  0.
        3    1    3    3  502    0 -0.19556411477E+03  0.14989801853E+04 -0.22973001249E+03  0.15290398320E+04  0.10100000352E+00 0. -1.
       -3    1    3    3    0  502  0.19556411477E+03 -0.14989801853E+04 -0.40700562960E+03  0.15655160528E+04  0.10100000352E+00 0.  1.
</event>
<event>
 5   0  0.5114870E-06  0.3093592E+04  0.7818609E-02  0.8217499E-01
       -2   -1    0    0    0  501  0.00000000000E+00  0.00000000000E+00  0.15916321349E+04  0.15916321349E+04  0.25500000920E-02 0.  1.
        2   -1    0    0  501    0  0.00000000000E+00  0.00000000000E+00 -0.15032232096E+04  0.15032232096E+04  0.25500000920E-02 0. -1.
    10030    2    1    2    0    0  0.00000000000E+00  0.00000000000E+00  0.88408925239E+02  0.30948553445E+04  0.30935923237E+04 0.  0.
        2    1    3    3  502    0 -0.24312631407E+03  0.10964037478E+02 -0.14839491331E+04  0.15037738009E+04  0.25500000920E-02 0. -1.
       -2    1    3    3    0  502  0.24312631407E+03 -0.10964037478E+02  0.15723580583E+04  0.15910815436E+04  0.25500000920E-02 0.  1.
</event>
<event>
 5   0  0.4900679E-06  0.3128106E+04  0.7818609E-02  0.8208066E-01
       -2   -1    0    0    0  501  0.00000000000E+00  0.00000000000E+00  0.12577837837E+04  0.12577837837E+04  0.25500000920E-02 0.  1.
        2   -1    0    0  501    0  0.00000000000E+00  0.00000000000E+00 -0.19448987339E+04  0.19448987339E+04  0.25500000920E-02 0. -1.
    10030    2    1    2    0    0  0.00000000000E+00  0.00000000000E+00 -0.68711495021E+03  0.32026825176E+04  0.31281061928E+04 0.  0.
        4    1    3    3  502    0  0.60963760321E+03 -0.11068846005E+04  0.60004879334E+03  0.13988965986E+04  0.12699999809E+01 0.  1.
       -4    1    3    3    0  502 -0.60963760321E+03  0.11068846005E+04 -0.12871637435E+04  0.18037859190E+04  0.12699999809E+01 0. -1.
</event>
<event>
 5   0  0.1840431E-06  0.3035962E+04  0.7818609E-02  0.8233536E-01
       -1   -1    0    0    0  501  0.00000000000E+00  0.00000000000E+00  0.89377057023E+03  0.89377057024E+03  0.50400001928E-02 0.  1.
        1   -1    0    0  501    0  0.00000000000E+00  0.00000000000E+00 -0.25781400673E+04  0.25781400673E+04  0.50400001928E-02 0. -1.
    10030    2    1    2    0    0  0.00000000000E+00  0.00000000000E+00 -0.16843694971E+04  0.34719106376E+04  0.30359616059E+04 0.  0.
        1    1    3    3  502    0 -0.13450072168E+04  0.59211083009E+03 -0.40727859192E+03  0.15249640979E+04  0.50400001928E-02 0.  1.
       -1    1    3    3    0  502  0.13450072168E+04 -0.59211083009E+03 -0.12770909052E+04  0.19469465397E+04  0.50400001928E-02 0. -1.
</event>
<event>
 5   0  0.1840431E-06  0.3040201E+04  0.7818609E-02  0.8232344E-01
       -1   -1    0    0    0  501  0.00000000000E+00  0.00000000000E+00  0.18897993377E+04  0.18897993377E+04  0.50400001928E-02 0. -1.
        1   -1    0    0  501    0  0.00000000000E+00  0.00000000000E+00 -0.12227252684E+04  0.12227252684E+04  0.50400001928E-02 0.  1.
    10030    2    1    2    0    0  0.00000000000E+00  0.00000000000E+00  0.66707406927E+03  0.31125246061E+04  0.30402009160E+04 0.  0.
        1    1    3    3  502    0  0.11123711513E+04 -0.62522063365E+03  0.11792853645E+04  0.17375224861E+04  0.50400001928E-02 0. -1.
       -1    1    3    3    0  502 -0.11123711513E+04  0.62522063365E+03 -0.51221129518E+03  0.13750021200E+04  0.50400001928E-02 0.  1.
</event>
<event>
 5   0  0.5001658E-06  0.3030550E+04  0.7818609E-02  0.8235061E-01
       -2   -1    0    0    0  501  0.00000000000E+00  0.00000000000E+00  0.18902893999E+04  0.18902893999E+04  0.25500000920E-02 0. -1.
        2   -1    0    0  501    0  0.00000000000E+00  0.00000000000E+00 -0.12146595164E+04  0.12146595164E+04  0.25500000920E-02 0.  1.
    10030    2    1    2    0    0  0.00000000000E+00  0.00000000000E+00  0.67562988356E+03  0.31049489163E+04  0.30305497906E+04 0.  0.
        3    1    3    3  502    0  0.51269504025E+03  0.91033073781E+02  0.17957440609E+04  0.18697165473E+04  0.10100000352E+00 0. -1.
       -3    1    3    3    0  502 -0.51269504025E+03 -0.91033073781E+02 -0.11201141774E+04  0.12352323690E+04  0.10100000352E+00 0.  1.
</event>
<event>
 5   0  0.1843709E-06  0.3098074E+04  0.7818609E-02  0.8216267E-01
       -1   -1    0    0    0  501  0.00000000000E+00  0.00000000000E+00  0.10473280867E+04  0.10473280867E+04  0.50400001928E-02 0.  1.
        1   -1    0    0  501    0  0.00000000000E+00  0.00000000000E+00 -0.22910823285E+04  0.22910823285E+04  0.50400001928E-02 0. -1.
    10030    2    1    2    0    0  0.00000000000E+00  0.00000000000E+00 -0.12437542418E+04  0.33384104151E+04  0.30980735120E+04 0.  0.
        4    1    3    3  502    0  0.38957938287E+03 -0.13539217860E+04  0.71999115304E+02  0.14106954964E+04  0.12699999809E+01 0.  1.
       -4    1    3    3    0  502 -0.38957938287E+03  0.13539217860E+04 -0.13157533571E+04  0.19277149187E+04  0.12699999809E+01 0. -1.
</event>
<event>
 5   0  0.1885307E-06  0.3119680E+04  0.7818609E-02  0.8210358E-01
       -1   -1    0    0    0  501  0.00000000000E+00  0.00000000000E+00  0.84112582209E+03  0.84112582211E+03  0.50400001928E-02 0. -1.
        1   -1    0    0  501    0  0.00000000000E+00  0.00000000000E+00 -0.28926714902E+04  0.28926714902E+04  0.50400001928E-02 0.  1.
    10030    2    1    2    0    0  0.00000000000E+00  0.00000000000E+00 -0.20515456681E+04  0.37337973123E+04  0.31196799100E+04 0.  0.
        3    1    3    3  502    0  0.26095597001E+03 -0.34518382567E+03  0.76785011299E+03  0.88138737114E+03  0.10100000352E+00 0. -1.
       -3    1    3    3    0  502 -0.26095597001E+03  0.34518382567E+03 -0.28193957811E+04  0.28524099411E+04  0.10100000352E+00 0.  1.
</event>
<event>
 5   0  0.1840431E-06  0.3058801E+04  0.7818609E-02  0.8227136E-01
       -1   -1    0    0    0  501  0.00000000000E+00  0.00000000000E+00  0.11692273727E+04  0.11692273727E+04  0.50400001928E-02 0.  1.
        1   -1    0    0  501    0  0.00000000000E+00  0.00000000000E+00 -0.20005232472E+04  0.20005232472E+04  0.50400001928E-02 0. -1.
    10030    2    1    2    0    0  0.00000000000E+00  0.00000000000E+00 -0.83129587448E+03  0.31697506199E+04  0.30588014256E+04 0.  0.
        1    1    3    3  502    0 -0.14007153342E+04  0.14753980036E+03 -0.10333348797E+04  0.17468693179E+04  0.50400001928E-02 0. -1.
       -1    1    3    3    0  502  0.14007153342E+04 -0.14753980036E+03  0.20203900521E+03  0.14228813021E+04  0.50400001928E-02 0.  1.
</event>
<event>
 5   0  0.1885307E-06  0.3144261E+04  0.7818609E-02  0.8203695E-01
        1   -1    0    0  501    0  0.00000000000E+00  0.00000000000E+00  0.19704329445E+04  0.19704329446E+04  0.50400001928E-02 0.  1.
       -1   -1    0    0    0  501  0.00000000000E+00  0.00000000000E+00 -0.12543408828E+04  0.12543408828E+04  0.50400001928E-02 0. -1.
    10030    2    1    2    0    0  0.00000000000E+00  0.00000000000E+00  0.71609206178E+03  0.32247738273E+04  0.31442611845E+04 0.  0.
        3    1    3    3  502    0  0.14563182817E+04  0.24407205505E+03  0.91145585149E+03  0.17352768900E+04  0.10100000352E+00 0.  1.
       -3    1    3    3    0  502 -0.14563182817E+04 -0.24407205505E+03 -0.19536378971E+03  0.14894969373E+04  0.10100000352E+00 0. -1.
</event>
<event>
 5   0  0.4927533E-06  0.3180329E+04  0.7818609E-02  0.8194032E-01
       -2   -1    0    0    0  501  0.00000000000E+00  0.00000000000E+00  0.14114319018E+04  0.14114319019E+04  0.25500000920E-02 0.  1.
        2   -1    0    0  501    0  0.00000000000E+00  0.00000000000E+00 -0.17915301773E+04  0.17915301773E+04  0.25500000920E-02 0. -1.
    10030    2    1    2    0    0  0.00000000000E+00  0.00000000000E+00 -0.38009827543E+03  0.32029620791E+04  0.31803288165E+04 0.  0.
        5    1    3    3  502    0  0.45806898664E+03 -0.42469911059E+03 -0.16627843628E+04  0.17762518003E+04  0.46999998093E+01 0. -1.
       -5    1    3    3    0  502 -0.45806898664E+03  0.42469911059E+03  0.12826860873E+04  0.14267102788E+04  0.46999998093E+01 0.  1.
</event>
<event>
 5   0  0.1843709E-06  0.3001190E+04  0.7818609E-02  0.8243391E-01
       -1   -1    0    0    0  501  0.00000000000E+00  0.00000000000E+00  0.93027457327E+03  0.93027457329E+03  0.50400001928E-02 0.  1.
        1   -1    0    0  501    0  0.00000000000E+00  0.00000000000E+00 -0.24205599620E+04  0.24205599620E+04  0.50400001928E-02 0. -1.
    10030    2    1    2    0    0  0.00000000000E+00  0.00000000000E+00 -0.14902853887E+04  0.33508345353E+04  0.30011900211E+04 0.  0.
        4    1    3    3  502    0  0.87202307052E+03 -0.77790802562E+03  0.30592316480E+03  0.12079551844E+04  0.12699999809E+01 0.  1.
       -4    1    3    3    0  502 -0.87202307052E+03  0.77790802562E+03 -0.17962085535E+04  0.21428793509E+04  0.12699999809E+01 0. -1.
</event>
<event>
 5   0  0.1840431E-06  0.3090687E+04  0.7818609E-02  0.8218299E-01
       -1   -1    0    0    0  501  0.00000000000E+00  0.00000000000E+00  0.10306051185E+04  0.10306051185E+04  0.50400001928E-02 0. -1.
        1   -1    0    0  501    0  0.00000000000E+00  0.00000000000E+00 -0.23171688557E+04  0.23171688557E+04  0.50400001928E-02 0.  1.
    10030    2    1    2    0    0  0.00000000000E+00  0.00000000000E+00 -0.12865637372E+04  0.33477739742E+04  0.30906867089E+04 0.  0.
        1    1    3    3  502    0  0.87651272367E+03  0.63349836518E+03 -0.18389547230E+04  0.21333891363E+04  0.50400001928E-02 0.  1.
       -1    1    3    3    0  502 -0.87651272367E+03 -0.63349836518E+03  0.55239098584E+03  0.12143848380E+04  0.50400001928E-02 0. -1.
</event>
<event>
 5   0  0.1885307E-06  0.2790933E+04  0.7818609E-02  0.8306089E-01
        1   -1    0    0  501    0  0.00000000000E+00  0.00000000000E+00  0.96308719212E+03  0.96308719213E+03  0.50400001928E-02 0. -1.
       -1   -1    0    0    0  501  0.00000000000E+00  0.00000000000E+00 -0.20219626137E+04  0.20219626137E+04  0.50400001928E-02 0.  1.
    10030    2    1    2    0    0  0.00000000000E+00  0.00000000000E+00 -0.10588754216E+04  0.29850498059E+04  0.27909326730E+04 0.  0.
        3    1    3    3  502    0 -0.46136845370E+03  0.11283942410E+04 -0.12557828668E+04  0.17501785715E+04  0.10100000352E+00 0.  1.
       -3    1    3    3    0  502  0.46136845370E+03 -0.11283942410E+04  0.19690744521E+03  0.12348712344E+04  0.10100000352E+00 0. -1.
</event>
<event>
 5   0  0.4927533E-06  0.3012521E+04  0.7818609E-02  0.8240164E-01
       -2   -1    0    0    0  501  0.00000000000E+00  0.00000000000E+00  0.17792148448E+04  0.17792148448E+04  0.25500000920E-02 0.  1.
        2   -1    0    0  501    0  0.00000000000E+00  0.00000000000E+00 -0.12751807307E+04  0.12751807307E+04  0.25500000920E-02 0. -1.
    10030    2    1    2    0    0  0.00000000000E+00  0.00000000000E+00  0.50403411411E+03  0.30543955754E+04  0.30125208618E+04 0.  0.
        5    1    3    3  502    0  0.10991891658E+04  0.67104824283E+02 -0.78992441094E+03  0.13552573721E+04  0.46999998093E+01 0. -1.
       -5    1    3    3    0  502 -0.10991891658E+04 -0.67104824283E+02  0.12939585250E+04  0.16991382034E+04  0.46999998093E+01 0.  1.
</event>
<event>
 5   0  0.4900679E-06  0.3286055E+04  0.7818609E-02  0.8166453E-01
        2   -1    0    0  501    0  0.00000000000E+00  0.00000000000E+00  0.13511135417E+04  0.13511135417E+04  0.25500000920E-02 0. -1.
       -2   -1    0    0    0  501  0.00000000000E+00  0.00000000000E+00 -0.19980102049E+04  0.19980102049E+04  0.25500000920E-02 0.  1.
    10030    2    1    2    0    0  0.00000000000E+00  0.00000000000E+00 -0.64689666326E+03  0.33491237466E+04  0.32860545609E+04 0.  0.
        4    1    3    3  502    0 -0.10378894755E+04 -0.10759561709E+04 -0.10181767899E+04  0.18087514571E+04  0.12699999809E+01 0.  1.
       -4    1    3    3    0  502  0.10378894755E+04  0.10759561709E+04  0.37128012659E+03  0.15403722896E+04  0.12699999809E+01 0. -1.
</event>
<event>
 5   0  0.1853742E-06  0.2219105E+04  0.7818609E-02  0.8510518E-01
       -1   -1    0    0    0  501  0.00000000000E+00  0.00000000000E+00  0.63181537181E+03  0.63181537183E+03  0.50400001928E-02 0.  1.
        1   -1    0    0  501    0  0.00000000000E+00  0.00000000000E+00 -0.19485223335E+04  0.19485223335E+04  0.50400001928E-02 0. -1.
    10030    2    1    2    0    0  0.00000000000E+00  0.00000000000E+00 -0.13167069617E+04  0.25803377053E+04  0.22191046507E+04 0.  0.
        5    1    3    3  502    0  0.97558994744E+02 -0.62339902339E+03 -0.17195740750E+04  0.18316935303E+04  0.46999998093E+01 0. -1.
       -5    1    3    3    0  502 -0.97558994744E+02  0.62339902339E+03  0.40286711327E+03  0.74864417501E+03  0.46999998093E+01 0.  1.
</event>
<event>
 5   0  0.4900679E-06  0.2791921E+04  0.7818609E-02  0.8305781E-01
       -2   -1    0    0    0  501  0.00000000000E+00  0.00000000000E+00  0.13217487301E+04  0.13217487301E+04  0.25500000920E-02 0.  1.
        2   -1    0    0  501    0  0.00000000000E+00  0.00000000000E+00 -0.14743385589E+04  0.14743385589E+04  0.25500000920E-02 0. -1.
    10030    2    1    2    0    0  0.00000000000E+00  0.00000000000E+00 -0.15258982873E+03  0.27960872890E+04  0.27919205705E+04 0.  0.
        4    1    3    3  502    0 -0.92679710818E+03 -0.43426587434E+03  0.87441829835E+03  0.13461607269E+04  0.12699999809E+01 0.  1.
       -4    1    3    3    0  502  0.92679710818E+03  0.43426587434E+03 -0.10270081271E+04  0.14499265621E+04  0.12699999809E+01 0. -1.
</event>
<event>
 5   0  0.1853742E-06  0.2660586E+04  0.7818609E-02  0.8347908E-01
        1   -1    0    0  501    0  0.00000000000E+00  0.00000000000E+00  0.21245981564E+04  0.21245981564E+04  0.50400001928E-02 0. -1.
       -1   -1    0    0    0  501  0.00000000000E+00  0.00000000000E+00 -0.83294803521E+03  0.83294803523E+03  0.50400001928E-02 0.  1.
    10030    2    1    2    0    0  0.00000000000E+00  0.00000000000E+00  0.12916501211E+04  0.29575461916E+04  0.26605862963E+04 0.  0.
        5    1    3    3  502    0 -0.69510028443E+03  0.10657530971E+04  0.21434721508E+03  0.12903336344E+04  0.46999998093E+01 0. -1.
       -5    1    3    3    0  502  0.69510028443E+03 -0.10657530971E+04  0.10773029061E+04  0.16672125572E+04  0.46999998093E+01 0.  1.
</event>
<event>
 5   0  0.5114870E-06  0.3112214E+04  0.7818609E-02  0.8212394E-01
       -2   -1    0    0    0  501  0.00000000000E+00  0.00000000000E+00  0.10006500079E+04  0.10006500079E+04  0.25500000920E-02 0. -1.
        2   -1    0    0  501    0  0.00000000000E+00  0.00000000000E+00 -0.24198959858E+04  0.24198959858E+04  0.25500000920E-02 0.  1.
    10030    2    1    2    0    0  0.00000000000E+00  0.00000000000E+00 -0.14192459779E+04  0.34205459936E+04  0.31122139626E+04 0.  0.
        2    1    3    3  502    0 -0.91864685889E+03  0.46542940789E+03 -0.19917889906E+04  0.22422667031E+04  0.25500000920E-02 0.  1.
       -2    1    3    3    0  502  0.91864685889E+03 -0.46542940789E+03  0.57254301266E+03  0.11782792905E+04  0.25500000920E-02 0. -1.
</event>
<event>
 5   0  0.5328368E-06  0.3077797E+04  0.7818609E-02  0.8221858E-01
        2   -1    0    0  501    0  0.00000000000E+00  0.00000000000E+00  0.25144497874E+04  0.25144497874E+04  0.25500000920E-02 0. -1.
       -2   -1    0    0    0  501  0.00000000000E+00  0.00000000000E+00 -0.94183961986E+03  0.94183961986E+03  0.25500000920E-02 0.  1.
    10030    2    1    2    0    0  0.00000000000E+00  0.00000000000E+00  0.15726101675E+04  0.34562894072E+04  0.30777968951E+04 0.  0.
        1    1    3    3  502    0 -0.43242360746E+03 -0.85821368906E+03  0.21360667928E+04  0.23422856905E+04  0.50400001928E-02 0. -1.
       -1    1    3    3    0  502  0.43242360746E+03  0.85821368906E+03 -0.56345662529E+03  0.11140037168E+04  0.50400001928E-02 0.  1.
</event>
<event>
 5   0  0.1843709E-06  0.3153415E+04  0.7818609E-02  0.8201230E-01
        1   -1    0    0  501    0  0.00000000000E+00  0.00000000000E+00  0.14012530860E+04  0.14012530860E+04  0.50400001928E-02 0. -1.
       -1   -1    0    0    0  501  0.00000000000E+00  0.00000000000E+00 -0.17741314132E+04  0.17741314133E+04  0.50400001928E-02 0.  1.
    10030    2    1    2    0    0  0.00000000000E+00  0.00000000000E+00 -0.37287832723E+03  0.31753844993E+04  0.31534153661E+04 0.  0.
        4    1    3    3  502    0  0.89683714363E+03 -0.35621456957E+03  0.10691639448E+04  0.14402495740E+04  0.12699999809E+01 0. -1.
       -4    1    3    3    0  502 -0.89683714363E+03  0.35621456957E+03 -0.14420422720E+04  0.17351349253E+04  0.12699999809E+01 0.  1.
</event>
<event>
 5   0  0.5328368E-06  0.3111495E+04  0.7818609E-02  0.8212590E-01
       -2   -1    0    0    0  501  0.00000000000E+00  0.00000000000E+00  0.10151518086E+04  0.10151518086E+04  0.25500000920E-02 0. -1.
        2   -1    0    0  501    0  0.00000000000E+00  0.00000000000E+00 -0.23842252919E+04  0.23842252919E+04  0.25500000920E-02 0.  1.
    10030    2    1    2    0    0  0.00000000000E+00  0.00000000000E+00 -0.13690734833E+04  0.33993771005E+04  0.31114952144E+04 0.  0.
        1    1    3    3  502    0  0.80278043506E+03  0.44474037711E+03  0.68791629625E+03  0.11469434426E+04  0.50400001928E-02 0. -1.
       -1    1    3    3    0  502 -0.80278043506E+03 -0.44474037711E+03 -0.20569897796E+04  0.22524336579E+04  0.50400001928E-02 0.  1.
</event>
<event>
 5   0  0.1836401E-06  0.3144673E+04  0.7818609E-02  0.8203584E-01
        1   -1    0    0  501    0  0.00000000000E+00  0.00000000000E+00  0.15119596183E+04  0.15119596183E+04  0.50400001928E-02 0.  1.
       -1   -1    0    0    0  501  0.00000000000E+00  0.00000000000E+00 -0.16351247354E+04  0.16351247354E+04  0.50400001928E-02 0. -1.
    10030    2    1    2    0    0  0.00000000000E+00  0.00000000000E+00 -0.12316511705E+03  0.31470843537E+04  0.31446733190E+04 0.  0.
        2    1    3    3  502    0 -0.22115448707E+03 -0.14406942448E+04 -0.65172387929E+03  0.15966381021E+04  0.25500000920E-02 0. -1.
       -2    1    3    3    0  502  0.22115448707E+03  0.14406942448E+04  0.52855876224E+03  0.15504462517E+04  0.25500000920E-02 0.  1.
</event>
<event>
 5   0  0.4900679E-06  0.3092512E+04  0.7818609E-02  0.8217796E-01
       -2   -1    0    0    0  501  0.00000000000E+00  0.00000000000E+00  0.11164640526E+04  0.11164640526E+04  0.25500000920E-02 0.  1.
        2   -1    0    0  501    0  0.00000000000E+00  0.00000000000E+00 -0.21414991896E+04  0.21414991896E+04  0.25500000920E-02 0. -1.
    10030    2    1    2    0    0  0.00000000000E+00  0.00000000000E+00 -0.10250351370E+04  0.32579632423E+04  0.30925115127E+04 0.  0.
        4    1    3    3  502    0  0.12293786270E+04 -0.12668733016E+03 -0.14914707965E+04  0.19369843153E+04  0.12699999809E+01 0. -1.
       -4    1    3    3    0  502 -0.12293786270E+04  0.12668733016E+03  0.46643565946E+03  0.13209789270E+04  0.12699999809E+01 0.  1.
</event>
<event>
 5   0  0.5001658E-06  0.3079017E+04  0.7818609E-02  0.8221520E-01
       -2   -1    0    0    0  501  0.00000000000E+00  0.00000000000E+00  0.18117250042E+04  0.18117250042E+04  0.25500000920E-02 0.  1.
        2   -1    0    0  501    0  0.00000000000E+00  0.00000000000E+00 -0.13081929239E+04  0.13081929239E+04  0.25500000920E-02 0. -1.
    10030    2    1    2    0    0  0.00000000000E+00  0.00000000000E+00  0.50353208022E+03  0.31199179281E+04  0.30790166161E+04 0.  0.
        3    1    3    3  502    0 -0.37841008437E+03  0.96996021193E+03  0.14008803712E+04  0.17454176661E+04  0.10100000352E+00 0.  1.
       -3    1    3    3    0  502  0.37841008437E+03 -0.96996021193E+03 -0.89734829095E+03  0.13745002620E+04  0.10100000352E+00 0. -1.
</event>
<event>
 5   0  0.1836401E-06  0.3026872E+04  0.7818609E-02  0.8236099E-01
        1   -1    0    0  501    0  0.00000000000E+00  0.00000000000E+00  0.91369162935E+03  0.91369162936E+03  0.50400001928E-02 0.  1.
       -1   -1    0    0    0  501  0.00000000000E+00  0.00000000000E+00 -0.25068509189E+04  0.25068509190E+04  0.50400001928E-02 0. -1.
    10030    2    1    2    0    0  0.00000000000E+00  0.00000000000E+00 -0.15931592896E+04  0.34205425483E+04  0.30268721154E+04 0.  0.
        2    1    3    3  502    0  0.13674495377E+04  0.64198022482E+03 -0.90034740673E+03  0.17586023712E+04  0.25500000920E-02 0.  1.
       -2    1    3    3    0  502 -0.13674495377E+04 -0.64198022482E+03 -0.69281188288E+03  0.16619401771E+04  0.25500000920E-02 0. -1.
</event>
<event>
 5   0  0.1843709E-06  0.3115485E+04  0.7818609E-02  0.8211501E-01
        1   -1    0    0  501    0  0.00000000000E+00  0.00000000000E+00  0.16875750752E+04  0.16875750752E+04  0.50400001928E-02 0.  1.
       -1   -1    0    0    0  501  0.00000000000E+00  0.00000000000E+00 -0.14378985395E+04  0.14378985395E+04  0.50400001928E-02 0. -1.
    10030    2    1    2    0    0  0.00000000000E+00  0.00000000000E+00  0.24967653568E+03  0.31254736147E+04  0.31154850255E+04 0.  0.
        4    1    3    3  502    0 -0.42418562068E+02  0.12970024010E+04 -0.73963530571E+03  0.14936788681E+04  0.12699999809E+01 0. -1.
       -4    1    3    3    0  502  0.42418562068E+02 -0.12970024010E+04  0.98931184139E+03  0.16317947466E+04  0.12699999809E+01 0.  1.
</event>
<event>
 5   0  0.1885307E-06  0.3056574E+04  0.7818609E-02  0.8227758E-01
        1   -1    0    0  501    0  0.00000000000E+00  0.00000000000E+00  0.18048063720E+04  0.18048063720E+04  0.50400001928E-02 0. -1.
       -1   -1    0    0    0  501  0.00000000000E+00  0.00000000000E+00 -0.12941341044E+04  0.12941341044E+04  0.50400001928E-02 0.  1.
    10030    2    1    2    0    0  0.00000000000E+00  0.00000000000E+00  0.51067226760E+03  0.30989404763E+04  0.30565742116E+04 0.  0.
        3    1    3    3  502    0 -0.54299903716E+03  0.13601134294E+04 -0.18764671318E+03  0.14764713998E+04  0.10100000352E+00 0.  1.
       -3    1    3    3    0  502  0.54299903716E+03 -0.13601134294E+04  0.69831898078E+03  0.16224690765E+04  0.10100000352E+00 0. -1.
</event>
<event>
 5   0  0.1885307E-06  0.3103641E+04  0.7818609E-02  0.8214739E-01
       -1   -1    0    0    0  501  0.00000000000E+00  0.00000000000E+00  0.92488602620E+03  0.92488602621E+03  0.50400001928E-02 0.  1.
        1   -1    0    0  501    0  0.00000000000E+00  0.00000000000E+00 -0.26037222695E+04  0.26037222695E+04  0.50400001928E-02 0. -1.
    10030    2    1    2    0    0  0.00000000000E+00  0.00000000000E+00 -0.16788362433E+04  0.35286082957E+04  0.31036406643E+04 0.  0.
        3    1    3    3  502    0 -0.10521516207E+04 -0.48881909183E+03 -0.20111571963E+04  0.23217925006E+04  0.10100000352E+00 0. -1.
       -3    1    3    3    0  502  0.10521516207E+04  0.48881909183E+03  0.33232095295E+03  0.12068157952E+04  0.10100000352E+00 0.  1.
</event>
<event>
 5   0  0.5001658E-06  0.3109989E+04  0.7818609E-02  0.8213002E-01
       -2   -1    0    0    0  501  0.00000000000E+00  0.00000000000E+00  0.87114144294E+03  0.87114144295E+03  0.25500000920E-02 0.  1.
        2   -1    0    0  501    0  0.00000000000E+00  0.00000000000E+00 -0.27756774044E+04  0.27756774044E+04  0.25500000920E-02 0. -1.
    10030    2    1    2    0    0  0.00000000000E+00  0.00000000000E+00 -0.19045359615E+04  0.36468188474E+04  0.31099888227E+04 0.  0.
        3    1    3    3  502    0  0.77319899469E+03 -0.51454080248E+03 -0.24147112180E+04  0.25871643163E+04  0.10100000352E+00 0. -1.
       -3    1    3    3    0  502 -0.77319899469E+03  0.51454080248E+03  0.51017525649E+03  0.10596545311E+04  0.10100000352E+00 0.  1.
</event>
<event>
 5   0  0.4927533E-06  0.3054351E+04  0.7818609E-02  0.8228379E-01
       -2   -1    0    0    0  501  0.00000000000E+00  0.00000000000E+00  0.10686147528E+04  0.10686147528E+04  0.25500000920E-02 0. -1.
        2   -1    0    0  501    0  0.00000000000E+00  0.00000000000E+00 -0.21825124515E+04  0.21825124515E+04  0.25500000920E-02 0.  1.
    10030    2    1    2    0    0  0.00000000000E+00  0.00000000000E+00 -0.11138976987E+04  0.32511272043E+04  0.30543509974E+04 0.  0.
        5    1    3    3  502    0 -0.12128608953E+02 -0.13983255699E+04  0.96421997976E+02  0.14017063866E+04  0.46999998093E+01 0. -1.
       -5    1    3    3    0  502  0.12128608953E+02  0.13983255699E+04 -0.12103196967E+04  0.18494208177E+04  0.46999998093E+01 0.  1.
</event>
<event>
 5   0  0.5114870E-06  0.2899672E+04  0.7818609E-02  0.8272975E-01
       -2   -1    0    0    0  501  0.00000000000E+00  0.00000000000E+00  0.13501610851E+04  0.13501610851E+04  0.25500000920E-02 0.  1.
        2   -1    0    0  501    0  0.00000000000E+00  0.00000000000E+00 -0.15568692106E+04  0.15568692106E+04  0.25500000920E-02 0. -1.
    10030    2    1    2    0    0  0.00000000000E+00  0.00000000000E+00 -0.20670812558E+03  0.29070302957E+04  0.28996718592E+04 0.  0.
        2    1    3    3  502    0 -0.13955505782E+04 -0.37870410023E+03 -0.20872077692E+03  0.14610073835E+04  0.25500000920E-02 0. -1.
       -2    1    3    3    0  502  0.13955505782E+04  0.37870410023E+03  0.20126513409E+01  0.14460229122E+04  0.25500000920E-02 0.  1.
</event>
<event>
 5   0  0.1885307E-06  0.3187318E+04  0.7818609E-02  0.8192175E-01
       -1   -1    0    0    0  501  0.00000000000E+00  0.00000000000E+00  0.22261226177E+04  0.22261226177E+04  0.50400001928E-02 0. -1.
        1   -1    0    0  501    0  0.00000000000E+00  0.00000000000E+00 -0.11408843724E+04  0.11408843724E+04  0.50400001928E-02 0.  1.
    10030    2    1    2    0    0  0.00000000000E+00  0.00000000000E+00  0.10852382453E+04  0.33670069901E+04  0.31873176845E+04 0.  0.
        3    1    3    3  502    0 -0.66504433459E+03 -0.14430416240E+04  0.41282919932E+03  0.16416702024E+04  0.10100000352E+00 0.  1.
       -3    1    3    3    0  502  0.66504433459E+03  0.14430416240E+04  0.67240904600E+03  0.17253367877E+04  0.10100000352E+00 0. -1.
</event>
<event>
 5   0  0.5114870E-06  0.2864590E+04  0.7818609E-02  0.8283492E-01
        2   -1    0    0  501    0  0.00000000000E+00  0.00000000000E+00  0.14756428136E+04  0.14756428136E+04  0.25500000920E-02 0.  1.
       -2   -1    0    0    0  501  0.00000000000E+00  0.00000000000E+00 -0.13902206746E+04  0.13902206746E+04  0.25500000920E-02 0. -1.
    10030    2    1    2    0    0  0.00000000000E+00  0.00000000000E+00  0.85422139035E+02  0.28658634881E+04  0.28645901262E+04 0.  0.
        2    1    3    3  502    0  0.13898010539E+03  0.10234358854E+04  0.10354891534E+04  0.14625232539E+04  0.25500000920E-02 0.  1.
       -2    1    3    3    0  502 -0.13898010539E+03 -0.10234358854E+04 -0.95006701438E+03  0.14033402343E+04  0.25500000920E-02 0. -1.
</event>
<event>
 5   0  0.1840431E-06  0.3086178E+04  0.7818609E-02  0.8219541E-01
        1   -1    0    0  501    0  0.00000000000E+00  0.00000000000E+00  0.14598026191E+04  0.14598026191E+04  0.50400001928E-02 0. -1.
       -1   -1    0    0    0  501  0.00000000000E+00  0.00000000000E+00 -0.16311272846E+04  0.16311272847E+04  0.50400001928E-02 0.  1.
    10030    2    1    2    0    0  0.00000000000E+00  0.00000000000E+00 -0.17132466557E+03  0.30909299037E+04  0.30861781427E+04 0.  0.
        1    1    3    3  502    0  0.61252423681E+03  0.21966657548E+03  0.13156647657E+04  0.14677919201E+04  0.50400001928E-02 0. -1.
       -1    1    3    3    0  502 -0.61252423681E+03 -0.21966657548E+03 -0.14869894313E+04  0.16231379836E+04  0.50400001928E-02 0.  1.
</event>
<event>
 5   0  0.1649875E-06  0.3210496E+04  0.7818609E-02  0.8186051E-01
        3   -1    0    0  501    0  0.00000000000E+00  0.00000000000E+00  0.10471326555E+04  0.10471326604E+04  0.10100000352E+00 0.  1.
       -3   -1    0    0    0  501  0.00000000000E+00  0.00000000000E+00 -0.24608357616E+04  0.24608357637E+04  0.10100000352E+00 0. -1.
    10030    2    1    2    0    0  0.00000000000E+00  0.00000000000E+00 -0.14137031060E+04  0.35079684241E+04  0.32104962221E+04 0.  0.
        2    1    3    3  502    0  0.78146083729E+03  0.18936683519E+03 -0.22249283487E+04  0.23657656256E+04  0.25500000920E-02 0. -1.
       -2    1    3    3    0  502 -0.78146083729E+03 -0.18936683519E+03  0.81122524265E+03  0.11422027985E+04  0.25500000920E-02 0.  1.
</event>
<event>
 5   0  0.4900679E-06  0.3153988E+04  0.7818609E-02  0.8201075E-01
       -2   -1    0    0    0  501  0.00000000000E+00  0.00000000000E+00  0.15217914925E+04  0.15217914925E+04  0.25500000920E-02 0.  1.
        2   -1    0    0  501    0  0.00000000000E+00  0.00000000000E+00 -0.16341994422E+04  0.16341994422E+04  0.25500000920E-02 0. -1.
    10030    2    1    2    0    0  0.00000000000E+00  0.00000000000E+00 -0.11240794968E+03  0.31559909346E+04  0.31539884642E+04 0.  0.
        4    1    3    3  502    0  0.13162238290E+04  0.43752311628E+03  0.69463070939E+03  0.15512527456E+04  0.12699999809E+01 0.  1.
       -4    1    3    3    0  502 -0.13162238290E+04 -0.43752311628E+03 -0.80703865907E+03  0.16047381891E+04  0.12699999809E+01 0. -1.
</event>
<event>
 5   0  0.1885307E-06  0.3246863E+04  0.7818609E-02  0.8176549E-01
        1   -1    0    0  501    0  0.00000000000E+00  0.00000000000E+00  0.21214393325E+04  0.21214393325E+04  0.50400001928E-02 0. -1.
       -1   -1    0    0    0  501  0.00000000000E+00  0.00000000000E+00 -0.12423310936E+04  0.12423310936E+04  0.50400001928E-02 0.  1.
    10030    2    1    2    0    0  0.00000000000E+00  0.00000000000E+00  0.87910823888E+03  0.33637704261E+04  0.32468631299E+04 0.  0.
        3    1    3    3  502    0 -0.77053463142E+03  0.11032627372E+03  0.19155029050E+04  0.20676186530E+04  0.10100000352E+00 0. -1.
       -3    1    3    3    0  502  0.77053463142E+03 -0.11032627372E+03 -0.10363946661E+04  0.12961517732E+04  0.10100000352E+00 0.  1.
</event>
<event>
 5   0  0.1840431E-06  0.3160151E+04  0.7818609E-02  0.8199421E-01
        1   -1    0    0  501    0  0.00000000000E+00  0.00000000000E+00  0.16732588687E+04  0.16732588687E+04  0.50400001928E-02 0. -1.
       -1   -1    0    0    0  501  0.00000000000E+00  0.00000000000E+00 -0.14920813136E+04  0.14920813136E+04  0.50400001928E-02 0.  1.
    10030    2    1    2    0    0  0.00000000000E+00  0.00000000000E+00  0.18117755502E+03  0.31653401823E+04  0.31601508134E+04 0.  0.
        1    1    3    3  502    0  0.89458822947E+03 -0.12098271785E+04  0.57373798640E+03  0.16103245571E+04  0.50400001928E-02 0.  1.
       -1    1    3    3    0  502 -0.89458822947E+03  0.12098271785E+04 -0.39256043137E+03  0.15550156252E+04  0.50400001928E-02 0. -1.
</event>
<event>
 5   0  0.1836401E-06  0.3092253E+04  0.7818609E-02  0.8217867E-01
        1   -1    0    0  501    0  0.00000000000E+00  0.00000000000E+00  0.19660188227E+04  0.19660188227E+04  0.50400001928E-02 0.  1.
       -1   -1    0    0    0  501  0.00000000000E+00  0.00000000000E+00 -0.12159125598E+04  0.12159125598E+04  0.50400001928E-02 0. -1.
    10030    2    1    2    0    0  0.00000000000E+00  0.00000000000E+00  0.75010626294E+03  0.31819313825E+04  0.30922528871E+04 0.  0.
        2    1    3    3  502    0  0.88117245862E+03  0.12701902034E+04  0.40146710386E+03  0.15971925025E+04  0.25500000920E-02 0. -1.
       -2    1    3    3    0  502 -0.88117245862E+03 -0.12701902034E+04  0.34863915908E+03  0.15847388800E+04  0.25500000920E-02 0.  1.
</event>
<event>
 5   0  0.1843709E-06  0.3130040E+04  0.7818609E-02  0.8207542E-01
       -1   -1    0    0    0  501  0.00000000000E+00  0.00000000000E+00  0.16810960528E+04  0.16810960528E+04  0.50400001928E-02 0.  1.
        1   -1    0    0  501    0  0.00000000000E+00  0.00000000000E+00 -0.14569587576E+04  0.14569587576E+04  0.50400001928E-02 0. -1.
    10030    2    1    2    0    0  0.00000000000E+00  0.00000000000E+00  0.22413729513E+03  0.31380548104E+04  0.31300400103E+04 0.  0.
        4    1    3    3  502    0 -0.11527357215E+04  0.72389746133E+03 -0.66221639596E+03  0.15137236690E+04  0.12699999809E+01 0. -1.
       -4    1    3    3    0  502  0.11527357215E+04 -0.72389746133E+03  0.88635369110E+03  0.16243311414E+04  0.12699999809E+01 0.  1.
</event>
<event>
 5   0  0.1649875E-06  0.3145106E+04  0.7818609E-02  0.8203467E-01
        3   -1    0    0  501    0  0.00000000000E+00  0.00000000000E+00  0.11409751637E+04  0.11409751682E+04  0.10100000352E+00 0. -1.
       -3   -1    0    0    0  501  0.00000000000E+00  0.00000000000E+00 -0.21673764055E+04  0.21673764078E+04  0.10100000352E+00 0.  1.
    10030    2    1    2    0    0  0.00000000000E+00  0.00000000000E+00 -0.10264012417E+04  0.33083515760E+04  0.31451058236E+04 0.  0.
        3    1    3    3  502    0  0.30346600590E+03 -0.10325976944E+04 -0.17192601725E+04  0.20283503559E+04  0.10100000352E+00 0.  1.
       -3    1    3    3    0  502 -0.30346600590E+03  0.10325976944E+04  0.69285893081E+03  0.12800012201E+04  0.10100000352E+00 0. -1.
</event>
<event>
 5   0  0.5328368E-06  0.3063983E+04  0.7818609E-02  0.8225693E-01
        2   -1    0    0  501    0  0.00000000000E+00  0.00000000000E+00  0.20534276047E+04  0.20534276047E+04  0.25500000920E-02 0.  1.
       -2   -1    0    0    0  501  0.00000000000E+00  0.00000000000E+00 -0.11429659781E+04  0.11429659781E+04  0.25500000920E-02 0. -1.
    10030    2    1    2    0    0  0.00000000000E+00  0.00000000000E+00  0.91046162657E+03  0.31963935829E+04  0.30639829574E+04 0.  0.
        1    1    3    3  502    0  0.94158082550E+03  0.11308004156E+04  0.89993163453E+03  0.17248654956E+04  0.50400001928E-02 0.  1.
       -1    1    3    3    0  502 -0.94158082550E+03 -0.11308004156E+04  0.10529992039E+02  0.14715280873E+04  0.50400001928E-02 0. -1.
</event>
<event>
 5   0  0.1836401E-06  0.3147912E+04  0.7818609E-02  0.8202711E-01
        1   -1    0    0  501    0  0.00000000000E+00  0.00000000000E+00  0.16430781750E+04  0.16430781750E+04  0.50400001928E-02 0.  1.
       -1   -1    0    0    0  501  0.00000000000E+00  0.00000000000E+00 -0.15077414259E+04  0.15077414259E+04  0.50400001928E-02 0. -1.
    10030    2    1    2    0    0  0.00000000000E+00  0.00000000000E+00  0.13533674912E+03  0.31508196008E+04  0.31479117080E+04 0.  0.
        2    1    3    3  502    0 -0.14205134969E+04 -0.60393157603E+03  0.37575961083E+03  0.15886432037E+04  0.25500000920E-02 0.  1.
       -2    1    3    3    0  502  0.14205134969E+04  0.60393157603E+03 -0.24042286171E+03  0.15621763972E+04  0.25500000920E-02 0. -1.
</event>
<event>
 5   0  0.5001658E-06  0.3134990E+04  0.7818609E-02  0.8206200E-01
        2   -1    0    0  501    0  0.00000000000E+00  0.00000000000E+00  0.22638000071E+04  0.22638000071E+04  0.25500000920E-02 0.  1.
       -2   -1    0    0    0  501  0.00000000000E+00  0.00000000000E+00 -0.10853613334E+04  0.10853613334E+04  0.25500000920E-02 0. -1.
    10030    2    1    2    0    0  0.00000000000E+00  0.00000000000E+00  0.11784386737E+04  0.33491613405E+04  0.31349902675E+04 0.  0.
        3    1    3    3  502    0 -0.62347525408E+03 -0.41151019633E+03 -0.88295739023E+03  0.11565793519E+04  0.10100000352E+00 0. -1.
       -3    1    3    3    0  502  0.62347525408E+03  0.41151019633E+03  0.20613960639E+04  0.21925819886E+04  0.10100000352E+00 0.  1.
</event>
<event>
 5   0  0.1843709E-06  0.3116419E+04  0.7818609E-02  0.8211246E-01
        1   -1    0    0  501    0  0.00000000000E+00  0.00000000000E+00  0.14651315892E+04  0.14651315892E+04  0.50400001928E-02 0.  1.
       -1   -1    0    0    0  501  0.00000000000E+00  0.00000000000E+00 -0.16572010604E+04  0.16572010604E+04  0.50400001928E-02 0. -1.
    10030    2    1    2    0    0  0.00000000000E+00  0.00000000000E+00 -0.19206947116E+03  0.31223326496E+04  0.31164194989E+04 0.  0.
        4    1    3    3  502    0  0.10570890701E+04 -0.11057298508E+04 -0.39314454798E+03  0.15794429567E+04  0.12699999809E+01 0.  1.
       -4    1    3    3    0  502 -0.10570890701E+04  0.11057298508E+04  0.20107507683E+03  0.15428896929E+04  0.12699999809E+01 0. -1.
</event>
<event>
 5   0  0.5328368E-06  0.3106229E+04  0.7818609E-02  0.8214031E-01
        2   -1    0    0  501    0  0.00000000000E+00  0.00000000000E+00  0.11338965453E+04  0.11338965453E+04  0.25500000920E-02 0. -1.
       -2   -1    0    0    0  501  0.00000000000E+00  0.00000000000E+00 -0.21273229373E+04  0.21273229373E+04  0.25500000920E-02 0.  1.
    10030    2    1    2    0    0  0.00000000000E+00  0.00000000000E+00 -0.99342639201E+03  0.32612194825E+04  0.31062286646E+04 0.  0.
        1    1    3    3  502    0  0.13502319356E+03 -0.29051797836E+03  0.10988301719E+04  0.11445783963E+04  0.50400001928E-02 0. -1.
       -1    1    3    3    0  502 -0.13502319356E+03  0.29051797836E+03 -0.20922565639E+04  0.21166410862E+04  0.50400001928E-02 0.  1.
</event>
<event>
 5   0  0.1885307E-06  0.3083201E+04  0.7818609E-02  0.8220363E-01
        1   -1    0    0  501    0  0.00000000000E+00  0.00000000000E+00  0.20988591805E+04  0.20988591805E+04  0.50400001928E-02 0.  1.
       -1   -1    0    0    0  501  0.00000000000E+00  0.00000000000E+00 -0.11322972227E+04  0.11322972227E+04  0.50400001928E-02 0. -1.
    10030    2    1    2    0    0  0.00000000000E+00  0.00000000000E+00  0.96656195773E+03  0.32311564032E+04  0.30832012072E+04 0.  0.
        3    1    3    3  502    0 -0.13702833554E+04  0.34278120906E+03  0.11304563218E+04  0.18091729981E+04  0.10100000352E+00 0.  1.
       -3    1    3    3    0  502  0.13702833554E+04 -0.34278120906E+03 -0.16389436409E+03  0.14219834051E+04  0.10100000352E+00 0. -1.
</event>
<event>
 5   0  0.4900679E-06  0.3217468E+04  0.7818609E-02  0.8184219E-01
        2   -1    0    0  501    0  0.00000000000E+00  0.00000000000E+00  0.24829796142E+04  0.24829796142E+04  0.25500000920E-02 0. -1.
       -2   -1    0    0    0  501  0.00000000000E+00  0.00000000000E+00 -0.10423063073E+04  0.10423063073E+04  0.25500000920E-02 0.  1.
    10030    2    1    2    0    0  0.00000000000E+00  0.00000000000E+00  0.14406733070E+04  0.35252859215E+04  0.32174681429E+04 0.  0.
        4    1    3    3  502    0  0.34989316692E+03  0.44291374669E+03  0.23709224099E+04  0.24371853647E+04  0.12699999809E+01 0. -1.
       -4    1    3    3    0  502 -0.34989316692E+03 -0.44291374669E+03 -0.93024910293E+03  0.10881005568E+04  0.12699999809E+01 0.  1.
</event>
<event>
 5   0  0.4900679E-06  0.3172139E+04  0.7818609E-02  0.8196214E-01
        2   -1    0    0  501    0  0.00000000000E+00  0.00000000000E+00  0.21259831233E+04  0.21259831233E+04  0.25500000920E-02 0. -1.
       -2   -1    0    0    0  501  0.00000000000E+00  0.00000000000E+00 -0.11832718462E+04  0.11832718462E+04  0.25500000920E-02 0.  1.
    10030    2    1    2    0    0  0.00000000000E+00  0.00000000000E+00  0.94271127707E+03  0.33092549695E+04  0.31721386952E+04 0.  0.
        4    1    3    3  502    0 -0.35955693446E+03  0.14159989877E+04 -0.17281377156E+03  0.14711222025E+04  0.12699999809E+01 0.  1.
       -4    1    3    3    0  502  0.35955693446E+03 -0.14159989877E+04  0.11155250486E+04  0.18381327670E+04  0.12699999809E+01 0. -1.
</event>
<event>
 5   0  0.4927533E-06  0.2680925E+04  0.7818609E-02  0.8341221E-01
       -2   -1    0    0    0  501  0.00000000000E+00  0.00000000000E+00  0.11014252710E+04  0.11014252710E+04  0.25500000920E-02 0. -1.
        2   -1    0    0  501    0  0.00000000000E+00  0.00000000000E+00 -0.16313767610E+04  0.16313767610E+04  0.25500000920E-02 0.  1.
    10030    2    1    2    0    0  0.00000000000E+00  0.00000000000E+00 -0.52995149001E+03  0.27328020320E+04  0.26809249083E+04 0.  0.
        5    1    3    3  502    0  0.12972180796E+04  0.28038742311E+03 -0.73116635636E+02  0.13291952397E+04  0.46999998093E+01 0.  1.
       -5    1    3    3    0  502 -0.12972180796E+04 -0.28038742311E+03 -0.45683485438E+03  0.14036067922E+04  0.46999998093E+01 0. -1.
</event>
<event>
 5   0  0.5114870E-06  0.3051293E+04  0.7818609E-02  0.8229234E-01
       -2   -1    0    0    0  501  0.00000000000E+00  0.00000000000E+00  0.14659087678E+04  0.14659087678E+04  0.25500000920E-02 0. -1.
        2   -1    0    0  501    0  0.00000000000E+00  0.00000000000E+00 -0.15878189282E+04  0.15878189282E+04  0.25500000920E-02 0.  1.
    10030    2    1    2    0    0  0.00000000000E+00  0.00000000000E+00 -0.12191016039E+03  0.30537276960E+04  0.30512932920E+04 0.  0.
        2    1    3    3  502    0 -0.89386554992E+03  0.92802982945E+03 -0.87852954618E+03  0.15595028532E+04  0.25500000920E-02 0.  1.
       -2    1    3    3    0  502  0.89386554992E+03 -0.92802982945E+03  0.75661938580E+03  0.14942248427E+04  0.25500000920E-02 0. -1.
</event>
<event>
 5   0  0.5001658E-06  0.3216574E+04  0.7818609E-02  0.8184454E-01
       -2   -1    0    0    0  501  0.00000000000E+00  0.00000000000E+00  0.86937254999E+03  0.86937254999E+03  0.25500000920E-02 0.  1.
        2   -1    0    0  501    0  0.00000000000E+00  0.00000000000E+00 -0.29752339755E+04  0.29752339755E+04  0.25500000920E-02 0. -1.
    10030    2    1    2    0    0  0.00000000000E+00  0.00000000000E+00 -0.21058614255E+04  0.38446065255E+04  0.32165737971E+04 0.  0.
        3    1    3    3  502    0 -0.66727364825E+03 -0.21472636853E+03 -0.27830407818E+04  0.28699612434E+04  0.10100000352E+00 0. -1.
       -3    1    3    3    0  502  0.66727364825E+03  0.21472636853E+03  0.67717935636E+03  0.97464528208E+03  0.10100000352E+00 0.  1.
</event>
<event>
 5   0  0.5001658E-06  0.3013488E+04  0.7818609E-02  0.8239890E-01
       -2   -1    0    0    0  501  0.00000000000E+00  0.00000000000E+00  0.14137407439E+04  0.14137407439E+04  0.25500000920E-02 0. -1.
        2   -1    0    0  501    0  0.00000000000E+00  0.00000000000E+00 -0.16058653927E+04  0.16058653927E+04  0.25500000920E-02 0.  1.
    10030    2    1    2    0    0  0.00000000000E+00  0.00000000000E+00 -0.19212464880E+03  0.30196061367E+04  0.30134879027E+04 0.  0.
        3    1    3    3  502    0 -0.33868964988E+02 -0.64851215549E+03  0.12663164892E+04  0.14231207200E+04  0.10100000352E+00 0. -1.
       -3    1    3    3    0  502  0.33868964988E+02  0.64851215549E+03 -0.14584411380E+04  0.15964854167E+04  0.10100000352E+00 0.  1.
</event>
<event>
 5   0  0.5114870E-06  0.3116109E+04  0.7818609E-02  0.8211331E-01
       -2   -1    0    0    0  501  0.00000000000E+00  0.00000000000E+00  0.13193225847E+04  0.13193225847E+04  0.25500000920E-02 0. -1.
        2   -1    0    0  501    0  0.00000000000E+00  0.00000000000E+00 -0.18399851967E+04  0.18399851967E+04  0.25500000920E-02 0.  1.
    10030    2    1    2    0    0  0.00000000000E+00  0.00000000000E+00 -0.52066261201E+03  0.31593077813E+04  0.31161091286E+04 0.  0.
        2    1    3    3  502    0 -0.10169907129E+04 -0.29727924905E+01  0.93639433365E+03  0.13824302137E+04  0.25500000920E-02 0. -1.
       -2    1    3    3    0  502  0.10169907129E+04  0.29727924905E+01 -0.14570569457E+04  0.17768775677E+04  0.25500000920E-02 0.  1.
</event>
<event>
 5   0  0.1649875E-06  0.3103555E+04  0.7818609E-02  0.8214763E-01
        4   -1    0    0  501    0  0.00000000000E+00  0.00000000000E+00  0.12535176896E+04  0.12535183329E+04  0.12699999809E+01 0.  1.
       -4   -1    0    0    0  501  0.00000000000E+00  0.00000000000E+00 -0.19210030121E+04  0.19210034319E+04  0.12699999809E+01 0. -1.
    10030    2    1    2    0    0  0.00000000000E+00  0.00000000000E+00 -0.66748532258E+03  0.31745217649E+04  0.31035547006E+04 0.  0.
        1    1    3    3  502    0  0.43950665078E+03 -0.13867195894E+04 -0.88633256000E+03  0.17034502407E+04  0.50400001928E-02 0. -1.
       -1    1    3    3    0  502 -0.43950665078E+03  0.13867195894E+04  0.21884723742E+03  0.14710715241E+04  0.50400001928E-02 0.  1.
</event>
<event>
 5   0  0.5001658E-06  0.3178886E+04  0.7818609E-02  0.8194416E-01
        2   -1    0    0  501    0  0.00000000000E+00  0.00000000000E+00  0.22632768586E+04  0.22632768586E+04  0.25500000920E-02 0. -1.
       -2   -1    0    0    0  501  0.00000000000E+00  0.00000000000E+00 -0.11162262796E+04  0.11162262796E+04  0.25500000920E-02 0.  1.
    10030    2    1    2    0    0  0.00000000000E+00  0.00000000000E+00  0.11470505789E+04  0.33795031382E+04  0.31788860361E+04 0.  0.
        3    1    3    3  502    0  0.12515393306E+04 -0.17459288904E+03  0.15984727262E+04  0.20376330483E+04  0.10100000352E+00 0. -1.
       -3    1    3    3    0  502 -0.12515393306E+04  0.17459288904E+03 -0.45142214722E+03  0.13418700899E+04  0.10100000352E+00 0.  1.
</event>
<event>
 5   0  0.1840431E-06  0.3082204E+04  0.7818609E-02  0.8220639E-01
       -1   -1    0    0    0  501  0.00000000000E+00  0.00000000000E+00  0.15020030032E+04  0.15020030032E+04  0.50400001928E-02 0. -1.
        1   -1    0    0  501    0  0.00000000000E+00  0.00000000000E+00 -0.15812183446E+04  0.15812183446E+04  0.50400001928E-02 0.  1.
    10030    2    1    2    0    0  0.00000000000E+00  0.00000000000E+00 -0.79215341383E+02  0.30832213478E+04  0.30822035639E+04 0.  0.
        1    1    3    3  502    0 -0.59309396261E+03  0.61501826960E+03  0.12433862317E+04  0.15086474875E+04  0.50400001928E-02 0. -1.
       -1    1    3    3    0  502  0.59309396261E+03 -0.61501826960E+03 -0.13226015731E+04  0.15745738603E+04  0.50400001928E-02 0.  1.
</event>
<event>
 5   0  0.5328368E-06  0.2273161E+04  0.7818609E-02  0.8488579E-01
       -2   -1    0    0    0  501  0.00000000000E+00  0.00000000000E+00  0.61239800927E+03  0.61239800928E+03  0.25500000920E-02 0. -1.
        2   -1    0    0  501    0  0.00000000000E+00  0.00000000000E+00 -0.21094368844E+04  0.21094368844E+04  0.25500000920E-02 0.  1.
    10030    2    1    2    0    0  0.00000000000E+00  0.00000000000E+00 -0.14970388751E+04  0.27218348936E+04  0.22731607499E+04 0.  0.
        1    1    3    3  502    0  0.31455228427E+03 -0.63841966169E+03 -0.18095973039E+04  0.19445218451E+04  0.50400001928E-02 0.  1.
       -1    1    3    3    0  502 -0.31455228427E+03  0.63841966169E+03  0.31255842878E+03  0.77731304852E+03  0.50400001928E-02 0. -1.
</event>
<event>
 5   0  0.5114870E-06  0.3171166E+04  0.7818609E-02  0.8196474E-01
       -2   -1    0    0    0  501  0.00000000000E+00  0.00000000000E+00  0.12957179752E+04  0.12957179752E+04  0.25500000920E-02 0. -1.
        2   -1    0    0  501    0  0.00000000000E+00  0.00000000000E+00 -0.19402937903E+04  0.19402937903E+04  0.25500000920E-02 0.  1.
    10030    2    1    2    0    0  0.00000000000E+00  0.00000000000E+00 -0.64457581518E+03  0.32360117655E+04  0.31711660576E+04 0.  0.
        2    1    3    3  502    0 -0.10852816784E+04  0.97037845259E+03 -0.96330739429E+03  0.17456894909E+04  0.25500000920E-02 0.  1.
       -2    1    3    3    0  502  0.10852816784E+04 -0.97037845259E+03  0.31873157911E+03  0.14903222746E+04  0.25500000920E-02 0. -1.
</event>
<event>
 5   0  0.1836401E-06  0.2296068E+04  0.7818609E-02  0.8479473E-01
        1   -1    0    0  501    0  0.00000000000E+00  0.00000000000E+00  0.83824557876E+03  0.83824557878E+03  0.50400001928E-02 0.  1.
       -1   -1    0    0    0  501  0.00000000000E+00  0.00000000000E+00 -0.15723101302E+04  0.15723101303E+04  0.50400001928E-02 0. -1.
    10030    2    1    2    0    0  0.00000000000E+00  0.00000000000E+00 -0.73406455148E+03  0.24105557090E+04  0.22960679564E+04 0.  0.
        2    1    3    3  502    0 -0.71437994425E+03  0.89332406190E+03 -0.26408453767E+03  0.11739281185E+04  0.25500000920E-02 0.  1.
       -2    1    3    3    0  502  0.71437994425E+03 -0.89332406190E+03 -0.46998001381E+03  0.12366275905E+04  0.25500000920E-02 0. -1.
</event>
<event>
 5   0  0.4927533E-06  0.3024537E+04  0.7818609E-02  0.8236759E-01
        2   -1    0    0  501    0  0.00000000000E+00  0.00000000000E+00  0.20252719370E+04  0.20252719370E+04  0.25500000920E-02 0. -1.
       -2   -1    0    0    0  501  0.00000000000E+00  0.00000000000E+00 -0.11292093530E+04  0.11292093530E+04  0.25500000920E-02 0.  1.
    10030    2    1    2    0    0  0.00000000000E+00  0.00000000000E+00  0.89606258403E+03  0.31544812899E+04  0.30245369983E+04 0.  0.
        5    1    3    3  502    0 -0.97966777331E+02  0.16949756161E+03 -0.11159294039E+04  0.11329816579E+04  0.46999998093E+01 0.  1.
       -5    1    3    3    0  502  0.97966777331E+02 -0.16949756161E+03  0.20119919879E+04  0.20214996320E+04  0.46999998093E+01 0. -1.
</event>
<event>
 5   0  0.1885307E-06  0.3160421E+04  0.7818609E-02  0.8199349E-01
       -1   -1    0    0    0  501  0.00000000000E+00  0.00000000000E+00  0.12927383423E+04  0.12927383423E+04  0.50400001928E-02 0.  1.
        1   -1    0    0  501    0  0.00000000000E+00  0.00000000000E+00 -0.19316089400E+04  0.19316089400E+04  0.50400001928E-02 0. -1.
    10030    2    1    2    0    0  0.00000000000E+00  0.00000000000E+00 -0.63887059771E+03  0.32243472823E+04  0.31604208195E+04 0.  0.
        3    1    3    3  502    0  0.29827871238E+03 -0.15331039526E+04 -0.74395905079E+02  0.15636216552E+04  0.10100000352E+00 0.  1.
       -3    1    3    3    0  502 -0.29827871238E+03  0.15331039526E+04 -0.56447469263E+03  0.16607256271E+04  0.10100000352E+00 0. -1.
</event>
<event>
 5   0  0.1885307E-06  0.2711634E+04  0.7818609E-02  0.8331240E-01
        1   -1    0    0  501    0  0.00000000000E+00  0.00000000000E+00  0.15901831021E+04  0.15901831021E+04  0.50400001928E-02 0.  1.
       -1   -1    0    0    0  501  0.00000000000E+00  0.00000000000E+00 -0.11559926583E+04  0.11559926583E+04  0.50400001928E-02 0. -1.
    10030    2    1    2    0    0  0.00000000000E+00  0.00000000000E+00  0.43419044382E+03  0.27461757604E+04  0.27116341873E+04 0.  0.
        3    1    3    3  502    0  0.13238530754E+04  0.21468943939E+03  0.15660938615E+02  0.13412396489E+04  0.10100000352E+00 0. -1.
       -3    1    3    3    0  502 -0.13238530754E+04 -0.21468943939E+03  0.41852950520E+03  0.14049361115E+04  0.10100000352E+00 0.  1.
</event>
<event>
 5   0  0.1843709E-06  0.2322999E+04  0.7818609E-02  0.8468908E-01
       -1   -1    0    0    0  501  0.00000000000E+00  0.00000000000E+00  0.50752381788E+03  0.50752381790E+03  0.50400001928E-02 0.  1.
        1   -1    0    0  501    0  0.00000000000E+00  0.00000000000E+00 -0.26581635172E+04  0.26581635172E+04  0.50400001928E-02 0. -1.
    10030    2    1    2    0    0  0.00000000000E+00  0.00000000000E+00 -0.21506396994E+04  0.31656873351E+04  0.23229991794E+04 0.  0.
        4    1    3    3  502    0  0.44287049486E+03 -0.90445731515E+03 -0.28668116712E+03  0.10470745029E+04  0.12699999809E+01 0.  1.
       -4    1    3    3    0  502 -0.44287049486E+03  0.90445731515E+03 -0.18639585322E+04  0.21186128323E+04  0.12699999809E+01 0. -1.
</event>
<event>
 5   0  0.4900679E-06  0.3094371E+04  0.7818609E-02  0.8217284E-01
        2   -1    0    0  501    0  0.00000000000E+00  0.00000000000E+00  0.31903526475E+04  0.31903526475E+04  0.25500000920E-02 0.  1.
       -2   -1    0    0    0  501  0.00000000000E+00  0.00000000000E+00 -0.75031940648E+03  0.75031940649E+03  0.25500000920E-02 0. -1.
    10030    2    1    2    0    0  0.00000000000E+00  0.00000000000E+00  0.24400332410E+04  0.39406720540E+04  0.30943713449E+04 0.  0.
        4    1    3    3  502    0 -0.14262879795E+04 -0.11874630810E+03  0.19684425902E+04  0.24337555198E+04  0.12699999809E+01 0.  1.
       -4    1    3    3    0  502  0.14262879795E+04  0.11874630810E+03  0.47159065082E+03  0.15069165342E+04  0.12699999809E+01 0. -1.
</event>
<event>
 5   0  0.5114870E-06  0.3007613E+04  0.7818609E-02  0.8241560E-01
        2   -1    0    0  501    0  0.00000000000E+00  0.00000000000E+00  0.14056542220E+04  0.14056542220E+04  0.25500000920E-02 0.  1.
       -2   -1    0    0    0  501  0.00000000000E+00  0.00000000000E+00 -0.16088125429E+04  0.16088125429E+04  0.25500000920E-02 0. -1.
    10030    2    1    2    0    0  0.00000000000E+00  0.00000000000E+00 -0.20315832091E+03  0.30144667650E+04  0.30076131024E+04 0.  0.
        2    1    3    3  502    0 -0.44072854241E+03 -0.21233416142E+03  0.13236692520E+04  0.14111795537E+04  0.25500000920E-02 0.  1.
       -2    1    3    3    0  502  0.44072854241E+03  0.21233416142E+03 -0.15268275729E+04  0.16032872112E+04  0.25500000920E-02 0. -1.
</event>
<event>
 5   0  0.4900679E-06  0.3050775E+04  0.7818609E-02  0.8229379E-01
       -2   -1    0    0    0  501  0.00000000000E+00  0.00000000000E+00  0.15395019646E+04  0.15395019646E+04  0.25500000920E-02 0. -1.
        2   -1    0    0  501    0  0.00000000000E+00  0.00000000000E+00 -0.15114021862E+04  0.15114021862E+04  0.25500000920E-02 0.  1.
    10030    2    1    2    0    0  0.00000000000E+00  0.00000000000E+00  0.28099778442E+02  0.30509041509E+04  0.30507747442E+04 0.  0.
        4    1    3    3  502    0  0.70927678192E+03  0.46293174164E+03 -0.12546353398E+04  0.15137670889E+04  0.12699999809E+01 0.  1.
       -4    1    3    3    0  502 -0.70927678192E+03 -0.46293174164E+03  0.12827351182E+04  0.15371370619E+04  0.12699999809E+01 0. -1.
</event>
<event>
 5   0  0.5328368E-06  0.3046165E+04  0.7818609E-02  0.8230670E-01
        2   -1    0    0  501    0  0.00000000000E+00  0.00000000000E+00  0.19919825443E+04  0.19919825443E+04  0.25500000920E-02 0. -1.
       -2   -1    0    0    0  501  0.00000000000E+00  0.00000000000E+00 -0.11645582806E+04  0.11645582806E+04  0.25500000920E-02 0.  1.
    10030    2    1    2    0    0  0.00000000000E+00  0.00000000000E+00  0.82742426367E+03  0.31565408249E+04  0.30461646487E+04 0.  0.
        1    1    3    3  502    0  0.78260463855E+03 -0.95155529171E+03  0.13416207733E+04  0.18215031685E+04  0.50400001928E-02 0. -1.
       -1    1    3    3    0  502 -0.78260463855E+03  0.95155529171E+03 -0.51419650964E+03  0.13350376564E+04  0.50400001928E-02 0.  1.
</event>
<event>
 5   0  0.5001658E-06  0.3128027E+04  0.7818609E-02  0.8208088E-01
       -2   -1    0    0    0  501  0.00000000000E+00  0.00000000000E+00  0.15306137480E+04  0.15306137480E+04  0.25500000920E-02 0.  1.
        2   -1    0    0  501    0  0.00000000000E+00  0.00000000000E+00 -0.15981425004E+04  0.15981425004E+04  0.25500000920E-02 0. -1.
    10030    2    1    2    0    0  0.00000000000E+00  0.00000000000E+00 -0.67528752416E+02  0.31287562484E+04  0.31280274182E+04 0.  0.
        3    1    3    3  502    0  0.11672128295E+03 -0.28103330990E+03  0.15007166982E+04  0.15312590237E+04  0.10100000352E+00 0.  1.
       -3    1    3    3    0  502 -0.11672128295E+03  0.28103330990E+03 -0.15682454506E+04  0.15974972247E+04  0.10100000352E+00 0. -1.
</event>
<event>
 5   0  0.1840431E-06  0.3167122E+04  0.7818609E-02  0.8197555E-01
        1   -1    0    0  501    0  0.00000000000E+00  0.00000000000E+00  0.17482218808E+04  0.17482218809E+04  0.50400001928E-02 0.  1.
       -1   -1    0    0    0  501  0.00000000000E+00  0.00000000000E+00 -0.14344091710E+04  0.14344091711E+04  0.50400001928E-02 0. -1.
    10030    2    1    2    0    0  0.00000000000E+00  0.00000000000E+00  0.31381270980E+03  0.31826310519E+04  0.31671220368E+04 0.  0.
        1    1    3    3  502    0  0.12400744143E+04 -0.96832353821E+03  0.33731395331E+03  0.16091040149E+04  0.50400001928E-02 0.  1.
       -1    1    3    3    0  502 -0.12400744143E+04  0.96832353821E+03 -0.23501243509E+02  0.15735270370E+04  0.50400001928E-02 0. -1.
</event>
<event>
 5   0  0.5114870E-06  0.3030296E+04  0.7818609E-02  0.8235132E-01
        2   -1    0    0  501    0  0.00000000000E+00  0.00000000000E+00  0.25129446051E+04  0.25129446051E+04  0.25500000920E-02 0. -1.
       -2   -1    0    0    0  501  0.00000000000E+00  0.00000000000E+00 -0.91353945439E+03  0.91353945439E+03  0.25500000920E-02 0.  1.
    10030    2    1    2    0    0  0.00000000000E+00  0.00000000000E+00  0.15994051507E+04  0.34264840595E+04  0.30302963838E+04 0.  0.
        2    1    3    3  502    0 -0.67244435532E+03 -0.64443318580E+02  0.23332407079E+04  0.24290628961E+04  0.25500000920E-02 0. -1.
       -2    1    3    3    0  502  0.67244435532E+03  0.64443318580E+02 -0.73383555714E+03  0.99742116342E+03  0.25500000920E-02 0.  1.
</event>
<event>
 5   0  0.1843709E-06  0.3061720E+04  0.7818609E-02  0.8226323E-01
        1   -1    0    0  501    0  0.00000000000E+00  0.00000000000E+00  0.17294201537E+04  0.17294201537E+04  0.50400001928E-02 0.  1.
       -1   -1    0    0    0  501  0.00000000000E+00  0.00000000000E+00 -0.13550975902E+04  0.13550975902E+04  0.50400001928E-02 0. -1.
    10030    2    1    2    0    0  0.00000000000E+00  0.00000000000E+00  0.37432256355E+03  0.30845177440E+04  0.30617204855E+04 0.  0.
        4    1    3    3  502    0  0.33181608559E+02  0.18654246114E+02  0.17289427619E+04  0.17293622197E+04  0.12699999809E+01 0.  1.
       -4    1    3    3    0  502 -0.33181608559E+02 -0.18654246114E+02 -0.13546201984E+04  0.13551555242E+04  0.12699999809E+01 0. -1.
</event>
<event>
 5   0  0.4900679E-06  0.2905329E+04  0.7818609E-02  0.8271294E-01
        2   -1    0    0  501    0  0.00000000000E+00  0.00000000000E+00  0.26255241218E+04  0.26255241218E+04  0.25500000920E-02 0. -1.
       -2   -1    0    0    0  501  0.00000000000E+00  0.00000000000E+00 -0.80373825861E+03  0.80373825862E+03  0.25500000920E-02 0.  1.
    10030    2    1    2    0    0  0.00000000000E+00  0.00000000000E+00  0.18217858632E+04  0.34292623805E+04  0.29053290248E+04 0.  0.
        4    1    3    3  502    0 -0.56307162708E+03  0.85255449868E+03  0.21297477215E+04  0.23621443226E+04  0.12699999809E+01 0. -1.
       -4    1    3    3    0  502  0.56307162708E+03 -0.85255449868E+03 -0.30796185828E+03  0.10671180579E+04  0.12699999809E+01 0.  1.
</event>
<event>
 5   0  0.4900679E-06  0.2603543E+04  0.7818609E-02  0.8366999E-01
       -2   -1    0    0    0  501  0.00000000000E+00  0.00000000000E+00  0.60847869909E+03  0.60847869910E+03  0.25500000920E-02 0.  1.
        2   -1    0    0  501    0  0.00000000000E+00  0.00000000000E+00 -0.27849929901E+04  0.27849929901E+04  0.25500000920E-02 0. -1.
    10030    2    1    2    0    0  0.00000000000E+00  0.00000000000E+00 -0.21765142910E+04  0.33934716892E+04  0.26035429027E+04 0.  0.
        4    1    3    3  502    0 -0.85088180812E+03  0.59116450935E+03 -0.21154959893E+04  0.23555891455E+04  0.12699999809E+01 0. -1.
       -4    1    3    3    0  502  0.85088180812E+03 -0.59116450935E+03 -0.61018301663E+02  0.10378825437E+04  0.12699999809E+01 0.  1.
</event>
<event>
 5   0  0.1840431E-06  0.3114963E+04  0.7818609E-02  0.8211643E-01
        1   -1    0    0  501    0  0.00000000000E+00  0.00000000000E+00  0.17412500893E+04  0.17412500893E+04  0.50400001928E-02 0. -1.
       -1   -1    0    0    0  501  0.00000000000E+00  0.00000000000E+00 -0.13931076204E+04  0.13931076204E+04  0.50400001928E-02 0.  1.
    10030    2    1    2    0    0  0.00000000000E+00  0.00000000000E+00  0.34814246893E+03  0.31343577097E+04  0.31149630935E+04 0.  0.
        1    1    3    3  502    0 -0.12628774253E+04  0.41323641390E+03 -0.64346828999E+03  0.14763722990E+04  0.50400001928E-02 0. -1.
       -1    1    3    3    0  502  0.12628774253E+04 -0.41323641390E+03  0.99161075892E+03  0.16579854107E+04  0.50400001928E-02 0.  1.
</event>
<event>
 5   0  0.1853742E-06  0.3111909E+04  0.7818609E-02  0.8212477E-01
       -1   -1    0    0    0  501  0.00000000000E+00  0.00000000000E+00  0.14547911993E+04  0.14547911993E+04  0.50400001928E-02 0. -1.
        1   -1    0    0  501    0  0.00000000000E+00  0.00000000000E+00 -0.16641528250E+04  0.16641528250E+04  0.50400001928E-02 0.  1.
    10030    2    1    2    0    0  0.00000000000E+00  0.00000000000E+00 -0.20936162576E+03  0.31189440243E+04  0.31119093072E+04 0.  0.
        5    1    3    3  502    0 -0.21095534709E+03  0.12962062424E+04  0.73166346076E+03  0.15033317302E+04  0.46999998093E+01 0. -1.
       -5    1    3    3    0  502  0.21095534709E+03 -0.12962062424E+04 -0.94102508652E+03  0.16156122941E+04  0.46999998093E+01 0.  1.
</event>
<event>
 5   0  0.5001658E-06  0.2981303E+04  0.7818609E-02  0.8249090E-01
       -2   -1    0    0    0  501  0.00000000000E+00  0.00000000000E+00  0.93210185465E+03  0.93210185466E+03  0.25500000920E-02 0. -1.
        2   -1    0    0  501    0  0.00000000000E+00  0.00000000000E+00 -0.23839040040E+04  0.23839040040E+04  0.25500000920E-02 0.  1.
    10030    2    1    2    0    0  0.00000000000E+00  0.00000000000E+00 -0.14518021493E+04  0.33160058586E+04  0.29813026303E+04 0.  0.
        3    1    3    3  502    0  0.86771141846E+02 -0.14061883273E+04 -0.18425253488E+03  0.14208602499E+04  0.10100000352E+00 0. -1.
       -3    1    3    3    0  502 -0.86771141846E+02  0.14061883273E+04 -0.12675496144E+04  0.18951456087E+04  0.10100000352E+00 0.  1.
</event>
<event>
 5   0  0.1853742E-06  0.3088285E+04  0.7818609E-02  0.8218960E-01
       -1   -1    0    0    0  501  0.00000000000E+00  0.00000000000E+00  0.12946915419E+04  0.12946915419E+04  0.50400001928E-02 0.  1.
        1   -1    0    0  501    0  0.00000000000E+00  0.00000000000E+00 -0.18416557995E+04  0.18416557995E+04  0.50400001928E-02 0. -1.
    10030    2    1    2    0    0  0.00000000000E+00  0.00000000000E+00 -0.54696425758E+03  0.31363473414E+04  0.30882850818E+04 0.  0.
        5    1    3    3  502    0  0.44651394344E+03  0.12445586692E+04  0.53645901590E+03  0.14269237361E+04  0.46999998093E+01 0.  1.
       -5    1    3    3    0  502 -0.44651394344E+03 -0.12445586692E+04 -0.10834232735E+04  0.17094236053E+04  0.46999998093E+01 0. -1.
</event>
<event>
 5   0  0.1843709E-06  0.2626738E+04  0.7818609E-02  0.8359175E-01
       -1   -1    0    0    0  501  0.00000000000E+00  0.00000000000E+00  0.14988288117E+04  0.14988288117E+04  0.50400001928E-02 0.  1.
        1   -1    0    0  501    0  0.00000000000E+00  0.00000000000E+00 -0.11508571235E+04  0.11508571235E+04  0.50400001928E-02 0. -1.
    10030    2    1    2    0    0  0.00000000000E+00  0.00000000000E+00  0.34797168826E+03  0.26496859352E+04  0.26267377599E+04 0.  0.
        4    1    3    3  502    0  0.54647523346E+03  0.78971366912E+03 -0.72975038437E+03  0.12061592334E+04  0.12699999809E+01 0. -1.
       -4    1    3    3    0  502 -0.54647523346E+03 -0.78971366912E+03  0.10777220726E+04  0.14435267018E+04  0.12699999809E+01 0.  1.
</event>
<event>
 5   0  0.4900679E-06  0.2345875E+04  0.7818609E-02  0.8460050E-01
        2   -1    0    0  501    0  0.00000000000E+00  0.00000000000E+00  0.26388202189E+04  0.26388202189E+04  0.25500000920E-02 0. -1.
       -2   -1    0    0    0  501  0.00000000000E+00  0.00000000000E+00 -0.52136287048E+03  0.52136287049E+03  0.25500000920E-02 0.  1.
    10030    2    1    2    0    0  0.00000000000E+00  0.00000000000E+00  0.21174573484E+04  0.31601830894E+04  0.23458754306E+04 0.  0.
        4    1    3    3  502    0  0.57990201426E+03  0.85879341449E+03  0.17989955758E+04  0.20761019169E+04  0.12699999809E+01 0.  1.
       -4    1    3    3    0  502 -0.57990201426E+03 -0.85879341449E+03  0.31846177260E+03  0.10840811724E+04  0.12699999809E+01 0. -1.
</event>
<event>
 5   0  0.5328368E-06  0.2226830E+04  0.7818609E-02  0.8507343E-01
       -2   -1    0    0    0  501  0.00000000000E+00  0.00000000000E+00  0.12869882975E+04  0.12869882975E+04  0.25500000920E-02 0. -1.
        2   -1    0    0  501    0  0.00000000000E+00  0.00000000000E+00 -0.96325113119E+03  0.96325113119E+03  0.25500000920E-02 0.  1.
    10030    2    1    2    0    0  0.00000000000E+00  0.00000000000E+00  0.32373716635E+03  0.22502394287E+04  0.22268299741E+04 0.  0.
        1    1    3    3  502    0  0.10389984736E+04  0.38190436232E+03  0.40926817794E+02  0.11077200795E+04  0.50400001928E-02 0. -1.
       -1    1    3    3    0  502 -0.10389984736E+04 -0.38190436232E+03  0.28281034855E+03  0.11425193492E+04  0.50400001928E-02 0.  1.
</event>
<event>
 5   0  0.1836401E-06  0.2988834E+04  0.7818609E-02  0.8246927E-01
       -1   -1    0    0    0  501  0.00000000000E+00  0.00000000000E+00  0.96767241327E+03  0.96767241329E+03  0.50400001928E-02 0. -1.
        1   -1    0    0  501    0  0.00000000000E+00  0.00000000000E+00 -0.23078901978E+04  0.23078901978E+04  0.50400001928E-02 0.  1.
    10030    2    1    2    0    0  0.00000000000E+00  0.00000000000E+00 -0.13402177846E+04  0.32755626111E+04  0.29888336704E+04 0.  0.
        2    1    3    3  502    0  0.91258968453E+03  0.74918473866E+03 -0.16740604282E+04  0.20485546178E+04  0.25500000920E-02 0.  1.
       -2    1    3    3    0  502 -0.91258968453E+03 -0.74918473866E+03  0.33384264362E+03  0.12270079933E+04  0.25500000920E-02 0. -1.
</event>
<event>
 5   0  0.5114870E-06  0.2388816E+04  0.7818609E-02  0.8443702E-01
       -2   -1    0    0    0  501  0.00000000000E+00  0.00000000000E+00  0.19503810082E+04  0.19503810082E+04  0.25500000920E-02 0. -1.
        2   -1    0    0  501    0  0.00000000000E+00  0.00000000000E+00 -0.73145237377E+03  0.73145237378E+03  0.25500000920E-02 0.  1.
    10030    2    1    2    0    0  0.00000000000E+00  0.00000000000E+00  0.12189286344E+04  0.26818333820E+04  0.23888162911E+04 0.  0.
        2    1    3    3  502    0 -0.31426155926E+03  0.89174741975E+03  0.14288053750E+04  0.17133180055E+04  0.25500000920E-02 0. -1.
       -2    1    3    3    0  502  0.31426155926E+03 -0.89174741975E+03 -0.20987674058E+03  0.96851537649E+03  0.25500000920E-02 0.  1.
</event>
<event>
 5   0  0.5328368E-06  0.3085089E+04  0.7818609E-02  0.8219842E-01
       -2   -1    0    0    0  501  0.00000000000E+00  0.00000000000E+00  0.12314810568E+04  0.12314810568E+04  0.25500000920E-02 0.  1.
        2   -1    0    0  501    0  0.00000000000E+00  0.00000000000E+00 -0.19321797847E+04  0.19321797847E+04  0.25500000920E-02 0. -1.
    10030    2    1    2    0    0  0.00000000000E+00  0.00000000000E+00 -0.70069872787E+03  0.31636608415E+04  0.30850885260E+04 0.  0.
        1    1    3    3  502    0  0.40562744427E+03 -0.13218861819E+04 -0.10515224209E+04  0.17371286950E+04  0.50400001928E-02 0. -1.
       -1    1    3    3    0  502 -0.40562744427E+03  0.13218861819E+04  0.35082369301E+03  0.14265321465E+04  0.50400001928E-02 0.  1.
</event>
<event>
 5   0  0.5001658E-06  0.3129187E+04  0.7818609E-02  0.8207773E-01
        2   -1    0    0  501    0  0.00000000000E+00  0.00000000000E+00  0.21018229925E+04  0.21018229925E+04  0.25500000920E-02 0. -1.
       -2   -1    0    0    0  501  0.00000000000E+00  0.00000000000E+00 -0.11646810833E+04  0.11646810833E+04  0.25500000920E-02 0.  1.
    10030    2    1    2    0    0  0.00000000000E+00  0.00000000000E+00  0.93714190918E+03  0.32665040758E+04  0.31291874216E+04 0.  0.
        3    1    3    3  502    0 -0.11068071151E+04  0.41155461755E+03  0.15400411272E+04  0.19406508900E+04  0.10100000352E+00 0. -1.
       -3    1    3    3    0  502  0.11068071151E+04 -0.41155461755E+03 -0.60289921797E+03  0.13258531858E+04  0.10100000352E+00 0.  1.
</event>
<event>
 5   0  0.5114870E-06  0.3105146E+04  0.7818609E-02  0.8214327E-01
       -2   -1    0    0    0  501  0.00000000000E+00  0.00000000000E+00  0.22258222031E+04  0.22258222031E+04  0.25500000920E-02 0. -1.
        2   -1    0    0  501    0  0.00000000000E+00  0.00000000000E+00 -0.10829629394E+04  0.10829629394E+04  0.25500000920E-02 0.  1.
    10030    2    1    2    0    0  0.00000000000E+00  0.00000000000E+00  0.11428592637E+04  0.33087851425E+04  0.31051460228E+04 0.  0.
        2    1    3    3  502    0 -0.66803984123E+03 -0.53228166099E+03  0.19529431754E+04  0.21315693848E+04  0.25500000920E-02 0. -1.
       -2    1    3    3    0  502  0.66803984123E+03  0.53228166099E+03 -0.81008391170E+03  0.11772157577E+04  0.25500000920E-02 0.  1.
</event>
<event>
 5   0  0.1853742E-06  0.3075858E+04  0.7818609E-02  0.8222395E-01
        1   -1    0    0  501    0  0.00000000000E+00  0.00000000000E+00  0.17157585835E+04  0.17157585835E+04  0.50400001928E-02 0.  1.
       -1   -1    0    0    0  501  0.00000000000E+00  0.00000000000E+00 -0.13785301026E+04  0.13785301026E+04  0.50400001928E-02 0. -1.
    10030    2    1    2    0    0  0.00000000000E+00  0.00000000000E+00  0.33722848094E+03  0.30942886861E+04  0.30758575105E+04 0.  0.
        5    1    3    3  502    0  0.87415298826E+03 -0.70741068182E+03  0.12240096004E+04  0.16621657293E+04  0.46999998093E+01 0.  1.
       -5    1    3    3    0  502 -0.87415298826E+03  0.70741068182E+03 -0.88678111948E+03  0.14321229568E+04  0.46999998093E+01 0. -1.
</event>
<event>
 5   0  0.4900679E-06  0.3081275E+04  0.7818609E-02  0.8220896E-01
        2   -1    0    0  501    0  0.00000000000E+00  0.00000000000E+00  0.14107791202E+04  0.14107791202E+04  0.25500000920E-02 0. -1.
       -2   -1    0    0    0  501  0.00000000000E+00  0.00000000000E+00 -0.16824488753E+04  0.16824488753E+04  0.25500000920E-02 0.  1.
    10030    2    1    2    0    0  0.00000000000E+00  0.00000000000E+00 -0.27166975512E+03  0.30932279955E+04  0.30812748947E+04 0.  0.
        4    1    3    3  502    0  0.89801848245E+02  0.10478827923E+04 -0.12660083017E+04  0.16458740387E+04  0.12699999809E+01 0.  1.
       -4    1    3    3    0  502 -0.89801848245E+02 -0.10478827923E+04  0.99433854659E+03  0.14473539569E+04  0.12699999809E+01 0. -1.
</event>
<event>
 5   0  0.1885307E-06  0.3126690E+04  0.7818609E-02  0.8208451E-01
       -1   -1    0    0    0  501  0.00000000000E+00  0.00000000000E+00  0.11091453353E+04  0.11091453353E+04  0.50400001928E-02 0. -1.
        1   -1    0    0  501    0  0.00000000000E+00  0.00000000000E+00 -0.22035416868E+04  0.22035416868E+04  0.50400001928E-02 0.  1.
    10030    2    1    2    0    0  0.00000000000E+00  0.00000000000E+00 -0.10943963516E+04  0.33126870221E+04  0.31266902520E+04 0.  0.
        3    1    3    3  502    0  0.65154368909E+02 -0.15534256246E+04 -0.37416834779E+03  0.15991804856E+04  0.10100000352E+00 0. -1.
       -3    1    3    3    0  502 -0.65154368909E+02  0.15534256246E+04 -0.72022800378E+03  0.17135065365E+04  0.10100000352E+00 0.  1.
</event>
<event>
 5   0  0.1885307E-06  0.3252147E+04  0.7818609E-02  0.8175179E-01
       -1   -1    0    0    0  501  0.00000000000E+00  0.00000000000E+00  0.13143134933E+04  0.13143134933E+04  0.50400001928E-02 0.  1.
        1   -1    0    0  501    0  0.00000000000E+00  0.00000000000E+00 -0.20117838822E+04  0.20117838822E+04  0.50400001928E-02 0. -1.
    10030    2    1    2    0    0  0.00000000000E+00  0.00000000000E+00 -0.69747038893E+03  0.33260973755E+04  0.32521467999E+04 0.  0.
        3    1    3    3  502    0  0.86819683890E+02  0.12494974144E+04 -0.14092979091E+04  0.18854447891E+04  0.10100000352E+00 0. -1.
       -3    1    3    3    0  502 -0.86819683890E+02 -0.12494974144E+04  0.71182752013E+03  0.14406525864E+04  0.10100000352E+00 0.  1.
</event>
<event>
 5   0  0.5001658E-06  0.3073852E+04  0.7818609E-02  0.8222951E-01
       -2   -1    0    0    0  501  0.00000000000E+00  0.00000000000E+00  0.79736687318E+03  0.79736687318E+03  0.25500000920E-02 0.  1.
        2   -1    0    0  501    0  0.00000000000E+00  0.00000000000E+00 -0.29624281957E+04  0.29624281957E+04  0.25500000920E-02 0. -1.
    10030    2    1    2    0    0  0.00000000000E+00  0.00000000000E+00 -0.21650613226E+04  0.37597950689E+04  0.30738523761E+04 0.  0.
        3    1    3    3  502    0  0.44379262453E+03 -0.14586117721E+04 -0.84522016524E+03  0.17432433374E+04  0.10100000352E+00 0.  1.
       -3    1    3    3    0  502 -0.44379262453E+03  0.14586117721E+04 -0.13198411573E+04  0.20165517316E+04  0.10100000352E+00 0. -1.
</event>
<event>
 5   0  0.1885307E-06  0.3108934E+04  0.7818609E-02  0.8213290E-01
        1   -1    0    0  501    0  0.00000000000E+00  0.00000000000E+00  0.14596003964E+04  0.14596003964E+04  0.50400001928E-02 0.  1.
       -1   -1    0    0    0  501  0.00000000000E+00  0.00000000000E+00 -0.16554999133E+04  0.16554999133E+04  0.50400001928E-02 0. -1.
    10030    2    1    2    0    0  0.00000000000E+00  0.00000000000E+00 -0.19589951690E+03  0.31151003096E+04  0.31089344346E+04 0.  0.
        3    1    3    3  502    0 -0.66071022594E+03  0.11271786932E+04 -0.94181868770E+03  0.16106185954E+04  0.10100000352E+00 0. -1.
       -3    1    3    3    0  502  0.66071022594E+03 -0.11271786932E+04  0.74591917080E+03  0.15044817143E+04  0.10100000352E+00 0.  1.
</event>
<event>
 5   0  0.1843709E-06  0.3112097E+04  0.7818609E-02  0.8212426E-01
       -1   -1    0    0    0  501  0.00000000000E+00  0.00000000000E+00  0.26636023102E+04  0.26636023102E+04  0.50400001928E-02 0. -1.
        1   -1    0    0  501    0  0.00000000000E+00  0.00000000000E+00 -0.90902692135E+03  0.90902692137E+03  0.50400001928E-02 0.  1.
    10030    2    1    2    0    0  0.00000000000E+00  0.00000000000E+00  0.17545753889E+04  0.35726292316E+04  0.31120965331E+04 0.  0.
        4    1    3    3  502    0  0.10081832656E+03 -0.42991338195E+03 -0.83558946430E+03  0.94509323175E+03  0.12699999809E+01 0.  1.
       -4    1    3    3    0  502 -0.10081832656E+03  0.42991338195E+03  0.25901648532E+04  0.26275359999E+04  0.12699999809E+01 0. -1.
</event>
<event>
 5   0  0.1853742E-06  0.3166314E+04  0.7818609E-02  0.8197770E-01
       -1   -1    0    0    0  501  0.00000000000E+00  0.00000000000E+00  0.23307503246E+04  0.23307503246E+04  0.50400001928E-02 0. -1.
        1   -1    0    0  501    0  0.00000000000E+00  0.00000000000E+00 -0.10753562260E+04  0.10753562260E+04  0.50400001928E-02 0.  1.
    10030    2    1    2    0    0  0.00000000000E+00  0.00000000000E+00  0.12553940986E+04  0.34061065506E+04  0.31663144965E+04 0.  0.
        5    1    3    3  502    0 -0.56952356244E+03 -0.87447874190E+03 -0.65296414552E+03  0.12310379456E+04  0.46999998093E+01 0.  1.
       -5    1    3    3    0  502  0.56952356244E+03  0.87447874190E+03  0.19083582441E+04  0.21750686049E+04  0.46999998093E+01 0. -1.
</event>
<event>
 5   0  0.1843709E-06  0.3131107E+04  0.7818609E-02  0.8207252E-01
        1   -1    0    0  501    0  0.00000000000E+00  0.00000000000E+00  0.23585287885E+04  0.23585287885E+04  0.50400001928E-02 0.  1.
       -1   -1    0    0    0  501  0.00000000000E+00  0.00000000000E+00 -0.10391890638E+04  0.10391890638E+04  0.50400001928E-02 0. -1.
    10030    2    1    2    0    0  0.00000000000E+00  0.00000000000E+00  0.13193397247E+04  0.33977178523E+04  0.31311067204E+04 0.  0.
        4    1    3    3  502    0  0.93058023752E+03 -0.98721500096E+02 -0.70228105369E+03  0.11700110274E+04  0.12699999809E+01 0. -1.
       -4    1    3    3    0  502 -0.93058023752E+03  0.98721500096E+02  0.20216207784E+04  0.22277068248E+04  0.12699999809E+01 0.  1.
</event>
<event>
 5   0  0.5001658E-06  0.3200779E+04  0.7818609E-02  0.8188611E-01
       -2   -1    0    0    0  501  0.00000000000E+00  0.00000000000E+00  0.12664673536E+04  0.12664673536E+04  0.25500000920E-02 0. -1.
        2   -1    0    0  501    0  0.00000000000E+00  0.00000000000E+00 -0.20223555406E+04  0.20223555406E+04  0.25500000920E-02 0.  1.
    10030    2    1    2    0    0  0.00000000000E+00  0.00000000000E+00 -0.75588818701E+03  0.32888228941E+04  0.32007794485E+04 0.  0.
        3    1    3    3  502    0  0.17781681977E+03 -0.13107126784E+04 -0.13036477935E+04  0.18571710009E+04  0.10100000352E+00 0.  1.
       -3    1    3    3    0  502 -0.17781681977E+03  0.13107126784E+04  0.54775960648E+03  0.14316518933E+04  0.10100000352E+00 0. -1.
</event>
<event>
 5   0  0.1840431E-06  0.3096155E+04  0.7818609E-02  0.8216794E-01
       -1   -1    0    0    0  501  0.00000000000E+00  0.00000000000E+00  0.17262256524E+04  0.17262256524E+04  0.50400001928E-02 0. -1.
        1   -1    0    0  501    0  0.00000000000E+00  0.00000000000E+00 -0.13883140564E+04  0.13883140564E+04  0.50400001928E-02 0.  1.
    10030    2    1    2    0    0  0.00000000000E+00  0.00000000000E+00  0.33791159594E+03  0.31145397088E+04  0.30961546071E+04 0.  0.
        1    1    3    3  502    0 -0.10667433679E+03  0.18829822718E+03  0.17109337120E+04  0.17245665552E+04  0.50400001928E-02 0. -1.
       -1    1    3    3    0  502  0.10667433679E+03 -0.18829822718E+03 -0.13730221160E+04  0.13899731536E+04  0.50400001928E-02 0.  1.
</event>
<event>
 5   0  0.5001658E-06  0.3103090E+04  0.7818609E-02  0.8214890E-01
       -2   -1    0    0    0  501  0.00000000000E+00  0.00000000000E+00  0.13507931591E+04  0.13507931591E+04  0.25500000920E-02 0. -1.
        2   -1    0    0  501    0  0.00000000000E+00  0.00000000000E+00 -0.17821317732E+04  0.17821317732E+04  0.25500000920E-02 0.  1.
    10030    2    1    2    0    0  0.00000000000E+00  0.00000000000E+00 -0.43133861408E+03  0.31329249324E+04  0.31030896912E+04 0.  0.
        3    1    3    3  502    0  0.64525936206E+03  0.49011248788E+03  0.11202006819E+04  0.13825409481E+04  0.10100000352E+00 0. -1.
       -3    1    3    3    0  502 -0.64525936206E+03 -0.49011248788E+03 -0.15515392960E+04  0.17503839843E+04  0.10100000352E+00 0.  1.
</event>
<event>
 5   0  0.4900679E-06  0.3061799E+04  0.7818609E-02  0.8226301E-01
        2   -1    0    0  501    0  0.00000000000E+00  0.00000000000E+00  0.12624529870E+04  0.12624529870E+04  0.25500000920E-02 0. -1.
       -2   -1    0    0    0  501  0.00000000000E+00  0.00000000000E+00 -0.18564283526E+04  0.18564283526E+04  0.25500000920E-02 0.  1.
    10030    2    1    2    0    0  0.00000000000E+00  0.00000000000E+00 -0.59397536560E+03  0.31188813396E+04  0.30617991567E+04 0.  0.
        4    1    3    3  502    0  0.30853766521E+03  0.21458594764E+03  0.12147316519E+04  0.12715412768E+04  0.12699999809E+01 0. -1.
       -4    1    3    3    0  502 -0.30853766521E+03 -0.21458594764E+03 -0.18087070175E+04  0.18473400628E+04  0.12699999809E+01 0.  1.
</event>
<event>
 5   0  0.1843709E-06  0.3099800E+04  0.7818609E-02  0.8215793E-01
        1   -1    0    0  501    0  0.00000000000E+00  0.00000000000E+00  0.92478465150E+03  0.92478465152E+03  0.50400001928E-02 0. -1.
       -1   -1    0    0    0  501  0.00000000000E+00  0.00000000000E+00 -0.25975666657E+04  0.25975666657E+04  0.50400001928E-02 0.  1.
    10030    2    1    2    0    0  0.00000000000E+00  0.00000000000E+00 -0.16727820142E+04  0.35223513172E+04  0.30997998540E+04 0.  0.
        4    1    3    3  502    0 -0.19089544674E+03 -0.14060451377E+04 -0.12786906670E+03  0.14246950944E+04  0.12699999809E+01 0.  1.
       -4    1    3    3    0  502  0.19089544674E+03  0.14060451377E+04 -0.15449129475E+04  0.20976562228E+04  0.12699999809E+01 0. -1.
</event>
<event>
 5   0  0.1840431E-06  0.2864059E+04  0.7818609E-02  0.8283652E-01
        1   -1    0    0  501    0  0.00000000000E+00  0.00000000000E+00  0.90469662621E+03  0.90469662623E+03  0.50400001928E-02 0.  1.
       -1   -1    0    0    0  501  0.00000000000E+00  0.00000000000E+00 -0.22667368160E+04  0.22667368160E+04  0.50400001928E-02 0. -1.
    10030    2    1    2    0    0  0.00000000000E+00  0.00000000000E+00 -0.13620401898E+04  0.31714334423E+04  0.28640594617E+04 0.  0.
        1    1    3    3  502    0 -0.16483546737E+03  0.47579904454E+03 -0.21654721675E+04  0.22232465383E+04  0.50400001928E-02 0. -1.
       -1    1    3    3    0  502  0.16483546737E+03 -0.47579904454E+03  0.80343197764E+03  0.94818690394E+03  0.50400001928E-02 0.  1.
</event>
<event>
 5   0  0.5114870E-06  0.3156297E+04  0.7818609E-02  0.8200455E-01
        2   -1    0    0  501    0  0.00000000000E+00  0.00000000000E+00  0.13782481915E+04  0.13782481915E+04  0.25500000920E-02 0. -1.
       -2   -1    0    0    0  501  0.00000000000E+00  0.00000000000E+00 -0.18070420790E+04  0.18070420790E+04  0.25500000920E-02 0.  1.
    10030    2    1    2    0    0  0.00000000000E+00  0.00000000000E+00 -0.42879388749E+03  0.31852902706E+04  0.31562968665E+04 0.  0.
        2    1    3    3  502    0  0.59403480696E+03  0.14511358029E+04 -0.39458681539E+03  0.16169017364E+04  0.25500000920E-02 0. -1.
       -2    1    3    3    0  502 -0.59403480696E+03 -0.14511358029E+04 -0.34207072101E+02  0.15683885342E+04  0.25500000920E-02 0.  1.
</event>
<event>
 5   0  0.5001658E-06  0.3172016E+04  0.7818609E-02  0.8196247E-01
       -2   -1    0    0    0  501  0.00000000000E+00  0.00000000000E+00  0.13656632529E+04  0.13656632529E+04  0.25500000920E-02 0. -1.
        2   -1    0    0  501    0  0.00000000000E+00  0.00000000000E+00 -0.18419048647E+04  0.18419048647E+04  0.25500000920E-02 0.  1.
    10030    2    1    2    0    0  0.00000000000E+00  0.00000000000E+00 -0.47624161178E+03  0.32075681176E+04  0.31720162604E+04 0.  0.
        3    1    3    3  502    0 -0.62579448964E+02  0.15066114499E+04  0.25894477386E+03  0.15299825668E+04  0.10100000352E+00 0. -1.
       -3    1    3    3    0  502  0.62579448964E+02 -0.15066114499E+04 -0.73518638565E+03  0.16775855508E+04  0.10100000352E+00 0.  1.
</event>
<event>
 5   0  0.1843709E-06  0.3000587E+04  0.7818609E-02  0.8243563E-01
        1   -1    0    0  501    0  0.00000000000E+00  0.00000000000E+00  0.14347017582E+04  0.14347017582E+04  0.50400001928E-02 0. -1.
       -1   -1    0    0    0  501  0.00000000000E+00  0.00000000000E+00 -0.15688841701E+04  0.15688841701E+04  0.50400001928E-02 0.  1.
    10030    2    1    2    0    0  0.00000000000E+00  0.00000000000E+00 -0.13418241193E+03  0.30035859283E+04  0.30005871941E+04 0.  0.
        4    1    3    3  502    0  0.11466934417E+04  0.94265848894E+03 -0.28495151405E+03  0.15115256711E+04  0.12699999809E+01 0. -1.
       -4    1    3    3    0  502 -0.11466934417E+04 -0.94265848894E+03  0.15076910212E+03  0.14920602572E+04  0.12699999809E+01 0.  1.
</event>
<event>
 5   0  0.1836401E-06  0.3117894E+04  0.7818609E-02  0.8210844E-01
        1   -1    0    0  501    0  0.00000000000E+00  0.00000000000E+00  0.24120061511E+04  0.24120061511E+04  0.50400001928E-02 0. -1.
       -1   -1    0    0    0  501  0.00000000000E+00  0.00000000000E+00 -0.10075913018E+04  0.10075913018E+04  0.50400001928E-02 0.  1.
    10030    2    1    2    0    0  0.00000000000E+00  0.00000000000E+00  0.14044148493E+04  0.34195974529E+04  0.31178944291E+04 0.  0.
        2    1    3    3  502    0 -0.99129631488E+03  0.48948274941E+03  0.19076787202E+04  0.22048809141E+04  0.25500000920E-02 0. -1.
       -2    1    3    3    0  502  0.99129631488E+03 -0.48948274941E+03 -0.50326387095E+03  0.12147165388E+04  0.25500000920E-02 0.  1.
</event>
<event>
 5   0  0.1840431E-06  0.3051616E+04  0.7818609E-02  0.8229143E-01
        1   -1    0    0  501    0  0.00000000000E+00  0.00000000000E+00  0.18168806226E+04  0.18168806227E+04  0.50400001928E-02 0. -1.
       -1   -1    0    0    0  501  0.00000000000E+00  0.00000000000E+00 -0.12813664943E+04  0.12813664943E+04  0.50400001928E-02 0.  1.
    10030    2    1    2    0    0  0.00000000000E+00  0.00000000000E+00  0.53551412833E+03  0.30982471170E+04  0.30516159352E+04 0.  0.
        1    1    3    3  502    0  0.94130045393E+03 -0.23894847914E+03 -0.92706370283E+03  0.13426056865E+04  0.50400001928E-02 0.  1.
       -1    1    3    3    0  502 -0.94130045393E+03  0.23894847914E+03  0.14625778312E+04  0.17556414305E+04  0.50400001928E-02 0. -1.
</event>
<event>
 5   0  0.5114870E-06  0.3141715E+04  0.7818609E-02  0.8204382E-01
       -2   -1    0    0    0  501  0.00000000000E+00  0.00000000000E+00  0.12099275877E+04  0.12099275877E+04  0.25500000920E-02 0.  1.
        2   -1    0    0  501    0  0.00000000000E+00  0.00000000000E+00 -0.20394551288E+04  0.20394551288E+04  0.25500000920E-02 0. -1.
    10030    2    1    2    0    0  0.00000000000E+00  0.00000000000E+00 -0.82952754110E+03  0.32493827166E+04  0.31417148339E+04 0.  0.
        2    1    3    3  502    0 -0.15067630834E+04  0.36308453717E+03 -0.67931804148E+03  0.16922288179E+04  0.25500000920E-02 0.  1.
       -2    1    3    3    0  502  0.15067630834E+04 -0.36308453717E+03 -0.15020949962E+03  0.15571538987E+04  0.25500000920E-02 0. -1.
</event>
<event>
 5   0  0.1853742E-06  0.3119452E+04  0.7818609E-02  0.8210420E-01
        1   -1    0    0  501    0  0.00000000000E+00  0.00000000000E+00  0.12686390711E+04  0.12686390711E+04  0.50400001928E-02 0. -1.
       -1   -1    0    0    0  501  0.00000000000E+00  0.00000000000E+00 -0.19176023961E+04  0.19176023961E+04  0.50400001928E-02 0.  1.
    10030    2    1    2    0    0  0.00000000000E+00  0.00000000000E+00 -0.64896332506E+03  0.31862414672E+04  0.31194520817E+04 0.  0.
        5    1    3    3  502    0  0.14885164772E+03 -0.51615931449E+02  0.12604837515E+04  0.12703001201E+04  0.46999998093E+01 0. -1.
       -5    1    3    3    0  502 -0.14885164772E+03  0.51615931449E+02 -0.19094470765E+04  0.19159413471E+04  0.46999998093E+01 0.  1.
</event>
<event>
 5   0  0.1885307E-06  0.2663542E+04  0.7818609E-02  0.8346932E-01
       -1   -1    0    0    0  501  0.00000000000E+00  0.00000000000E+00  0.85644122523E+03  0.85644122525E+03  0.50400001928E-02 0.  1.
        1   -1    0    0  501    0  0.00000000000E+00  0.00000000000E+00 -0.20709115064E+04  0.20709115064E+04  0.50400001928E-02 0. -1.
    10030    2    1    2    0    0  0.00000000000E+00  0.00000000000E+00 -0.12144702811E+04  0.29273527316E+04  0.26635419936E+04 0.  0.
        3    1    3    3  502    0  0.30628230583E+03 -0.15311485404E+03 -0.20217027331E+04  0.20504962718E+04  0.10100000352E+00 0. -1.
       -3    1    3    3    0  502 -0.30628230583E+03  0.15311485404E+03  0.80723245198E+03  0.87685645982E+03  0.10100000352E+00 0.  1.
</event>
<event>
 5   0  0.5001658E-06  0.3058288E+04  0.7818609E-02  0.8227280E-01
       -2   -1    0    0    0  501  0.00000000000E+00  0.00000000000E+00  0.13901419913E+04  0.13901419913E+04  0.25500000920E-02 0.  1.
        2   -1    0    0  501    0  0.00000000000E+00  0.00000000000E+00 -0.16820449804E+04  0.16820449804E+04  0.25500000920E-02 0. -1.
    10030    2    1    2    0    0  0.00000000000E+00  0.00000000000E+00 -0.29190298907E+03  0.30721869717E+04  0.30582879907E+04 0.  0.
        3    1    3    3  502    0  0.83795108043E+03 -0.12660288721E+04  0.37333817404E+02  0.15186786830E+04  0.10100000352E+00 0.  1.
       -3    1    3    3    0  502 -0.83795108043E+03  0.12660288721E+04 -0.32923680647E+03  0.15535082887E+04  0.10100000352E+00 0. -1.
</event>
<event>
 5   0  0.5001658E-06  0.2785608E+04  0.7818609E-02  0.8307750E-01
       -2   -1    0    0    0  501  0.00000000000E+00  0.00000000000E+00  0.10775750094E+04  0.10775750094E+04  0.25500000920E-02 0. -1.
        2   -1    0    0  501    0  0.00000000000E+00  0.00000000000E+00 -0.18002485718E+04  0.18002485718E+04  0.25500000920E-02 0.  1.
    10030    2    1    2    0    0  0.00000000000E+00  0.00000000000E+00 -0.72267356238E+03  0.28778235812E+04  0.27856079205E+04 0.  0.
        3    1    3    3  502    0  0.67507210871E+03 -0.73228037209E+01 -0.16199135022E+04  0.17549631735E+04  0.10100000352E+00 0.  1.
       -3    1    3    3    0  502 -0.67507210871E+03  0.73228037209E+01  0.89723993983E+03  0.11228604077E+04  0.10100000352E+00 0. -1.
</event>
<event>
 5   0  0.1840431E-06  0.3009926E+04  0.7818609E-02  0.8240902E-01
       -1   -1    0    0    0  501  0.00000000000E+00  0.00000000000E+00  0.16136484767E+04  0.16136484768E+04  0.50400001928E-02 0. -1.
        1   -1    0    0  501    0  0.00000000000E+00  0.00000000000E+00 -0.14035981151E+04  0.14035981151E+04  0.50400001928E-02 0.  1.
    10030    2    1    2    0    0  0.00000000000E+00  0.00000000000E+00  0.21005036168E+03  0.30172465918E+04  0.30099262186E+04 0.  0.
        1    1    3    3  502    0  0.42749009078E+03  0.13776201429E+04 -0.32535444125E+03  0.14786617424E+04  0.50400001928E-02 0.  1.
       -1    1    3    3    0  502 -0.42749009078E+03 -0.13776201429E+04  0.53540480293E+03  0.15385848494E+04  0.50400001928E-02 0. -1.
</event>
<event>
 5   0  0.5328368E-06  0.3124271E+04  0.7818609E-02  0.8209108E-01
        2   -1    0    0  501    0  0.00000000000E+00  0.00000000000E+00  0.21825133763E+04  0.21825133763E+04  0.25500000920E-02 0.  1.
       -2   -1    0    0    0  501  0.00000000000E+00  0.00000000000E+00 -0.11180995415E+04  0.11180995415E+04  0.25500000920E-02 0. -1.
    10030    2    1    2    0    0  0.00000000000E+00  0.00000000000E+00  0.10644138348E+04  0.33006129178E+04  0.31242709264E+04 0.  0.
        1    1    3    3  502    0  0.11176038169E+04 -0.10105712366E+04  0.96656899334E+02  0.15098460425E+04  0.50400001928E-02 0.  1.
       -1    1    3    3    0  502 -0.11176038169E+04  0.10105712366E+04  0.96775693545E+03  0.17907668753E+04  0.50400001928E-02 0. -1.
</event>
<event>
 5   0  0.1843709E-06  0.3057236E+04  0.7818609E-02  0.8227573E-01
       -1   -1    0    0    0  501  0.00000000000E+00  0.00000000000E+00  0.15056363037E+04  0.15056363037E+04  0.50400001928E-02 0.  1.
        1   -1    0    0  501    0  0.00000000000E+00  0.00000000000E+00 -0.15519504865E+04  0.15519504865E+04  0.50400001928E-02 0. -1.
    10030    2    1    2    0    0  0.00000000000E+00  0.00000000000E+00 -0.46314182750E+02  0.30575867902E+04  0.30572360027E+04 0.  0.
        4    1    3    3  502    0 -0.11900164515E+04 -0.95931881489E+03 -0.76750815664E+01  0.15285588844E+04  0.12699999809E+01 0. -1.
       -4    1    3    3    0  502  0.11900164515E+04  0.95931881489E+03 -0.38639101184E+02  0.15290279057E+04  0.12699999809E+01 0.  1.
</event>
<event>
 5   0  0.1840431E-06  0.3070076E+04  0.7818609E-02  0.8223999E-01
       -1   -1    0    0    0  501  0.00000000000E+00  0.00000000000E+00  0.12087620566E+04  0.12087620566E+04  0.50400001928E-02 0.  1.
        1   -1    0    0  501    0  0.00000000000E+00  0.00000000000E+00 -0.19493839092E+04  0.19493839092E+04  0.50400001928E-02 0. -1.
    10030    2    1    2    0    0  0.00000000000E+00  0.00000000000E+00 -0.74062185267E+03  0.31581459658E+04  0.30700757666E+04 0.  0.
        1    1    3    3  502    0  0.99943495303E+03  0.45407536478E+03  0.73344954765E+03  0.13202283519E+04  0.50400001928E-02 0.  1.
       -1    1    3    3    0  502 -0.99943495303E+03 -0.45407536478E+03 -0.14740714003E+04  0.18379176139E+04  0.50400001928E-02 0. -1.
</event>
<event>
 5   0  0.1836401E-06  0.3278781E+04  0.7818609E-02  0.8168316E-01
        1   -1    0    0  501    0  0.00000000000E+00  0.00000000000E+00  0.18911467968E+04  0.18911467968E+04  0.50400001928E-02 0. -1.
       -1   -1    0    0    0  501  0.00000000000E+00  0.00000000000E+00 -0.14211488178E+04  0.14211488178E+04  0.50400001928E-02 0.  1.
    10030    2    1    2    0    0  0.00000000000E+00  0.00000000000E+00  0.46999797904E+03  0.33122956146E+04  0.32787808921E+04 0.  0.
        2    1    3    3  502    0 -0.10800700716E+04  0.21331177333E+03 -0.99213879924E+03  0.14820231675E+04  0.25500000920E-02 0.  1.
       -2    1    3    3    0  502  0.10800700716E+04 -0.21331177333E+03  0.14621367783E+04  0.18302724471E+04  0.25500000920E-02 0. -1.
</event>
<event>
 5   0  0.5328368E-06  0.2430819E+04  0.7818609E-02  0.8428055E-01
       -2   -1    0    0    0  501  0.00000000000E+00  0.00000000000E+00  0.82504159181E+03  0.82504159182E+03  0.25500000920E-02 0. -1.
        2   -1    0    0  501    0  0.00000000000E+00  0.00000000000E+00 -0.17904790329E+04  0.17904790329E+04  0.25500000920E-02 0.  1.
    10030    2    1    2    0    0  0.00000000000E+00  0.00000000000E+00 -0.96543744112E+03  0.26155206248E+04  0.24308185218E+04 0.  0.
        1    1    3    3  502    0 -0.63894898816E+02 -0.14753155514E+03  0.81354962427E+03  0.82928349136E+03  0.50400001928E-02 0. -1.
       -1    1    3    3    0  502  0.63894898816E+02  0.14753155514E+03 -0.17789870654E+04  0.17862371334E+04  0.50400001928E-02 0.  1.
</event>
<event>
 5   0  0.1843709E-06  0.3041754E+04  0.7818609E-02  0.8231907E-01
       -1   -1    0    0    0  501  0.00000000000E+00  0.00000000000E+00  0.15546496554E+04  0.15546496554E+04  0.50400001928E-02 0. -1.
        1   -1    0    0  501    0  0.00000000000E+00  0.00000000000E+00 -0.14878377394E+04  0.14878377394E+04  0.50400001928E-02 0.  1.
    10030    2    1    2    0    0  0.00000000000E+00  0.00000000000E+00  0.66811916023E+02  0.30424873948E+04  0.30417537237E+04 0.  0.
        4    1    3    3  502    0 -0.89068588396E+02 -0.14164286960E+04  0.58021994823E+03  0.15332515336E+04  0.12699999809E+01 0. -1.
       -4    1    3    3    0  502  0.89068588396E+02  0.14164286960E+04 -0.51340803220E+03  0.15092358612E+04  0.12699999809E+01 0.  1.
</event>
<event>
 5   0  0.1836401E-06  0.3085305E+04  0.7818609E-02  0.8219782E-01
        1   -1    0    0  501    0  0.00000000000E+00  0.00000000000E+00  0.25726942064E+04  0.25726942064E+04  0.50400001928E-02 0. -1.
       -1   -1    0    0    0  501  0.00000000000E+00  0.00000000000E+00 -0.92501362778E+03  0.92501362780E+03  0.50400001928E-02 0.  1.
    10030    2    1    2    0    0  0.00000000000E+00  0.00000000000E+00  0.16476805786E+04  0.34977078342E+04  0.30853053016E+04 0.  0.
        2    1    3    3  502    0 -0.10751667083E+04 -0.10857682620E+04  0.58361786609E+03  0.16356912860E+04  0.25500000920E-02 0.  1.
       -2    1    3    3    0  502  0.10751667083E+04  0.10857682620E+04  0.10640627125E+04  0.18620165482E+04  0.25500000920E-02 0. -1.
</event>
<event>
 5   0  0.5114870E-06  0.2438968E+04  0.7818609E-02  0.8425057E-01
        2   -1    0    0  501    0  0.00000000000E+00  0.00000000000E+00  0.10781881455E+04  0.10781881455E+04  0.25500000920E-02 0. -1.
       -2   -1    0    0    0  501  0.00000000000E+00  0.00000000000E+00 -0.13792960931E+04  0.13792960932E+04  0.25500000920E-02 0.  1.
    10030    2    1    2    0    0  0.00000000000E+00  0.00000000000E+00 -0.30110794767E+03  0.24574842386E+04  0.24389675658E+04 0.  0.
        2    1    3    3  502    0  0.42713285410E+03 -0.11334267747E+04 -0.29319843067E+03  0.12462199037E+04  0.25500000920E-02 0.  1.
       -2    1    3    3    0  502 -0.42713285410E+03  0.11334267747E+04 -0.79095170024E+01  0.12112643349E+04  0.25500000920E-02 0. -1.
</event>
<event>
 5   0  0.1885307E-06  0.3120149E+04  0.7818609E-02  0.8210230E-01
        1   -1    0    0  501    0  0.00000000000E+00  0.00000000000E+00  0.22398584316E+04  0.22398584316E+04  0.50400001928E-02 0.  1.
       -1   -1    0    0    0  501  0.00000000000E+00  0.00000000000E+00 -0.10866007213E+04  0.10866007213E+04  0.50400001928E-02 0. -1.
    10030    2    1    2    0    0  0.00000000000E+00  0.00000000000E+00  0.11532577104E+04  0.33264591529E+04  0.31201485781E+04 0.  0.
        3    1    3    3  502    0  0.14052813687E+04 -0.67612508879E+03  0.62274299507E+03  0.16792169928E+04  0.10100000352E+00 0.  1.
       -3    1    3    3    0  502 -0.14052813687E+04  0.67612508879E+03  0.53051471529E+03  0.16472421601E+04  0.10100000352E+00 0. -1.
</event>
<event>
 5   0  0.4927533E-06  0.3083204E+04  0.7818609E-02  0.8220363E-01
        2   -1    0    0  501    0  0.00000000000E+00  0.00000000000E+00  0.15131731693E+04  0.15131731693E+04  0.25500000920E-02 0.  1.
       -2   -1    0    0    0  501  0.00000000000E+00  0.00000000000E+00 -0.15705652147E+04  0.15705652147E+04  0.25500000920E-02 0. -1.
    10030    2    1    2    0    0  0.00000000000E+00  0.00000000000E+00 -0.57392045350E+02  0.30837383840E+04  0.30832042706E+04 0.  0.
        5    1    3    3  502    0 -0.45827638942E+03 -0.28333262836E+03 -0.14733216815E+04  0.15687553967E+04  0.46999998093E+01 0. -1.
       -5    1    3    3    0  502  0.45827638942E+03  0.28333262836E+03  0.14159296362E+04  0.15149829874E+04  0.46999998093E+01 0.  1.
</event>
<event>
 5   0  0.1885307E-06  0.3075224E+04  0.7818609E-02  0.8222571E-01
       -1   -1    0    0    0  501  0.00000000000E+00  0.00000000000E+00  0.14439942753E+04  0.14439942753E+04  0.50400001928E-02 0.  1.
        1   -1    0    0  501    0  0.00000000000E+00  0.00000000000E+00 -0.16372992619E+04  0.16372992619E+04  0.50400001928E-02 0. -1.
    10030    2    1    2    0    0  0.00000000000E+00  0.00000000000E+00 -0.19330498658E+03  0.30812935373E+04  0.30752240642E+04 0.  0.
        3    1    3    3  502    0  0.42631536117E+03  0.10172381102E+04 -0.11700897525E+04  0.16079888678E+04  0.10100000352E+00 0. -1.
       -3    1    3    3    0  502 -0.42631536117E+03 -0.10172381102E+04  0.97678476590E+03  0.14733046695E+04  0.10100000352E+00 0.  1.
</event>
<event>
 5   0  0.5114870E-06  0.3103630E+04  0.7818609E-02  0.8214742E-01
        2   -1    0    0  501    0  0.00000000000E+00  0.00000000000E+00  0.12662263233E+04  0.12662263233E+04  0.25500000920E-02 0.  1.
       -2   -1    0    0    0  501  0.00000000000E+00  0.00000000000E+00 -0.19018167592E+04  0.19018167592E+04  0.25500000920E-02 0. -1.
    10030    2    1    2    0    0  0.00000000000E+00  0.00000000000E+00 -0.63559043584E+03  0.31680430825E+04  0.31036304178E+04 0.  0.
        2    1    3    3  502    0 -0.68824311905E+03 -0.17749666495E+03 -0.17258981448E+04  0.18665229876E+04  0.25500000920E-02 0. -1.
       -2    1    3    3    0  502  0.68824311905E+03  0.17749666495E+03  0.10903077090E+04  0.13015200949E+04  0.25500000920E-02 0.  1.
</event>
<event>
 5   0  0.5114870E-06  0.3013557E+04  0.7818609E-02  0.8239870E-01
       -2   -1    0    0    0  501  0.00000000000E+00  0.00000000000E+00  0.95420893113E+03  0.95420893114E+03  0.25500000920E-02 0. -1.
        2   -1    0    0  501    0  0.00000000000E+00  0.00000000000E+00 -0.23793335920E+04  0.23793335920E+04  0.25500000920E-02 0.  1.
    10030    2    1    2    0    0  0.00000000000E+00  0.00000000000E+00 -0.14251246609E+04  0.33335425232E+04  0.30135569440E+04 0.  0.
        2    1    3    3  502    0  0.14390083821E+04  0.40314914821E+03 -0.92564814759E+03  0.17578677005E+04  0.25500000920E-02 0.  1.
       -2    1    3    3    0  502 -0.14390083821E+04 -0.40314914821E+03 -0.49947651329E+03  0.15756748226E+04  0.25500000920E-02 0. -1.
</event>
<event>
 5   0  0.1840431E-06  0.3085636E+04  0.7818609E-02  0.8219691E-01
        1   -1    0    0  501    0  0.00000000000E+00  0.00000000000E+00  0.25822492775E+04  0.25822492776E+04  0.50400001928E-02 0.  1.
       -1   -1    0    0    0  501  0.00000000000E+00  0.00000000000E+00 -0.92178849730E+03  0.92178849732E+03  0.50400001928E-02 0. -1.
    10030    2    1    2    0    0  0.00000000000E+00  0.00000000000E+00  0.16604607802E+04  0.35040377749E+04  0.30856361945E+04 0.  0.
        1    1    3    3  502    0  0.10169220116E+04  0.33356886738E+03 -0.43170767422E+03  0.11540234326E+04  0.50400001928E-02 0. -1.
       -1    1    3    3    0  502 -0.10169220116E+04 -0.33356886738E+03  0.20921684545E+04  0.23500143423E+04  0.50400001928E-02 0.  1.
</event>
<event>
 5   0  0.5001658E-06  0.3076215E+04  0.7818609E-02  0.8222296E-01
       -2   -1    0    0    0  501  0.00000000000E+00  0.00000000000E+00  0.23375993511E+04  0.23375993511E+04  0.25500000920E-02 0.  1.
        2   -1    0    0  501    0  0.00000000000E+00  0.00000000000E+00 -0.10120529348E+04  0.10120529348E+04  0.25500000920E-02 0. -1.
    10030    2    1    2    0    0  0.00000000000E+00  0.00000000000E+00  0.13255464164E+04  0.33496522859E+04  0.30762147413E+04 0.  0.
        3    1    3    3  502    0 -0.72370766958E+03 -0.86949602596E+02 -0.81204112300E+03  0.10912029234E+04  0.10100000352E+00 0. -1.
       -3    1    3    3    0  502  0.72370766958E+03  0.86949602596E+02  0.21375875394E+04  0.22584493625E+04  0.10100000352E+00 0.  1.
</event>
<event>
 5   0  0.5114870E-06  0.3056477E+04  0.7818609E-02  0.8227785E-01
       -2   -1    0    0    0  501  0.00000000000E+00  0.00000000000E+00  0.18160754623E+04  0.18160754623E+04  0.25500000920E-02 0. -1.
        2   -1    0    0  501    0  0.00000000000E+00  0.00000000000E+00 -0.12860216258E+04  0.12860216258E+04  0.25500000920E-02 0.  1.
    10030    2    1    2    0    0  0.00000000000E+00  0.00000000000E+00  0.53005383650E+03  0.31020970881E+04  0.30564766111E+04 0.  0.
        2    1    3    3  502    0  0.12258482353E+04  0.72934653734E+03  0.82172280861E+03  0.16461709029E+04  0.25500000920E-02 0.  1.
       -2    1    3    3    0  502 -0.12258482353E+04 -0.72934653734E+03 -0.29166897211E+03  0.14559261852E+04  0.25500000920E-02 0. -1.
</event>
<event>
 5   0  0.1885307E-06  0.3105685E+04  0.7818609E-02  0.8214179E-01
       -1   -1    0    0    0  501  0.00000000000E+00  0.00000000000E+00  0.24307886894E+04  0.24307886894E+04  0.50400001928E-02 0.  1.
        1   -1    0    0  501    0  0.00000000000E+00  0.00000000000E+00 -0.99199089583E+03  0.99199089584E+03  0.50400001928E-02 0. -1.
    10030    2    1    2    0    0  0.00000000000E+00  0.00000000000E+00  0.14387977936E+04  0.34227795853E+04  0.31056852703E+04 0.  0.
        3    1    3    3  502    0 -0.12260929675E+03 -0.42699412590E+03 -0.92046079628E+03  0.10220592502E+04  0.10100000352E+00 0. -1.
       -3    1    3    3    0  502  0.12260929675E+03  0.42699412590E+03  0.23592585899E+04  0.24007203351E+04  0.10100000352E+00 0.  1.
</event>
<event>
 5   0  0.1853742E-06  0.3110198E+04  0.7818609E-02  0.8212945E-01
        1   -1    0    0  501    0  0.00000000000E+00  0.00000000000E+00  0.21597592474E+04  0.21597592474E+04  0.50400001928E-02 0. -1.
       -1   -1    0    0    0  501  0.00000000000E+00  0.00000000000E+00 -0.11197233620E+04  0.11197233620E+04  0.50400001928E-02 0.  1.
    10030    2    1    2    0    0  0.00000000000E+00  0.00000000000E+00  0.10400358854E+04  0.32794826094E+04  0.31101979909E+04 0.  0.
        5    1    3    3  502    0  0.75063172618E+03 -0.74880318197E+03  0.17195468318E+04  0.20201528631E+04  0.46999998093E+01 0. -1.
       -5    1    3    3    0  502 -0.75063172618E+03  0.74880318197E+03 -0.67951094636E+03  0.12593297463E+04  0.46999998093E+01 0.  1.
</event>
<event>
 5   0  0.1843709E-06  0.2928594E+04  0.7818609E-02  0.8264420E-01
       -1   -1    0    0    0  501  0.00000000000E+00  0.00000000000E+00  0.13406593288E+04  0.13406593288E+04  0.50400001928E-02 0.  1.
        1   -1    0    0  501    0  0.00000000000E+00  0.00000000000E+00 -0.15993371325E+04  0.15993371325E+04  0.50400001928E-02 0. -1.
    10030    2    1    2    0    0  0.00000000000E+00  0.00000000000E+00 -0.25867780369E+03  0.29399964614E+04  0.29285943705E+04 0.  0.
        4    1    3    3  502    0 -0.70815598508E+03 -0.10601907351E+04 -0.85233405278E+03  0.15336115038E+04  0.12699999809E+01 0. -1.
       -4    1    3    3    0  502  0.70815598508E+03  0.10601907351E+04  0.59365624909E+03  0.14063849576E+04  0.12699999809E+01 0.  1.
</event>
<event>
 5   0  0.5001658E-06  0.3086769E+04  0.7818609E-02  0.8219378E-01
       -2   -1    0    0    0  501  0.00000000000E+00  0.00000000000E+00  0.11762190874E+04  0.11762190874E+04  0.25500000920E-02 0. -1.
        2   -1    0    0  501    0  0.00000000000E+00  0.00000000000E+00 -0.20251637476E+04  0.20251637476E+04  0.25500000920E-02 0.  1.
    10030    2    1    2    0    0  0.00000000000E+00  0.00000000000E+00 -0.84894466020E+03  0.32013828350E+04  0.30867693500E+04 0.  0.
        3    1    3    3  502    0 -0.10801980079E+04  0.11021999144E+04 -0.44425564422E+03  0.16059375689E+04  0.10100000352E+00 0.  1.
       -3    1    3    3    0  502  0.10801980079E+04 -0.11021999144E+04 -0.40468901597E+03  0.15954452662E+04  0.10100000352E+00 0. -1.
</event>
<event>
 5   0  0.5114870E-06  0.3054668E+04  0.7818609E-02  0.8228290E-01
       -2   -1    0    0    0  501  0.00000000000E+00  0.00000000000E+00  0.26973669004E+04  0.26973669004E+04  0.25500000920E-02 0.  1.
        2   -1    0    0  501    0  0.00000000000E+00  0.00000000000E+00 -0.86482432351E+03  0.86482432351E+03  0.25500000920E-02 0. -1.
    10030    2    1    2    0    0  0.00000000000E+00  0.00000000000E+00  0.18325425769E+04  0.35621912239E+04  0.30546675792E+04 0.  0.
        2    1    3    3  502    0  0.20209366309E+03 -0.82775235183E+03  0.23944436921E+04  0.25415303263E+04  0.25500000920E-02 0.  1.
       -2    1    3    3    0  502 -0.20209366309E+03  0.82775235183E+03 -0.56190111524E+03  0.10206608976E+04  0.25500000920E-02 0. -1.
</event>
<event>
 5   0  0.4900679E-06  0.3114741E+04  0.7818609E-02  0.8211704E-01
        2   -1    0    0  501    0  0.00000000000E+00  0.00000000000E+00  0.21203029807E+04  0.21203029807E+04  0.25500000920E-02 0.  1.
       -2   -1    0    0    0  501  0.00000000000E+00  0.00000000000E+00 -0.11438941653E+04  0.11438941653E+04  0.25500000920E-02 0. -1.
    10030    2    1    2    0    0  0.00000000000E+00  0.00000000000E+00  0.97640881542E+03  0.32641971460E+04  0.31147405724E+04 0.  0.
        4    1    3    3  502    0 -0.18884458687E+03 -0.36151610089E+03  0.20633361612E+04  0.21032626788E+04  0.12699999809E+01 0.  1.
       -4    1    3    3    0  502  0.18884458687E+03  0.36151610089E+03 -0.10869273458E+04  0.11609344672E+04  0.12699999809E+01 0. -1.
</event>
<event>
 5   0  0.1836401E-06  0.2931889E+04  0.7818609E-02  0.8263452E-01
       -1   -1    0    0    0  501  0.00000000000E+00  0.00000000000E+00  0.11325579608E+04  0.11325579608E+04  0.50400001928E-02 0. -1.
        1   -1    0    0  501    0  0.00000000000E+00  0.00000000000E+00 -0.18974690888E+04  0.18974690888E+04  0.50400001928E-02 0.  1.
    10030    2    1    2    0    0  0.00000000000E+00  0.00000000000E+00 -0.76491112805E+03  0.30300270496E+04  0.29318893034E+04 0.  0.
        2    1    3    3  502    0  0.13833175816E+04 -0.29474242004E+03 -0.78078260517E+03  0.16155686622E+04  0.25500000920E-02 0. -1.
       -2    1    3    3    0  502 -0.13833175816E+04  0.29474242004E+03  0.15871477121E+02  0.14144583874E+04  0.25500000920E-02 0.  1.
</event>
<event>
 5   0  0.5001658E-06  0.3084386E+04  0.7818609E-02  0.8220036E-01
       -2   -1    0    0    0  501  0.00000000000E+00  0.00000000000E+00  0.16895780581E+04  0.16895780581E+04  0.25500000920E-02 0. -1.
        2   -1    0    0  501    0  0.00000000000E+00  0.00000000000E+00 -0.14076645108E+04  0.14076645108E+04  0.25500000920E-02 0.  1.
    10030    2    1    2    0    0  0.00000000000E+00  0.00000000000E+00  0.28191354729E+03  0.30972425689E+04  0.30843858842E+04 0.  0.
        3    1    3    3  502    0  0.21309134240E+03 -0.15187988432E+04  0.30349938089E+03  0.15634160453E+04  0.10100000352E+00 0.  1.
       -3    1    3    3    0  502 -0.21309134240E+03  0.15187988432E+04 -0.21585833592E+02  0.15338265236E+04  0.10100000352E+00 0. -1.
</event>
<event>
 5   0  0.5114870E-06  0.3049477E+04  0.7818609E-02  0.8229742E-01
       -2   -1    0    0    0  501  0.00000000000E+00  0.00000000000E+00  0.19194806184E+04  0.19194806184E+04  0.25500000920E-02 0.  1.
        2   -1    0    0  501    0  0.00000000000E+00  0.00000000000E+00 -0.12111749253E+04  0.12111749253E+04  0.25500000920E-02 0. -1.
    10030    2    1    2    0    0  0.00000000000E+00  0.00000000000E+00  0.70830569315E+03  0.31306555437E+04  0.30494765417E+04 0.  0.
        2    1    3    3  502    0  0.74612871899E+03 -0.13118433625E+04  0.13114749299E+03  0.15148731756E+04  0.25500000920E-02 0. -1.
       -2    1    3    3    0  502 -0.74612871899E+03  0.13118433625E+04  0.57715820016E+03  0.16157823681E+04  0.25500000920E-02 0.  1.
</event>
<event>
 5   0  0.1840431E-06  0.3155638E+04  0.7818609E-02  0.8200632E-01
        1   -1    0    0  501    0  0.00000000000E+00  0.00000000000E+00  0.10693427651E+04  0.10693427651E+04  0.50400001928E-02 0. -1.
       -1   -1    0    0    0  501  0.00000000000E+00  0.00000000000E+00 -0.23280776546E+04  0.23280776546E+04  0.50400001928E-02 0.  1.
    10030    2    1    2    0    0  0.00000000000E+00  0.00000000000E+00 -0.12587348895E+04  0.33974204197E+04  0.31556381266E+04 0.  0.
        1    1    3    3  502    0  0.26061970894E+03  0.99150920988E+03 -0.19206372886E+04  0.21771221234E+04  0.50400001928E-02 0.  1.
       -1    1    3    3    0  502 -0.26061970894E+03 -0.99150920988E+03  0.66190239910E+03  0.12202982963E+04  0.50400001928E-02 0. -1.
</event>
<event>
 5   0  0.1853742E-06  0.2491148E+04  0.7818609E-02  0.8406146E-01
       -1   -1    0    0    0  501  0.00000000000E+00  0.00000000000E+00  0.16186119556E+04  0.16186119556E+04  0.50400001928E-02 0. -1.
        1   -1    0    0  501    0  0.00000000000E+00  0.00000000000E+00 -0.95850900029E+03  0.95850900030E+03  0.50400001928E-02 0.  1.
    10030    2    1    2    0    0  0.00000000000E+00  0.00000000000E+00  0.66010295532E+03  0.25771209559E+04  0.24911476291E+04 0.  0.
        5    1    3    3  502    0  0.11346211456E+04 -0.42362870657E+03  0.29142653504E+02  0.12114857859E+04  0.46999998093E+01 0.  1.
       -5    1    3    3    0  502 -0.11346211456E+04  0.42362870657E+03  0.63096030181E+03  0.13656351700E+04  0.46999998093E+01 0. -1.
</event>
<event>
 5   0  0.1843709E-06  0.3186636E+04  0.7818609E-02  0.8192355E-01
        1   -1    0    0  501    0  0.00000000000E+00  0.00000000000E+00  0.23573521195E+04  0.23573521195E+04  0.50400001928E-02 0.  1.
       -1   -1    0    0    0  501  0.00000000000E+00  0.00000000000E+00 -0.10769127543E+04  0.10769127543E+04  0.50400001928E-02 0. -1.
    10030    2    1    2    0    0  0.00000000000E+00  0.00000000000E+00  0.12804393652E+04  0.34342648738E+04  0.31866361975E+04 0.  0.
        4    1    3    3  502    0 -0.64103518559E+03  0.13927251423E+04  0.17287239487E+03  0.15428855787E+04  0.12699999809E+01 0. -1.
       -4    1    3    3    0  502  0.64103518559E+03 -0.13927251423E+04  0.11075669703E+04  0.18913792951E+04  0.12699999809E+01 0.  1.
</event>
<event>
 5   0  0.1885307E-06  0.3082032E+04  0.7818609E-02  0.8220686E-01
        1   -1    0    0  501    0  0.00000000000E+00  0.00000000000E+00  0.25685573783E+04  0.25685573783E+04  0.50400001928E-02 0. -1.
       -1   -1    0    0    0  501  0.00000000000E+00  0.00000000000E+00 -0.92453856536E+03  0.92453856537E+03  0.50400001928E-02 0.  1.
    10030    2    1    2    0    0  0.00000000000E+00  0.00000000000E+00  0.16440188129E+04  0.34930959437E+04  0.30820320268E+04 0.  0.
        3    1    3    3  502    0  0.10018736125E+04 -0.10891314519E+04  0.33482678751E+03  0.15172564196E+04  0.10100000352E+00 0.  1.
       -3    1    3    3    0  502 -0.10018736125E+04  0.10891314519E+04  0.13091920254E+04  0.19758395240E+04  0.10100000352E+00 0. -1.
</event>
<event>
 5   0  0.5001658E-06  0.3221214E+04  0.7818609E-02  0.8183237E-01
       -2   -1    0    0    0  501  0.00000000000E+00  0.00000000000E+00  0.95532676797E+03  0.95532676797E+03  0.25500000920E-02 0. -1.
        2   -1    0    0  501    0  0.00000000000E+00  0.00000000000E+00 -0.27153587201E+04  0.27153587201E+04  0.25500000920E-02 0.  1.
    10030    2    1    2    0    0  0.00000000000E+00  0.00000000000E+00 -0.17600319521E+04  0.36706854880E+04  0.32212139761E+04 0.  0.
        3    1    3    3  502    0 -0.11166790405E+04  0.53077447255E+03 -0.20562020855E+04  0.23993042005E+04  0.10100000352E+00 0.  1.
       -3    1    3    3    0  502  0.11166790405E+04 -0.53077447255E+03  0.29617013339E+03  0.12713812875E+04  0.10100000352E+00 0. -1.
</event>
<event>
 5   0  0.1843709E-06  0.3105055E+04  0.7818609E-02  0.8214352E-01
       -1   -1    0    0    0  501  0.00000000000E+00  0.00000000000E+00  0.28460933565E+04  0.28460933565E+04  0.50400001928E-02 0.  1.
        1   -1    0    0  501    0  0.00000000000E+00  0.00000000000E+00 -0.84689496661E+03  0.84689496662E+03  0.50400001928E-02 0. -1.
    10030    2    1    2    0    0  0.00000000000E+00  0.00000000000E+00  0.19991983899E+04  0.36929883232E+04  0.31050553220E+04 0.  0.
        4    1    3    3  502    0 -0.15288519643E+04 -0.11533608259E+03  0.12900770523E+04  0.20037442837E+04  0.12699999809E+01 0.  1.
       -4    1    3    3    0  502  0.15288519643E+04  0.11533608259E+03  0.70912133763E+03  0.16892440395E+04  0.12699999809E+01 0. -1.
</event>
<event>
 5   0  0.5328368E-06  0.3094496E+04  0.7818609E-02  0.8217250E-01
       -2   -1    0    0    0  501  0.00000000000E+00  0.00000000000E+00  0.13699020044E+04  0.13699020044E+04  0.25500000920E-02 0. -1.
        2   -1    0    0  501    0  0.00000000000E+00  0.00000000000E+00 -0.17475535107E+04  0.17475535107E+04  0.25500000920E-02 0.  1.
    10030    2    1    2    0    0  0.00000000000E+00  0.00000000000E+00 -0.37765150631E+03  0.31174555151E+04  0.30944964418E+04 0.  0.
        1    1    3    3  502    0  0.49728860972E+02 -0.13496806647E+04  0.57166988421E+03  0.14666005976E+04  0.50400001928E-02 0. -1.
       -1    1    3    3    0  502 -0.49728860972E+02  0.13496806647E+04 -0.94932139052E+03  0.16508549175E+04  0.50400001928E-02 0.  1.
</event>
<event>
 5   0  0.1836401E-06  0.3109638E+04  0.7818609E-02  0.8213098E-01
        1   -1    0    0  501    0  0.00000000000E+00  0.00000000000E+00  0.16100203622E+04  0.16100203623E+04  0.50400001928E-02 0.  1.
       -1   -1    0    0    0  501  0.00000000000E+00  0.00000000000E+00 -0.15015105054E+04  0.15015105054E+04  0.50400001928E-02 0. -1.
    10030    2    1    2    0    0  0.00000000000E+00  0.00000000000E+00  0.10850985688E+03  0.31115308676E+04  0.31096382348E+04 0.  0.
        2    1    3    3  502    0  0.30331657999E+03 -0.15181002380E+04 -0.90170051215E+02  0.15507288346E+04  0.25500000920E-02 0.  1.
       -2    1    3    3    0  502 -0.30331657999E+03  0.15181002380E+04  0.19867990809E+03  0.15608020330E+04  0.25500000920E-02 0. -1.
</event>
<event>
 5   0  0.1885307E-06  0.3132459E+04  0.7818609E-02  0.8206886E-01
        1   -1    0    0  501    0  0.00000000000E+00  0.00000000000E+00  0.16888056129E+04  0.16888056129E+04  0.50400001928E-02 0.  1.
       -1   -1    0    0    0  501  0.00000000000E+00  0.00000000000E+00 -0.14525504269E+04  0.14525504269E+04  0.50400001928E-02 0. -1.
    10030    2    1    2    0    0  0.00000000000E+00  0.00000000000E+00  0.23625518599E+03  0.31413560398E+04  0.31324592984E+04 0.  0.
        3    1    3    3  502    0 -0.94851568678E+02  0.90195777285E+03 -0.11624292860E+04  0.14743698652E+04  0.10100000352E+00 0. -1.
       -3    1    3    3    0  502  0.94851568678E+02 -0.90195777285E+03  0.13986844720E+04  0.16669861747E+04  0.10100000352E+00 0.  1.
</event>
<event>
 5   0  0.4900679E-06  0.3064408E+04  0.7818609E-02  0.8225574E-01
       -2   -1    0    0    0  501  0.00000000000E+00  0.00000000000E+00  0.14466931702E+04  0.14466931702E+04  0.25500000920E-02 0. -1.
        2   -1    0    0  501    0  0.00000000000E+00  0.00000000000E+00 -0.16227696051E+04  0.16227696051E+04  0.25500000920E-02 0.  1.
    10030    2    1    2    0    0  0.00000000000E+00  0.00000000000E+00 -0.17607643490E+03  0.30694627753E+04  0.30644083961E+04 0.  0.
        4    1    3    3  502    0 -0.11613123026E+04 -0.69759579864E+03 -0.80501344978E+03  0.15758599017E+04  0.12699999809E+01 0.  1.
       -4    1    3    3    0  502  0.11613123026E+04  0.69759579864E+03  0.62893701487E+03  0.14936028736E+04  0.12699999809E+01 0. -1.
</event>
<event>
 5   0  0.1843709E-06  0.3099137E+04  0.7818609E-02  0.8215975E-01
       -1   -1    0    0    0  501  0.00000000000E+00  0.00000000000E+00  0.15236559593E+04  0.15236559593E+04  0.50400001928E-02 0.  1.
        1   -1    0    0  501    0  0.00000000000E+00  0.00000000000E+00 -0.15759220407E+04  0.15759220407E+04  0.50400001928E-02 0. -1.
    10030    2    1    2    0    0  0.00000000000E+00  0.00000000000E+00 -0.52266081430E+02  0.30995780000E+04  0.30991373050E+04 0.  0.
        4    1    3    3  502    0 -0.72381353881E+03  0.42722314730E+03  0.12758722411E+04  0.15278341681E+04  0.12699999809E+01 0.  1.
       -4    1    3    3    0  502  0.72381353881E+03 -0.42722314730E+03 -0.13281383225E+04  0.15717438320E+04  0.12699999809E+01 0. -1.
</event>
<event>
 5   0  0.5114870E-06  0.3042720E+04  0.7818609E-02  0.8231636E-01
       -2   -1    0    0    0  501  0.00000000000E+00  0.00000000000E+00  0.19971398019E+04  0.19971398019E+04  0.25500000920E-02 0. -1.
        2   -1    0    0  501    0  0.00000000000E+00  0.00000000000E+00 -0.11589255108E+04  0.11589255108E+04  0.25500000920E-02 0.  1.
    10030    2    1    2    0    0  0.00000000000E+00  0.00000000000E+00  0.83821429110E+03  0.31560653127E+04  0.30427200101E+04 0.  0.
        2    1    3    3  502    0 -0.43755081508E+02 -0.56967013938E+03 -0.10434163502E+04  0.11896034023E+04  0.25500000920E-02 0.  1.
       -2    1    3    3    0  502  0.43755081508E+02  0.56967013938E+03  0.18816306413E+04  0.19664619104E+04  0.25500000920E-02 0. -1.
</event>
<event>
 5   0  0.1853742E-06  0.3058126E+04  0.7818609E-02  0.8227325E-01
        1   -1    0    0  501    0  0.00000000000E+00  0.00000000000E+00  0.20867056775E+04  0.20867056775E+04  0.50400001928E-02 0.  1.
       -1   -1    0    0    0  501  0.00000000000E+00  0.00000000000E+00 -0.11204425534E+04  0.11204425534E+04  0.50400001928E-02 0. -1.
    10030    2    1    2    0    0  0.00000000000E+00  0.00000000000E+00  0.96626312414E+03  0.32071482309E+04  0.30581261174E+04 0.  0.
        5    1    3    3  502    0 -0.12073932437E+04  0.65400218800E+03  0.11885881039E+04  0.18161170330E+04  0.46999998093E+01 0.  1.
       -5    1    3    3    0  502  0.12073932437E+04 -0.65400218800E+03 -0.22232497971E+03  0.13910311979E+04  0.46999998093E+01 0. -1.
</event>
<event>
 5   0  0.5001658E-06  0.2727190E+04  0.7818609E-02  0.8326236E-01
       -2   -1    0    0    0  501  0.00000000000E+00  0.00000000000E+00  0.12877683549E+04  0.12877683549E+04  0.25500000920E-02 0.  1.
        2   -1    0    0  501    0  0.00000000000E+00  0.00000000000E+00 -0.14438869501E+04  0.14438869501E+04  0.25500000920E-02 0. -1.
    10030    2    1    2    0    0  0.00000000000E+00  0.00000000000E+00 -0.15611859513E+03  0.27316553050E+04  0.27271904388E+04 0.  0.
        3    1    3    3  502    0  0.12297487438E+04  0.31241998788E+03 -0.57838051205E+03  0.13944218331E+04  0.10100000352E+00 0. -1.
       -3    1    3    3    0  502 -0.12297487438E+04 -0.31241998788E+03  0.42226191691E+03  0.13372334719E+04  0.10100000352E+00 0.  1.
</event>
<event>
 5   0  0.1836401E-06  0.3051860E+04  0.7818609E-02  0.8229075E-01
       -1   -1    0    0    0  501  0.00000000000E+00  0.00000000000E+00  0.14253655258E+04  0.14253655258E+04  0.50400001928E-02 0. -1.
        1   -1    0    0  501    0  0.00000000000E+00  0.00000000000E+00 -0.16335894290E+04  0.16335894290E+04  0.50400001928E-02 0.  1.
    10030    2    1    2    0    0  0.00000000000E+00  0.00000000000E+00 -0.20822390324E+03  0.30589549548E+04  0.30518597972E+04 0.  0.
        2    1    3    3  502    0 -0.10663067978E+03 -0.47793694170E+03  0.13444705486E+04  0.14308720691E+04  0.25500000920E-02 0. -1.
       -2    1    3    3    0  502  0.10663067978E+03  0.47793694170E+03 -0.15526944518E+04  0.16280828857E+04  0.25500000920E-02 0.  1.
</event>
<event>
 5   0  0.5114870E-06  0.2526322E+04  0.7818609E-02  0.8393668E-01
        2   -1    0    0  501    0  0.00000000000E+00  0.00000000000E+00  0.15696444833E+04  0.15696444833E+04  0.25500000920E-02 0.  1.
       -2   -1    0    0    0  501  0.00000000000E+00  0.00000000000E+00 -0.10165205982E+04  0.10165205982E+04  0.25500000920E-02 0. -1.
    10030    2    1    2    0    0  0.00000000000E+00  0.00000000000E+00  0.55312388508E+03  0.25861650815E+04  0.25263221878E+04 0.  0.
        2    1    3    3  502    0  0.86203646816E+03 -0.19194575828E+03  0.12010749205E+04  0.14908155524E+04  0.25500000920E-02 0.  1.
       -2    1    3    3    0  502 -0.86203646816E+03  0.19194575828E+03 -0.64795103543E+03  0.10953495291E+04  0.25500000920E-02 0. -1.
</event>
<event>
 5   0  0.5328368E-06  0.3112512E+04  0.7818609E-02  0.8212313E-01
       -2   -1    0    0    0  501  0.00000000000E+00  0.00000000000E+00  0.16168763772E+04  0.16168763772E+04  0.25500000920E-02 0. -1.
        2   -1    0    0  501    0  0.00000000000E+00  0.00000000000E+00 -0.14979080076E+04  0.14979080076E+04  0.25500000920E-02 0.  1.
    10030    2    1    2    0    0  0.00000000000E+00  0.00000000000E+00  0.11896836959E+03  0.31147843848E+04  0.31125115728E+04 0.  0.
        1    1    3    3  502    0 -0.10013043194E+04  0.15873122655E+03  0.12410775606E+04  0.16025228403E+04  0.50400001928E-02 0. -1.
       -1    1    3    3    0  502  0.10013043194E+04 -0.15873122655E+03 -0.11221091910E+04  0.15122615445E+04  0.50400001928E-02 0.  1.
</event>
<event>
 5   0  0.1885307E-06  0.3086785E+04  0.7818609E-02  0.8219374E-01
       -1   -1    0    0    0  501  0.00000000000E+00  0.00000000000E+00  0.13324371144E+04  0.13324371144E+04  0.50400001928E-02 0.  1.
        1   -1    0    0  501    0  0.00000000000E+00  0.00000000000E+00 -0.17877465288E+04  0.17877465288E+04  0.50400001928E-02 0. -1.
    10030    2    1    2    0    0  0.00000000000E+00  0.00000000000E+00 -0.45530941438E+03  0.31201836431E+04  0.30867846222E+04 0.  0.
        3    1    3    3  502    0  0.59403569153E+03  0.17656622169E+02 -0.16674505037E+04  0.17701924618E+04  0.10100000352E+00 0. -1.
       -3    1    3    3    0  502 -0.59403569153E+03 -0.17656622169E+02  0.12121410893E+04  0.13499911814E+04  0.10100000352E+00 0.  1.
</event>
<event>
 5   0  0.1843709E-06  0.3116832E+04  0.7818609E-02  0.8211134E-01
       -1   -1    0    0    0  501  0.00000000000E+00  0.00000000000E+00  0.12863801389E+04  0.12863801389E+04  0.50400001928E-02 0.  1.
        1   -1    0    0  501    0  0.00000000000E+00  0.00000000000E+00 -0.18879800226E+04  0.18879800226E+04  0.50400001928E-02 0. -1.
    10030    2    1    2    0    0  0.00000000000E+00  0.00000000000E+00 -0.60159988370E+03  0.31743601615E+04  0.31168317271E+04 0.  0.
        4    1    3    3  502    0 -0.11215032230E+04 -0.10332297578E+04  0.26575371884E+02  0.15251364119E+04  0.12699999809E+01 0.  1.
       -4    1    3    3    0  502  0.11215032230E+04  0.10332297578E+04 -0.62817525559E+03  0.16492237496E+04  0.12699999809E+01 0. -1.
</event>
<event>
 5   0  0.5114870E-06  0.3099381E+04  0.7818609E-02  0.8215908E-01
        2   -1    0    0  501    0  0.00000000000E+00  0.00000000000E+00  0.15247189077E+04  0.15247189077E+04  0.25500000920E-02 0. -1.
       -2   -1    0    0    0  501  0.00000000000E+00  0.00000000000E+00 -0.15750710718E+04  0.15750710718E+04  0.25500000920E-02 0.  1.
    10030    2    1    2    0    0  0.00000000000E+00  0.00000000000E+00 -0.50352164080E+02  0.30997899795E+04  0.30993809989E+04 0.  0.
        2    1    3    3  502    0 -0.66781662007E+03 -0.66117359592E+03  0.12072247595E+04  0.15298761982E+04  0.25500000920E-02 0. -1.
       -2    1    3    3    0  502  0.66781662007E+03  0.66117359592E+03 -0.12575769235E+04  0.15699137813E+04  0.25500000920E-02 0.  1.
</event>
<event>
 5   0  0.4900679E-06  0.3071171E+04  0.7818609E-02  0.8223695E-01
        2   -1    0    0  501    0  0.00000000000E+00  0.00000000000E+00  0.16080362764E+04  0.16080362764E+04  0.25500000920E-02 0. -1.
       -2   -1    0    0    0  501  0.00000000000E+00  0.00000000000E+00 -0.14663992455E+04  0.14663992455E+04  0.25500000920E-02 0.  1.
    10030    2    1    2    0    0  0.00000000000E+00  0.00000000000E+00  0.14163703092E+03  0.30744355220E+04  0.30711712310E+04 0.  0.
        4    1    3    3  502    0  0.56308434150E+03  0.59351726819E+03  0.13716976486E+04  0.15971483260E+04  0.12699999809E+01 0. -1.
       -4    1    3    3    0  502 -0.56308434150E+03 -0.59351726819E+03 -0.12300606177E+04  0.14772871959E+04  0.12699999809E+01 0.  1.
</event>
<event>
 5   0  0.5001658E-06  0.3042761E+04  0.7818609E-02  0.8231625E-01
        2   -1    0    0  501    0  0.00000000000E+00  0.00000000000E+00  0.25554483534E+04  0.25554483534E+04  0.25500000920E-02 0. -1.
       -2   -1    0    0    0  501  0.00000000000E+00  0.00000000000E+00 -0.90575062579E+03  0.90575062580E+03  0.25500000920E-02 0.  1.
    10030    2    1    2    0    0  0.00000000000E+00  0.00000000000E+00  0.16496977276E+04  0.34611989792E+04  0.30427612100E+04 0.  0.
        3    1    3    3  502    0 -0.36454444422E+03  0.14770515432E+04  0.83053895606E+03  0.17333115360E+04  0.10100000352E+00 0.  1.
       -3    1    3    3    0  502  0.36454444422E+03 -0.14770515432E+04  0.81915877154E+03  0.17278874432E+04  0.10100000352E+00 0. -1.
</event>
<event>
 5   0  0.4927533E-06  0.3061697E+04  0.7818609E-02  0.8226329E-01
       -2   -1    0    0    0  501  0.00000000000E+00  0.00000000000E+00  0.26084006418E+04  0.26084006418E+04  0.25500000920E-02 0.  1.
        2   -1    0    0  501    0  0.00000000000E+00  0.00000000000E+00 -0.89844212469E+03  0.89844212469E+03  0.25500000920E-02 0. -1.
    10030    2    1    2    0    0  0.00000000000E+00  0.00000000000E+00  0.17099585171E+04  0.35068427665E+04  0.30616969247E+04 0.  0.
        5    1    3    3  502    0 -0.14434897137E+04 -0.41284855519E+03  0.11973890605E+04  0.19203825492E+04  0.46999998093E+01 0.  1.
       -5    1    3    3    0  502  0.14434897137E+04  0.41284855519E+03  0.51256945663E+03  0.15864602173E+04  0.46999998093E+01 0. -1.
</event>
<event>
 5   0  0.1843709E-06  0.3050674E+04  0.7818609E-02  0.8229407E-01
       -1   -1    0    0    0  501  0.00000000000E+00  0.00000000000E+00  0.17371291190E+04  0.17371291190E+04  0.50400001928E-02 0. -1.
        1   -1    0    0  501    0  0.00000000000E+00  0.00000000000E+00 -0.13393665805E+04  0.13393665805E+04  0.50400001928E-02 0.  1.
    10030    2    1    2    0    0  0.00000000000E+00  0.00000000000E+00  0.39776253850E+03  0.30764956994E+04  0.30506738193E+04 0.  0.
        4    1    3    3  502    0  0.12521516742E+04  0.27346320467E+03 -0.63515294937E+03  0.14304149124E+04  0.12699999809E+01 0.  1.
       -4    1    3    3    0  502 -0.12521516742E+04 -0.27346320467E+03  0.10329154879E+04  0.16460807871E+04  0.12699999809E+01 0. -1.
</event>
<event>
 5   0  0.1853742E-06  0.3089152E+04  0.7818609E-02  0.8218721E-01
        1   -1    0    0  501    0  0.00000000000E+00  0.00000000000E+00  0.21720469488E+04  0.21720469489E+04  0.50400001928E-02 0. -1.
       -1   -1    0    0    0  501  0.00000000000E+00  0.00000000000E+00 -0.10983718443E+04  0.10983718443E+04  0.50400001928E-02 0.  1.
    10030    2    1    2    0    0  0.00000000000E+00  0.00000000000E+00  0.10736751046E+04  0.32704187931E+04  0.30891521252E+04 0.  0.
        5    1    3    3  502    0 -0.14111142899E+04 -0.15093616809E+03  0.11822562993E+04  0.18470997031E+04  0.46999998093E+01 0. -1.
       -5    1    3    3    0  502  0.14111142899E+04  0.15093616809E+03 -0.10858119474E+03  0.14233190900E+04  0.46999998093E+01 0.  1.
</event>
<event>
 5   0  0.1840431E-06  0.3092013E+04  0.7818609E-02  0.8217933E-01
        1   -1    0    0  501    0  0.00000000000E+00  0.00000000000E+00  0.28028777315E+04  0.28028777315E+04  0.50400001928E-02 0.  1.
       -1   -1    0    0    0  501  0.00000000000E+00  0.00000000000E+00 -0.85274336687E+03  0.85274336688E+03  0.50400001928E-02 0. -1.
    10030    2    1    2    0    0  0.00000000000E+00  0.00000000000E+00  0.19501343646E+04  0.36556210984E+04  0.30920125444E+04 0.  0.
        1    1    3    3  502    0  0.47061698933E+03  0.82484089074E+03  0.24173953384E+04  0.25972375840E+04  0.50400001928E-02 0.  1.
       -1    1    3    3    0  502 -0.47061698933E+03 -0.82484089074E+03 -0.46726097383E+03  0.10583835143E+04  0.50400001928E-02 0. -1.
</event>
<event>
 5   0  0.4900679E-06  0.3165424E+04  0.7818609E-02  0.8198009E-01
       -2   -1    0    0    0  501  0.00000000000E+00  0.00000000000E+00  0.26865913266E+04  0.26865913266E+04  0.25500000920E-02 0. -1.
        2   -1    0    0  501    0  0.00000000000E+00  0.00000000000E+00 -0.93239956181E+03  0.93239956181E+03  0.25500000920E-02 0.  1.
    10030    2    1    2    0    0  0.00000000000E+00  0.00000000000E+00  0.17541917648E+04  0.36189908884E+04  0.31654235582E+04 0.  0.
        4    1    3    3  502    0  0.14986443746E+04  0.15234004627E+03  0.14323061607E+04  0.20786161267E+04  0.12699999809E+01 0. -1.
       -4    1    3    3    0  502 -0.14986443746E+04 -0.15234004627E+03  0.32188560406E+03  0.15403747617E+04  0.12699999809E+01 0.  1.
</event>
<event>
 5   0  0.4900679E-06  0.2299787E+04  0.7818609E-02  0.8478005E-01
        2   -1    0    0  501    0  0.00000000000E+00  0.00000000000E+00  0.13893168909E+04  0.13893168909E+04  0.25500000920E-02 0.  1.
       -2   -1    0    0    0  501  0.00000000000E+00  0.00000000000E+00 -0.95173024676E+03  0.95173024676E+03  0.25500000920E-02 0. -1.
    10030    2    1    2    0    0  0.00000000000E+00  0.00000000000E+00  0.43758664417E+03  0.23410471377E+04  0.22997868662E+04 0.  0.
        4    1    3    3  502    0  0.68397652636E+03  0.25819877766E+03  0.11222769820E+04  0.13394020064E+04  0.12699999809E+01 0.  1.
       -4    1    3    3    0  502 -0.68397652636E+03 -0.25819877766E+03 -0.68469033787E+03  0.10016451313E+04  0.12699999809E+01 0. -1.
</event>
<event>
 5   0  0.5114870E-06  0.3102508E+04  0.7818609E-02  0.8215050E-01
        2   -1    0    0  501    0  0.00000000000E+00  0.00000000000E+00  0.14031389589E+04  0.14031389589E+04  0.25500000920E-02 0.  1.
       -2   -1    0    0    0  501  0.00000000000E+00  0.00000000000E+00 -0.17150041496E+04  0.17150041496E+04  0.25500000920E-02 0. -1.
    10030    2    1    2    0    0  0.00000000000E+00  0.00000000000E+00 -0.31186519070E+03  0.31181431085E+04  0.31025081061E+04 0.  0.
        2    1    3    3  502    0  0.68669307199E+03  0.12776322364E+04  0.39683694910E+03  0.15037855801E+04  0.25500000920E-02 0.  1.
       -2    1    3    3    0  502 -0.68669307199E+03 -0.12776322364E+04 -0.70870213979E+03  0.16143575284E+04  0.25500000920E-02 0. -1.
</event>
<event>
 5   0  0.1836401E-06  0.3133515E+04  0.7818609E-02  0.8206600E-01
        1   -1    0    0  501    0  0.00000000000E+00  0.00000000000E+00  0.20970511798E+04  0.20970511798E+04  0.50400001928E-02 0. -1.
       -1   -1    0    0    0  501  0.00000000000E+00  0.00000000000E+00 -0.11705619706E+04  0.11705619707E+04  0.50400001928E-02 0.  1.
    10030    2    1    2    0    0  0.00000000000E+00  0.00000000000E+00  0.92648920917E+03  0.32676131505E+04  0.31335145518E+04 0.  0.
        2    1    3    3  502    0 -0.58053999945E+03  0.12237771999E+04  0.12843892060E+04  0.18666314469E+04  0.25500000920E-02 0.  1.
       -2    1    3    3    0  502  0.58053999945E+03 -0.12237771999E+04 -0.35789999685E+03  0.14009817036E+04  0.25500000920E-02 0. -1.
</event>
<event>
 5   0  0.1885307E-06  0.2936369E+04  0.7818609E-02  0.8262138E-01
       -1   -1    0    0    0  501  0.00000000000E+00  0.00000000000E+00  0.11703614067E+04  0.11703614067E+04  0.50400001928E-02 0.  1.
        1   -1    0    0  501    0  0.00000000000E+00  0.00000000000E+00 -0.18417947055E+04  0.18417947055E+04  0.50400001928E-02 0. -1.
    10030    2    1    2    0    0  0.00000000000E+00  0.00000000000E+00 -0.67143329873E+03  0.30121561122E+04  0.29363688068E+04 0.  0.
        3    1    3    3  502    0  0.32306709432E+03  0.14043884215E+04 -0.47600554297E+02  0.14418547115E+04  0.10100000352E+00 0. -1.
       -3    1    3    3    0  502 -0.32306709432E+03 -0.14043884215E+04 -0.62383274444E+03  0.15703014008E+04  0.10100000352E+00 0.  1.
</event>
<event>
 5   0  0.4927533E-06  0.3073646E+04  0.7818609E-02  0.8223008E-01
        2   -1    0    0  501    0  0.00000000000E+00  0.00000000000E+00  0.26416669838E+04  0.26416669838E+04  0.25500000920E-02 0. -1.
       -2   -1    0    0    0  501  0.00000000000E+00  0.00000000000E+00 -0.89406612849E+03  0.89406612849E+03  0.25500000920E-02 0.  1.
    10030    2    1    2    0    0  0.00000000000E+00  0.00000000000E+00  0.17476008553E+04  0.35357331123E+04  0.30736460258E+04 0.  0.
        5    1    3    3  502    0 -0.37217096711E+03 -0.12385682831E+04  0.18288170802E+04  0.22399010298E+04  0.46999998093E+01 0.  1.
       -5    1    3    3    0  502  0.37217096711E+03  0.12385682831E+04 -0.81216224926E+02  0.12958320824E+04  0.46999998093E+01 0. -1.
</event>
<event>
 5   0  0.5328368E-06  0.3111696E+04  0.7818609E-02  0.8212535E-01
        2   -1    0    0  501    0  0.00000000000E+00  0.00000000000E+00  0.22182894256E+04  0.22182894256E+04  0.25500000920E-02 0.  1.
       -2   -1    0    0    0  501  0.00000000000E+00  0.00000000000E+00 -0.10912294372E+04  0.10912294372E+04  0.25500000920E-02 0. -1.
    10030    2    1    2    0    0  0.00000000000E+00  0.00000000000E+00  0.11270599883E+04  0.33095188628E+04  0.31116958216E+04 0.  0.
        1    1    3    3  502    0 -0.11825371692E+04 -0.15513167266E+03  0.16261478283E+04  0.20166350071E+04  0.50400001928E-02 0.  1.
       -1    1    3    3    0  502  0.11825371692E+04  0.15513167266E+03 -0.49908784000E+03  0.12928838557E+04  0.50400001928E-02 0. -1.
</event>
<event>
 5   0  0.1843709E-06  0.3072569E+04  0.7818609E-02  0.8223307E-01
       -1   -1    0    0    0  501  0.00000000000E+00  0.00000000000E+00  0.12438026813E+04  0.12438026814E+04  0.50400001928E-02 0. -1.
        1   -1    0    0  501    0  0.00000000000E+00  0.00000000000E+00 -0.18975440584E+04  0.18975440584E+04  0.50400001928E-02 0.  1.
    10030    2    1    2    0    0  0.00000000000E+00  0.00000000000E+00 -0.65374137708E+03  0.31413467398E+04  0.30725692102E+04 0.  0.
        4    1    3    3  502    0  0.65775528404E+03  0.10300759079E+04  0.62480957724E+03  0.13726204903E+04  0.12699999809E+01 0. -1.
       -4    1    3    3    0  502 -0.65775528404E+03 -0.10300759079E+04 -0.12785509543E+04  0.17687262495E+04  0.12699999809E+01 0.  1.
</event>
<event>
 5   0  0.1843709E-06  0.3098277E+04  0.7818609E-02  0.8216211E-01
       -1   -1    0    0    0  501  0.00000000000E+00  0.00000000000E+00  0.16510227649E+04  0.16510227649E+04  0.50400001928E-02 0. -1.
        1   -1    0    0  501    0  0.00000000000E+00  0.00000000000E+00 -0.14535411673E+04  0.14535411673E+04  0.50400001928E-02 0.  1.
    10030    2    1    2    0    0  0.00000000000E+00  0.00000000000E+00  0.19748159760E+03  0.31045639323E+04  0.30982766546E+04 0.  0.
        4    1    3    3  502    0 -0.30640374198E+03 -0.14812398078E+04 -0.23641264155E+03  0.15309628249E+04  0.12699999809E+01 0.  1.
       -4    1    3    3    0  502  0.30640374198E+03  0.14812398078E+04  0.43389423915E+03  0.15736011073E+04  0.12699999809E+01 0. -1.
</event>
<event>
 5   0  0.1853742E-06  0.3145258E+04  0.7818609E-02  0.8203426E-01
       -1   -1    0    0    0  501  0.00000000000E+00  0.00000000000E+00  0.19833196712E+04  0.19833196712E+04  0.50400001928E-02 0.  1.
        1   -1    0    0  501    0  0.00000000000E+00  0.00000000000E+00 -0.12469810704E+04  0.12469810704E+04  0.50400001928E-02 0. -1.
    10030    2    1    2    0    0  0.00000000000E+00  0.00000000000E+00  0.73633860086E+03  0.32303007416E+04  0.31452580730E+04 0.  0.
        5    1    3    3  502    0 -0.19267182215E+03 -0.37046588860E+03 -0.11889958532E+04  0.12601986489E+04  0.46999998093E+01 0. -1.
       -5    1    3    3    0  502  0.19267182215E+03  0.37046588860E+03  0.19253344541E+04  0.19701020927E+04  0.46999998093E+01 0.  1.
</event>
<event>
 5   0  0.4900679E-06  0.3067656E+04  0.7818609E-02  0.8224671E-01
       -2   -1    0    0    0  501  0.00000000000E+00  0.00000000000E+00  0.85858580523E+03  0.85858580524E+03  0.25500000920E-02 0.  1.
        2   -1    0    0  501    0  0.00000000000E+00  0.00000000000E+00 -0.27401208852E+04  0.27401208852E+04  0.25500000920E-02 0. -1.
    10030    2    1    2    0    0  0.00000000000E+00  0.00000000000E+00 -0.18815350800E+04  0.35987066904E+04  0.30676563671E+04 0.  0.
        4    1    3    3  502    0  0.34675141059E+03 -0.70834331531E+03  0.60250693175E+03  0.99247317788E+03  0.12699999809E+01 0.  1.
       -4    1    3    3    0  502 -0.34675141059E+03  0.70834331531E+03 -0.24840420117E+04  0.26062335126E+04  0.12699999809E+01 0. -1.
</event>
<event>
 5   0  0.1649875E-06  0.3193777E+04  0.7818609E-02  0.8190462E-01
       -3   -1    0    0    0  501  0.00000000000E+00  0.00000000000E+00  0.20937675998E+04  0.20937676023E+04  0.10100000352E+00 0.  1.
        3   -1    0    0  501    0  0.00000000000E+00  0.00000000000E+00 -0.12179258130E+04  0.12179258172E+04  0.10100000352E+00 0. -1.
    10030    2    1    2    0    0  0.00000000000E+00  0.00000000000E+00  0.87584178678E+03  0.33116934195E+04  0.31937774608E+04 0.  0.
        2    1    3    3  502    0  0.39929801114E+03 -0.26805574057E+03 -0.11410475543E+04  0.12382577692E+04  0.25500000920E-02 0. -1.
       -2    1    3    3    0  502 -0.39929801114E+03  0.26805574057E+03  0.20168893411E+04  0.20734356503E+04  0.25500000920E-02 0.  1.
</event>
<event>
 5   0  0.5001658E-06  0.3061674E+04  0.7818609E-02  0.8226336E-01
       -2   -1    0    0    0  501  0.00000000000E+00  0.00000000000E+00  0.11788625845E+04  0.11788625846E+04  0.25500000920E-02 0. -1.
        2   -1    0    0  501    0  0.00000000000E+00  0.00000000000E+00 -0.19879006953E+04  0.19879006953E+04  0.25500000920E-02 0.  1.
    10030    2    1    2    0    0  0.00000000000E+00  0.00000000000E+00 -0.80903811077E+03  0.31667632799E+04  0.30616738896E+04 0.  0.
        3    1    3    3  502    0 -0.31486072155E+03  0.28835929692E+03 -0.19250717496E+04  0.19718492866E+04  0.10100000352E+00 0.  1.
       -3    1    3    3    0  502  0.31486072155E+03 -0.28835929692E+03  0.11160336388E+04  0.11949139932E+04  0.10100000352E+00 0. -1.
</event>
<event>
 5   0  0.5001658E-06  0.2662626E+04  0.7818609E-02  0.8347234E-01
        2   -1    0    0  501    0  0.00000000000E+00  0.00000000000E+00  0.18059789650E+04  0.18059789650E+04  0.25500000920E-02 0. -1.
       -2   -1    0    0    0  501  0.00000000000E+00  0.00000000000E+00 -0.98140373994E+03  0.98140373994E+03  0.25500000920E-02 0.  1.
    10030    2    1    2    0    0  0.00000000000E+00  0.00000000000E+00  0.82457522503E+03  0.27873827049E+04  0.26626261551E+04 0.  0.
        3    1    3    3  502    0 -0.10601275790E+04 -0.67480886459E+03  0.87237639789E+03  0.15297967438E+04  0.10100000352E+00 0. -1.
       -3    1    3    3    0  502  0.10601275790E+04  0.67480886459E+03 -0.47801172857E+02  0.12575859612E+04  0.10100000352E+00 0.  1.
</event>
<event>
 5   0  0.1853742E-06  0.3226137E+04  0.7818609E-02  0.8181948E-01
       -1   -1    0    0    0  501  0.00000000000E+00  0.00000000000E+00  0.17242909463E+04  0.17242909464E+04  0.50400001928E-02 0. -1.
        1   -1    0    0  501    0  0.00000000000E+00  0.00000000000E+00 -0.15090201169E+04  0.15090201169E+04  0.50400001928E-02 0.  1.
    10030    2    1    2    0    0  0.00000000000E+00  0.00000000000E+00  0.21527082947E+03  0.32333110632E+04  0.32261368386E+04 0.  0.
        5    1    3    3  502    0 -0.53360167587E+03  0.99030299126E+03  0.12662931790E+04  0.16937978829E+04  0.46999998093E+01 0. -1.
       -5    1    3    3    0  502  0.53360167587E+03 -0.99030299126E+03 -0.10510223496E+04  0.15395131803E+04  0.46999998093E+01 0.  1.
</event>
<event>
 5   0  0.5001658E-06  0.2884791E+04  0.7818609E-02  0.8277417E-01
       -2   -1    0    0    0  501  0.00000000000E+00  0.00000000000E+00  0.12470659048E+04  0.12470659049E+04  0.25500000920E-02 0.  1.
        2   -1    0    0  501    0  0.00000000000E+00  0.00000000000E+00 -0.16683194274E+04  0.16683194274E+04  0.25500000920E-02 0. -1.
    10030    2    1    2    0    0  0.00000000000E+00  0.00000000000E+00 -0.42125352254E+03  0.29153853322E+04  0.28847906519E+04 0.  0.
        3    1    3    3  502    0 -0.75344993529E+02  0.51384978345E+03  0.11492990046E+04  0.12611925627E+04  0.10100000352E+00 0.  1.
       -3    1    3    3    0  502  0.75344993529E+02 -0.51384978345E+03 -0.15705525272E+04  0.16541927695E+04  0.10100000352E+00 0. -1.
</event>
<event>
 5   0  0.5114870E-06  0.3086279E+04  0.7818609E-02  0.8219514E-01
       -2   -1    0    0    0  501  0.00000000000E+00  0.00000000000E+00  0.13924595108E+04  0.13924595108E+04  0.25500000920E-02 0.  1.
        2   -1    0    0  501    0  0.00000000000E+00  0.00000000000E+00 -0.17101251870E+04  0.17101251870E+04  0.25500000920E-02 0. -1.
    10030    2    1    2    0    0  0.00000000000E+00  0.00000000000E+00 -0.31766567616E+03  0.31025846978E+04  0.30862793661E+04 0.  0.
        2    1    3    3  502    0 -0.10814064799E+04 -0.22425681119E+02  0.94758950502E+03  0.14380086078E+04  0.25500000920E-02 0.  1.
       -2    1    3    3    0  502  0.10814064799E+04  0.22425681119E+02 -0.12652551812E+04  0.16645760900E+04  0.25500000920E-02 0. -1.
</event>
<event>
 5   0  0.5328368E-06  0.3134147E+04  0.7818609E-02  0.8206429E-01
       -2   -1    0    0    0  501  0.00000000000E+00  0.00000000000E+00  0.11819055220E+04  0.11819055220E+04  0.25500000920E-02 0. -1.
        2   -1    0    0  501    0  0.00000000000E+00  0.00000000000E+00 -0.20777627057E+04  0.20777627057E+04  0.25500000920E-02 0.  1.
    10030    2    1    2    0    0  0.00000000000E+00  0.00000000000E+00 -0.89585718371E+03  0.32596682277E+04  0.31341469112E+04 0.  0.
        1    1    3    3  502    0 -0.15303127074E+04  0.33518704958E+03 -0.40748852056E+03  0.16187199372E+04  0.50400001928E-02 0.  1.
       -1    1    3    3    0  502  0.15303127074E+04 -0.33518704958E+03 -0.48836866315E+03  0.16409482905E+04  0.50400001928E-02 0. -1.
</event>
<event>
 5   0  0.1840431E-06  0.3207569E+04  0.7818609E-02  0.8186821E-01
       -1   -1    0    0    0  501  0.00000000000E+00  0.00000000000E+00  0.97293444861E+03  0.97293444862E+03  0.50400001928E-02 0. -1.
        1   -1    0    0  501    0  0.00000000000E+00  0.00000000000E+00 -0.26436775771E+04  0.26436775771E+04  0.50400001928E-02 0.  1.
    10030    2    1    2    0    0  0.00000000000E+00  0.00000000000E+00 -0.16707431285E+04  0.36166120258E+04  0.32075691642E+04 0.  0.
        1    1    3    3  502    0 -0.13538806381E+04 -0.34268890707E+03 -0.17243988887E+04  0.22190042804E+04  0.50400001928E-02 0.  1.
       -1    1    3    3    0  502  0.13538806381E+04  0.34268890707E+03  0.53655760167E+02  0.13976077453E+04  0.50400001928E-02 0. -1.
</event>
<event>
 5   0  0.4900679E-06  0.2642658E+04  0.7818609E-02  0.8353854E-01
        2   -1    0    0  501    0  0.00000000000E+00  0.00000000000E+00  0.17398216112E+04  0.17398216112E+04  0.25500000920E-02 0. -1.
       -2   -1    0    0    0  501  0.00000000000E+00  0.00000000000E+00 -0.10034998351E+04  0.10034998351E+04  0.25500000920E-02 0.  1.
    10030    2    1    2    0    0  0.00000000000E+00  0.00000000000E+00  0.73632177616E+03  0.27433214463E+04  0.26426582828E+04 0.  0.
        4    1    3    3  502    0 -0.49446814509E+03  0.22939522578E+03  0.16176662824E+04  0.17070344842E+04  0.12699999809E+01 0. -1.
       -4    1    3    3    0  502  0.49446814509E+03 -0.22939522578E+03 -0.88134450629E+03  0.10362869621E+04  0.12699999809E+01 0.  1.
</event>
<event>
 5   0  0.4900679E-06  0.3101853E+04  0.7818609E-02  0.8215230E-01
        2   -1    0    0  501    0  0.00000000000E+00  0.00000000000E+00  0.14511591143E+04  0.14511591143E+04  0.25500000920E-02 0.  1.
       -2   -1    0    0    0  501  0.00000000000E+00  0.00000000000E+00 -0.16575529979E+04  0.16575529979E+04  0.25500000920E-02 0. -1.
    10030    2    1    2    0    0  0.00000000000E+00  0.00000000000E+00 -0.20639388362E+03  0.31087121122E+04  0.31018530851E+04 0.  0.
        4    1    3    3  502    0 -0.28279859449E+03 -0.50201283076E+03  0.13399105845E+04  0.14585451363E+04  0.12699999809E+01 0.  1.
       -4    1    3    3    0  502  0.28279859449E+03  0.50201283076E+03 -0.15463044681E+04  0.16501669759E+04  0.12699999809E+01 0. -1.
</event>
<event>
 5   0  0.4927533E-06  0.3093922E+04  0.7818609E-02  0.8217408E-01
        2   -1    0    0  501    0  0.00000000000E+00  0.00000000000E+00  0.23072081416E+04  0.23072081416E+04  0.25500000920E-02 0. -1.
       -2   -1    0    0    0  501  0.00000000000E+00  0.00000000000E+00 -0.10372225477E+04  0.10372225477E+04  0.25500000920E-02 0.  1.
    10030    2    1    2    0    0  0.00000000000E+00  0.00000000000E+00  0.12699855939E+04  0.33444306894E+04  0.30939219814E+04 0.  0.
        5    1    3    3  502    0  0.57292950705E+03 -0.99133095996E+03  0.17594494349E+04  0.20992069208E+04  0.46999998093E+01 0. -1.
       -5    1    3    3    0  502 -0.57292950705E+03  0.99133095996E+03 -0.48946384098E+03  0.12452237686E+04  0.46999998093E+01 0.  1.
</event>
<event>
 5   0  0.1843709E-06  0.3111553E+04  0.7818609E-02  0.8212574E-01
       -1   -1    0    0    0  501  0.00000000000E+00  0.00000000000E+00  0.76513134166E+03  0.76513134168E+03  0.50400001928E-02 0.  1.
        1   -1    0    0  501    0  0.00000000000E+00  0.00000000000E+00 -0.31634311773E+04  0.31634311773E+04  0.50400001928E-02 0. -1.
    10030    2    1    2    0    0  0.00000000000E+00  0.00000000000E+00 -0.23982998357E+04  0.39285625190E+04  0.31115528863E+04 0.  0.
        4    1    3    3  502    0 -0.72890523374E+03  0.13208741149E+04 -0.16789732585E+04  0.22572027119E+04  0.12699999809E+01 0. -1.
       -4    1    3    3    0  502  0.72890523374E+03 -0.13208741149E+04 -0.71932657719E+03  0.16713598071E+04  0.12699999809E+01 0.  1.
</event>
<event>
 5   0  0.1836401E-06  0.3097752E+04  0.7818609E-02  0.8216355E-01
        1   -1    0    0  501    0  0.00000000000E+00  0.00000000000E+00  0.90372149070E+03  0.90372149072E+03  0.50400001928E-02 0. -1.
       -1   -1    0    0    0  501  0.00000000000E+00  0.00000000000E+00 -0.26545982330E+04  0.26545982331E+04  0.50400001928E-02 0.  1.
    10030    2    1    2    0    0  0.00000000000E+00  0.00000000000E+00 -0.17508767423E+04  0.35583197238E+04  0.30977523932E+04 0.  0.
        2    1    3    3  502    0 -0.77498164370E+01 -0.44246410069E+03 -0.25804350840E+04  0.26181061405E+04  0.25500000920E-02 0.  1.
       -2    1    3    3    0  502  0.77498164370E+01  0.44246410069E+03  0.82955834164E+03  0.94021358331E+03  0.25500000920E-02 0. -1.
</event>
<event>
 5   0  0.5001658E-06  0.2994856E+04  0.7818609E-02  0.8245201E-01
       -2   -1    0    0    0  501  0.00000000000E+00  0.00000000000E+00  0.12971532057E+04  0.12971532057E+04  0.25500000920E-02 0.  1.
        2   -1    0    0  501    0  0.00000000000E+00  0.00000000000E+00 -0.17286246702E+04  0.17286246702E+04  0.25500000920E-02 0. -1.
    10030    2    1    2    0    0  0.00000000000E+00  0.00000000000E+00 -0.43147146451E+03  0.30257778759E+04  0.29948562786E+04 0.  0.
        3    1    3    3  502    0  0.74657188717E+03 -0.40224708859E+03  0.10311536741E+04  0.13350843467E+04  0.10100000352E+00 0.  1.
       -3    1    3    3    0  502 -0.74657188717E+03  0.40224708859E+03 -0.14626251387E+04  0.16906935291E+04  0.10100000352E+00 0. -1.
</event>
<event>
 5   0  0.4900679E-06  0.3100398E+04  0.7818609E-02  0.8215629E-01
        2   -1    0    0  501    0  0.00000000000E+00  0.00000000000E+00  0.16568105887E+04  0.16568105887E+04  0.25500000920E-02 0. -1.
       -2   -1    0    0    0  501  0.00000000000E+00  0.00000000000E+00 -0.14504474458E+04  0.14504474458E+04  0.25500000920E-02 0.  1.
    10030    2    1    2    0    0  0.00000000000E+00  0.00000000000E+00  0.20636314289E+03  0.31072580345E+04  0.31003978368E+04 0.  0.
        4    1    3    3  502    0 -0.41915921560E+03  0.12510715596E+04  0.91876386505E+03  0.16077944981E+04  0.12699999809E+01 0. -1.
       -4    1    3    3    0  502  0.41915921560E+03 -0.12510715596E+04 -0.71240072216E+03  0.14994635365E+04  0.12699999809E+01 0.  1.
</event>
<event>
 5   0  0.4900679E-06  0.3096195E+04  0.7818609E-02  0.8216783E-01
       -2   -1    0    0    0  501  0.00000000000E+00  0.00000000000E+00  0.14932548950E+04  0.14932548950E+04  0.25500000920E-02 0. -1.
        2   -1    0    0  501    0  0.00000000000E+00  0.00000000000E+00 -0.16049544598E+04  0.16049544598E+04  0.25500000920E-02 0.  1.
    10030    2    1    2    0    0  0.00000000000E+00  0.00000000000E+00 -0.11169956475E+03  0.30982093548E+04  0.30961951510E+04 0.  0.
        4    1    3    3  502    0 -0.71045679253E+03  0.83137319345E+03 -0.11523154384E+04  0.15886354910E+04  0.12699999809E+01 0.  1.
       -4    1    3    3    0  502  0.71045679253E+03 -0.83137319345E+03  0.10406158736E+04  0.15095738638E+04  0.12699999809E+01 0. -1.
</event>
<event>
 5   0  0.1885307E-06  0.3131152E+04  0.7818609E-02  0.8207240E-01
       -1   -1    0    0    0  501  0.00000000000E+00  0.00000000000E+00  0.10745078617E+04  0.10745078617E+04  0.50400001928E-02 0.  1.
        1   -1    0    0  501    0  0.00000000000E+00  0.00000000000E+00 -0.22810702147E+04  0.22810702147E+04  0.50400001928E-02 0. -1.
    10030    2    1    2    0    0  0.00000000000E+00  0.00000000000E+00 -0.12065623530E+04  0.33555780764E+04  0.31311517873E+04 0.  0.
        3    1    3    3  502    0 -0.71461877371E+03 -0.13852636538E+04 -0.76002623489E+03  0.17341497254E+04  0.10100000352E+00 0. -1.
       -3    1    3    3    0  502  0.71461877371E+03  0.13852636538E+04 -0.44653611812E+03  0.16214283509E+04  0.10100000352E+00 0.  1.
</event>
<event>
 5   0  0.1840431E-06  0.3058816E+04  0.7818609E-02  0.8227132E-01
        1   -1    0    0  501    0  0.00000000000E+00  0.00000000000E+00  0.16282590392E+04  0.16282590393E+04  0.50400001928E-02 0. -1.
       -1   -1    0    0    0  501  0.00000000000E+00  0.00000000000E+00 -0.14365585516E+04  0.14365585516E+04  0.50400001928E-02 0.  1.
    10030    2    1    2    0    0  0.00000000000E+00  0.00000000000E+00  0.19170048765E+03  0.30648175909E+04  0.30588164032E+04 0.  0.
        1    1    3    3  502    0 -0.93167084996E+02 -0.67780656507E+03 -0.12746738537E+04  0.14466842360E+04  0.50400001928E-02 0.  1.
       -1    1    3    3    0  502  0.93167084996E+02  0.67780656507E+03  0.14663743413E+04  0.16181333549E+04  0.50400001928E-02 0. -1.
</event>
<event>
 5   0  0.1843709E-06  0.2444086E+04  0.7818609E-02  0.8423180E-01
        1   -1    0    0  501    0  0.00000000000E+00  0.00000000000E+00  0.11207731001E+04  0.11207731001E+04  0.50400001928E-02 0. -1.
       -1   -1    0    0    0  501  0.00000000000E+00  0.00000000000E+00 -0.13324636388E+04  0.13324636388E+04  0.50400001928E-02 0.  1.
    10030    2    1    2    0    0  0.00000000000E+00  0.00000000000E+00 -0.21169053870E+03  0.24532367389E+04  0.24440862531E+04 0.  0.
        4    1    3    3  502    0  0.50173870485E+03 -0.47283570349E+03  0.90692810730E+03  0.11392258490E+04  0.12699999809E+01 0. -1.
       -4    1    3    3    0  502 -0.50173870485E+03  0.47283570349E+03 -0.11186186460E+04  0.13140108898E+04  0.12699999809E+01 0.  1.
</event>
<event>
 5   0  0.5328368E-06  0.3096752E+04  0.7818609E-02  0.8216630E-01
       -2   -1    0    0    0  501  0.00000000000E+00  0.00000000000E+00  0.12502346141E+04  0.12502346142E+04  0.25500000920E-02 0. -1.
        2   -1    0    0  501    0  0.00000000000E+00  0.00000000000E+00 -0.19176148461E+04  0.19176148461E+04  0.25500000920E-02 0.  1.
    10030    2    1    2    0    0  0.00000000000E+00  0.00000000000E+00 -0.66738023192E+03  0.31678494602E+04  0.30967521419E+04 0.  0.
        1    1    3    3  502    0  0.36757104523E+03 -0.14478450404E+04 -0.75060661195E+03  0.16717577636E+04  0.50400001928E-02 0.  1.
       -1    1    3    3    0  502 -0.36757104523E+03  0.14478450404E+04  0.83226380025E+02  0.14960916966E+04  0.50400001928E-02 0. -1.
</event>
<event>
 5   0  0.4900679E-06  0.3021176E+04  0.7818609E-02  0.8237710E-01
       -2   -1    0    0    0  501  0.00000000000E+00  0.00000000000E+00  0.13281336882E+04  0.13281336882E+04  0.25500000920E-02 0. -1.
        2   -1    0    0  501    0  0.00000000000E+00  0.00000000000E+00 -0.17181072253E+04  0.17181072253E+04  0.25500000920E-02 0.  1.
    10030    2    1    2    0    0  0.00000000000E+00  0.00000000000E+00 -0.38997353716E+03  0.30462409135E+04  0.30211759868E+04 0.  0.
        4    1    3    3  502    0  0.34457032228E+03  0.77942285936E+03 -0.14525898104E+04  0.16841162284E+04  0.12699999809E+01 0.  1.
       -4    1    3    3    0  502 -0.34457032228E+03 -0.77942285936E+03  0.10626162732E+04  0.13621246851E+04  0.12699999809E+01 0. -1.
</event>
<event>
 5   0  0.1853742E-06  0.3135390E+04  0.7818609E-02  0.8206092E-01
        1   -1    0    0  501    0  0.00000000000E+00  0.00000000000E+00  0.79080048591E+03  0.79080048593E+03  0.50400001928E-02 0. -1.
       -1   -1    0    0    0  501  0.00000000000E+00  0.00000000000E+00 -0.31078228966E+04  0.31078228966E+04  0.50400001928E-02 0.  1.
    10030    2    1    2    0    0  0.00000000000E+00  0.00000000000E+00 -0.23170224107E+04  0.38986233825E+04  0.31353901555E+04 0.  0.
        5    1    3    3  502    0 -0.11422437148E+04  0.86421524757E+03 -0.19508542143E+04  0.24202154767E+04  0.46999998093E+01 0.  1.
       -5    1    3    3    0  502  0.11422437148E+04 -0.86421524757E+03 -0.36616819640E+03  0.14784079059E+04  0.46999998093E+01 0. -1.
</event>
<event>
 5   0  0.5328368E-06  0.3056849E+04  0.7818609E-02  0.8227681E-01
        2   -1    0    0  501    0  0.00000000000E+00  0.00000000000E+00  0.78593382679E+03  0.78593382679E+03  0.25500000920E-02 0. -1.
       -2   -1    0    0    0  501  0.00000000000E+00  0.00000000000E+00 -0.29723633477E+04  0.29723633477E+04  0.25500000920E-02 0.  1.
    10030    2    1    2    0    0  0.00000000000E+00  0.00000000000E+00 -0.21864295209E+04  0.37582971745E+04  0.30568486390E+04 0.  0.
        1    1    3    3  502    0  0.13549499300E+04  0.36399254620E+03 -0.18387438542E+04  0.23128681000E+04  0.50400001928E-02 0.  1.
       -1    1    3    3    0  502 -0.13549499300E+04 -0.36399254620E+03 -0.34768566671E+03  0.14454290745E+04  0.50400001928E-02 0. -1.
</event>
<event>
 5   0  0.1885307E-06  0.3069210E+04  0.7818609E-02  0.8224239E-01
       -1   -1    0    0    0  501  0.00000000000E+00  0.00000000000E+00  0.15964287505E+04  0.15964287505E+04  0.50400001928E-02 0. -1.
        1   -1    0    0  501    0  0.00000000000E+00  0.00000000000E+00 -0.14751751411E+04  0.14751751411E+04  0.50400001928E-02 0.  1.
    10030    2    1    2    0    0  0.00000000000E+00  0.00000000000E+00  0.12125360941E+03  0.30716038916E+04  0.30692096750E+04 0.  0.
        3    1    3    3  502    0 -0.61425234736E+03  0.19901885920E+03 -0.13326149009E+04  0.14808028015E+04  0.10100000352E+00 0.  1.
       -3    1    3    3    0  502  0.61425234736E+03 -0.19901885920E+03  0.14538685103E+04  0.15908010901E+04  0.10100000352E+00 0. -1.
</event>
<event>
 5   0  0.1649875E-06  0.3076588E+04  0.7818609E-02  0.8222193E-01
       -3   -1    0    0    0  501  0.00000000000E+00  0.00000000000E+00  0.17269690716E+04  0.17269690745E+04  0.10100000352E+00 0.  1.
        3   -1    0    0  501    0  0.00000000000E+00  0.00000000000E+00 -0.13702321601E+04  0.13702321638E+04  0.10100000352E+00 0. -1.
    10030    2    1    2    0    0  0.00000000000E+00  0.00000000000E+00  0.35673691146E+03  0.30972012384E+04  0.30765880919E+04 0.  0.
        3    1    3    3  502    0 -0.15185732257E+04  0.66105910117E+02 -0.59677097085E+02  0.15211824346E+04  0.10100000352E+00 0. -1.
       -3    1    3    3    0  502  0.15185732257E+04 -0.66105910117E+02  0.41641400855E+03  0.15760188038E+04  0.10100000352E+00 0.  1.
</event>
<event>
 5   0  0.1853742E-06  0.3094644E+04  0.7818609E-02  0.8217209E-01
        1   -1    0    0  501    0  0.00000000000E+00  0.00000000000E+00  0.14131542027E+04  0.14131542027E+04  0.50400001928E-02 0.  1.
       -1   -1    0    0    0  501  0.00000000000E+00  0.00000000000E+00 -0.16942280152E+04  0.16942280152E+04  0.50400001928E-02 0. -1.
    10030    2    1    2    0    0  0.00000000000E+00  0.00000000000E+00 -0.28107381256E+03  0.31073822179E+04  0.30946440442E+04 0.  0.
        5    1    3    3  502    0  0.72045182209E+02  0.66170845306E+03  0.12620429827E+04  0.14268227519E+04  0.46999998093E+01 0.  1.
       -5    1    3    3    0  502 -0.72045182209E+02 -0.66170845306E+03 -0.15431167952E+04  0.16805594660E+04  0.46999998093E+01 0. -1.
</event>
<event>
 5   0  0.1649875E-06  0.3074314E+04  0.7818609E-02  0.8222823E-01
        4   -1    0    0  501    0  0.00000000000E+00  0.00000000000E+00  0.12559974056E+04  0.12559980477E+04  0.12699999809E+01 0.  1.
       -4   -1    0    0    0  501  0.00000000000E+00  0.00000000000E+00 -0.18812537685E+04  0.18812541972E+04  0.12699999809E+01 0. -1.
    10030    2    1    2    0    0  0.00000000000E+00  0.00000000000E+00 -0.62525636293E+03  0.31372522449E+04  0.30743139281E+04 0.  0.
        4    1    3    3  502    0 -0.46164312982E+03 -0.54894567486E+03  0.10747617007E+04  0.12921184387E+04  0.12699999809E+01 0.  1.
       -4    1    3    3    0  502  0.46164312982E+03  0.54894567486E+03 -0.17000180637E+04  0.18451338062E+04  0.12699999809E+01 0. -1.
</event>
<event>
 5   0  0.4927533E-06  0.3290823E+04  0.7818609E-02  0.8165234E-01
       -2   -1    0    0    0  501  0.00000000000E+00  0.00000000000E+00  0.15153691088E+04  0.15153691088E+04  0.25500000920E-02 0. -1.
        2   -1    0    0  501    0  0.00000000000E+00  0.00000000000E+00 -0.17866137388E+04  0.17866137388E+04  0.25500000920E-02 0.  1.
    10030    2    1    2    0    0  0.00000000000E+00  0.00000000000E+00 -0.27124462998E+03  0.33019828476E+04  0.32908231609E+04 0.  0.
        5    1    3    3  502    0  0.30166558543E+03 -0.13835239312E+04 -0.97644768899E+03  0.17200618515E+04  0.46999998093E+01 0.  1.
       -5    1    3    3    0  502 -0.30166558543E+03  0.13835239312E+04  0.70520305900E+03  0.15819209961E+04  0.46999998093E+01 0. -1.
</event>
<event>
 5   0  0.4900679E-06  0.3075702E+04  0.7818609E-02  0.8222438E-01
       -2   -1    0    0    0  501  0.00000000000E+00  0.00000000000E+00  0.98423757578E+03  0.98423757579E+03  0.25500000920E-02 0.  1.
        2   -1    0    0  501    0  0.00000000000E+00  0.00000000000E+00 -0.24028610481E+04  0.24028610481E+04  0.25500000920E-02 0. -1.
    10030    2    1    2    0    0  0.00000000000E+00  0.00000000000E+00 -0.14186234723E+04  0.33870986239E+04  0.30757022827E+04 0.  0.
        4    1    3    3  502    0 -0.12363664714E+04 -0.79381156905E+03 -0.12094337348E+04  0.19030161404E+04  0.12699999809E+01 0. -1.
       -4    1    3    3    0  502  0.12363664714E+04  0.79381156905E+03 -0.20918973753E+03  0.14840824835E+04  0.12699999809E+01 0.  1.
</event>
<event>
 5   0  0.1840431E-06  0.3096558E+04  0.7818609E-02  0.8216683E-01
        1   -1    0    0  501    0  0.00000000000E+00  0.00000000000E+00  0.14329182591E+04  0.14329182591E+04  0.50400001928E-02 0. -1.
       -1   -1    0    0    0  501  0.00000000000E+00  0.00000000000E+00 -0.16729274345E+04  0.16729274345E+04  0.50400001928E-02 0.  1.
    10030    2    1    2    0    0  0.00000000000E+00  0.00000000000E+00 -0.24000917539E+03  0.31058456936E+04  0.30965582617E+04 0.  0.
        1    1    3    3  502    0 -0.77444068900E+03 -0.12880302732E+04 -0.49312557796E+03  0.15817563659E+04  0.50400001928E-02 0.  1.
       -1    1    3    3    0  502  0.77444068900E+03  0.12880302732E+04  0.25311640257E+03  0.15240893277E+04  0.50400001928E-02 0. -1.
</event>
<event>
 5   0  0.4927533E-06  0.3060810E+04  0.7818609E-02  0.8226576E-01
       -2   -1    0    0    0  501  0.00000000000E+00  0.00000000000E+00  0.81735040293E+03  0.81735040294E+03  0.25500000920E-02 0. -1.
        2   -1    0    0  501    0  0.00000000000E+00  0.00000000000E+00 -0.28655276271E+04  0.28655276271E+04  0.25500000920E-02 0.  1.
    10030    2    1    2    0    0  0.00000000000E+00  0.00000000000E+00 -0.20481772241E+04  0.36828780300E+04  0.30608104552E+04 0.  0.
        5    1    3    3  502    0  0.50716344900E+03  0.25285703821E+03 -0.27346177267E+04  0.27927240549E+04  0.46999998093E+01 0.  1.
       -5    1    3    3    0  502 -0.50716344900E+03 -0.25285703821E+03  0.68644050257E+03  0.89015397507E+03  0.46999998093E+01 0. -1.
</event>
<event>
 5   0  0.1853742E-06  0.3027364E+04  0.7818609E-02  0.8235960E-01
        1   -1    0    0  501    0  0.00000000000E+00  0.00000000000E+00  0.21077167555E+04  0.21077167555E+04  0.50400001928E-02 0. -1.
       -1   -1    0    0    0  501  0.00000000000E+00  0.00000000000E+00 -0.10870686362E+04  0.10870686362E+04  0.50400001928E-02 0.  1.
    10030    2    1    2    0    0  0.00000000000E+00  0.00000000000E+00  0.10206481193E+04  0.31947853917E+04  0.30273637237E+04 0.  0.
        5    1    3    3  502    0  0.80659124643E+03  0.44345906412E+03 -0.75778167654E+03  0.11922669750E+04  0.46999998093E+01 0.  1.
       -5    1    3    3    0  502 -0.80659124643E+03 -0.44345906412E+03  0.17784297959E+04  0.20025184167E+04  0.46999998093E+01 0. -1.
</event>
<event>
 5   0  0.5001658E-06  0.3079793E+04  0.7818609E-02  0.8221305E-01
        2   -1    0    0  501    0  0.00000000000E+00  0.00000000000E+00  0.12475590737E+04  0.12475590737E+04  0.25500000920E-02 0. -1.
       -2   -1    0    0    0  501  0.00000000000E+00  0.00000000000E+00 -0.19007369159E+04  0.19007369159E+04  0.25500000920E-02 0.  1.
    10030    2    1    2    0    0  0.00000000000E+00  0.00000000000E+00 -0.65317784215E+03  0.31482959896E+04  0.30797932308E+04 0.  0.
        3    1    3    3  502    0 -0.13924181180E+04  0.61819827437E+03 -0.97359687182E+02  0.15265897421E+04  0.10100000352E+00 0.  1.
       -3    1    3    3    0  502  0.13924181180E+04 -0.61819827437E+03 -0.55581815497E+03  0.16217062475E+04  0.10100000352E+00 0. -1.
</event>
<event>
 5   0  0.4927533E-06  0.3097629E+04  0.7818609E-02  0.8216389E-01
        2   -1    0    0  501    0  0.00000000000E+00  0.00000000000E+00  0.20736807411E+04  0.20736807411E+04  0.25500000920E-02 0.  1.
       -2   -1    0    0    0  501  0.00000000000E+00  0.00000000000E+00 -0.11567966682E+04  0.11567966682E+04  0.25500000920E-02 0. -1.
    10030    2    1    2    0    0  0.00000000000E+00  0.00000000000E+00  0.91688407296E+03  0.32304774093E+04  0.30976293982E+04 0.  0.
        5    1    3    3  502    0 -0.17553878008E+03  0.53246622211E+02 -0.11454204503E+04  0.11600255014E+04  0.46999998093E+01 0. -1.
       -5    1    3    3    0  502  0.17553878008E+03 -0.53246622211E+02  0.20623045232E+04  0.20704519078E+04  0.46999998093E+01 0.  1.
</event>
<event>
 5   0  0.1843709E-06  0.3042809E+04  0.7818609E-02  0.8231611E-01
        1   -1    0    0  501    0  0.00000000000E+00  0.00000000000E+00  0.16912148210E+04  0.16912148210E+04  0.50400001928E-02 0. -1.
       -1   -1    0    0    0  501  0.00000000000E+00  0.00000000000E+00 -0.13686444307E+04  0.13686444307E+04  0.50400001928E-02 0.  1.
    10030    2    1    2    0    0  0.00000000000E+00  0.00000000000E+00  0.32257039032E+03  0.30598592517E+04  0.30428090613E+04 0.  0.
        4    1    3    3  502    0 -0.12650721766E+04 -0.12928899349E+03 -0.67858747353E+03  0.14413902414E+04  0.12699999809E+01 0.  1.
       -4    1    3    3    0  502  0.12650721766E+04  0.12928899349E+03  0.10011578638E+04  0.16184690103E+04  0.12699999809E+01 0. -1.
</event>
<event>
 5   0  0.5001658E-06  0.3085737E+04  0.7818609E-02  0.8219663E-01
        2   -1    0    0  501    0  0.00000000000E+00  0.00000000000E+00  0.17903939683E+04  0.17903939683E+04  0.25500000920E-02 0. -1.
       -2   -1    0    0    0  501  0.00000000000E+00  0.00000000000E+00 -0.13295640467E+04  0.13295640467E+04  0.25500000920E-02 0.  1.
    10030    2    1    2    0    0  0.00000000000E+00  0.00000000000E+00  0.46082992155E+03  0.31199580150E+04  0.30857371565E+04 0.  0.
        3    1    3    3  502    0  0.15361876769E+04  0.41852173268E+02  0.91710302113E+02  0.15394917905E+04  0.10100000352E+00 0.  1.
       -3    1    3    3    0  502 -0.15361876769E+04 -0.41852173268E+02  0.36911961944E+03  0.15804662245E+04  0.10100000352E+00 0. -1.
</event>
<event>
 5   0  0.5114870E-06  0.3088549E+04  0.7818609E-02  0.8218888E-01
        2   -1    0    0  501    0  0.00000000000E+00  0.00000000000E+00  0.28321777232E+04  0.28321777232E+04  0.25500000920E-02 0.  1.
       -2   -1    0    0    0  501  0.00000000000E+00  0.00000000000E+00 -0.84203160106E+03  0.84203160107E+03  0.25500000920E-02 0. -1.
    10030    2    1    2    0    0  0.00000000000E+00  0.00000000000E+00  0.19901461221E+04  0.36742093243E+04  0.30885486189E+04 0.  0.
        2    1    3    3  502    0 -0.40632426525E+03 -0.13182562406E+04  0.16926179304E+03  0.13898015970E+04  0.25500000920E-02 0.  1.
       -2    1    3    3    0  502  0.40632426525E+03  0.13182562406E+04  0.18208843291E+04  0.22844077273E+04  0.25500000920E-02 0. -1.
</event>
<event>
 5   0  0.4900679E-06  0.3161984E+04  0.7818609E-02  0.8198930E-01
        2   -1    0    0  501    0  0.00000000000E+00  0.00000000000E+00  0.23200339877E+04  0.23200339877E+04  0.25500000920E-02 0. -1.
       -2   -1    0    0    0  501  0.00000000000E+00  0.00000000000E+00 -0.10773703718E+04  0.10773703718E+04  0.25500000920E-02 0.  1.
    10030    2    1    2    0    0  0.00000000000E+00  0.00000000000E+00  0.12426636159E+04  0.33974043596E+04  0.31619841113E+04 0.  0.
        4    1    3    3  502    0  0.10128434848E+04  0.52161894909E+03 -0.55645529937E+03  0.12679047148E+04  0.12699999809E+01 0.  1.
       -4    1    3    3    0  502 -0.10128434848E+04 -0.52161894909E+03  0.17991189153E+04  0.21294996447E+04  0.12699999809E+01 0. -1.
</event>
<event>
 5   0  0.4927533E-06  0.2307864E+04  0.7818609E-02  0.8474827E-01
       -2   -1    0    0    0  501  0.00000000000E+00  0.00000000000E+00  0.89947370040E+03  0.89947370040E+03  0.25500000920E-02 0. -1.
        2   -1    0    0  501    0  0.00000000000E+00  0.00000000000E+00 -0.14803755378E+04  0.14803755378E+04  0.25500000920E-02 0.  1.
    10030    2    1    2    0    0  0.00000000000E+00  0.00000000000E+00 -0.58090183745E+03  0.23798492383E+04  0.23078638288E+04 0.  0.
        5    1    3    3  502    0 -0.19639963624E+03  0.97501643326E+03  0.31286821495E+03  0.10426593270E+04  0.46999998093E+01 0. -1.
       -5    1    3    3    0  502  0.19639963624E+03 -0.97501643326E+03 -0.89377005239E+03  0.13371899113E+04  0.46999998093E+01 0.  1.
</event>
<event>
 5   0  0.5328368E-06  0.3132314E+04  0.7818609E-02  0.8206925E-01
       -2   -1    0    0    0  501  0.00000000000E+00  0.00000000000E+00  0.89242618212E+03  0.89242618212E+03  0.25500000920E-02 0.  1.
        2   -1    0    0  501    0  0.00000000000E+00  0.00000000000E+00 -0.27485166587E+04  0.27485166587E+04  0.25500000920E-02 0. -1.
    10030    2    1    2    0    0  0.00000000000E+00  0.00000000000E+00 -0.18560904765E+04  0.36409428408E+04  0.31323143062E+04 0.  0.
        1    1    3    3  502    0 -0.14835249809E+04  0.43913750057E+03 -0.12107694688E+04  0.19645994045E+04  0.50400001928E-02 0. -1.
       -1    1    3    3    0  502  0.14835249809E+04 -0.43913750057E+03 -0.64532100773E+03  0.16763434363E+04  0.50400001928E-02 0.  1.
</event>
<event>
 5   0  0.5328368E-06  0.2792304E+04  0.7818609E-02  0.8305662E-01
        2   -1    0    0  501    0  0.00000000000E+00  0.00000000000E+00  0.15881429387E+04  0.15881429387E+04  0.25500000920E-02 0. -1.
       -2   -1    0    0    0  501  0.00000000000E+00  0.00000000000E+00 -0.12273705811E+04  0.12273705811E+04  0.25500000920E-02 0.  1.
    10030    2    1    2    0    0  0.00000000000E+00  0.00000000000E+00  0.36077235766E+03  0.28155135198E+04  0.27923036522E+04 0.  0.
        1    1    3    3  502    0 -0.13154372983E+04  0.46615483591E+03  0.14050613385E+03  0.14026466378E+04  0.50400001928E-02 0. -1.
       -1    1    3    3    0  502  0.13154372983E+04 -0.46615483591E+03  0.22026622381E+03  0.14128668820E+04  0.50400001928E-02 0.  1.
</event>
<event>
 5   0  0.1840431E-06  0.3084197E+04  0.7818609E-02  0.8220088E-01
        1   -1    0    0  501    0  0.00000000000E+00  0.00000000000E+00  0.23032712687E+04  0.23032712687E+04  0.50400001928E-02 0.  1.
       -1   -1    0    0    0  501  0.00000000000E+00  0.00000000000E+00 -0.10324741513E+04  0.10324741513E+04  0.50400001928E-02 0. -1.
    10030    2    1    2    0    0  0.00000000000E+00  0.00000000000E+00  0.12707971174E+04  0.33357454200E+04  0.30841971716E+04 0.  0.
        1    1    3    3  502    0  0.27797213763E+03  0.32170364941E+03  0.22386294208E+04  0.22786450866E+04  0.50400001928E-02 0.  1.
       -1    1    3    3    0  502 -0.27797213763E+03 -0.32170364941E+03 -0.96783230336E+03  0.10571003334E+04  0.50400001928E-02 0. -1.
</event>
<event>
 5   0  0.1836401E-06  0.3095756E+04  0.7818609E-02  0.8216904E-01
       -1   -1    0    0    0  501  0.00000000000E+00  0.00000000000E+00  0.14665691254E+04  0.14665691254E+04  0.50400001928E-02 0. -1.
        1   -1    0    0  501    0  0.00000000000E+00  0.00000000000E+00 -0.16336949629E+04  0.16336949629E+04  0.50400001928E-02 0.  1.
    10030    2    1    2    0    0  0.00000000000E+00  0.00000000000E+00 -0.16712583743E+03  0.31002640883E+04  0.30957561874E+04 0.  0.
        2    1    3    3  502    0 -0.33268041969E+03  0.13958065224E+04 -0.66490324233E+03  0.15814703384E+04  0.25500000920E-02 0.  1.
       -2    1    3    3    0  502  0.33268041969E+03 -0.13958065224E+04  0.49777740490E+03  0.15187937498E+04  0.25500000920E-02 0. -1.
</event>
<event>
 5   0  0.5328368E-06  0.3086165E+04  0.7818609E-02  0.8219545E-01
       -2   -1    0    0    0  501  0.00000000000E+00  0.00000000000E+00  0.89620029281E+03  0.89620029281E+03  0.25500000920E-02 0. -1.
        2   -1    0    0  501    0  0.00000000000E+00  0.00000000000E+00 -0.26568879446E+04  0.26568879446E+04  0.25500000920E-02 0.  1.
    10030    2    1    2    0    0  0.00000000000E+00  0.00000000000E+00 -0.17606876518E+04  0.35530882374E+04  0.30861650986E+04 0.  0.
        1    1    3    3  502    0  0.69473538155E+03 -0.11427511567E+04  0.59042614232E+01  0.13373751593E+04  0.50400001928E-02 0. -1.
       -1    1    3    3    0  502 -0.69473538155E+03  0.11427511567E+04 -0.17665919132E+04  0.22157130781E+04  0.50400001928E-02 0.  1.
</event>
<event>
 5   0  0.1853742E-06  0.3108681E+04  0.7818609E-02  0.8213360E-01
       -1   -1    0    0    0  501  0.00000000000E+00  0.00000000000E+00  0.14630000084E+04  0.14630000085E+04  0.50400001928E-02 0. -1.
        1   -1    0    0  501    0  0.00000000000E+00  0.00000000000E+00 -0.16513837298E+04  0.16513837298E+04  0.50400001928E-02 0.  1.
    10030    2    1    2    0    0  0.00000000000E+00  0.00000000000E+00 -0.18838372135E+03  0.31143837383E+04  0.31086810133E+04 0.  0.
        5    1    3    3  502    0 -0.14310248416E+04  0.53095142379E+02  0.51131834827E+03  0.15205655969E+04  0.46999998093E+01 0. -1.
       -5    1    3    3    0  502  0.14310248416E+04 -0.53095142379E+02 -0.69970206962E+03  0.15938181413E+04  0.46999998093E+01 0.  1.
</event>
<event>
 5   0  0.4927533E-06  0.3072406E+04  0.7818609E-02  0.8223352E-01
       -2   -1    0    0    0  501  0.00000000000E+00  0.00000000000E+00  0.10904667891E+04  0.10904667891E+04  0.25500000920E-02 0. -1.
        2   -1    0    0  501    0  0.00000000000E+00  0.00000000000E+00 -0.21641374031E+04  0.21641374031E+04  0.25500000920E-02 0.  1.
    10030    2    1    2    0    0  0.00000000000E+00  0.00000000000E+00 -0.10736706140E+04  0.32546041922E+04  0.30724062005E+04 0.  0.
        5    1    3    3  502    0  0.96665445178E+03 -0.11156445851E+04 -0.98727413580E+03  0.17758986398E+04  0.46999998093E+01 0.  1.
       -5    1    3    3    0  502 -0.96665445178E+03  0.11156445851E+04 -0.86396478168E+02  0.14787055525E+04  0.46999998093E+01 0. -1.
</event>
<event>
 5   0  0.1885307E-06  0.3152860E+04  0.7818609E-02  0.8201379E-01
        1   -1    0    0  501    0  0.00000000000E+00  0.00000000000E+00  0.12485575190E+04  0.12485575190E+04  0.50400001928E-02 0. -1.
       -1   -1    0    0    0  501  0.00000000000E+00  0.00000000000E+00 -0.19904020938E+04  0.19904020938E+04  0.50400001928E-02 0.  1.
    10030    2    1    2    0    0  0.00000000000E+00  0.00000000000E+00 -0.74184457482E+03  0.32389596128E+04  0.31528599715E+04 0.  0.
        3    1    3    3  502    0 -0.42788977251E+03  0.15119622821E+04 -0.24092863488E+03  0.15897063305E+04  0.10100000352E+00 0.  1.
       -3    1    3    3    0  502  0.42788977251E+03 -0.15119622821E+04 -0.50091593993E+03  0.16492532823E+04  0.10100000352E+00 0. -1.
</event>
<event>
 5   0  0.5114870E-06  0.3065697E+04  0.7818609E-02  0.8225216E-01
       -2   -1    0    0    0  501  0.00000000000E+00  0.00000000000E+00  0.13696848077E+04  0.13696848077E+04  0.25500000920E-02 0. -1.
        2   -1    0    0  501    0  0.00000000000E+00  0.00000000000E+00 -0.17154486948E+04  0.17154486948E+04  0.25500000920E-02 0.  1.
    10030    2    1    2    0    0  0.00000000000E+00  0.00000000000E+00 -0.34576388714E+03  0.30851335025E+04  0.30656966683E+04 0.  0.
        2    1    3    3  502    0 -0.77549143417E+03 -0.95635247009E+03  0.74593853738E+03  0.14395906755E+04  0.25500000920E-02 0. -1.
       -2    1    3    3    0  502  0.77549143417E+03  0.95635247009E+03 -0.10917024245E+04  0.16455428269E+04  0.25500000920E-02 0.  1.
</event>
<event>
 5   0  0.1843709E-06  0.3236301E+04  0.7818609E-02  0.8179295E-01
        1   -1    0    0  501    0  0.00000000000E+00  0.00000000000E+00  0.18648628511E+04  0.18648628511E+04  0.50400001928E-02 0.  1.
       -1   -1    0    0    0  501  0.00000000000E+00  0.00000000000E+00 -0.14040772900E+04  0.14040772900E+04  0.50400001928E-02 0. -1.
    10030    2    1    2    0    0  0.00000000000E+00  0.00000000000E+00  0.46078556108E+03  0.32689401411E+04  0.32363013322E+04 0.  0.
        4    1    3    3  502    0 -0.13487571430E+04 -0.21448638363E+03  0.11070511634E+04  0.17580426988E+04  0.12699999809E+01 0.  1.
       -4    1    3    3    0  502  0.13487571430E+04  0.21448638363E+03 -0.64626560232E+03  0.15108974423E+04  0.12699999809E+01 0. -1.
</event>
<event>
 5   0  0.1853742E-06  0.3134399E+04  0.7818609E-02  0.8206360E-01
        1   -1    0    0  501    0  0.00000000000E+00  0.00000000000E+00  0.22536362668E+04  0.22536362668E+04  0.50400001928E-02 0. -1.
       -1   -1    0    0    0  501  0.00000000000E+00  0.00000000000E+00 -0.10898452994E+04  0.10898452994E+04  0.50400001928E-02 0.  1.
    10030    2    1    2    0    0  0.00000000000E+00  0.00000000000E+00  0.11637909675E+04  0.33434815662E+04  0.31343993950E+04 0.  0.
        5    1    3    3  502    0  0.54859082885E+02  0.49264000897E+02  0.22517775676E+04  0.22529892953E+04  0.46999998093E+01 0. -1.
       -5    1    3    3    0  502 -0.54859082885E+02 -0.49264000897E+02 -0.10879866002E+04  0.10904922709E+04  0.46999998093E+01 0.  1.
</event>
<event>
 5   0  0.1840431E-06  0.3059751E+04  0.7818609E-02  0.8226872E-01
       -1   -1    0    0    0  501  0.00000000000E+00  0.00000000000E+00  0.11261786920E+04  0.11261786920E+04  0.50400001928E-02 0.  1.
        1   -1    0    0  501    0  0.00000000000E+00  0.00000000000E+00 -0.20782837917E+04  0.20782837917E+04  0.50400001928E-02 0. -1.
    10030    2    1    2    0    0  0.00000000000E+00  0.00000000000E+00 -0.95210509969E+03  0.32044624838E+04  0.30597509194E+04 0.  0.
        1    1    3    3  502    0 -0.21405730472E+03 -0.14371975085E+04  0.25296445022E+02  0.14532711785E+04  0.50400001928E-02 0.  1.
       -1    1    3    3    0  502  0.21405730472E+03  0.14371975085E+04 -0.97740154472E+03  0.17511913053E+04  0.50400001928E-02 0. -1.
</event>
<event>
 5   0  0.1836401E-06  0.3053127E+04  0.7818609E-02  0.8228721E-01
       -1   -1    0    0    0  501  0.00000000000E+00  0.00000000000E+00  0.16848526266E+04  0.16848526267E+04  0.50400001928E-02 0. -1.
        1   -1    0    0  501    0  0.00000000000E+00  0.00000000000E+00 -0.13831455102E+04  0.13831455102E+04  0.50400001928E-02 0.  1.
    10030    2    1    2    0    0  0.00000000000E+00  0.00000000000E+00  0.30170711644E+03  0.30679981369E+04  0.30531271483E+04 0.  0.
        2    1    3    3  502    0  0.29654228739E+03  0.70484820200E+03  0.14785186663E+04  0.16645617329E+04  0.25500000920E-02 0. -1.
       -2    1    3    3    0  502 -0.29654228739E+03 -0.70484820200E+03 -0.11768115499E+04  0.14034364040E+04  0.25500000920E-02 0.  1.
</event>
<event>
 5   0  0.5001658E-06  0.3131332E+04  0.7818609E-02  0.8207191E-01
        2   -1    0    0  501    0  0.00000000000E+00  0.00000000000E+00  0.93602440093E+03  0.93602440093E+03  0.25500000920E-02 0. -1.
       -2   -1    0    0    0  501  0.00000000000E+00  0.00000000000E+00 -0.26188522526E+04  0.26188522526E+04  0.25500000920E-02 0.  1.
    10030    2    1    2    0    0  0.00000000000E+00  0.00000000000E+00 -0.16828278516E+04  0.35548766535E+04  0.31313317364E+04 0.  0.
        3    1    3    3  502    0  0.36782447787E+03 -0.90841050720E+03  0.54472223130E+03  0.11212612611E+04  0.10100000352E+00 0. -1.
       -3    1    3    3    0  502 -0.36782447787E+03  0.90841050720E+03 -0.22275500829E+04  0.24336153924E+04  0.10100000352E+00 0.  1.
</event>
<event>
 5   0  0.5328368E-06  0.3141619E+04  0.7818609E-02  0.8204408E-01
       -2   -1    0    0    0  501  0.00000000000E+00  0.00000000000E+00  0.11240350663E+04  0.11240350663E+04  0.25500000920E-02 0. -1.
        2   -1    0    0  501    0  0.00000000000E+00  0.00000000000E+00 -0.21951649391E+04  0.21951649391E+04  0.25500000920E-02 0.  1.
    10030    2    1    2    0    0  0.00000000000E+00  0.00000000000E+00 -0.10711298727E+04  0.33192000054E+04  0.31416189252E+04 0.  0.
        1    1    3    3  502    0 -0.71458429824E+03  0.13988569442E+04 -0.53905279023E+03  0.16607255584E+04  0.50400001928E-02 0.  1.
       -1    1    3    3    0  502  0.71458429824E+03 -0.13988569442E+04 -0.53207708250E+03  0.16584744470E+04  0.50400001928E-02 0. -1.
</event>
<event>
 5   0  0.1836401E-06  0.3058184E+04  0.7818609E-02  0.8227308E-01
       -1   -1    0    0    0  501  0.00000000000E+00  0.00000000000E+00  0.15008129354E+04  0.15008129354E+04  0.50400001928E-02 0.  1.
        1   -1    0    0  501    0  0.00000000000E+00  0.00000000000E+00 -0.15579042277E+04  0.15579042278E+04  0.50400001928E-02 0. -1.
    10030    2    1    2    0    0  0.00000000000E+00  0.00000000000E+00 -0.57091292331E+02  0.30587171632E+04  0.30581843091E+04 0.  0.
        2    1    3    3  502    0 -0.29047773341E+03  0.11604456787E+04  0.92404422661E+03  0.15115783868E+04  0.25500000920E-02 0.  1.
       -2    1    3    3    0  502  0.29047773341E+03 -0.11604456787E+04 -0.98113551894E+03  0.15471387764E+04  0.25500000920E-02 0. -1.
</event>
<event>
 5   0  0.1843709E-06  0.3072306E+04  0.7818609E-02  0.8223380E-01
       -1   -1    0    0    0  501  0.00000000000E+00  0.00000000000E+00  0.11800421264E+04  0.11800421264E+04  0.50400001928E-02 0.  1.
        1   -1    0    0  501    0  0.00000000000E+00  0.00000000000E+00 -0.19997301213E+04  0.19997301214E+04  0.50400001928E-02 0. -1.
    10030    2    1    2    0    0  0.00000000000E+00  0.00000000000E+00 -0.81968799496E+03  0.31797722477E+04  0.30723058341E+04 0.  0.
        4    1    3    3  502    0  0.11343471006E+04  0.76567925358E+03 -0.11319272525E+04  0.17760261771E+04  0.12699999809E+01 0. -1.
       -4    1    3    3    0  502 -0.11343471006E+04 -0.76567925358E+03  0.31223925751E+03  0.14037460706E+04  0.12699999809E+01 0.  1.
</event>
<event>
 5   0  0.1885307E-06  0.3045824E+04  0.7818609E-02  0.8230765E-01
       -1   -1    0    0    0  501  0.00000000000E+00  0.00000000000E+00  0.85635189406E+03  0.85635189408E+03  0.50400001928E-02 0.  1.
        1   -1    0    0  501    0  0.00000000000E+00  0.00000000000E+00 -0.27083039574E+04  0.27083039574E+04  0.50400001928E-02 0. -1.
    10030    2    1    2    0    0  0.00000000000E+00  0.00000000000E+00 -0.18519520633E+04  0.35646558515E+04  0.30458241733E+04 0.  0.
        3    1    3    3  502    0  0.28309282351E+03  0.96082707754E+03  0.41657046670E+03  0.10848323297E+04  0.10100000352E+00 0.  1.
       -3    1    3    3    0  502 -0.28309282351E+03 -0.96082707754E+03 -0.22685225300E+04  0.24798235218E+04  0.10100000352E+00 0. -1.
</event>
<event>
 5   0  0.1843709E-06  0.3052441E+04  0.7818609E-02  0.8228912E-01
       -1   -1    0    0    0  501  0.00000000000E+00  0.00000000000E+00  0.12083336388E+04  0.12083336388E+04  0.50400001928E-02 0. -1.
        1   -1    0    0  501    0  0.00000000000E+00  0.00000000000E+00 -0.19277370341E+04  0.19277370341E+04  0.50400001928E-02 0.  1.
    10030    2    1    2    0    0  0.00000000000E+00  0.00000000000E+00 -0.71940339532E+03  0.31360706729E+04  0.30524413213E+04 0.  0.
        4    1    3    3  502    0 -0.14949333028E+04  0.29312857084E+03 -0.45496728627E+03  0.15898889217E+04  0.12699999809E+01 0.  1.
       -4    1    3    3    0  502  0.14949333028E+04 -0.29312857084E+03 -0.26443610905E+03  0.15461817512E+04  0.12699999809E+01 0. -1.
</event>
<event>
 5   0  0.5114870E-06  0.3075304E+04  0.7818609E-02  0.8222548E-01
       -2   -1    0    0    0  501  0.00000000000E+00  0.00000000000E+00  0.10048516374E+04  0.10048516374E+04  0.25500000920E-02 0.  1.
        2   -1    0    0  501    0  0.00000000000E+00  0.00000000000E+00 -0.23529576530E+04  0.23529576530E+04  0.25500000920E-02 0. -1.
    10030    2    1    2    0    0  0.00000000000E+00  0.00000000000E+00 -0.13481060156E+04  0.33578092904E+04  0.30753037901E+04 0.  0.
        2    1    3    3  502    0 -0.93659364578E+03 -0.12194134485E+04 -0.68935991663E+03  0.16850501210E+04  0.25500000920E-02 0.  1.
       -2    1    3    3    0  502  0.93659364578E+03  0.12194134485E+04 -0.65874609900E+03  0.16727591694E+04  0.25500000920E-02 0. -1.
</event>
<event>
 5   0  0.5328368E-06  0.3108695E+04  0.7818609E-02  0.8213356E-01
       -2   -1    0    0    0  501  0.00000000000E+00  0.00000000000E+00  0.11653021686E+04  0.11653021686E+04  0.25500000920E-02 0. -1.
        2   -1    0    0  501    0  0.00000000000E+00  0.00000000000E+00 -0.20732781271E+04  0.20732781271E+04  0.25500000920E-02 0.  1.
    10030    2    1    2    0    0  0.00000000000E+00  0.00000000000E+00 -0.90797595856E+03  0.32385802957E+04  0.31086945798E+04 0.  0.
        1    1    3    3  502    0 -0.44569382814E+03  0.84293750882E+03  0.82482105756E+03  0.12607602505E+04  0.50400001928E-02 0. -1.
       -1    1    3    3    0  502  0.44569382814E+03 -0.84293750882E+03 -0.17327970161E+04  0.19778200452E+04  0.50400001928E-02 0.  1.
</event>
<event>
 5   0  0.1840431E-06  0.3144591E+04  0.7818609E-02  0.8203606E-01
       -1   -1    0    0    0  501  0.00000000000E+00  0.00000000000E+00  0.92354656194E+03  0.92354656196E+03  0.50400001928E-02 0. -1.
        1   -1    0    0  501    0  0.00000000000E+00  0.00000000000E+00 -0.26767607499E+04  0.26767607499E+04  0.50400001928E-02 0.  1.
    10030    2    1    2    0    0  0.00000000000E+00  0.00000000000E+00 -0.17532141880E+04  0.36003073119E+04  0.31445910308E+04 0.  0.
        1    1    3    3  502    0  0.75284356448E+03 -0.10315390494E+04 -0.19267352757E+04  0.23115265660E+04  0.50400001928E-02 0.  1.
       -1    1    3    3    0  502 -0.75284356448E+03  0.10315390494E+04  0.17352108768E+03  0.12887807459E+04  0.50400001928E-02 0. -1.
</event>
<event>
 5   0  0.5114870E-06  0.3006994E+04  0.7818609E-02  0.8241737E-01
       -2   -1    0    0    0  501  0.00000000000E+00  0.00000000000E+00  0.15969248651E+04  0.15969248651E+04  0.25500000920E-02 0.  1.
        2   -1    0    0  501    0  0.00000000000E+00  0.00000000000E+00 -0.14155349334E+04  0.14155349334E+04  0.25500000920E-02 0. -1.
    10030    2    1    2    0    0  0.00000000000E+00  0.00000000000E+00  0.18138993165E+03  0.30124597985E+04  0.30069938028E+04 0.  0.
        2    1    3    3  502    0 -0.75945759347E+03 -0.12001193998E+04  0.58498876523E+03  0.15359929250E+04  0.25500000920E-02 0.  1.
       -2    1    3    3    0  502  0.75945759347E+03  0.12001193998E+04 -0.40359883358E+03  0.14764668735E+04  0.25500000920E-02 0. -1.
</event>
<event>
 5   0  0.1885307E-06  0.3102697E+04  0.7818609E-02  0.8214998E-01
       -1   -1    0    0    0  501  0.00000000000E+00  0.00000000000E+00  0.22877352258E+04  0.22877352258E+04  0.50400001928E-02 0. -1.
        1   -1    0    0  501    0  0.00000000000E+00  0.00000000000E+00 -0.10519932604E+04  0.10519932604E+04  0.50400001928E-02 0.  1.
    10030    2    1    2    0    0  0.00000000000E+00  0.00000000000E+00  0.12357419655E+04  0.33397284862E+04  0.31026969167E+04 0.  0.
        3    1    3    3  502    0 -0.70080407698E+03  0.64790910636E+03 -0.69857831852E+03  0.11827612784E+04  0.10100000352E+00 0.  1.
       -3    1    3    3    0  502  0.70080407698E+03 -0.64790910636E+03  0.19343202840E+04  0.21569672078E+04  0.10100000352E+00 0. -1.
</event>
<event>
 5   0  0.5328368E-06  0.3118888E+04  0.7818609E-02  0.8210573E-01
        2   -1    0    0  501    0  0.00000000000E+00  0.00000000000E+00  0.20305185577E+04  0.20305185577E+04  0.25500000920E-02 0. -1.
       -2   -1    0    0    0  501  0.00000000000E+00  0.00000000000E+00 -0.11976574797E+04  0.11976574797E+04  0.25500000920E-02 0.  1.
    10030    2    1    2    0    0  0.00000000000E+00  0.00000000000E+00  0.83286107798E+03  0.32281760374E+04  0.31188880957E+04 0.  0.
        1    1    3    3  502    0  0.26754505692E+03  0.87102502525E+03  0.17263197147E+04  0.19520360421E+04  0.50400001928E-02 0. -1.
       -1    1    3    3    0  502 -0.26754505692E+03 -0.87102502525E+03 -0.89345863674E+03  0.12761399953E+04  0.50400001928E-02 0.  1.
</event>
<event>
 5   0  0.1885307E-06  0.3070759E+04  0.7818609E-02  0.8223809E-01
        1   -1    0    0  501    0  0.00000000000E+00  0.00000000000E+00  0.27798700769E+04  0.27798700769E+04  0.50400001928E-02 0.  1.
       -1   -1    0    0    0  501  0.00000000000E+00  0.00000000000E+00 -0.84802194122E+03  0.84802194124E+03  0.50400001928E-02 0. -1.
    10030    2    1    2    0    0  0.00000000000E+00  0.00000000000E+00  0.19318481357E+04  0.36278920182E+04  0.30707593973E+04 0.  0.
        3    1    3    3  502    0  0.47039747148E+03 -0.23785279660E+02 -0.76056393779E+03  0.89459322286E+03  0.10100000352E+00 0. -1.
       -3    1    3    3    0  502 -0.47039747148E+03  0.23785279660E+02  0.26924120735E+04  0.27332987953E+04  0.10100000352E+00 0.  1.
</event>
<event>
 5   0  0.4927533E-06  0.3093617E+04  0.7818609E-02  0.8217492E-01
        2   -1    0    0  501    0  0.00000000000E+00  0.00000000000E+00  0.16412214581E+04  0.16412214581E+04  0.25500000920E-02 0.  1.
       -2   -1    0    0    0  501  0.00000000000E+00  0.00000000000E+00 -0.14578271290E+04  0.14578271290E+04  0.25500000920E-02 0. -1.
    10030    2    1    2    0    0  0.00000000000E+00  0.00000000000E+00  0.18339432910E+03  0.30990485872E+04  0.30936174078E+04 0.  0.
        5    1    3    3  502    0  0.13259518227E+04  0.85967065287E+01  0.88957078400E+03  0.15967405579E+04  0.46999998093E+01 0.  1.
       -5    1    3    3    0  502 -0.13259518227E+04 -0.85967065287E+01 -0.70617645490E+03  0.15023080293E+04  0.46999998093E+01 0. -1.
</event>
<event>
 5   0  0.5328368E-06  0.3099074E+04  0.7818609E-02  0.8215992E-01
       -2   -1    0    0    0  501  0.00000000000E+00  0.00000000000E+00  0.11051839572E+04  0.11051839572E+04  0.25500000920E-02 0. -1.
        2   -1    0    0  501    0  0.00000000000E+00  0.00000000000E+00 -0.21725484334E+04  0.21725484334E+04  0.25500000920E-02 0.  1.
    10030    2    1    2    0    0  0.00000000000E+00  0.00000000000E+00 -0.10673644763E+04  0.32777323906E+04  0.30990744908E+04 0.  0.
        1    1    3    3  502    0  0.13806679936E+04  0.55168577707E+03 -0.99526369070E+03  0.17891761006E+04  0.50400001928E-02 0.  1.
       -1    1    3    3    0  502 -0.13806679936E+04 -0.55168577707E+03 -0.72100785575E+02  0.14885562900E+04  0.50400001928E-02 0. -1.
</event>
<event>
 5   0  0.1836401E-06  0.3138456E+04  0.7818609E-02  0.8205263E-01
        1   -1    0    0  501    0  0.00000000000E+00  0.00000000000E+00  0.18004573570E+04  0.18004573570E+04  0.50400001928E-02 0. -1.
       -1   -1    0    0    0  501  0.00000000000E+00  0.00000000000E+00 -0.13676948907E+04  0.13676948907E+04  0.50400001928E-02 0.  1.
    10030    2    1    2    0    0  0.00000000000E+00  0.00000000000E+00  0.43276246633E+03  0.31681522477E+04  0.31384558802E+04 0.  0.
        2    1    3    3  502    0 -0.25864601793E+03  0.11449971302E+03 -0.13417484054E+04  0.13712391222E+04  0.25500000920E-02 0.  1.
       -2    1    3    3    0  502  0.25864601793E+03 -0.11449971302E+03  0.17745108717E+04  0.17969131255E+04  0.25500000920E-02 0. -1.
</event>
<event>
 5   0  0.5114870E-06  0.2856804E+04  0.7818609E-02  0.8285847E-01
       -2   -1    0    0    0  501  0.00000000000E+00  0.00000000000E+00  0.10188565800E+04  0.10188565800E+04  0.25500000920E-02 0. -1.
        2   -1    0    0  501    0  0.00000000000E+00  0.00000000000E+00 -0.20025711620E+04  0.20025711620E+04  0.25500000920E-02 0.  1.
    10030    2    1    2    0    0  0.00000000000E+00  0.00000000000E+00 -0.98371458203E+03  0.30214277420E+04  0.28568043722E+04 0.  0.
        2    1    3    3  502    0 -0.77014998930E+02  0.60471638373E+03 -0.18580859554E+04  0.19555297575E+04  0.25500000920E-02 0.  1.
       -2    1    3    3    0  502  0.77014998930E+02 -0.60471638373E+03  0.87437137334E+03  0.10658979845E+04  0.25500000920E-02 0. -1.
</event>
<event>
 5   0  0.5328368E-06  0.3070235E+04  0.7818609E-02  0.8223954E-01
        2   -1    0    0  501    0  0.00000000000E+00  0.00000000000E+00  0.23042107503E+04  0.23042107503E+04  0.25500000920E-02 0.  1.
       -2   -1    0    0    0  501  0.00000000000E+00  0.00000000000E+00 -0.10227302556E+04  0.10227302557E+04  0.25500000920E-02 0. -1.
    10030    2    1    2    0    0  0.00000000000E+00  0.00000000000E+00  0.12814804946E+04  0.33269410059E+04  0.30702352025E+04 0.  0.
        1    1    3    3  502    0 -0.10636126613E+04 -0.68691817099E+03 -0.29985516682E+03  0.13011693157E+04  0.50400001928E-02 0.  1.
       -1    1    3    3    0  502  0.10636126613E+04  0.68691817099E+03  0.15813356615E+04  0.20257716903E+04  0.50400001928E-02 0. -1.
</event>
<event>
 5   0  0.1836401E-06  0.3106402E+04  0.7818609E-02  0.8213983E-01
       -1   -1    0    0    0  501  0.00000000000E+00  0.00000000000E+00  0.17991767269E+04  0.17991767269E+04  0.50400001928E-02 0.  1.
        1   -1    0    0  501    0  0.00000000000E+00  0.00000000000E+00 -0.13408542117E+04  0.13408542117E+04  0.50400001928E-02 0. -1.
    10030    2    1    2    0    0  0.00000000000E+00  0.00000000000E+00  0.45832251519E+03  0.31400309386E+04  0.31064022224E+04 0.  0.
        2    1    3    3  502    0  0.91521520149E+03  0.30497156514E+02 -0.10389656061E+04  0.13849182186E+04  0.25500000920E-02 0. -1.
       -2    1    3    3    0  502 -0.91521520149E+03 -0.30497156514E+02  0.14972881213E+04  0.17551127199E+04  0.25500000920E-02 0.  1.
</event>
<event>
 5   0  0.1843709E-06  0.3092433E+04  0.7818609E-02  0.8217818E-01
       -1   -1    0    0    0  501  0.00000000000E+00  0.00000000000E+00  0.16559127015E+04  0.16559127015E+04  0.50400001928E-02 0. -1.
        1   -1    0    0  501    0  0.00000000000E+00  0.00000000000E+00 -0.14437874753E+04  0.14437874753E+04  0.50400001928E-02 0.  1.
    10030    2    1    2    0    0  0.00000000000E+00  0.00000000000E+00  0.21212522621E+03  0.30997001769E+04  0.30924333582E+04 0.  0.
        4    1    3    3  502    0 -0.80082959252E+03 -0.65750339313E+03 -0.10443039262E+04  0.14711257769E+04  0.12699999809E+01 0.  1.
       -4    1    3    3    0  502  0.80082959252E+03  0.65750339313E+03  0.12564291524E+04  0.16285744000E+04  0.12699999809E+01 0. -1.
</event>
<event>
 5   0  0.4927533E-06  0.3135157E+04  0.7818609E-02  0.8206155E-01
        2   -1    0    0  501    0  0.00000000000E+00  0.00000000000E+00  0.24773710192E+04  0.24773710192E+04  0.25500000920E-02 0.  1.
       -2   -1    0    0    0  501  0.00000000000E+00  0.00000000000E+00 -0.99189935497E+03  0.99189935497E+03  0.25500000920E-02 0. -1.
    10030    2    1    2    0    0  0.00000000000E+00  0.00000000000E+00  0.14854716642E+04  0.34692703742E+04  0.31351572311E+04 0.  0.
        5    1    3    3  502    0 -0.10136784585E+04  0.29209568072E+03 -0.54032064767E+03  0.11852562576E+04  0.46999998093E+01 0. -1.
       -5    1    3    3    0  502  0.10136784585E+04 -0.29209568072E+03  0.20257923119E+04  0.22840141166E+04  0.46999998093E+01 0.  1.
</event>
<event>
 5   0  0.1853742E-06  0.3155414E+04  0.7818609E-02  0.8200692E-01
       -1   -1    0    0    0  501  0.00000000000E+00  0.00000000000E+00  0.14647702775E+04  0.14647702775E+04  0.50400001928E-02 0.  1.
        1   -1    0    0  501    0  0.00000000000E+00  0.00000000000E+00 -0.16993517927E+04  0.16993517927E+04  0.50400001928E-02 0. -1.
    10030    2    1    2    0    0  0.00000000000E+00  0.00000000000E+00 -0.23458151522E+03  0.31641220702E+04  0.31554143924E+04 0.  0.
        5    1    3    3  502    0  0.52602095150E+03 -0.14047212727E+04  0.37313764110E+03  0.15457016803E+04  0.46999998093E+01 0.  1.
       -5    1    3    3    0  502 -0.52602095150E+03  0.14047212727E+04 -0.60771915632E+03  0.16184203899E+04  0.46999998093E+01 0. -1.
</event>
<event>
 5   0  0.1885307E-06  0.3099336E+04  0.7818609E-02  0.8215920E-01
        1   -1    0    0  501    0  0.00000000000E+00  0.00000000000E+00  0.16816487083E+04  0.16816487083E+04  0.50400001928E-02 0. -1.
       -1   -1    0    0    0  501  0.00000000000E+00  0.00000000000E+00 -0.14280452449E+04  0.14280452449E+04  0.50400001928E-02 0.  1.
    10030    2    1    2    0    0  0.00000000000E+00  0.00000000000E+00  0.25360346341E+03  0.31096939533E+04  0.30993356976E+04 0.  0.
        3    1    3    3  502    0 -0.22040526760E+01  0.12590739452E+04  0.10332580770E+04  0.16287708007E+04  0.10100000352E+00 0.  1.
       -3    1    3    3    0  502  0.22040526760E+01 -0.12590739452E+04 -0.77965461357E+03  0.14809231526E+04  0.10100000352E+00 0. -1.
</event>
<event>
 5   0  0.5001658E-06  0.3024201E+04  0.7818609E-02  0.8236854E-01
       -2   -1    0    0    0  501  0.00000000000E+00  0.00000000000E+00  0.88226505776E+03  0.88226505777E+03  0.25500000920E-02 0.  1.
        2   -1    0    0  501    0  0.00000000000E+00  0.00000000000E+00 -0.25915661729E+04  0.25915661729E+04  0.25500000920E-02 0. -1.
    10030    2    1    2    0    0  0.00000000000E+00  0.00000000000E+00 -0.17093011151E+04  0.34738312307E+04  0.30242012362E+04 0.  0.
        3    1    3    3  502    0 -0.53304981557E+03  0.22254714971E+02 -0.24798608069E+04  0.25366014685E+04  0.10100000352E+00 0. -1.
       -3    1    3    3    0  502  0.53304981557E+03 -0.22254714971E+02  0.77055969179E+03  0.93722976213E+03  0.10100000352E+00 0.  1.
</event>
<event>
 5   0  0.4927533E-06  0.3084476E+04  0.7818609E-02  0.8220011E-01
       -2   -1    0    0    0  501  0.00000000000E+00  0.00000000000E+00  0.17878559195E+04  0.17878559195E+04  0.25500000920E-02 0. -1.
        2   -1    0    0  501    0  0.00000000000E+00  0.00000000000E+00 -0.13303633316E+04  0.13303633316E+04  0.25500000920E-02 0.  1.
    10030    2    1    2    0    0  0.00000000000E+00  0.00000000000E+00  0.45749258786E+03  0.31182192511E+04  0.30844759409E+04 0.  0.
        5    1    3    3  502    0 -0.44843313685E+03  0.68111662326E+03 -0.10945671356E+04  0.13649584012E+04  0.46999998093E+01 0.  1.
       -5    1    3    3    0  502  0.44843313685E+03 -0.68111662326E+03  0.15520597234E+04  0.17532608499E+04  0.46999998093E+01 0. -1.
</event>
<event>
 5   0  0.1853742E-06  0.2445279E+04  0.7818609E-02  0.8422744E-01
        1   -1    0    0  501    0  0.00000000000E+00  0.00000000000E+00  0.17583804747E+04  0.17583804747E+04  0.50400001928E-02 0.  1.
       -1   -1    0    0    0  501  0.00000000000E+00  0.00000000000E+00 -0.85012708863E+03  0.85012708865E+03  0.50400001928E-02 0. -1.
    10030    2    1    2    0    0  0.00000000000E+00  0.00000000000E+00  0.90825338603E+03  0.26085075633E+04  0.24452786129E+04 0.  0.
        5    1    3    3  502    0  0.10807548487E+04  0.55399428883E+03  0.60455043148E+03  0.13566296581E+04  0.46999998093E+01 0. -1.
       -5    1    3    3    0  502 -0.10807548487E+04 -0.55399428883E+03  0.30370295455E+03  0.12518779052E+04  0.46999998093E+01 0.  1.
</event>
<event>
 5   0  0.1836401E-06  0.3052547E+04  0.7818609E-02  0.8228883E-01
        1   -1    0    0  501    0  0.00000000000E+00  0.00000000000E+00  0.16535405358E+04  0.16535405358E+04  0.50400001928E-02 0. -1.
       -1   -1    0    0    0  501  0.00000000000E+00  0.00000000000E+00 -0.14088020880E+04  0.14088020880E+04  0.50400001928E-02 0.  1.
    10030    2    1    2    0    0  0.00000000000E+00  0.00000000000E+00  0.24473844774E+03  0.30623426238E+04  0.30525473686E+04 0.  0.
        2    1    3    3  502    0 -0.62354609823E+03  0.40008177022E+03 -0.12163175308E+04  0.14241852040E+04  0.25500000920E-02 0.  1.
       -2    1    3    3    0  502  0.62354609823E+03 -0.40008177022E+03  0.14610559786E+04  0.16381574198E+04  0.25500000920E-02 0. -1.
</event>
<event>
 5   0  0.4900679E-06  0.3107643E+04  0.7818609E-02  0.8213644E-01
       -2   -1    0    0    0  501  0.00000000000E+00  0.00000000000E+00  0.15592138334E+04  0.15592138334E+04  0.25500000920E-02 0. -1.
        2   -1    0    0  501    0  0.00000000000E+00  0.00000000000E+00 -0.15484475982E+04  0.15484475983E+04  0.25500000920E-02 0.  1.
    10030    2    1    2    0    0  0.00000000000E+00  0.00000000000E+00  0.10766235142E+02  0.31076614316E+04  0.31076427822E+04 0.  0.
        4    1    3    3  502    0  0.85940796289E+03 -0.70013177619E+03 -0.10834726955E+04  0.15500584652E+04  0.12699999809E+01 0.  1.
       -4    1    3    3    0  502 -0.85940796289E+03  0.70013177619E+03  0.10942389307E+04  0.15576029664E+04  0.12699999809E+01 0. -1.
</event>
<event>
 5   0  0.4927533E-06  0.3117792E+04  0.7818609E-02  0.8210872E-01
       -2   -1    0    0    0  501  0.00000000000E+00  0.00000000000E+00  0.10330980128E+04  0.10330980128E+04  0.25500000920E-02 0.  1.
        2   -1    0    0  501    0  0.00000000000E+00  0.00000000000E+00 -0.23523009163E+04  0.23523009163E+04  0.25500000920E-02 0. -1.
    10030    2    1    2    0    0  0.00000000000E+00  0.00000000000E+00 -0.13192029035E+04  0.33853989291E+04  0.31177924255E+04 0.  0.
        5    1    3    3  502    0 -0.43840810440E+03 -0.14954118404E+04 -0.61513435946E+03  0.16753717822E+04  0.46999998093E+01 0.  1.
       -5    1    3    3    0  502  0.43840810440E+03  0.14954118404E+04 -0.70406854408E+03  0.17100271469E+04  0.46999998093E+01 0. -1.
</event>
<event>
 5   0  0.1840431E-06  0.2840344E+04  0.7818609E-02  0.8290851E-01
        1   -1    0    0  501    0  0.00000000000E+00  0.00000000000E+00  0.15542333534E+04  0.15542333534E+04  0.50400001928E-02 0.  1.
       -1   -1    0    0    0  501  0.00000000000E+00  0.00000000000E+00 -0.12976743468E+04  0.12976743469E+04  0.50400001928E-02 0. -1.
    10030    2    1    2    0    0  0.00000000000E+00  0.00000000000E+00  0.25655900659E+03  0.28519077003E+04  0.28403441705E+04 0.  0.
        1    1    3    3  502    0  0.33826339999E+03  0.10768889585E+04  0.99363321728E+03  0.15038014920E+04  0.50400001928E-02 0.  1.
       -1    1    3    3    0  502 -0.33826339999E+03 -0.10768889585E+04 -0.73707421070E+03  0.13481062083E+04  0.50400001928E-02 0. -1.
</event>
<event>
 5   0  0.5114870E-06  0.3087070E+04  0.7818609E-02  0.8219296E-01
        2   -1    0    0  501    0  0.00000000000E+00  0.00000000000E+00  0.13066156170E+04  0.13066156170E+04  0.25500000920E-02 0. -1.
       -2   -1    0    0    0  501  0.00000000000E+00  0.00000000000E+00 -0.18234128895E+04  0.18234128895E+04  0.25500000920E-02 0.  1.
    10030    2    1    2    0    0  0.00000000000E+00  0.00000000000E+00 -0.51679727249E+03  0.31300285066E+04  0.30870696512E+04 0.  0.
        2    1    3    3  502    0  0.79787928830E+03 -0.12164858531E+04 -0.78137728674E+03  0.16513629685E+04  0.25500000920E-02 0.  1.
       -2    1    3    3    0  502 -0.79787928830E+03  0.12164858531E+04  0.26458001424E+03  0.14786655381E+04  0.25500000920E-02 0. -1.
</event>
<event>
 5   0  0.1836401E-06  0.3068838E+04  0.7818609E-02  0.8224342E-01
        1   -1    0    0  501    0  0.00000000000E+00  0.00000000000E+00  0.16772552224E+04  0.16772552224E+04  0.50400001928E-02 0. -1.
       -1   -1    0    0    0  501  0.00000000000E+00  0.00000000000E+00 -0.14037471367E+04  0.14037471367E+04  0.50400001928E-02 0.  1.
    10030    2    1    2    0    0  0.00000000000E+00  0.00000000000E+00  0.27350808572E+03  0.30810023590E+04  0.30688383573E+04 0.  0.
        2    1    3    3  502    0  0.11109949396E+04 -0.10307074220E+04  0.37807039673E+03  0.15619234202E+04  0.25500000920E-02 0.  1.
       -2    1    3    3    0  502 -0.11109949396E+04  0.10307074220E+04 -0.10456231101E+03  0.15190789389E+04  0.25500000920E-02 0. -1.
</event>
<event>
 5   0  0.5328368E-06  0.3123876E+04  0.7818609E-02  0.8209216E-01
       -2   -1    0    0    0  501  0.00000000000E+00  0.00000000000E+00  0.13737049748E+04  0.13737049748E+04  0.25500000920E-02 0. -1.
        2   -1    0    0  501    0  0.00000000000E+00  0.00000000000E+00 -0.17759633934E+04  0.17759633934E+04  0.25500000920E-02 0.  1.
    10030    2    1    2    0    0  0.00000000000E+00  0.00000000000E+00 -0.40225841862E+03  0.31496683682E+04  0.31238756368E+04 0.  0.
        1    1    3    3  502    0  0.11238916863E+04  0.10807209120E+04 -0.10784756097E+03  0.15629207621E+04  0.50400001928E-02 0.  1.
       -1    1    3    3    0  502 -0.11238916863E+04 -0.10807209120E+04 -0.29441085765E+03  0.15867476061E+04  0.50400001928E-02 0. -1.
</event>
<event>
 5   0  0.1885307E-06  0.3091475E+04  0.7818609E-02  0.8218082E-01
        1   -1    0    0  501    0  0.00000000000E+00  0.00000000000E+00  0.22574234234E+04  0.22574234234E+04  0.50400001928E-02 0.  1.
       -1   -1    0    0    0  501  0.00000000000E+00  0.00000000000E+00 -0.10584207719E+04  0.10584207719E+04  0.50400001928E-02 0. -1.
    10030    2    1    2    0    0  0.00000000000E+00  0.00000000000E+00  0.11990026516E+04  0.33158441953E+04  0.30914746270E+04 0.  0.
        3    1    3    3  502    0 -0.79774259945E+03 -0.13230946160E+04  0.65128817893E+03  0.16766481205E+04  0.10100000352E+00 0. -1.
       -3    1    3    3    0  502  0.79774259945E+03  0.13230946160E+04  0.54771447263E+03  0.16391960748E+04  0.10100000352E+00 0.  1.
</event>
<event>
 5   0  0.1885307E-06  0.3052418E+04  0.7818609E-02  0.8228919E-01
        1   -1    0    0  501    0  0.00000000000E+00  0.00000000000E+00  0.12768625746E+04  0.12768625746E+04  0.50400001928E-02 0. -1.
       -1   -1    0    0    0  501  0.00000000000E+00  0.00000000000E+00 -0.18242474597E+04  0.18242474598E+04  0.50400001928E-02 0.  1.
    10030    2    1    2    0    0  0.00000000000E+00  0.00000000000E+00 -0.54738488513E+03  0.31011100344E+04  0.30524176046E+04 0.  0.
        3    1    3    3  502    0 -0.87350957813E+03  0.53952151629E+03 -0.14209587141E+04  0.17530619290E+04  0.10100000352E+00 0.  1.
       -3    1    3    3    0  502  0.87350957813E+03 -0.53952151629E+03  0.87357382893E+03  0.13480481054E+04  0.10100000352E+00 0. -1.
</event>
<event>
 5   0  0.4900679E-06  0.2610985E+04  0.7818609E-02  0.8364479E-01
       -2   -1    0    0    0  501  0.00000000000E+00  0.00000000000E+00  0.10509585300E+04  0.10509585300E+04  0.25500000920E-02 0.  1.
        2   -1    0    0  501    0  0.00000000000E+00  0.00000000000E+00 -0.16216725149E+04  0.16216725149E+04  0.25500000920E-02 0. -1.
    10030    2    1    2    0    0  0.00000000000E+00  0.00000000000E+00 -0.57071398486E+03  0.26726310449E+04  0.26109849195E+04 0.  0.
        4    1    3    3  502    0 -0.72887925518E+03 -0.16624452622E+03 -0.13808623662E+04  0.15702498841E+04  0.12699999809E+01 0. -1.
       -4    1    3    3    0  502  0.72887925518E+03  0.16624452622E+03  0.81014838135E+03  0.11023811609E+04  0.12699999809E+01 0.  1.
</event>
<event>
 5   0  0.5328368E-06  0.3111808E+04  0.7818609E-02  0.8212505E-01
        2   -1    0    0  501    0  0.00000000000E+00  0.00000000000E+00  0.25526771379E+04  0.25526771379E+04  0.25500000920E-02 0.  1.
       -2   -1    0    0    0  501  0.00000000000E+00  0.00000000000E+00 -0.94835241459E+03  0.94835241460E+03  0.25500000920E-02 0. -1.
    10030    2    1    2    0    0  0.00000000000E+00  0.00000000000E+00  0.16043247234E+04  0.35010295525E+04  0.31118081737E+04 0.  0.
        1    1    3    3  502    0 -0.13280534105E+04 -0.48529956269E+03  0.15326808315E+04  0.20852702601E+04  0.50400001928E-02 0. -1.
       -1    1    3    3    0  502  0.13280534105E+04  0.48529956269E+03  0.71643891895E+02  0.14157592924E+04  0.50400001928E-02 0.  1.
</event>
<event>
 5   0  0.1836401E-06  0.3026847E+04  0.7818609E-02  0.8236106E-01
        1   -1    0    0  501    0  0.00000000000E+00  0.00000000000E+00  0.19462069488E+04  0.19462069488E+04  0.50400001928E-02 0.  1.
       -1   -1    0    0    0  501  0.00000000000E+00  0.00000000000E+00 -0.11768792088E+04  0.11768792088E+04  0.50400001928E-02 0. -1.
    10030    2    1    2    0    0  0.00000000000E+00  0.00000000000E+00  0.76932774000E+03  0.31230861576E+04  0.30268468703E+04 0.  0.
        2    1    3    3  502    0  0.33822838768E+03 -0.11808494776E+04 -0.52755431666E+03  0.13368311367E+04  0.25500000920E-02 0. -1.
       -2    1    3    3    0  502 -0.33822838768E+03  0.11808494776E+04  0.12968820567E+04  0.17862550209E+04  0.25500000920E-02 0.  1.
</event>
<event>
 5   0  0.1843709E-06  0.3095592E+04  0.7818609E-02  0.8216949E-01
       -1   -1    0    0    0  501  0.00000000000E+00  0.00000000000E+00  0.18736477006E+04  0.18736477006E+04  0.50400001928E-02 0.  1.
        1   -1    0    0  501    0  0.00000000000E+00  0.00000000000E+00 -0.12786143985E+04  0.12786143985E+04  0.50400001928E-02 0. -1.
    10030    2    1    2    0    0  0.00000000000E+00  0.00000000000E+00  0.59503330212E+03  0.31522620991E+04  0.30955923037E+04 0.  0.
        4    1    3    3  502    0  0.51401183811E+03  0.76368435870E+03  0.15645820011E+04  0.18153072524E+04  0.12699999809E+01 0.  1.
       -4    1    3    3    0  502 -0.51401183811E+03 -0.76368435870E+03 -0.96954869899E+03  0.13369548467E+04  0.12699999809E+01 0. -1.
</event>
<event>
 5   0  0.1853742E-06  0.3017788E+04  0.7818609E-02  0.8238669E-01
       -1   -1    0    0    0  501  0.00000000000E+00  0.00000000000E+00  0.10240586713E+04  0.10240586713E+04  0.50400001928E-02 0. -1.
        1   -1    0    0  501    0  0.00000000000E+00  0.00000000000E+00 -0.22232727601E+04  0.22232727601E+04  0.50400001928E-02 0.  1.
    10030    2    1    2    0    0  0.00000000000E+00  0.00000000000E+00 -0.11992140889E+04  0.32473314314E+04  0.30177884278E+04 0.  0.
        5    1    3    3  502    0 -0.75566088548E+03  0.11679398375E+04  0.29345126795E+02  0.13913986001E+04  0.46999998093E+01 0. -1.
       -5    1    3    3    0  502  0.75566088548E+03 -0.11679398375E+04 -0.12285592156E+04  0.18559328313E+04  0.46999998093E+01 0.  1.
</event>
<event>
 5   0  0.5114870E-06  0.3057268E+04  0.7818609E-02  0.8227564E-01
       -2   -1    0    0    0  501  0.00000000000E+00  0.00000000000E+00  0.13587228048E+04  0.13587228048E+04  0.25500000920E-02 0. -1.
        2   -1    0    0  501    0  0.00000000000E+00  0.00000000000E+00 -0.17197925735E+04  0.17197925735E+04  0.25500000920E-02 0.  1.
    10030    2    1    2    0    0  0.00000000000E+00  0.00000000000E+00 -0.36106976870E+03  0.30785153784E+04  0.30572676620E+04 0.  0.
        2    1    3    3  502    0  0.64729978550E+03  0.53422750932E+03  0.11059693702E+04  0.13883674916E+04  0.25500000920E-02 0. -1.
       -2    1    3    3    0  502 -0.64729978550E+03 -0.53422750932E+03 -0.14670391389E+04  0.16901478867E+04  0.25500000920E-02 0.  1.
</event>
<event>
 5   0  0.1843709E-06  0.3065525E+04  0.7818609E-02  0.8225263E-01
        1   -1    0    0  501    0  0.00000000000E+00  0.00000000000E+00  0.19064951154E+04  0.19064951154E+04  0.50400001928E-02 0. -1.
       -1   -1    0    0    0  501  0.00000000000E+00  0.00000000000E+00 -0.12322929826E+04  0.12322929826E+04  0.50400001928E-02 0.  1.
    10030    2    1    2    0    0  0.00000000000E+00  0.00000000000E+00  0.67420213281E+03  0.31387880980E+04  0.30655247851E+04 0.  0.
        4    1    3    3  502    0  0.58682331702E+03 -0.50093797892E+03  0.16931619823E+04  0.18606718075E+04  0.12699999809E+01 0. -1.
       -4    1    3    3    0  502 -0.58682331702E+03  0.50093797892E+03 -0.10189598495E+04  0.12781162904E+04  0.12699999809E+01 0.  1.
</event>
<event>
 5   0  0.4927533E-06  0.3087561E+04  0.7818609E-02  0.8219160E-01
        2   -1    0    0  501    0  0.00000000000E+00  0.00000000000E+00  0.16767295435E+04  0.16767295435E+04  0.25500000920E-02 0. -1.
       -2   -1    0    0    0  501  0.00000000000E+00  0.00000000000E+00 -0.14213728093E+04  0.14213728093E+04  0.25500000920E-02 0.  1.
    10030    2    1    2    0    0  0.00000000000E+00  0.00000000000E+00  0.25535673419E+03  0.30981023528E+04  0.30875607082E+04 0.  0.
        5    1    3    3  502    0 -0.95795351813E+03 -0.12097843882E+04  0.17235546743E+03  0.15527336236E+04  0.46999998093E+01 0. -1.
       -5    1    3    3    0  502  0.95795351813E+03  0.12097843882E+04  0.83001266764E+02  0.15453687292E+04  0.46999998093E+01 0.  1.
</event>
<event>
 5   0  0.1853742E-06  0.3074776E+04  0.7818609E-02  0.8222695E-01
       -1   -1    0    0    0  501  0.00000000000E+00  0.00000000000E+00  0.17926216905E+04  0.17926216905E+04  0.50400001928E-02 0.  1.
        1   -1    0    0  501    0  0.00000000000E+00  0.00000000000E+00 -0.13184944302E+04  0.13184944302E+04  0.50400001928E-02 0. -1.
    10030    2    1    2    0    0  0.00000000000E+00  0.00000000000E+00  0.47412726032E+03  0.31111161207E+04  0.30747759036E+04 0.  0.
        5    1    3    3  502    0  0.29480437312E+02  0.77211399516E+03 -0.11077461680E+04  0.13506120022E+04  0.46999998093E+01 0. -1.
       -5    1    3    3    0  502 -0.29480437312E+02 -0.77211399516E+03  0.15818734284E+04  0.17605041184E+04  0.46999998093E+01 0.  1.
</event>
<event>
 5   0  0.1840431E-06  0.3131990E+04  0.7818609E-02  0.8207013E-01
       -1   -1    0    0    0  501  0.00000000000E+00  0.00000000000E+00  0.11218728086E+04  0.11218728086E+04  0.50400001928E-02 0. -1.
        1   -1    0    0  501    0  0.00000000000E+00  0.00000000000E+00 -0.21859341159E+04  0.21859341159E+04  0.50400001928E-02 0.  1.
    10030    2    1    2    0    0  0.00000000000E+00  0.00000000000E+00 -0.10640613073E+04  0.33078069245E+04  0.31319898123E+04 0.  0.
        1    1    3    3  502    0 -0.18782364376E+03  0.10533246036E+04 -0.17397116141E+04  0.20423924554E+04  0.50400001928E-02 0.  1.
       -1    1    3    3    0  502  0.18782364376E+03 -0.10533246036E+04  0.67565030679E+03  0.12654144692E+04  0.50400001928E-02 0. -1.
</event>
<event>
 5   0  0.5114870E-06  0.3117445E+04  0.7818609E-02  0.8210967E-01
       -2   -1    0    0    0  501  0.00000000000E+00  0.00000000000E+00  0.17722763137E+04  0.17722763137E+04  0.25500000920E-02 0. -1.
        2   -1    0    0  501    0  0.00000000000E+00  0.00000000000E+00 -0.13709010195E+04  0.13709010195E+04  0.25500000920E-02 0.  1.
    10030    2    1    2    0    0  0.00000000000E+00  0.00000000000E+00  0.40137529418E+03  0.31431773333E+04  0.31174447263E+04 0.  0.
        2    1    3    3  502    0  0.11658115297E+04  0.67779388811E+03  0.98886553789E+03  0.16722368641E+04  0.25500000920E-02 0. -1.
       -2    1    3    3    0  502 -0.11658115297E+04 -0.67779388811E+03 -0.58749024371E+03  0.14709404692E+04  0.25500000920E-02 0.  1.
</event>
<event>
 5   0  0.1853742E-06  0.3124238E+04  0.7818609E-02  0.8209117E-01
       -1   -1    0    0    0  501  0.00000000000E+00  0.00000000000E+00  0.16411367153E+04  0.16411367153E+04  0.50400001928E-02 0.  1.
        1   -1    0    0  501    0  0.00000000000E+00  0.00000000000E+00 -0.14869055488E+04  0.14869055488E+04  0.50400001928E-02 0. -1.
    10030    2    1    2    0    0  0.00000000000E+00  0.00000000000E+00  0.15423116652E+03  0.31280422641E+04  0.31242376916E+04 0.  0.
        5    1    3    3  502    0  0.41192948897E+03 -0.40508275437E+03  0.15302324395E+04  0.16356684721E+04  0.46999998093E+01 0.  1.
       -5    1    3    3    0  502 -0.41192948897E+03  0.40508275437E+03 -0.13760012730E+04  0.14923737920E+04  0.46999998093E+01 0. -1.
</event>
<event>
 5   0  0.5328368E-06  0.2352954E+04  0.7818609E-02  0.8457330E-01
        2   -1    0    0  501    0  0.00000000000E+00  0.00000000000E+00  0.13335660380E+04  0.13335660380E+04  0.25500000920E-02 0. -1.
       -2   -1    0    0    0  501  0.00000000000E+00  0.00000000000E+00 -0.10378923579E+04  0.10378923579E+04  0.25500000920E-02 0.  1.
    10030    2    1    2    0    0  0.00000000000E+00  0.00000000000E+00  0.29567368015E+03  0.23714583959E+04  0.23529538879E+04 0.  0.
        1    1    3    3  502    0  0.11198864558E+04  0.34968566430E+03  0.23611714007E+03  0.11967359950E+04  0.50400001928E-02 0.  1.
       -1    1    3    3    0  502 -0.11198864558E+04 -0.34968566430E+03  0.59556540078E+02  0.11747224009E+04  0.50400001928E-02 0. -1.
</event>
<event>
 5   0  0.1840431E-06  0.3097957E+04  0.7818609E-02  0.8216299E-01
        1   -1    0    0  501    0  0.00000000000E+00  0.00000000000E+00  0.21280100418E+04  0.21280100419E+04  0.50400001928E-02 0. -1.
       -1   -1    0    0    0  501  0.00000000000E+00  0.00000000000E+00 -0.11275015170E+04  0.11275015170E+04  0.50400001928E-02 0.  1.
    10030    2    1    2    0    0  0.00000000000E+00  0.00000000000E+00  0.10005085248E+04  0.32555115589E+04  0.30979571013E+04 0.  0.
        1    1    3    3  502    0 -0.14004622304E+04 -0.66118269804E+03  0.46912454227E+03  0.16181887575E+04  0.50400001928E-02 0. -1.
       -1    1    3    3    0  502  0.14004622304E+04  0.66118269804E+03  0.53138398256E+03  0.16373228013E+04  0.50400001928E-02 0.  1.
</event>
<event>
 5   0  0.1836401E-06  0.3108923E+04  0.7818609E-02  0.8213293E-01
        1   -1    0    0  501    0  0.00000000000E+00  0.00000000000E+00  0.11594182200E+04  0.11594182201E+04  0.50400001928E-02 0.  1.
       -1   -1    0    0    0  501  0.00000000000E+00  0.00000000000E+00 -0.20841059070E+04  0.20841059070E+04  0.50400001928E-02 0. -1.
    10030    2    1    2    0    0  0.00000000000E+00  0.00000000000E+00 -0.92468768691E+03  0.32435241270E+04  0.31089228752E+04 0.  0.
        2    1    3    3  502    0  0.34039442243E+03 -0.72637134521E+02 -0.20429293853E+04  0.20723670017E+04  0.25500000920E-02 0. -1.
       -2    1    3    3    0  502 -0.34039442243E+03  0.72637134521E+02  0.11182416984E+04  0.11711571253E+04  0.25500000920E-02 0.  1.
</event>
<event>
 5   0  0.4900679E-06  0.3109906E+04  0.7818609E-02  0.8213025E-01
       -2   -1    0    0    0  501  0.00000000000E+00  0.00000000000E+00  0.12573641332E+04  0.12573641332E+04  0.25500000920E-02 0.  1.
        2   -1    0    0  501    0  0.00000000000E+00  0.00000000000E+00 -0.19229737350E+04  0.19229737350E+04  0.25500000920E-02 0. -1.
    10030    2    1    2    0    0  0.00000000000E+00  0.00000000000E+00 -0.66560960187E+03  0.31803378682E+04  0.31099055957E+04 0.  0.
        4    1    3    3  502    0 -0.91094154943E+03 -0.80989873632E+03 -0.13201372121E+04  0.17968067067E+04  0.12699999809E+01 0. -1.
       -4    1    3    3    0  502  0.91094154943E+03  0.80989873632E+03  0.65452761021E+03  0.13835311616E+04  0.12699999809E+01 0.  1.
</event>
<event>
 5   0  0.5114870E-06  0.3096868E+04  0.7818609E-02  0.8216598E-01
        2   -1    0    0  501    0  0.00000000000E+00  0.00000000000E+00  0.16609673132E+04  0.16609673132E+04  0.25500000920E-02 0. -1.
       -2   -1    0    0    0  501  0.00000000000E+00  0.00000000000E+00 -0.14435249028E+04  0.14435249028E+04  0.25500000920E-02 0.  1.
    10030    2    1    2    0    0  0.00000000000E+00  0.00000000000E+00  0.21744241035E+03  0.31044922160E+04  0.30968678883E+04 0.  0.
        2    1    3    3  502    0 -0.31650755534E+03  0.21730597593E+03 -0.13950548386E+04  0.14469198051E+04  0.25500000920E-02 0.  1.
       -2    1    3    3    0  502  0.31650755534E+03 -0.21730597593E+03  0.16124972489E+04  0.16575724109E+04  0.25500000920E-02 0. -1.
</event>
<event>
 5   0  0.4900679E-06  0.3091242E+04  0.7818609E-02  0.8218146E-01
        2   -1    0    0  501    0  0.00000000000E+00  0.00000000000E+00  0.11533060121E+04  0.11533060121E+04  0.25500000920E-02 0. -1.
       -2   -1    0    0    0  501  0.00000000000E+00  0.00000000000E+00 -0.20713877898E+04  0.20713877898E+04  0.25500000920E-02 0.  1.
    10030    2    1    2    0    0  0.00000000000E+00  0.00000000000E+00 -0.91808177775E+03  0.32246938019E+04  0.30912418161E+04 0.  0.
        4    1    3    3  502    0  0.56509251686E+03  0.11686824943E+04  0.41610065301E+03  0.13631909960E+04  0.12699999809E+01 0. -1.
       -4    1    3    3    0  502 -0.56509251686E+03 -0.11686824943E+04 -0.13341824308E+04  0.18615028060E+04  0.12699999809E+01 0.  1.
</event>
<event>
 5   0  0.1836401E-06  0.3092700E+04  0.7818609E-02  0.8217744E-01
        1   -1    0    0  501    0  0.00000000000E+00  0.00000000000E+00  0.11738916712E+04  0.11738916712E+04  0.50400001928E-02 0. -1.
       -1   -1    0    0    0  501  0.00000000000E+00  0.00000000000E+00 -0.20369837274E+04  0.20369837274E+04  0.50400001928E-02 0.  1.
    10030    2    1    2    0    0  0.00000000000E+00  0.00000000000E+00 -0.86309205623E+03  0.32108753987E+04  0.30926999415E+04 0.  0.
        2    1    3    3  502    0  0.14076286945E+03 -0.88402283787E+03 -0.17406341642E+04  0.19573241574E+04  0.25500000920E-02 0.  1.
       -2    1    3    3    0  502 -0.14076286945E+03  0.88402283787E+03  0.87754210799E+03  0.12535512413E+04  0.25500000920E-02 0. -1.
</event>
<event>
 5   0  0.5328368E-06  0.3128143E+04  0.7818609E-02  0.8208056E-01
       -2   -1    0    0    0  501  0.00000000000E+00  0.00000000000E+00  0.15330363661E+04  0.15330363661E+04  0.25500000920E-02 0. -1.
        2   -1    0    0  501    0  0.00000000000E+00  0.00000000000E+00 -0.15957349286E+04  0.15957349286E+04  0.25500000920E-02 0.  1.
    10030    2    1    2    0    0  0.00000000000E+00  0.00000000000E+00 -0.62698562476E+02  0.31287712947E+04  0.31281430122E+04 0.  0.
        1    1    3    3  502    0  0.50680105606E+03  0.14486809796E+04 -0.33273319120E+03  0.15704251869E+04  0.50400001928E-02 0.  1.
       -1    1    3    3    0  502 -0.50680105606E+03 -0.14486809796E+04  0.27003462872E+03  0.15583461078E+04  0.50400001928E-02 0. -1.
</event>
<event>
 5   0  0.1843709E-06  0.3108656E+04  0.7818609E-02  0.8213366E-01
       -1   -1    0    0    0  501  0.00000000000E+00  0.00000000000E+00  0.99535445235E+03  0.99535445237E+03  0.50400001928E-02 0.  1.
        1   -1    0    0  501    0  0.00000000000E+00  0.00000000000E+00 -0.24272105948E+04  0.24272105948E+04  0.50400001928E-02 0. -1.
    10030    2    1    2    0    0  0.00000000000E+00  0.00000000000E+00 -0.14318561425E+04  0.34225650472E+04  0.31086555759E+04 0.  0.
        4    1    3    3  502    0  0.34227652428E+03 -0.99222306416E+03 -0.19781100297E+04  0.22393259546E+04  0.12699999809E+01 0. -1.
       -4    1    3    3    0  502 -0.34227652428E+03  0.99222306416E+03  0.54625388726E+03  0.11832390926E+04  0.12699999809E+01 0.  1.
</event>
<event>
 5   0  0.1836401E-06  0.3195281E+04  0.7818609E-02  0.8190065E-01
        1   -1    0    0  501    0  0.00000000000E+00  0.00000000000E+00  0.16371978801E+04  0.16371978801E+04  0.50400001928E-02 0. -1.
       -1   -1    0    0    0  501  0.00000000000E+00  0.00000000000E+00 -0.15590389673E+04  0.15590389673E+04  0.50400001928E-02 0.  1.
    10030    2    1    2    0    0  0.00000000000E+00  0.00000000000E+00  0.78158912794E+02  0.31962368474E+04  0.31952810782E+04 0.  0.
        2    1    3    3  502    0  0.80061456014E+03 -0.10258329313E+04  0.96625390672E+03  0.16207910072E+04  0.25500000920E-02 0. -1.
       -2    1    3    3    0  502 -0.80061456014E+03  0.10258329313E+04 -0.88809499393E+03  0.15754458401E+04  0.25500000920E-02 0.  1.
</event>
<event>
 5   0  0.1840431E-06  0.3128886E+04  0.7818609E-02  0.8207855E-01
       -1   -1    0    0    0  501  0.00000000000E+00  0.00000000000E+00  0.16163435216E+04  0.16163435217E+04  0.50400001928E-02 0.  1.
        1   -1    0    0  501    0  0.00000000000E+00  0.00000000000E+00 -0.15142088103E+04  0.15142088103E+04  0.50400001928E-02 0. -1.
    10030    2    1    2    0    0  0.00000000000E+00  0.00000000000E+00  0.10213471133E+03  0.31305523320E+04  0.31288858087E+04 0.  0.
        1    1    3    3  502    0 -0.73455644083E+03  0.13633488470E+03 -0.13241905734E+04  0.15204081821E+04  0.50400001928E-02 0. -1.
       -1    1    3    3    0  502  0.73455644083E+03 -0.13633488470E+03  0.14263252847E+04  0.16101441499E+04  0.50400001928E-02 0.  1.
</event>
<event>
 5   0  0.5328368E-06  0.3086801E+04  0.7818609E-02  0.8219369E-01
       -2   -1    0    0    0  501  0.00000000000E+00  0.00000000000E+00  0.11193828403E+04  0.11193828403E+04  0.25500000920E-02 0.  1.
        2   -1    0    0  501    0  0.00000000000E+00  0.00000000000E+00 -0.21280348944E+04  0.21280348944E+04  0.25500000920E-02 0. -1.
    10030    2    1    2    0    0  0.00000000000E+00  0.00000000000E+00 -0.10086520541E+04  0.32474177347E+04  0.30868014153E+04 0.  0.
        1    1    3    3  502    0  0.60599374218E+03  0.13926706237E+04 -0.21558963589E+03  0.15340269792E+04  0.50400001928E-02 0.  1.
       -1    1    3    3    0  502 -0.60599374218E+03 -0.13926706237E+04 -0.79306241824E+03  0.17133907555E+04  0.50400001928E-02 0. -1.
</event>
<event>
 5   0  0.1885307E-06  0.3084454E+04  0.7818609E-02  0.8220017E-01
        1   -1    0    0  501    0  0.00000000000E+00  0.00000000000E+00  0.12153563620E+04  0.12153563620E+04  0.50400001928E-02 0. -1.
       -1   -1    0    0    0  501  0.00000000000E+00  0.00000000000E+00 -0.19570095699E+04  0.19570095699E+04  0.50400001928E-02 0.  1.
    10030    2    1    2    0    0  0.00000000000E+00  0.00000000000E+00 -0.74165320789E+03  0.31723659320E+04  0.30844539428E+04 0.  0.
        3    1    3    3  502    0  0.85968852118E+03  0.87257915431E+03 -0.13345525537E+04  0.18114881349E+04  0.10100000352E+00 0.  1.
       -3    1    3    3    0  502 -0.85968852118E+03 -0.87257915431E+03  0.59289934586E+03  0.13608777971E+04  0.10100000352E+00 0. -1.
</event>
<event>
 5   0  0.1853742E-06  0.3102325E+04  0.7818609E-02  0.8215100E-01
        1   -1    0    0  501    0  0.00000000000E+00  0.00000000000E+00  0.18449011628E+04  0.18449011629E+04  0.50400001928E-02 0.  1.
       -1   -1    0    0    0  501  0.00000000000E+00  0.00000000000E+00 -0.13041922181E+04  0.13041922181E+04  0.50400001928E-02 0. -1.
    10030    2    1    2    0    0  0.00000000000E+00  0.00000000000E+00  0.54070894472E+03  0.31490933810E+04  0.31023254116E+04 0.  0.
        5    1    3    3  502    0  0.52450148745E+03  0.10286566945E+04  0.13217524416E+04  0.17550749307E+04  0.46999998093E+01 0.  1.
       -5    1    3    3    0  502 -0.52450148745E+03 -0.10286566945E+04 -0.78104349691E+03  0.13940184502E+04  0.46999998093E+01 0. -1.
</event>
<event>
 5   0  0.1885307E-06  0.3112976E+04  0.7818609E-02  0.8212186E-01
       -1   -1    0    0    0  501  0.00000000000E+00  0.00000000000E+00  0.20884557309E+04  0.20884557309E+04  0.50400001928E-02 0. -1.
        1   -1    0    0  501    0  0.00000000000E+00  0.00000000000E+00 -0.11600223605E+04  0.11600223605E+04  0.50400001928E-02 0.  1.
    10030    2    1    2    0    0  0.00000000000E+00  0.00000000000E+00  0.92843337039E+03  0.32484780914E+04  0.31129762908E+04 0.  0.
        3    1    3    3  502    0 -0.12754459229E+04 -0.97846201037E+02 -0.46112804680E+03  0.13597702994E+04  0.10100000352E+00 0.  1.
       -3    1    3    3    0  502  0.12754459229E+04  0.97846201037E+02  0.13895614172E+04  0.18887077920E+04  0.10100000352E+00 0. -1.
</event>
<event>
 5   0  0.5114870E-06  0.2681856E+04  0.7818609E-02  0.8340916E-01
       -2   -1    0    0    0  501  0.00000000000E+00  0.00000000000E+00  0.12661793646E+04  0.12661793646E+04  0.25500000920E-02 0. -1.
        2   -1    0    0  501    0  0.00000000000E+00  0.00000000000E+00 -0.14200894675E+04  0.14200894675E+04  0.25500000920E-02 0.  1.
    10030    2    1    2    0    0  0.00000000000E+00  0.00000000000E+00 -0.15391010285E+03  0.26862688321E+04  0.26818560585E+04 0.  0.
        2    1    3    3  502    0  0.11387957886E+04  0.48419510090E+03  0.44040933757E+03  0.13134919598E+04  0.25500000920E-02 0.  1.
       -2    1    3    3    0  502 -0.11387957886E+04 -0.48419510090E+03 -0.59431944041E+03  0.13727768723E+04  0.25500000920E-02 0. -1.
</event>
<event>
 5   0  0.5114870E-06  0.3141341E+04  0.7818609E-02  0.8204483E-01
       -2   -1    0    0    0  501  0.00000000000E+00  0.00000000000E+00  0.14387691008E+04  0.14387691008E+04  0.25500000920E-02 0.  1.
        2   -1    0    0  501    0  0.00000000000E+00  0.00000000000E+00 -0.17146643856E+04  0.17146643856E+04  0.25500000920E-02 0. -1.
    10030    2    1    2    0    0  0.00000000000E+00  0.00000000000E+00 -0.27589528479E+03  0.31534334864E+04  0.31413412016E+04 0.  0.
        2    1    3    3  502    0  0.14928233694E+04 -0.18741253223E+03 -0.59063927818E+03  0.16163229338E+04  0.25500000920E-02 0. -1.
       -2    1    3    3    0  502 -0.14928233694E+04  0.18741253223E+03  0.31474399339E+03  0.15371105526E+04  0.25500000920E-02 0.  1.
</event>
<event>
 5   0  0.4900679E-06  0.3094625E+04  0.7818609E-02  0.8217215E-01
        2   -1    0    0  501    0  0.00000000000E+00  0.00000000000E+00  0.21959324605E+04  0.21959324605E+04  0.25500000920E-02 0. -1.
       -2   -1    0    0    0  501  0.00000000000E+00  0.00000000000E+00 -0.10902776046E+04  0.10902776046E+04  0.25500000920E-02 0.  1.
    10030    2    1    2    0    0  0.00000000000E+00  0.00000000000E+00  0.11056548559E+04  0.32862100651E+04  0.30946250067E+04 0.  0.
        4    1    3    3  502    0  0.11174785519E+03 -0.47730406912E+03 -0.10056366408E+04  0.11187553011E+04  0.12699999809E+01 0.  1.
       -4    1    3    3    0  502 -0.11174785519E+03  0.47730406912E+03  0.21112914966E+04  0.21674547640E+04  0.12699999809E+01 0. -1.
</event>
<event>
 5   0  0.1885307E-06  0.3172344E+04  0.7818609E-02  0.8196159E-01
       -1   -1    0    0    0  501  0.00000000000E+00  0.00000000000E+00  0.15156028518E+04  0.15156028518E+04  0.50400001928E-02 0.  1.
        1   -1    0    0  501    0  0.00000000000E+00  0.00000000000E+00 -0.16600272388E+04  0.16600272389E+04  0.50400001928E-02 0. -1.
    10030    2    1    2    0    0  0.00000000000E+00  0.00000000000E+00 -0.14442438706E+03  0.31756300907E+04  0.31723442545E+04 0.  0.
        3    1    3    3  502    0  0.13691838405E+04 -0.29165341870E+03  0.67435912087E+03  0.15538617506E+04  0.10100000352E+00 0.  1.
       -3    1    3    3    0  502 -0.13691838405E+04  0.29165341870E+03 -0.81878350793E+03  0.16217683401E+04  0.10100000352E+00 0. -1.
</event>
<event>
 5   0  0.1843709E-06  0.3012893E+04  0.7818609E-02  0.8240059E-01
       -1   -1    0    0    0  501  0.00000000000E+00  0.00000000000E+00  0.25373826731E+04  0.25373826731E+04  0.50400001928E-02 0.  1.
        1   -1    0    0  501    0  0.00000000000E+00  0.00000000000E+00 -0.89437898296E+03  0.89437898298E+03  0.50400001928E-02 0. -1.
    10030    2    1    2    0    0  0.00000000000E+00  0.00000000000E+00  0.16430036902E+04  0.34317616561E+04  0.30128934496E+04 0.  0.
        4    1    3    3  502    0 -0.42866970297E+03 -0.11137005200E+04  0.18687199072E+04  0.22172510609E+04  0.12699999809E+01 0. -1.
       -4    1    3    3    0  502  0.42866970297E+03  0.11137005200E+04 -0.22571621702E+03  0.12145105953E+04  0.12699999809E+01 0.  1.
</event>
<event>
 5   0  0.4927533E-06  0.3100022E+04  0.7818609E-02  0.8215732E-01
        2   -1    0    0  501    0  0.00000000000E+00  0.00000000000E+00  0.15579792936E+04  0.15579792936E+04  0.25500000920E-02 0.  1.
       -2   -1    0    0    0  501  0.00000000000E+00  0.00000000000E+00 -0.15420836711E+04  0.15420836711E+04  0.25500000920E-02 0. -1.
    10030    2    1    2    0    0  0.00000000000E+00  0.00000000000E+00  0.15895622515E+02  0.31000629646E+04  0.31000222118E+04 0.  0.
        5    1    3    3  502    0 -0.10943922222E+03  0.76036857628E+03  0.13542102948E+04  0.15569344648E+04  0.46999998093E+01 0.  1.
       -5    1    3    3    0  502  0.10943922222E+03 -0.76036857628E+03 -0.13383146722E+04  0.15431284999E+04  0.46999998093E+01 0. -1.
</event>
<event>
 5   0  0.1853742E-06  0.3036545E+04  0.7818609E-02  0.8233372E-01
       -1   -1    0    0    0  501  0.00000000000E+00  0.00000000000E+00  0.18878461276E+04  0.18878461276E+04  0.50400001928E-02 0. -1.
        1   -1    0    0  501    0  0.00000000000E+00  0.00000000000E+00 -0.12210480180E+04  0.12210480180E+04  0.50400001928E-02 0.  1.
    10030    2    1    2    0    0  0.00000000000E+00  0.00000000000E+00  0.66679810959E+03  0.31088941456E+04  0.30365445970E+04 0.  0.
        5    1    3    3  502    0  0.37801411848E+03 -0.67843928714E+03  0.16690722125E+04  0.18409233228E+04  0.46999998093E+01 0. -1.
       -5    1    3    3    0  502 -0.37801411848E+03  0.67843928714E+03 -0.10022741029E+04  0.12679708228E+04  0.46999998093E+01 0.  1.
</event>
<event>
 5   0  0.1836401E-06  0.3098487E+04  0.7818609E-02  0.8216153E-01
       -1   -1    0    0    0  501  0.00000000000E+00  0.00000000000E+00  0.12892063112E+04  0.12892063112E+04  0.50400001928E-02 0. -1.
        1   -1    0    0  501    0  0.00000000000E+00  0.00000000000E+00 -0.18617308093E+04  0.18617308094E+04  0.50400001928E-02 0.  1.
    10030    2    1    2    0    0  0.00000000000E+00  0.00000000000E+00 -0.57252449812E+03  0.31509371206E+04  0.30984867979E+04 0.  0.
        2    1    3    3  502    0  0.60904696435E+03  0.91845742824E+03  0.82104683456E+03  0.13742707727E+04  0.25500000920E-02 0. -1.
       -2    1    3    3    0  502 -0.60904696435E+03 -0.91845742824E+03 -0.13935713327E+04  0.17766663478E+04  0.25500000920E-02 0.  1.
</event>
<event>
 5   0  0.5001658E-06  0.3137843E+04  0.7818609E-02  0.8205428E-01
        2   -1    0    0  501    0  0.00000000000E+00  0.00000000000E+00  0.15178301408E+04  0.15178301408E+04  0.25500000920E-02 0.  1.
       -2   -1    0    0    0  501  0.00000000000E+00  0.00000000000E+00 -0.16217324971E+04  0.16217324971E+04  0.25500000920E-02 0. -1.
    10030    2    1    2    0    0  0.00000000000E+00  0.00000000000E+00 -0.10390235627E+03  0.31395626379E+04  0.31378428669E+04 0.  0.
        3    1    3    3  502    0 -0.76801953794E+03 -0.54096609307E+03  0.12053266115E+04  0.15281722989E+04  0.10100000352E+00 0.  1.
       -3    1    3    3    0  502  0.76801953794E+03  0.54096609307E+03 -0.13092289677E+04  0.16113903390E+04  0.10100000352E+00 0. -1.
</event>
<event>
 5   0  0.1885307E-06  0.3094652E+04  0.7818609E-02  0.8217207E-01
       -1   -1    0    0    0  501  0.00000000000E+00  0.00000000000E+00  0.16539463559E+04  0.16539463559E+04  0.50400001928E-02 0.  1.
        1   -1    0    0  501    0  0.00000000000E+00  0.00000000000E+00 -0.14475792776E+04  0.14475792776E+04  0.50400001928E-02 0. -1.
    10030    2    1    2    0    0  0.00000000000E+00  0.00000000000E+00  0.20636707833E+03  0.31015256335E+04  0.30946524658E+04 0.  0.
        3    1    3    3  502    0  0.88775142651E+03  0.89510044872E+03 -0.79597740789E+03  0.14909350934E+04  0.10100000352E+00 0. -1.
       -3    1    3    3    0  502 -0.88775142651E+03 -0.89510044872E+03  0.10023444862E+04  0.16105905401E+04  0.10100000352E+00 0.  1.
</event>
<event>
 5   0  0.1885307E-06  0.3145375E+04  0.7818609E-02  0.8203394E-01
        1   -1    0    0  501    0  0.00000000000E+00  0.00000000000E+00  0.24574484001E+04  0.24574484001E+04  0.50400001928E-02 0. -1.
       -1   -1    0    0    0  501  0.00000000000E+00  0.00000000000E+00 -0.10064693071E+04  0.10064693071E+04  0.50400001928E-02 0.  1.
    10030    2    1    2    0    0  0.00000000000E+00  0.00000000000E+00  0.14509790930E+04  0.34639177072E+04  0.31453752644E+04 0.  0.
        3    1    3    3  502    0 -0.15318050946E+04  0.23651436448E+03  0.43208652428E+03  0.16090570739E+04  0.10100000352E+00 0.  1.
       -3    1    3    3    0  502  0.15318050946E+04 -0.23651436448E+03  0.10188925688E+04  0.18548606334E+04  0.10100000352E+00 0. -1.
</event>
<event>
 5   0  0.1885307E-06  0.3266111E+04  0.7818609E-02  0.8171572E-01
       -1   -1    0    0    0  501  0.00000000000E+00  0.00000000000E+00  0.16204189978E+04  0.16204189978E+04  0.50400001928E-02 0.  1.
        1   -1    0    0  501    0  0.00000000000E+00  0.00000000000E+00 -0.16457902948E+04  0.16457902948E+04  0.50400001928E-02 0. -1.
    10030    2    1    2    0    0  0.00000000000E+00  0.00000000000E+00 -0.25371297011E+02  0.32662092926E+04  0.32661107514E+04 0.  0.
        3    1    3    3  502    0 -0.45188598023E+03  0.15399871305E+04  0.28916538488E+03  0.16307599245E+04  0.10100000352E+00 0.  1.
       -3    1    3    3    0  502  0.45188598023E+03 -0.15399871305E+04 -0.31453668189E+03  0.16354493681E+04  0.10100000352E+00 0. -1.
</event>
<event>
 5   0  0.1836401E-06  0.3254045E+04  0.7818609E-02  0.8174688E-01
       -1   -1    0    0    0  501  0.00000000000E+00  0.00000000000E+00  0.14898556054E+04  0.14898556054E+04  0.50400001928E-02 0. -1.
        1   -1    0    0  501    0  0.00000000000E+00  0.00000000000E+00 -0.17768176680E+04  0.17768176680E+04  0.50400001928E-02 0.  1.
    10030    2    1    2    0    0  0.00000000000E+00  0.00000000000E+00 -0.28696206268E+03  0.32666732734E+04  0.32540447215E+04 0.  0.
        2    1    3    3  502    0  0.82521533477E+03  0.97281744974E+03 -0.11572752869E+04  0.17223937497E+04  0.25500000920E-02 0.  1.
       -2    1    3    3    0  502 -0.82521533477E+03 -0.97281744974E+03  0.87031322419E+03  0.15442795237E+04  0.25500000920E-02 0. -1.
</event>
<event>
 5   0  0.1843709E-06  0.2217075E+04  0.7818609E-02  0.8511354E-01
        1   -1    0    0  501    0  0.00000000000E+00  0.00000000000E+00  0.12213129573E+04  0.12213129573E+04  0.50400001928E-02 0.  1.
       -1   -1    0    0    0  501  0.00000000000E+00  0.00000000000E+00 -0.10061760241E+04  0.10061760241E+04  0.50400001928E-02 0. -1.
    10030    2    1    2    0    0  0.00000000000E+00  0.00000000000E+00  0.21513693319E+03  0.22274889814E+04  0.22170753849E+04 0.  0.
        4    1    3    3  502    0  0.54071219899E+03  0.94379180022E+03 -0.10730885522E+03  0.10929910556E+04  0.12699999809E+01 0. -1.
       -4    1    3    3    0  502 -0.54071219899E+03 -0.94379180022E+03  0.32244578842E+03  0.11344979258E+04  0.12699999809E+01 0.  1.
</event>
<event>
 5   0  0.1843709E-06  0.3123208E+04  0.7818609E-02  0.8209398E-01
       -1   -1    0    0    0  501  0.00000000000E+00  0.00000000000E+00  0.11257360228E+04  0.11257360228E+04  0.50400001928E-02 0. -1.
        1   -1    0    0  501    0  0.00000000000E+00  0.00000000000E+00 -0.21662328151E+04  0.21662328152E+04  0.50400001928E-02 0.  1.
    10030    2    1    2    0    0  0.00000000000E+00  0.00000000000E+00 -0.10404967924E+04  0.32919688379E+04  0.31232075267E+04 0.  0.
        4    1    3    3  502    0 -0.12766836962E+03  0.15560289023E+04 -0.48561660820E+03  0.16350383055E+04  0.12699999809E+01 0. -1.
       -4    1    3    3    0  502  0.12766836962E+03 -0.15560289023E+04 -0.55488018418E+03  0.16569305324E+04  0.12699999809E+01 0.  1.
</event>
<event>
 5   0  0.5001658E-06  0.3111525E+04  0.7818609E-02  0.8212582E-01
       -2   -1    0    0    0  501  0.00000000000E+00  0.00000000000E+00  0.15058321010E+04  0.15058321010E+04  0.25500000920E-02 0.  1.
        2   -1    0    0  501    0  0.00000000000E+00  0.00000000000E+00 -0.16073479897E+04  0.16073479897E+04  0.25500000920E-02 0. -1.
    10030    2    1    2    0    0  0.00000000000E+00  0.00000000000E+00 -0.10151588871E+03  0.31131800906E+04  0.31115245140E+04 0.  0.
        3    1    3    3  502    0  0.38935215965E+03  0.80316202792E+03  0.12241774303E+04  0.15150164152E+04  0.10100000352E+00 0.  1.
       -3    1    3    3    0  502 -0.38935215965E+03 -0.80316202792E+03 -0.13256933190E+04  0.15981636754E+04  0.10100000352E+00 0. -1.
</event>
<event>
 5   0  0.4900679E-06  0.3098428E+04  0.7818609E-02  0.8216169E-01
        2   -1    0    0  501    0  0.00000000000E+00  0.00000000000E+00  0.13584508910E+04  0.13584508910E+04  0.25500000920E-02 0.  1.
       -2   -1    0    0    0  501  0.00000000000E+00  0.00000000000E+00 -0.17667659145E+04  0.17667659145E+04  0.25500000920E-02 0. -1.
    10030    2    1    2    0    0  0.00000000000E+00  0.00000000000E+00 -0.40831502349E+03  0.31252168055E+04  0.30984284602E+04 0.  0.
        4    1    3    3  502    0  0.67545630602E+03 -0.12941685048E+04 -0.72724492828E+03  0.16309506855E+04  0.12699999809E+01 0. -1.
       -4    1    3    3    0  502 -0.67545630602E+03  0.12941685048E+04  0.31892990479E+03  0.14942661199E+04  0.12699999809E+01 0.  1.
</event>
<event>
 5   0  0.4900679E-06  0.3099418E+04  0.7818609E-02  0.8215898E-01
       -2   -1    0    0    0  501  0.00000000000E+00  0.00000000000E+00  0.12246052483E+04  0.12246052483E+04  0.25500000920E-02 0. -1.
        2   -1    0    0  501    0  0.00000000000E+00  0.00000000000E+00 -0.19611194951E+04  0.19611194951E+04  0.25500000920E-02 0.  1.
    10030    2    1    2    0    0  0.00000000000E+00  0.00000000000E+00 -0.73651424679E+03  0.31857247435E+04  0.30994175107E+04 0.  0.
        4    1    3    3  502    0 -0.21616549354E+03 -0.10584171066E+04 -0.15103332484E+04  0.18569012968E+04  0.12699999809E+01 0.  1.
       -4    1    3    3    0  502  0.21616549354E+03  0.10584171066E+04  0.77381900157E+03  0.13288234466E+04  0.12699999809E+01 0. -1.
</event>
<event>
 5   0  0.1853742E-06  0.3113727E+04  0.7818609E-02  0.8211981E-01
       -1   -1    0    0    0  501  0.00000000000E+00  0.00000000000E+00  0.15538723107E+04  0.15538723107E+04  0.50400001928E-02 0.  1.
        1   -1    0    0  501    0  0.00000000000E+00  0.00000000000E+00 -0.15598600622E+04  0.15598600622E+04  0.50400001928E-02 0. -1.
    10030    2    1    2    0    0  0.00000000000E+00  0.00000000000E+00 -0.59877515186E+01  0.31137323730E+04  0.31137266157E+04 0.  0.
        5    1    3    3  502    0  0.49116816240E+03  0.10039673406E+04  0.10807999369E+04  0.15547820356E+04  0.46999998093E+01 0.  1.
       -5    1    3    3    0  502 -0.49116816240E+03 -0.10039673406E+04 -0.10867876884E+04  0.15589503374E+04  0.46999998093E+01 0. -1.
</event>
<event>
 5   0  0.1885307E-06  0.3117517E+04  0.7818609E-02  0.8210947E-01
       -1   -1    0    0    0  501  0.00000000000E+00  0.00000000000E+00  0.14878047326E+04  0.14878047326E+04  0.50400001928E-02 0.  1.
        1   -1    0    0  501    0  0.00000000000E+00  0.00000000000E+00 -0.16330960775E+04  0.16330960775E+04  0.50400001928E-02 0. -1.
    10030    2    1    2    0    0  0.00000000000E+00  0.00000000000E+00 -0.14529134489E+03  0.31209008101E+04  0.31175170074E+04 0.  0.
        3    1    3    3  502    0  0.39442519365E+03  0.58165285622E+02 -0.15811899283E+04  0.16306796232E+04  0.10100000352E+00 0. -1.
       -3    1    3    3    0  502 -0.39442519365E+03 -0.58165285622E+02  0.14358985834E+04  0.14902211869E+04  0.10100000352E+00 0.  1.
</event>
<event>
 5   0  0.4900679E-06  0.3069489E+04  0.7818609E-02  0.8224162E-01
        2   -1    0    0  501    0  0.00000000000E+00  0.00000000000E+00  0.21272595258E+04  0.21272595258E+04  0.25500000920E-02 0.  1.
       -2   -1    0    0    0  501  0.00000000000E+00  0.00000000000E+00 -0.11072651911E+04  0.11072651911E+04  0.25500000920E-02 0. -1.
    10030    2    1    2    0    0  0.00000000000E+00  0.00000000000E+00  0.10199943347E+04  0.32345247169E+04  0.30694888339E+04 0.  0.
        4    1    3    3  502    0 -0.12606971285E+03 -0.14745710071E+04  0.81714509450E+02  0.14822051482E+04  0.12699999809E+01 0.  1.
       -4    1    3    3    0  502  0.12606971285E+03  0.14745710071E+04  0.93827982527E+03  0.17523195687E+04  0.12699999809E+01 0. -1.
</event>
<event>
 5   0  0.4927533E-06  0.2978298E+04  0.7818609E-02  0.8249955E-01
       -2   -1    0    0    0  501  0.00000000000E+00  0.00000000000E+00  0.88481269043E+03  0.88481269043E+03  0.25500000920E-02 0.  1.
        2   -1    0    0  501    0  0.00000000000E+00  0.00000000000E+00 -0.25062532934E+04  0.25062532934E+04  0.25500000920E-02 0. -1.
    10030    2    1    2    0    0  0.00000000000E+00  0.00000000000E+00 -0.16214406029E+04  0.33910659838E+04  0.29782979834E+04 0.  0.
        5    1    3    3  502    0  0.86847698781E+03  0.80149619420E+03 -0.18423211413E+04  0.21887936644E+04  0.46999998093E+01 0. -1.
       -5    1    3    3    0  502 -0.86847698781E+03 -0.80149619420E+03  0.22088053840E+03  0.12022723194E+04  0.46999998093E+01 0.  1.
</event>
<event>
 5   0  0.1853742E-06  0.3085090E+04  0.7818609E-02  0.8219842E-01
        1   -1    0    0  501    0  0.00000000000E+00  0.00000000000E+00  0.14446237363E+04  0.14446237363E+04  0.50400001928E-02 0.  1.
       -1   -1    0    0    0  501  0.00000000000E+00  0.00000000000E+00 -0.16471038208E+04  0.16471038208E+04  0.50400001928E-02 0. -1.
    10030    2    1    2    0    0  0.00000000000E+00  0.00000000000E+00 -0.20248008451E+03  0.30917275571E+04  0.30850901288E+04 0.  0.
        5    1    3    3  502    0  0.53719006359E+03 -0.41663730768E+03  0.12863917735E+04  0.14549864932E+04  0.46999998093E+01 0.  1.
       -5    1    3    3    0  502 -0.53719006359E+03  0.41663730768E+03 -0.14888718580E+04  0.16367410639E+04  0.46999998093E+01 0. -1.
</event>
<event>
 5   0  0.1885307E-06  0.3061767E+04  0.7818609E-02  0.8226310E-01
       -1   -1    0    0    0  501  0.00000000000E+00  0.00000000000E+00  0.16395023543E+04  0.16395023544E+04  0.50400001928E-02 0.  1.
        1   -1    0    0  501    0  0.00000000000E+00  0.00000000000E+00 -0.14294604357E+04  0.14294604357E+04  0.50400001928E-02 0. -1.
    10030    2    1    2    0    0  0.00000000000E+00  0.00000000000E+00  0.21004191866E+03  0.30689627900E+04  0.30617666467E+04 0.  0.
        3    1    3    3  502    0 -0.11899561692E+04 -0.14459484203E+03 -0.84942520172E+03  0.14691584450E+04  0.10100000352E+00 0. -1.
       -3    1    3    3    0  502  0.11899561692E+04  0.14459484203E+03  0.10594671204E+04  0.15998043450E+04  0.10100000352E+00 0.  1.
</event>
<event>
 5   0  0.5114870E-06  0.3097169E+04  0.7818609E-02  0.8216515E-01
        2   -1    0    0  501    0  0.00000000000E+00  0.00000000000E+00  0.16533957671E+04  0.16533957671E+04  0.25500000920E-02 0. -1.
       -2   -1    0    0    0  501  0.00000000000E+00  0.00000000000E+00 -0.14504175495E+04  0.14504175495E+04  0.25500000920E-02 0.  1.
    10030    2    1    2    0    0  0.00000000000E+00  0.00000000000E+00  0.20297821759E+03  0.31038133166E+04  0.30971691829E+04 0.  0.
        2    1    3    3  502    0  0.91962697685E+02 -0.11564268211E+04  0.11295231268E+04  0.16191363823E+04  0.25500000920E-02 0. -1.
       -2    1    3    3    0  502 -0.91962697685E+02  0.11564268211E+04 -0.92654490922E+03  0.14846769343E+04  0.25500000920E-02 0.  1.
</event>
<event>
 5   0  0.4927533E-06  0.3154946E+04  0.7818609E-02  0.8200818E-01
        2   -1    0    0  501    0  0.00000000000E+00  0.00000000000E+00  0.16789559866E+04  0.16789559866E+04  0.25500000920E-02 0.  1.
       -2   -1    0    0    0  501  0.00000000000E+00  0.00000000000E+00 -0.14821241310E+04  0.14821241310E+04  0.25500000920E-02 0. -1.
    10030    2    1    2    0    0  0.00000000000E+00  0.00000000000E+00  0.19683185562E+03  0.31610801176E+04  0.31549460741E+04 0.  0.
        5    1    3    3  502    0 -0.69689071990E+03  0.72041128685E+03  0.13188769894E+04  0.16565348475E+04  0.46999998093E+01 0.  1.
       -5    1    3    3    0  502  0.69689071990E+03 -0.72041128685E+03 -0.11220451338E+04  0.15045452701E+04  0.46999998093E+01 0. -1.
</event>
<event>
 5   0  0.5328368E-06  0.3087667E+04  0.7818609E-02  0.8219131E-01
        2   -1    0    0  501    0  0.00000000000E+00  0.00000000000E+00  0.21149408982E+04  0.21149408982E+04  0.25500000920E-02 0.  1.
       -2   -1    0    0    0  501  0.00000000000E+00  0.00000000000E+00 -0.11269450577E+04  0.11269450577E+04  0.25500000920E-02 0. -1.
    10030    2    1    2    0    0  0.00000000000E+00  0.00000000000E+00  0.98799584057E+03  0.32418859559E+04  0.30876672052E+04 0.  0.
        1    1    3    3  502    0 -0.14186468956E+04  0.28784271578E+03  0.10574679772E+04  0.17926658825E+04  0.50400001928E-02 0.  1.
       -1    1    3    3    0  502  0.14186468956E+04 -0.28784271578E+03 -0.69472136626E+02  0.14492200734E+04  0.50400001928E-02 0. -1.
</event>
<event>
 5   0  0.4900679E-06  0.2269244E+04  0.7818609E-02  0.8490147E-01
       -2   -1    0    0    0  501  0.00000000000E+00  0.00000000000E+00  0.11614747724E+04  0.11614747724E+04  0.25500000920E-02 0. -1.
        2   -1    0    0  501    0  0.00000000000E+00  0.00000000000E+00 -0.11083903945E+04  0.11083903945E+04  0.25500000920E-02 0.  1.
    10030    2    1    2    0    0  0.00000000000E+00  0.00000000000E+00  0.53084377816E+02  0.22698651669E+04  0.22692443510E+04 0.  0.
        4    1    3    3  502    0  0.48707486989E+03  0.39413456161E+02  0.10508196559E+04  0.11588869279E+04  0.12699999809E+01 0. -1.
       -4    1    3    3    0  502 -0.48707486989E+03 -0.39413456161E+02 -0.99773527813E+03  0.11109782390E+04  0.12699999809E+01 0.  1.
</event>
<event>
 5   0  0.4927533E-06  0.3068091E+04  0.7818609E-02  0.8224550E-01
       -2   -1    0    0    0  501  0.00000000000E+00  0.00000000000E+00  0.16444837313E+04  0.16444837313E+04  0.25500000920E-02 0. -1.
        2   -1    0    0  501    0  0.00000000000E+00  0.00000000000E+00 -0.14310239345E+04  0.14310239345E+04  0.25500000920E-02 0.  1.
    10030    2    1    2    0    0  0.00000000000E+00  0.00000000000E+00  0.21345979676E+03  0.30755076658E+04  0.30680909892E+04 0.  0.
        5    1    3    3  502    0 -0.52333400675E+03 -0.12295065151E+04  0.86201578143E+03  0.15901754779E+04  0.46999998093E+01 0. -1.
       -5    1    3    3    0  502  0.52333400675E+03  0.12295065151E+04 -0.64855598467E+03  0.14853321879E+04  0.46999998093E+01 0.  1.
</event>
<event>
 5   0  0.5001658E-06  0.2918088E+04  0.7818609E-02  0.8267516E-01
        2   -1    0    0  501    0  0.00000000000E+00  0.00000000000E+00  0.21039398310E+04  0.21039398310E+04  0.25500000920E-02 0.  1.
       -2   -1    0    0    0  501  0.00000000000E+00  0.00000000000E+00 -0.10118203663E+04  0.10118203663E+04  0.25500000920E-02 0. -1.
    10030    2    1    2    0    0  0.00000000000E+00  0.00000000000E+00  0.10921194647E+04  0.31157601972E+04  0.29180878468E+04 0.  0.
        3    1    3    3  502    0  0.19256933616E+03  0.81675852337E+03  0.18204926163E+04  0.20045874416E+04  0.10100000352E+00 0.  1.
       -3    1    3    3    0  502 -0.19256933616E+03 -0.81675852337E+03 -0.72837315159E+03  0.11111727556E+04  0.10100000352E+00 0. -1.
</event>
<event>
 5   0  0.1843709E-06  0.3075038E+04  0.7818609E-02  0.8222622E-01
       -1   -1    0    0    0  501  0.00000000000E+00  0.00000000000E+00  0.11852029710E+04  0.11852029710E+04  0.50400001928E-02 0.  1.
        1   -1    0    0  501    0  0.00000000000E+00  0.00000000000E+00 -0.19945650527E+04  0.19945650527E+04  0.50400001928E-02 0. -1.
    10030    2    1    2    0    0  0.00000000000E+00  0.00000000000E+00 -0.80936208171E+03  0.31797680236E+04  0.30750378380E+04 0.  0.
        4    1    3    3  502    0 -0.46300960203E+03 -0.92724531935E+02 -0.19177265719E+04  0.19750069741E+04  0.12699999809E+01 0. -1.
       -4    1    3    3    0  502  0.46300960203E+03  0.92724531935E+02  0.11083644902E+04  0.12047610495E+04  0.12699999809E+01 0.  1.
</event>
<event>
 5   0  0.4927533E-06  0.3067235E+04  0.7818609E-02  0.8224788E-01
        2   -1    0    0  501    0  0.00000000000E+00  0.00000000000E+00  0.17989862494E+04  0.17989862494E+04  0.25500000920E-02 0. -1.
       -2   -1    0    0    0  501  0.00000000000E+00  0.00000000000E+00 -0.13073934638E+04  0.13073934638E+04  0.25500000920E-02 0.  1.
    10030    2    1    2    0    0  0.00000000000E+00  0.00000000000E+00  0.49159278557E+03  0.31063797131E+04  0.30672351484E+04 0.  0.
        5    1    3    3  502    0  0.10496822120E+04  0.47892749176E+03 -0.77742248249E+03  0.13912627699E+04  0.46999998093E+01 0.  1.
       -5    1    3    3    0  502 -0.10496822120E+04 -0.47892749176E+03  0.12690152681E+04  0.17151169433E+04  0.46999998093E+01 0. -1.
</event>
<event>
 5   0  0.1853742E-06  0.3071160E+04  0.7818609E-02  0.8223698E-01
        1   -1    0    0  501    0  0.00000000000E+00  0.00000000000E+00  0.13412984793E+04  0.13412984793E+04  0.50400001928E-02 0.  1.
       -1   -1    0    0    0  501  0.00000000000E+00  0.00000000000E+00 -0.17580020609E+04  0.17580020609E+04  0.50400001928E-02 0. -1.
    10030    2    1    2    0    0  0.00000000000E+00  0.00000000000E+00 -0.41670358160E+03  0.30993005402E+04  0.30711597099E+04 0.  0.
        5    1    3    3  502    0  0.48616755480E+03  0.41038617459E+03  0.12020261406E+04  0.13600237632E+04  0.46999998093E+01 0.  1.
       -5    1    3    3    0  502 -0.48616755480E+03 -0.41038617459E+03 -0.16187297222E+04  0.17392767771E+04  0.46999998093E+01 0. -1.
</event>
<event>
 5   0  0.1853742E-06  0.3130185E+04  0.7818609E-02  0.8207502E-01
        1   -1    0    0  501    0  0.00000000000E+00  0.00000000000E+00  0.89848993535E+03  0.89848993537E+03  0.50400001928E-02 0. -1.
       -1   -1    0    0    0  501  0.00000000000E+00  0.00000000000E+00 -0.27262576364E+04  0.27262576364E+04  0.50400001928E-02 0.  1.
    10030    2    1    2    0    0  0.00000000000E+00  0.00000000000E+00 -0.18277677011E+04  0.36247475718E+04  0.31301853284E+04 0.  0.
        5    1    3    3  502    0 -0.60552026280E+03 -0.14303438260E+04 -0.69127490850E+03  0.17001239185E+04  0.46999998093E+01 0. -1.
       -5    1    3    3    0  502  0.60552026280E+03  0.14303438260E+04 -0.11364927926E+04  0.19246236533E+04  0.46999998093E+01 0.  1.
</event>
<event>
 5   0  0.1853742E-06  0.3070425E+04  0.7818609E-02  0.8223902E-01
       -1   -1    0    0    0  501  0.00000000000E+00  0.00000000000E+00  0.21929194330E+04  0.21929194330E+04  0.50400001928E-02 0.  1.
        1   -1    0    0  501    0  0.00000000000E+00  0.00000000000E+00 -0.10747668098E+04  0.10747668098E+04  0.50400001928E-02 0. -1.
    10030    2    1    2    0    0  0.00000000000E+00  0.00000000000E+00  0.11181526232E+04  0.32676862429E+04  0.30704247415E+04 0.  0.
        5    1    3    3  502    0 -0.49156534825E+03 -0.14504955441E+04  0.44604000203E+03  0.15951638124E+04  0.46999998093E+01 0. -1.
       -5    1    3    3    0  502  0.49156534825E+03  0.14504955441E+04  0.67211262118E+03  0.16725224305E+04  0.46999998093E+01 0.  1.
</event>
<event>
 5   0  0.1840431E-06  0.3039057E+04  0.7818609E-02  0.8232665E-01
        1   -1    0    0  501    0  0.00000000000E+00  0.00000000000E+00  0.23981359253E+04  0.23981359253E+04  0.50400001928E-02 0.  1.
       -1   -1    0    0    0  501  0.00000000000E+00  0.00000000000E+00 -0.96281723437E+03  0.96281723438E+03  0.50400001928E-02 0. -1.
    10030    2    1    2    0    0  0.00000000000E+00  0.00000000000E+00  0.14353186909E+04  0.33609531597E+04  0.30390568269E+04 0.  0.
        1    1    3    3  502    0  0.69121611584E+03  0.12443576743E+04  0.12958357662E+03  0.14293346857E+04  0.50400001928E-02 0.  1.
       -1    1    3    3    0  502 -0.69121611584E+03 -0.12443576743E+04  0.13057351143E+04  0.19316184740E+04  0.50400001928E-02 0. -1.
</event>
<event>
 5   0  0.5001658E-06  0.3035002E+04  0.7818609E-02  0.8233806E-01
        2   -1    0    0  501    0  0.00000000000E+00  0.00000000000E+00  0.11735939619E+04  0.11735939619E+04  0.25500000920E-02 0.  1.
       -2   -1    0    0    0  501  0.00000000000E+00  0.00000000000E+00 -0.19621859762E+04  0.19621859762E+04  0.25500000920E-02 0. -1.
    10030    2    1    2    0    0  0.00000000000E+00  0.00000000000E+00 -0.78859201431E+03  0.31357799382E+04  0.30350022168E+04 0.  0.
        3    1    3    3  502    0 -0.32615066372E+03  0.14415376757E+03 -0.19182841329E+04  0.19511454556E+04  0.10100000352E+00 0. -1.
       -3    1    3    3    0  502  0.32615066372E+03 -0.14415376757E+03  0.11296921186E+04  0.11846344826E+04  0.10100000352E+00 0.  1.
</event>
<event>
 5   0  0.1649875E-06  0.3111492E+04  0.7818609E-02  0.8212591E-01
       -4   -1    0    0    0  501  0.00000000000E+00  0.00000000000E+00  0.18945361655E+04  0.18945365912E+04  0.12699999809E+01 0.  1.
        4   -1    0    0  501    0  0.00000000000E+00  0.00000000000E+00 -0.12775393580E+04  0.12775399893E+04  0.12699999809E+01 0. -1.
    10030    2    1    2    0    0  0.00000000000E+00  0.00000000000E+00  0.61699680750E+03  0.31720765805E+04  0.31114923705E+04 0.  0.
        5    1    3    3  502    0  0.81270357572E+03  0.13157308413E+04  0.13582107980E+03  0.15524510313E+04  0.46999998093E+01 0. -1.
       -5    1    3    3    0  502 -0.81270357572E+03 -0.13157308413E+04  0.48117572770E+03  0.16196255492E+04  0.46999998093E+01 0.  1.
</event>
<event>
 5   0  0.1843709E-06  0.3059374E+04  0.7818609E-02  0.8226977E-01
        1   -1    0    0  501    0  0.00000000000E+00  0.00000000000E+00  0.18206539883E+04  0.18206539883E+04  0.50400001928E-02 0.  1.
       -1   -1    0    0    0  501  0.00000000000E+00  0.00000000000E+00 -0.12852205497E+04  0.12852205498E+04  0.50400001928E-02 0. -1.
    10030    2    1    2    0    0  0.00000000000E+00  0.00000000000E+00  0.53543343854E+03  0.31058745380E+04  0.30593737397E+04 0.  0.
        4    1    3    3  502    0  0.14624356196E+04  0.35625747724E+03 -0.90121549202E+01  0.15052309335E+04  0.12699999809E+01 0.  1.
       -4    1    3    3    0  502 -0.14624356196E+04 -0.35625747724E+03  0.54444559346E+03  0.16006436045E+04  0.12699999809E+01 0. -1.
</event>
<event>
 5   0  0.5114870E-06  0.2253275E+04  0.7818609E-02  0.8496575E-01
        2   -1    0    0  501    0  0.00000000000E+00  0.00000000000E+00  0.12275022841E+04  0.12275022841E+04  0.25500000920E-02 0. -1.
       -2   -1    0    0    0  501  0.00000000000E+00  0.00000000000E+00 -0.10340612772E+04  0.10340612772E+04  0.25500000920E-02 0.  1.
    10030    2    1    2    0    0  0.00000000000E+00  0.00000000000E+00  0.19344100686E+03  0.22615635613E+04  0.22532754644E+04 0.  0.
        2    1    3    3  502    0 -0.12997403561E+03  0.63715994617E+03  0.10201298701E+04  0.12097648527E+04  0.25500000920E-02 0. -1.
       -2    1    3    3    0  502  0.12997403561E+03 -0.63715994617E+03 -0.82668886320E+03  0.10517987086E+04  0.25500000920E-02 0.  1.
</event>
<event>
 5   0  0.5114870E-06  0.3163309E+04  0.7818609E-02  0.8198575E-01
        2   -1    0    0  501    0  0.00000000000E+00  0.00000000000E+00  0.14025584682E+04  0.14025584682E+04  0.25500000920E-02 0.  1.
       -2   -1    0    0    0  501  0.00000000000E+00  0.00000000000E+00 -0.17836199886E+04  0.17836199886E+04  0.25500000920E-02 0. -1.
    10030    2    1    2    0    0  0.00000000000E+00  0.00000000000E+00 -0.38106152041E+03  0.31861784569E+04  0.31633092287E+04 0.  0.
        2    1    3    3  502    0 -0.58645130457E+03  0.12310178859E+04 -0.99776169877E+03  0.16896326747E+04  0.25500000920E-02 0. -1.
       -2    1    3    3    0  502  0.58645130457E+03 -0.12310178859E+04  0.61670017836E+03  0.14965457821E+04  0.25500000920E-02 0.  1.
</event>
<event>
 5   0  0.1840431E-06  0.3058329E+04  0.7818609E-02  0.8227268E-01
        1   -1    0    0  501    0  0.00000000000E+00  0.00000000000E+00  0.14028429367E+04  0.14028429367E+04  0.50400001928E-02 0.  1.
       -1   -1    0    0    0  501  0.00000000000E+00  0.00000000000E+00 -0.16668611345E+04  0.16668611345E+04  0.50400001928E-02 0. -1.
    10030    2    1    2    0    0  0.00000000000E+00  0.00000000000E+00 -0.26401819777E+03  0.30697040712E+04  0.30583291968E+04 0.  0.
        1    1    3    3  502    0 -0.73794042691E+03  0.13275339510E+04 -0.30998725365E+03  0.15501595280E+04  0.50400001928E-02 0.  1.
       -1    1    3    3    0  502  0.73794042691E+03 -0.13275339510E+04  0.45969055879E+02  0.15195445432E+04  0.50400001928E-02 0. -1.
</event>
<event>
 5   0  0.4927533E-06  0.3159346E+04  0.7818609E-02  0.8199637E-01
       -2   -1    0    0    0  501  0.00000000000E+00  0.00000000000E+00  0.15185283441E+04  0.15185283441E+04  0.25500000920E-02 0.  1.
        2   -1    0    0  501    0  0.00000000000E+00  0.00000000000E+00 -0.16432798848E+04  0.16432798848E+04  0.25500000920E-02 0. -1.
    10030    2    1    2    0    0  0.00000000000E+00  0.00000000000E+00 -0.12475154078E+03  0.31618082289E+04  0.31593461870E+04 0.  0.
        5    1    3    3  502    0 -0.11064942714E+04  0.99847000358E+03  0.46155208919E+03  0.15602321435E+04  0.46999998093E+01 0. -1.
       -5    1    3    3    0  502  0.11064942714E+04 -0.99847000358E+03 -0.58630362998E+03  0.16015760854E+04  0.46999998093E+01 0.  1.
</event>
<event>
 5   0  0.1885307E-06  0.3081739E+04  0.7818609E-02  0.8220767E-01
        1   -1    0    0  501    0  0.00000000000E+00  0.00000000000E+00  0.14320068726E+04  0.14320068726E+04  0.50400001928E-02 0.  1.
       -1   -1    0    0    0  501  0.00000000000E+00  0.00000000000E+00 -0.16580076072E+04  0.16580076072E+04  0.50400001928E-02 0. -1.
    10030    2    1    2    0    0  0.00000000000E+00  0.00000000000E+00 -0.22600073455E+03  0.30900144798E+04  0.30817386575E+04 0.  0.
        3    1    3    3  502    0  0.52286761359E+03  0.98068216296E+03 -0.11831763738E+04  0.16232789002E+04  0.10100000352E+00 0. -1.
       -3    1    3    3    0  502 -0.52286761359E+03 -0.98068216296E+03  0.95717563921E+03  0.14667355796E+04  0.10100000352E+00 0.  1.
</event>
<event>
 5   0  0.4900679E-06  0.3049669E+04  0.7818609E-02  0.8229688E-01
       -2   -1    0    0    0  501  0.00000000000E+00  0.00000000000E+00  0.78181541435E+03  0.78181541435E+03  0.25500000920E-02 0. -1.
        2   -1    0    0  501    0  0.00000000000E+00  0.00000000000E+00 -0.29740022693E+04  0.29740022693E+04  0.25500000920E-02 0.  1.
    10030    2    1    2    0    0  0.00000000000E+00  0.00000000000E+00 -0.21921868549E+04  0.37558176836E+04  0.30496693699E+04 0.  0.
        4    1    3    3  502    0  0.94721429745E+03  0.11624571917E+04 -0.14369402111E+04  0.20768534929E+04  0.12699999809E+01 0.  1.
       -4    1    3    3    0  502 -0.94721429745E+03 -0.11624571917E+04 -0.75524664387E+03  0.16789641907E+04  0.12699999809E+01 0. -1.
</event>
<event>
 5   0  0.1649875E-06  0.3477504E+04  0.7818609E-02  0.8119142E-01
        4   -1    0    0  501    0  0.00000000000E+00  0.00000000000E+00  0.17036064961E+04  0.17036069695E+04  0.12699999809E+01 0. -1.
       -4   -1    0    0    0  501  0.00000000000E+00  0.00000000000E+00 -0.17746218686E+04  0.17746223231E+04  0.12699999809E+01 0.  1.
    10030    2    1    2    0    0  0.00000000000E+00  0.00000000000E+00 -0.71015372503E+02  0.34782292926E+04  0.34775042528E+04 0.  0.
        5    1    3    3  502    0 -0.13530785880E+04 -0.41375730216E+03 -0.10462727322E+04  0.17597515423E+04  0.46999998093E+01 0.  1.
       -5    1    3    3    0  502  0.13530785880E+04  0.41375730216E+03  0.97525735970E+03  0.17184777503E+04  0.46999998093E+01 0. -1.
</event>
<event>
 5   0  0.1885307E-06  0.3062946E+04  0.7818609E-02  0.8225981E-01
       -1   -1    0    0    0  501  0.00000000000E+00  0.00000000000E+00  0.12554944668E+04  0.12554944668E+04  0.50400001928E-02 0.  1.
        1   -1    0    0  501    0  0.00000000000E+00  0.00000000000E+00 -0.18681159361E+04  0.18681159361E+04  0.50400001928E-02 0. -1.
    10030    2    1    2    0    0  0.00000000000E+00  0.00000000000E+00 -0.61262146931E+03  0.31236104029E+04  0.30629457854E+04 0.  0.
        3    1    3    3  502    0 -0.87282898723E+03  0.11513742175E+04 -0.82422377442E+03  0.16633814566E+04  0.10100000352E+00 0. -1.
       -3    1    3    3    0  502  0.87282898723E+03 -0.11513742175E+04  0.21160230511E+03  0.14602289463E+04  0.10100000352E+00 0.  1.
</event>
<event>
 5   0  0.1840431E-06  0.3065057E+04  0.7818609E-02  0.8225394E-01
        1   -1    0    0  501    0  0.00000000000E+00  0.00000000000E+00  0.14854887908E+04  0.14854887909E+04  0.50400001928E-02 0. -1.
       -1   -1    0    0    0  501  0.00000000000E+00  0.00000000000E+00 -0.15810573559E+04  0.15810573559E+04  0.50400001928E-02 0.  1.
    10030    2    1    2    0    0  0.00000000000E+00  0.00000000000E+00 -0.95568565006E+02  0.30665461467E+04  0.30650565932E+04 0.  0.
        1    1    3    3  502    0  0.64743888319E+03 -0.73589015986E+03  0.11308933173E+04  0.14965397188E+04  0.50400001928E-02 0. -1.
       -1    1    3    3    0  502 -0.64743888319E+03  0.73589015986E+03 -0.12264618823E+04  0.15700064279E+04  0.50400001928E-02 0.  1.
</event>
<event>
 5   0  0.1885307E-06  0.3147658E+04  0.7818609E-02  0.8202779E-01
        1   -1    0    0  501    0  0.00000000000E+00  0.00000000000E+00  0.91969197194E+03  0.91969197195E+03  0.50400001928E-02 0.  1.
       -1   -1    0    0    0  501  0.00000000000E+00  0.00000000000E+00 -0.26932261380E+04  0.26932261380E+04  0.50400001928E-02 0. -1.
    10030    2    1    2    0    0  0.00000000000E+00  0.00000000000E+00 -0.17735341661E+04  0.36129181100E+04  0.31476584680E+04 0.  0.
        3    1    3    3  502    0 -0.64001648958E+03  0.13107375597E+04 -0.15651268820E+04  0.21394569929E+04  0.10100000352E+00 0. -1.
       -3    1    3    3    0  502  0.64001648958E+03 -0.13107375597E+04 -0.20840728406E+03  0.14734611171E+04  0.10100000352E+00 0.  1.
</event>
<event>
 5   0  0.4900679E-06  0.3084732E+04  0.7818609E-02  0.8219941E-01
       -2   -1    0    0    0  501  0.00000000000E+00  0.00000000000E+00  0.16427354705E+04  0.16427354705E+04  0.25500000920E-02 0. -1.
        2   -1    0    0  501    0  0.00000000000E+00  0.00000000000E+00 -0.14481287010E+04  0.14481287010E+04  0.25500000920E-02 0.  1.
    10030    2    1    2    0    0  0.00000000000E+00  0.00000000000E+00  0.19460676951E+03  0.30908641715E+04  0.30847316790E+04 0.  0.
        4    1    3    3  502    0 -0.79241826092E+03 -0.12999056324E+04 -0.15059382963E+03  0.15298239990E+04  0.12699999809E+01 0.  1.
       -4    1    3    3    0  502  0.79241826092E+03  0.12999056324E+04  0.34520059914E+03  0.15610401725E+04  0.12699999809E+01 0. -1.
</event>
<event>
 5   0  0.5328368E-06  0.2982651E+04  0.7818609E-02  0.8248702E-01
       -2   -1    0    0    0  501  0.00000000000E+00  0.00000000000E+00  0.91047738609E+03  0.91047738609E+03  0.25500000920E-02 0. -1.
        2   -1    0    0  501    0  0.00000000000E+00  0.00000000000E+00 -0.24427319624E+04  0.24427319624E+04  0.25500000920E-02 0.  1.
    10030    2    1    2    0    0  0.00000000000E+00  0.00000000000E+00 -0.15322545763E+04  0.33532093485E+04  0.29826513118E+04 0.  0.
        1    1    3    3  502    0  0.94730694160E+03  0.44492970170E+03  0.42826589798E+03  0.11308247258E+04  0.50400001928E-02 0. -1.
       -1    1    3    3    0  502 -0.94730694160E+03 -0.44492970170E+03 -0.19605204743E+04  0.22223846227E+04  0.50400001928E-02 0.  1.
</event>
<event>
 5   0  0.1836401E-06  0.3160877E+04  0.7818609E-02  0.8199227E-01
        1   -1    0    0  501    0  0.00000000000E+00  0.00000000000E+00  0.21456975644E+04  0.21456975644E+04  0.50400001928E-02 0. -1.
       -1   -1    0    0    0  501  0.00000000000E+00  0.00000000000E+00 -0.11640903876E+04  0.11640903876E+04  0.50400001928E-02 0.  1.
    10030    2    1    2    0    0  0.00000000000E+00  0.00000000000E+00  0.98160717678E+03  0.33097879519E+04  0.31608770361E+04 0.  0.
        2    1    3    3  502    0 -0.40020219222E+03 -0.14766143485E+04  0.75595265937E+02  0.15317527128E+04  0.25500000920E-02 0. -1.
       -2    1    3    3    0  502  0.40020219222E+03  0.14766143485E+04  0.90601191084E+03  0.17780352391E+04  0.25500000920E-02 0.  1.
</event>
<event>
 5   0  0.1836401E-06  0.3112670E+04  0.7818609E-02  0.8212269E-01
       -1   -1    0    0    0  501  0.00000000000E+00  0.00000000000E+00  0.14911181589E+04  0.14911181589E+04  0.50400001928E-02 0.  1.
        1   -1    0    0  501    0  0.00000000000E+00  0.00000000000E+00 -0.16244042293E+04  0.16244042293E+04  0.50400001928E-02 0. -1.
    10030    2    1    2    0    0  0.00000000000E+00  0.00000000000E+00 -0.13328607045E+03  0.31155223882E+04  0.31126700074E+04 0.  0.
        2    1    3    3  502    0  0.42952853321E+03  0.25443292601E+02  0.14304001640E+04  0.14937157531E+04  0.25500000920E-02 0.  1.
       -2    1    3    3    0  502 -0.42952853321E+03 -0.25443292601E+02 -0.15636862344E+04  0.16218066351E+04  0.25500000920E-02 0. -1.
</event>
<event>
 5   0  0.1649875E-06  0.3024442E+04  0.7818609E-02  0.8236786E-01
        3   -1    0    0  501    0  0.00000000000E+00  0.00000000000E+00  0.16086502407E+04  0.16086502439E+04  0.10100000352E+00 0.  1.
       -3   -1    0    0    0  501  0.00000000000E+00  0.00000000000E+00 -0.14215718847E+04  0.14215718883E+04  0.10100000352E+00 0. -1.
    10030    2    1    2    0    0  0.00000000000E+00  0.00000000000E+00  0.18707835599E+03  0.30302221322E+04  0.30244417434E+04 0.  0.
        5    1    3    3  502    0 -0.62889906458E+03  0.13346282618E+04  0.42590085010E+03  0.15356302467E+04  0.46999998093E+01 0.  1.
       -5    1    3    3    0  502  0.62889906458E+03 -0.13346282618E+04 -0.23882249412E+03  0.14945918855E+04  0.46999998093E+01 0. -1.
</event>
<event>
 5   0  0.4900679E-06  0.3057232E+04  0.7818609E-02  0.8227574E-01
        2   -1    0    0  501    0  0.00000000000E+00  0.00000000000E+00  0.13083091302E+04  0.13083091302E+04  0.25500000920E-02 0.  1.
       -2   -1    0    0    0  501  0.00000000000E+00  0.00000000000E+00 -0.17860207689E+04  0.17860207689E+04  0.25500000920E-02 0. -1.
    10030    2    1    2    0    0  0.00000000000E+00  0.00000000000E+00 -0.47771163873E+03  0.30943298991E+04  0.30572322638E+04 0.  0.
        4    1    3    3  502    0  0.77019118582E+03 -0.39930389197E+03 -0.15127095182E+04  0.17438261841E+04  0.12699999809E+01 0. -1.
       -4    1    3    3    0  502 -0.77019118582E+03  0.39930389197E+03  0.10349978795E+04  0.13505037150E+04  0.12699999809E+01 0.  1.
</event>
<event>
 5   0  0.1885307E-06  0.2935789E+04  0.7818609E-02  0.8262308E-01
        1   -1    0    0  501    0  0.00000000000E+00  0.00000000000E+00  0.21015651382E+04  0.21015651382E+04  0.50400001928E-02 0.  1.
       -1   -1    0    0    0  501  0.00000000000E+00  0.00000000000E+00 -0.10252905315E+04  0.10252905315E+04  0.50400001928E-02 0. -1.
    10030    2    1    2    0    0  0.00000000000E+00  0.00000000000E+00  0.10762746067E+04  0.31268556697E+04  0.29357893913E+04 0.  0.
        3    1    3    3  502    0  0.34292668272E+03  0.73941162170E+03 -0.76212928494E+03  0.11158715487E+04  0.10100000352E+00 0. -1.
       -3    1    3    3    0  502 -0.34292668272E+03 -0.73941162170E+03  0.18384038916E+04  0.20109841210E+04  0.10100000352E+00 0.  1.
</event>
<event>
 5   0  0.4900679E-06  0.3082800E+04  0.7818609E-02  0.8220474E-01
       -2   -1    0    0    0  501  0.00000000000E+00  0.00000000000E+00  0.69102843728E+03  0.69102843728E+03  0.25500000920E-02 0. -1.
        2   -1    0    0  501    0  0.00000000000E+00  0.00000000000E+00 -0.34382295588E+04  0.34382295588E+04  0.25500000920E-02 0.  1.
    10030    2    1    2    0    0  0.00000000000E+00  0.00000000000E+00 -0.27472011216E+04  0.41292579961E+04  0.30828002848E+04 0.  0.
        4    1    3    3  502    0 -0.15276356055E+04 -0.16152598792E+01 -0.10983129285E+04  0.18814797512E+04  0.12699999809E+01 0.  1.
       -4    1    3    3    0  502  0.15276356055E+04  0.16152598792E+01 -0.16488881931E+04  0.22477782449E+04  0.12699999809E+01 0. -1.
</event>
<event>
 5   0  0.1885307E-06  0.3097997E+04  0.7818609E-02  0.8216288E-01
       -1   -1    0    0    0  501  0.00000000000E+00  0.00000000000E+00  0.91042157494E+03  0.91042157495E+03  0.50400001928E-02 0.  1.
        1   -1    0    0  501    0  0.00000000000E+00  0.00000000000E+00 -0.26354785305E+04  0.26354785305E+04  0.50400001928E-02 0. -1.
    10030    2    1    2    0    0  0.00000000000E+00  0.00000000000E+00 -0.17250569555E+04  0.35459001054E+04  0.30979971042E+04 0.  0.
        3    1    3    3  502    0  0.86036171664E+03 -0.45532440090E+03 -0.22416640119E+04  0.24438903711E+04  0.10100000352E+00 0. -1.
       -3    1    3    3    0  502 -0.86036171664E+03  0.45532440090E+03  0.51660705641E+03  0.11020097343E+04  0.10100000352E+00 0.  1.
</event>
<event>
 5   0  0.1885307E-06  0.3054493E+04  0.7818609E-02  0.8228339E-01
        1   -1    0    0  501    0  0.00000000000E+00  0.00000000000E+00  0.13513354747E+04  0.13513354747E+04  0.50400001928E-02 0.  1.
       -1   -1    0    0    0  501  0.00000000000E+00  0.00000000000E+00 -0.17260571927E+04  0.17260571927E+04  0.50400001928E-02 0. -1.
    10030    2    1    2    0    0  0.00000000000E+00  0.00000000000E+00 -0.37472171800E+03  0.30773926674E+04  0.30544932908E+04 0.  0.
        3    1    3    3  502    0 -0.14236295393E+03  0.13577474874E+04 -0.87713719367E+03  0.16226876215E+04  0.10100000352E+00 0. -1.
       -3    1    3    3    0  502  0.14236295393E+03 -0.13577474874E+04  0.50241547567E+03  0.14547050459E+04  0.10100000352E+00 0.  1.
</event>
<event>
 5   0  0.4900679E-06  0.3128791E+04  0.7818609E-02  0.8207881E-01
        2   -1    0    0  501    0  0.00000000000E+00  0.00000000000E+00  0.17068785419E+04  0.17068785419E+04  0.25500000920E-02 0. -1.
       -2   -1    0    0    0  501  0.00000000000E+00  0.00000000000E+00 -0.14338062720E+04  0.14338062720E+04  0.25500000920E-02 0.  1.
    10030    2    1    2    0    0  0.00000000000E+00  0.00000000000E+00  0.27307226984E+03  0.31406848139E+04  0.31287909224E+04 0.  0.
        4    1    3    3  502    0  0.12598617370E+04 -0.90522445907E+03 -0.65845341698E+02  0.15527459997E+04  0.12699999809E+01 0.  1.
       -4    1    3    3    0  502 -0.12598617370E+04  0.90522445907E+03  0.33891761153E+03  0.15879388143E+04  0.12699999809E+01 0. -1.
</event>
<event>
 5   0  0.5328368E-06  0.3077443E+04  0.7818609E-02  0.8221956E-01
       -2   -1    0    0    0  501  0.00000000000E+00  0.00000000000E+00  0.12327744735E+04  0.12327744735E+04  0.25500000920E-02 0. -1.
        2   -1    0    0  501    0  0.00000000000E+00  0.00000000000E+00 -0.19205971852E+04  0.19205971852E+04  0.25500000920E-02 0.  1.
    10030    2    1    2    0    0  0.00000000000E+00  0.00000000000E+00 -0.68782271170E+03  0.31533716586E+04  0.30774425640E+04 0.  0.
        1    1    3    3  502    0 -0.13463602148E+04 -0.35553408526E+03  0.32689557541E+03  0.14303674462E+04  0.50400001928E-02 0.  1.
       -1    1    3    3    0  502  0.13463602148E+04  0.35553408526E+03 -0.10147182871E+04  0.17230042124E+04  0.50400001928E-02 0. -1.
</event>
<event>
 5   0  0.4900679E-06  0.3094449E+04  0.7818609E-02  0.8217263E-01
        2   -1    0    0  501    0  0.00000000000E+00  0.00000000000E+00  0.16392826837E+04  0.16392826837E+04  0.25500000920E-02 0.  1.
       -2   -1    0    0    0  501  0.00000000000E+00  0.00000000000E+00 -0.14603358646E+04  0.14603358646E+04  0.25500000920E-02 0. -1.
    10030    2    1    2    0    0  0.00000000000E+00  0.00000000000E+00  0.17894681916E+03  0.30996185483E+04  0.30944487685E+04 0.  0.
        4    1    3    3  502    0  0.11096734219E+04  0.75698903405E+03 -0.67959454482E+03  0.15054095320E+04  0.12699999809E+01 0. -1.
       -4    1    3    3    0  502 -0.11096734219E+04 -0.75698903405E+03  0.85854136398E+03  0.15942090162E+04  0.12699999809E+01 0.  1.
</event>
<event>
 5   0  0.4900679E-06  0.3058191E+04  0.7818609E-02  0.8227307E-01
       -2   -1    0    0    0  501  0.00000000000E+00  0.00000000000E+00  0.13616034818E+04  0.13616034818E+04  0.25500000920E-02 0.  1.
        2   -1    0    0  501    0  0.00000000000E+00  0.00000000000E+00 -0.17171910469E+04  0.17171910469E+04  0.25500000920E-02 0. -1.
    10030    2    1    2    0    0  0.00000000000E+00  0.00000000000E+00 -0.35558756509E+03  0.30787945288E+04  0.30581911703E+04 0.  0.
        4    1    3    3  502    0 -0.26126358306E+03  0.12830919677E+04 -0.97276432205E+03  0.16312129526E+04  0.12699999809E+01 0. -1.
       -4    1    3    3    0  502  0.26126358306E+03 -0.12830919677E+04  0.61717675696E+03  0.14475815762E+04  0.12699999809E+01 0.  1.
</event>
<event>
 5   0  0.1840431E-06  0.3126289E+04  0.7818609E-02  0.8208560E-01
       -1   -1    0    0    0  501  0.00000000000E+00  0.00000000000E+00  0.27382478527E+04  0.27382478527E+04  0.50400001928E-02 0. -1.
        1   -1    0    0  501    0  0.00000000000E+00  0.00000000000E+00 -0.89232993853E+03  0.89232993854E+03  0.50400001928E-02 0.  1.
    10030    2    1    2    0    0  0.00000000000E+00  0.00000000000E+00  0.18459179142E+04  0.36305777913E+04  0.31262888786E+04 0.  0.
        1    1    3    3  502    0  0.10314156392E+04 -0.11726048233E+04  0.10017246614E+04  0.18553362470E+04  0.50400001928E-02 0. -1.
       -1    1    3    3    0  502 -0.10314156392E+04  0.11726048233E+04  0.84419325280E+03  0.17752415442E+04  0.50400001928E-02 0.  1.
</event>
<event>
 5   0  0.1885307E-06  0.3087145E+04  0.7818609E-02  0.8219275E-01
       -1   -1    0    0    0  501  0.00000000000E+00  0.00000000000E+00  0.15364841874E+04  0.15364841874E+04  0.50400001928E-02 0.  1.
        1   -1    0    0  501    0  0.00000000000E+00  0.00000000000E+00 -0.15506930861E+04  0.15506930861E+04  0.50400001928E-02 0. -1.
    10030    2    1    2    0    0  0.00000000000E+00  0.00000000000E+00 -0.14208898711E+02  0.30871772734E+04  0.30871445747E+04 0.  0.
        3    1    3    3  502    0 -0.12817432573E+03 -0.67957147653E+03  0.13728990610E+04  0.15372370967E+04  0.10100000352E+00 0.  1.
       -3    1    3    3    0  502  0.12817432573E+03  0.67957147653E+03 -0.13871079597E+04  0.15499401768E+04  0.10100000352E+00 0. -1.
</event>
<event>
 5   0  0.5114870E-06  0.3132252E+04  0.7818609E-02  0.8206942E-01
        2   -1    0    0  501    0  0.00000000000E+00  0.00000000000E+00  0.13495163024E+04  0.13495163024E+04  0.25500000920E-02 0. -1.
       -2   -1    0    0    0  501  0.00000000000E+00  0.00000000000E+00 -0.18175030644E+04  0.18175030644E+04  0.25500000920E-02 0.  1.
    10030    2    1    2    0    0  0.00000000000E+00  0.00000000000E+00 -0.46798676199E+03  0.31670193668E+04  0.31322515959E+04 0.  0.
        2    1    3    3  502    0 -0.14001336268E+04 -0.19354097514E+03 -0.91595591073E+03  0.16842824919E+04  0.25500000920E-02 0. -1.
       -2    1    3    3    0  502  0.14001336268E+04  0.19354097514E+03  0.44796914875E+03  0.14827368749E+04  0.25500000920E-02 0.  1.
</event>
<event>
 5   0  0.1836401E-06  0.3133460E+04  0.7818609E-02  0.8206615E-01
        1   -1    0    0  501    0  0.00000000000E+00  0.00000000000E+00  0.22695879593E+04  0.22695879593E+04  0.50400001928E-02 0. -1.
       -1   -1    0    0    0  501  0.00000000000E+00  0.00000000000E+00 -0.10815367548E+04  0.10815367548E+04  0.50400001928E-02 0.  1.
    10030    2    1    2    0    0  0.00000000000E+00  0.00000000000E+00  0.11880512045E+04  0.33511247141E+04  0.31334599383E+04 0.  0.
        2    1    3    3  502    0  0.22830672713E+03  0.13744070084E+04  0.13604104427E+04  0.19472635053E+04  0.25500000920E-02 0. -1.
       -2    1    3    3    0  502 -0.22830672713E+03 -0.13744070084E+04 -0.17235923825E+03  0.14038612088E+04  0.25500000920E-02 0.  1.
</event>
<event>
 5   0  0.1843709E-06  0.3108133E+04  0.7818609E-02  0.8213509E-01
        1   -1    0    0  501    0  0.00000000000E+00  0.00000000000E+00  0.16594449296E+04  0.16594449296E+04  0.50400001928E-02 0.  1.
       -1   -1    0    0    0  501  0.00000000000E+00  0.00000000000E+00 -0.14553797232E+04  0.14553797233E+04  0.50400001928E-02 0. -1.
    10030    2    1    2    0    0  0.00000000000E+00  0.00000000000E+00  0.20406520639E+03  0.31148246529E+04  0.31081328816E+04 0.  0.
        4    1    3    3  502    0  0.37473207816E+03 -0.77471403877E+03 -0.11947839215E+04  0.14724524455E+04  0.12699999809E+01 0. -1.
       -4    1    3    3    0  502 -0.37473207816E+03  0.77471403877E+03  0.13988491279E+04  0.16423722074E+04  0.12699999809E+01 0.  1.
</event>
<event>
 5   0  0.1843709E-06  0.3129047E+04  0.7818609E-02  0.8207811E-01
        1   -1    0    0  501    0  0.00000000000E+00  0.00000000000E+00  0.18337726702E+04  0.18337726702E+04  0.50400001928E-02 0. -1.
       -1   -1    0    0    0  501  0.00000000000E+00  0.00000000000E+00 -0.13348074650E+04  0.13348074650E+04  0.50400001928E-02 0.  1.
    10030    2    1    2    0    0  0.00000000000E+00  0.00000000000E+00  0.49896520518E+03  0.31685801353E+04  0.31290467874E+04 0.  0.
        4    1    3    3  502    0 -0.56056381404E+03 -0.55933837256E+02  0.17275025831E+04  0.18170380214E+04  0.12699999809E+01 0. -1.
       -4    1    3    3    0  502  0.56056381404E+03  0.55933837256E+02 -0.12285373779E+04  0.13515421139E+04  0.12699999809E+01 0.  1.
</event>
<event>
 5   0  0.5114870E-06  0.3184012E+04  0.7818609E-02  0.8193052E-01
       -2   -1    0    0    0  501  0.00000000000E+00  0.00000000000E+00  0.11742141567E+04  0.11742141567E+04  0.25500000920E-02 0. -1.
        2   -1    0    0  501    0  0.00000000000E+00  0.00000000000E+00 -0.21584502951E+04  0.21584502951E+04  0.25500000920E-02 0.  1.
    10030    2    1    2    0    0  0.00000000000E+00  0.00000000000E+00 -0.98423613835E+03  0.33326644518E+04  0.31840118675E+04 0.  0.
        2    1    3    3  502    0 -0.61031271746E+02 -0.14625105931E+04  0.16306200079E+03  0.14728378279E+04  0.25500000920E-02 0. -1.
       -2    1    3    3    0  502  0.61031271746E+02  0.14625105931E+04 -0.11472981391E+04  0.18598266239E+04  0.25500000920E-02 0.  1.
</event>
<event>
 5   0  0.1840431E-06  0.2345200E+04  0.7818609E-02  0.8460310E-01
        1   -1    0    0  501    0  0.00000000000E+00  0.00000000000E+00  0.87416453076E+03  0.87416453077E+03  0.50400001928E-02 0. -1.
       -1   -1    0    0    0  501  0.00000000000E+00  0.00000000000E+00 -0.15729200962E+04  0.15729200962E+04  0.50400001928E-02 0.  1.
    10030    2    1    2    0    0  0.00000000000E+00  0.00000000000E+00 -0.69875556543E+03  0.24470846270E+04  0.23452001687E+04 0.  0.
        1    1    3    3  502    0 -0.10697355617E+04 -0.46501637955E+03 -0.22409257930E+03  0.11877676075E+04  0.50400001928E-02 0.  1.
       -1    1    3    3    0  502  0.10697355617E+04  0.46501637955E+03 -0.47466298613E+03  0.12593170195E+04  0.50400001928E-02 0. -1.
</event>
<event>
 5   0  0.5114870E-06  0.3117385E+04  0.7818609E-02  0.8210983E-01
       -2   -1    0    0    0  501  0.00000000000E+00  0.00000000000E+00  0.16243938167E+04  0.16243938167E+04  0.25500000920E-02 0.  1.
        2   -1    0    0  501    0  0.00000000000E+00  0.00000000000E+00 -0.14956481305E+04  0.14956481305E+04  0.25500000920E-02 0. -1.
    10030    2    1    2    0    0  0.00000000000E+00  0.00000000000E+00  0.12874568622E+03  0.31200419472E+04  0.31173845288E+04 0.  0.
        2    1    3    3  502    0 -0.71590050455E+02 -0.20857519860E+03  0.16087023891E+04  0.16237463242E+04  0.25500000920E-02 0.  1.
       -2    1    3    3    0  502  0.71590050455E+02  0.20857519860E+03 -0.14799567029E+04  0.14962956229E+04  0.25500000920E-02 0. -1.
</event>
<event>
 5   0  0.5114870E-06  0.3163267E+04  0.7818609E-02  0.8198586E-01
       -2   -1    0    0    0  501  0.00000000000E+00  0.00000000000E+00  0.17168309322E+04  0.17168309322E+04  0.25500000920E-02 0. -1.
        2   -1    0    0  501    0  0.00000000000E+00  0.00000000000E+00 -0.14570824846E+04  0.14570824846E+04  0.25500000920E-02 0.  1.
    10030    2    1    2    0    0  0.00000000000E+00  0.00000000000E+00  0.25974844760E+03  0.31739134168E+04  0.31632668432E+04 0.  0.
        2    1    3    3  502    0  0.55675494074E+03  0.47630714520E+03  0.15362764594E+04  0.17020546173E+04  0.25500000920E-02 0. -1.
       -2    1    3    3    0  502 -0.55675494074E+03 -0.47630714520E+03 -0.12765280118E+04  0.14718587995E+04  0.25500000920E-02 0.  1.
</event>
<event>
 5   0  0.5114870E-06  0.3101519E+04  0.7818609E-02  0.8215321E-01
       -2   -1    0    0    0  501  0.00000000000E+00  0.00000000000E+00  0.19681615430E+04  0.19681615430E+04  0.25500000920E-02 0. -1.
        2   -1    0    0  501    0  0.00000000000E+00  0.00000000000E+00 -0.12218786866E+04  0.12218786866E+04  0.25500000920E-02 0.  1.
    10030    2    1    2    0    0  0.00000000000E+00  0.00000000000E+00  0.74628285648E+03  0.31900402296E+04  0.31015187513E+04 0.  0.
        2    1    3    3  502    0 -0.33605791824E+03  0.41775653882E+03  0.18698013194E+04  0.19451510029E+04  0.25500000920E-02 0. -1.
       -2    1    3    3    0  502  0.33605791824E+03 -0.41775653882E+03 -0.11235184629E+04  0.12448892267E+04  0.25500000920E-02 0.  1.
</event>
<event>
 5   0  0.5328368E-06  0.3076198E+04  0.7818609E-02  0.8222301E-01
       -2   -1    0    0    0  501  0.00000000000E+00  0.00000000000E+00  0.23347099132E+04  0.23347099132E+04  0.25500000920E-02 0.  1.
        2   -1    0    0  501    0  0.00000000000E+00  0.00000000000E+00 -0.10132941596E+04  0.10132941596E+04  0.25500000920E-02 0. -1.
    10030    2    1    2    0    0  0.00000000000E+00  0.00000000000E+00  0.13214157536E+04  0.33480040728E+04  0.30761976005E+04 0.  0.
        1    1    3    3  502    0  0.92893776011E+03 -0.12258676596E+04  0.66988101267E+03  0.16776225595E+04  0.50400001928E-02 0.  1.
       -1    1    3    3    0  502 -0.92893776011E+03  0.12258676596E+04  0.65153474090E+03  0.16703815132E+04  0.50400001928E-02 0. -1.
</event>
<event>
 5   0  0.1836401E-06  0.3046369E+04  0.7818609E-02  0.8230612E-01
        1   -1    0    0  501    0  0.00000000000E+00  0.00000000000E+00  0.22781313709E+04  0.22781313709E+04  0.50400001928E-02 0. -1.
       -1   -1    0    0    0  501  0.00000000000E+00  0.00000000000E+00 -0.10184186664E+04  0.10184186664E+04  0.50400001928E-02 0.  1.
    10030    2    1    2    0    0  0.00000000000E+00  0.00000000000E+00  0.12597127045E+04  0.32965500372E+04  0.30463693227E+04 0.  0.
        2    1    3    3  502    0  0.75474782634E+03  0.87594070862E+03  0.17028386469E+04  0.20582944065E+04  0.25500000920E-02 0. -1.
       -2    1    3    3    0  502 -0.75474782634E+03 -0.87594070862E+03 -0.44312594236E+03  0.12382556308E+04  0.25500000920E-02 0.  1.
</event>
<event>
 5   0  0.4900679E-06  0.3095848E+04  0.7818609E-02  0.8216878E-01
        2   -1    0    0  501    0  0.00000000000E+00  0.00000000000E+00  0.23199717483E+04  0.23199717483E+04  0.25500000920E-02 0. -1.
       -2   -1    0    0    0  501  0.00000000000E+00  0.00000000000E+00 -0.10328006860E+04  0.10328006860E+04  0.25500000920E-02 0.  1.
    10030    2    1    2    0    0  0.00000000000E+00  0.00000000000E+00  0.12871710623E+04  0.33527724342E+04  0.30958478083E+04 0.  0.
        4    1    3    3  502    0 -0.84135724387E+03  0.42623852596E+03  0.19728452256E+04  0.21867055563E+04  0.12699999809E+01 0. -1.
       -4    1    3    3    0  502  0.84135724387E+03 -0.42623852596E+03 -0.68567416326E+03  0.11660668780E+04  0.12699999809E+01 0.  1.
</event>
<event>
 5   0  0.4927533E-06  0.2816829E+04  0.7818609E-02  0.8298062E-01
       -2   -1    0    0    0  501  0.00000000000E+00  0.00000000000E+00  0.92603038509E+03  0.92603038509E+03  0.25500000920E-02 0. -1.
        2   -1    0    0  501    0  0.00000000000E+00  0.00000000000E+00 -0.21420809047E+04  0.21420809047E+04  0.25500000920E-02 0.  1.
    10030    2    1    2    0    0  0.00000000000E+00  0.00000000000E+00 -0.12160505196E+04  0.30681112898E+04  0.28168294269E+04 0.  0.
        5    1    3    3  502    0  0.51842867052E+03 -0.49242392495E+03  0.71362823925E+03  0.10102162947E+04  0.46999998093E+01 0. -1.
       -5    1    3    3    0  502 -0.51842867052E+03  0.49242392495E+03 -0.19296787588E+04  0.20578949950E+04  0.46999998093E+01 0.  1.
</event>
<event>
 5   0  0.1853742E-06  0.3096097E+04  0.7818609E-02  0.8216810E-01
       -1   -1    0    0    0  501  0.00000000000E+00  0.00000000000E+00  0.20929651009E+04  0.20929651009E+04  0.50400001928E-02 0. -1.
        1   -1    0    0  501    0  0.00000000000E+00  0.00000000000E+00 -0.11450041568E+04  0.11450041568E+04  0.50400001928E-02 0.  1.
    10030    2    1    2    0    0  0.00000000000E+00  0.00000000000E+00  0.94796094414E+03  0.32379692577E+04  0.30960967301E+04 0.  0.
        5    1    3    3  502    0 -0.11531768473E+04  0.62102615220E+03  0.13369849456E+04  0.18716413005E+04  0.46999998093E+01 0. -1.
       -5    1    3    3    0  502  0.11531768473E+04 -0.62102615220E+03 -0.38902400150E+03  0.13663279572E+04  0.46999998093E+01 0.  1.
</event>
<event>
 5   0  0.4927533E-06  0.2513834E+04  0.7818609E-02  0.8398073E-01
        2   -1    0    0  501    0  0.00000000000E+00  0.00000000000E+00  0.17606523238E+04  0.17606523238E+04  0.25500000920E-02 0.  1.
       -2   -1    0    0    0  501  0.00000000000E+00  0.00000000000E+00 -0.89730429262E+03  0.89730429262E+03  0.25500000920E-02 0. -1.
    10030    2    1    2    0    0  0.00000000000E+00  0.00000000000E+00  0.86334803116E+03  0.26579566164E+04  0.25138344320E+04 0.  0.
        5    1    3    3  502    0  0.10787188914E+04  0.32622841031E+03 -0.15679479206E+03  0.11378339594E+04  0.46999998093E+01 0. -1.
       -5    1    3    3    0  502 -0.10787188914E+04 -0.32622841031E+03  0.10201428232E+04  0.15201226570E+04  0.46999998093E+01 0.  1.
</event>
<event>
 5   0  0.1853742E-06  0.3091479E+04  0.7818609E-02  0.8218080E-01
        1   -1    0    0  501    0  0.00000000000E+00  0.00000000000E+00  0.16064179598E+04  0.16064179598E+04  0.50400001928E-02 0.  1.
       -1   -1    0    0    0  501  0.00000000000E+00  0.00000000000E+00 -0.14873528985E+04  0.14873528985E+04  0.50400001928E-02 0. -1.
    10030    2    1    2    0    0  0.00000000000E+00  0.00000000000E+00  0.11906506136E+03  0.30937708583E+04  0.30914788751E+04 0.  0.
        5    1    3    3  502    0 -0.10138868413E+04 -0.11501979043E+04 -0.13648655726E+03  0.15393415528E+04  0.46999998093E+01 0. -1.
       -5    1    3    3    0  502  0.10138868413E+04  0.11501979043E+04  0.25555161862E+03  0.15544293055E+04  0.46999998093E+01 0.  1.
</event>
<event>
 5   0  0.4927533E-06  0.3081090E+04  0.7818609E-02  0.8220947E-01
       -2   -1    0    0    0  501  0.00000000000E+00  0.00000000000E+00  0.24944526138E+04  0.24944526138E+04  0.25500000920E-02 0. -1.
        2   -1    0    0  501    0  0.00000000000E+00  0.00000000000E+00 -0.95142245615E+03  0.95142245615E+03  0.25500000920E-02 0.  1.
    10030    2    1    2    0    0  0.00000000000E+00  0.00000000000E+00  0.15430301577E+04  0.34458750700E+04  0.30810895687E+04 0.  0.
        5    1    3    3  502    0  0.71197294318E+03 -0.96268874417E+01 -0.75633606940E+03  0.10387802889E+04  0.46999998093E+01 0.  1.
       -5    1    3    3    0  502 -0.71197294318E+03  0.96268874417E+01  0.22993662271E+04  0.24070947811E+04  0.46999998093E+01 0. -1.
</event>
<event>
 5   0  0.5114870E-06  0.3117373E+04  0.7818609E-02  0.8210986E-01
        2   -1    0    0  501    0  0.00000000000E+00  0.00000000000E+00  0.19186987572E+04  0.19186987572E+04  0.25500000920E-02 0. -1.
       -2   -1    0    0    0  501  0.00000000000E+00  0.00000000000E+00 -0.12662249290E+04  0.12662249290E+04  0.25500000920E-02 0.  1.
    10030    2    1    2    0    0  0.00000000000E+00  0.00000000000E+00  0.65247382820E+03  0.31849236861E+04  0.31173733799E+04 0.  0.
        2    1    3    3  502    0 -0.12037179174E+04 -0.88182665014E+03 -0.13402369427E+03  0.14981713574E+04  0.25500000920E-02 0.  1.
       -2    1    3    3    0  502  0.12037179174E+04  0.88182665014E+03  0.78649752247E+03  0.16867523287E+04  0.25500000920E-02 0. -1.
</event>
<event>
 5   0  0.1840431E-06  0.3085858E+04  0.7818609E-02  0.8219630E-01
        1   -1    0    0  501    0  0.00000000000E+00  0.00000000000E+00  0.21494165079E+04  0.21494165079E+04  0.50400001928E-02 0. -1.
       -1   -1    0    0    0  501  0.00000000000E+00  0.00000000000E+00 -0.11075699794E+04  0.11075699794E+04  0.50400001928E-02 0.  1.
    10030    2    1    2    0    0  0.00000000000E+00  0.00000000000E+00  0.10418465285E+04  0.32569864872E+04  0.30858575452E+04 0.  0.
        1    1    3    3  502    0 -0.41513502026E+03  0.12408386343E+04  0.13839555353E+04  0.19045604545E+04  0.50400001928E-02 0. -1.
       -1    1    3    3    0  502  0.41513502026E+03 -0.12408386343E+04 -0.34210900682E+03  0.13524260327E+04  0.50400001928E-02 0.  1.
</event>
<event>
 5   0  0.1885307E-06  0.3140189E+04  0.7818609E-02  0.8204794E-01
        1   -1    0    0  501    0  0.00000000000E+00  0.00000000000E+00  0.17941836938E+04  0.17941836938E+04  0.50400001928E-02 0.  1.
       -1   -1    0    0    0  501  0.00000000000E+00  0.00000000000E+00 -0.13739937891E+04  0.13739937891E+04  0.50400001928E-02 0. -1.
    10030    2    1    2    0    0  0.00000000000E+00  0.00000000000E+00  0.42018990472E+03  0.31681774830E+04  0.31401893267E+04 0.  0.
        3    1    3    3  502    0  0.21895155596E+03 -0.40314789800E+03  0.17250539102E+04  0.17850151301E+04  0.10100000352E+00 0.  1.
       -3    1    3    3    0  502 -0.21895155596E+03  0.40314789800E+03 -0.13048640054E+04  0.13831623529E+04  0.10100000352E+00 0. -1.
</event>
<event>
 5   0  0.4900679E-06  0.3031271E+04  0.7818609E-02  0.8234857E-01
       -2   -1    0    0    0  501  0.00000000000E+00  0.00000000000E+00  0.14169038338E+04  0.14169038338E+04  0.25500000920E-02 0.  1.
        2   -1    0    0  501    0  0.00000000000E+00  0.00000000000E+00 -0.16212473730E+04  0.16212473730E+04  0.25500000920E-02 0. -1.
    10030    2    1    2    0    0  0.00000000000E+00  0.00000000000E+00 -0.20434353921E+03  0.30381512068E+04  0.30312714285E+04 0.  0.
        4    1    3    3  502    0 -0.54418796614E+03  0.14450281358E+03 -0.15125358377E+04  0.16139355250E+04  0.12699999809E+01 0. -1.
       -4    1    3    3    0  502  0.54418796614E+03 -0.14450281358E+03  0.13081922985E+04  0.14242156818E+04  0.12699999809E+01 0.  1.
</event>
<event>
 5   0  0.4900679E-06  0.3099797E+04  0.7818609E-02  0.8215794E-01
       -2   -1    0    0    0  501  0.00000000000E+00  0.00000000000E+00  0.21870192514E+04  0.21870192514E+04  0.25500000920E-02 0. -1.
        2   -1    0    0  501    0  0.00000000000E+00  0.00000000000E+00 -0.10983835889E+04  0.10983835889E+04  0.25500000920E-02 0.  1.
    10030    2    1    2    0    0  0.00000000000E+00  0.00000000000E+00  0.10886356625E+04  0.32854028403E+04  0.30997974478E+04 0.  0.
        4    1    3    3  502    0 -0.10812147311E+04  0.96906924229E+03  0.11190641594E+04  0.18331466654E+04  0.12699999809E+01 0. -1.
       -4    1    3    3    0  502  0.10812147311E+04 -0.96906924229E+03 -0.30428496899E+02  0.14522561749E+04  0.12699999809E+01 0.  1.
</event>
<event>
 5   0  0.5328368E-06  0.3089861E+04  0.7818609E-02  0.8218526E-01
        2   -1    0    0  501    0  0.00000000000E+00  0.00000000000E+00  0.15740216501E+04  0.15740216501E+04  0.25500000920E-02 0.  1.
       -2   -1    0    0    0  501  0.00000000000E+00  0.00000000000E+00 -0.15163769103E+04  0.15163769103E+04  0.25500000920E-02 0. -1.
    10030    2    1    2    0    0  0.00000000000E+00  0.00000000000E+00  0.57644739739E+02  0.30903985604E+04  0.30898608943E+04 0.  0.
        1    1    3    3  502    0  0.88032489373E+03 -0.42032529631E+03 -0.11693697359E+04  0.15228495830E+04  0.50400001928E-02 0. -1.
       -1    1    3    3    0  502 -0.88032489373E+03  0.42032529631E+03  0.12270144756E+04  0.15675489774E+04  0.50400001928E-02 0.  1.
</event>
<event>
 5   0  0.4927533E-06  0.3092954E+04  0.7818609E-02  0.8217674E-01
        2   -1    0    0  501    0  0.00000000000E+00  0.00000000000E+00  0.21746486166E+04  0.21746486166E+04  0.25500000920E-02 0. -1.
       -2   -1    0    0    0  501  0.00000000000E+00  0.00000000000E+00 -0.10997596464E+04  0.10997596464E+04  0.25500000920E-02 0.  1.
    10030    2    1    2    0    0  0.00000000000E+00  0.00000000000E+00  0.10748889701E+04  0.32744082630E+04  0.30929537944E+04 0.  0.
        5    1    3    3  502    0 -0.82908032252E+03  0.69162929269E+02 -0.84264932961E+03  0.11841611692E+04  0.46999998093E+01 0.  1.
       -5    1    3    3    0  502  0.82908032252E+03 -0.69162929269E+02  0.19175382997E+04  0.20902470938E+04  0.46999998093E+01 0. -1.
</event>
<event>
 5   0  0.1885307E-06  0.3128687E+04  0.7818609E-02  0.8207909E-01
       -1   -1    0    0    0  501  0.00000000000E+00  0.00000000000E+00  0.13607959118E+04  0.13607959119E+04  0.50400001928E-02 0.  1.
        1   -1    0    0  501    0  0.00000000000E+00  0.00000000000E+00 -0.17983372020E+04  0.17983372020E+04  0.50400001928E-02 0. -1.
    10030    2    1    2    0    0  0.00000000000E+00  0.00000000000E+00 -0.43754129012E+03  0.31591331138E+04  0.31286865695E+04 0.  0.
        3    1    3    3  502    0  0.14370175672E+04 -0.35956545459E+03  0.28897779177E+03  0.15092431808E+04  0.10100000352E+00 0.  1.
       -3    1    3    3    0  502 -0.14370175672E+04  0.35956545459E+03 -0.72651908189E+03  0.16498899330E+04  0.10100000352E+00 0. -1.
</event>
<event>
 5   0  0.1840431E-06  0.3141050E+04  0.7818609E-02  0.8204562E-01
        1   -1    0    0  501    0  0.00000000000E+00  0.00000000000E+00  0.21568902654E+04  0.21568902654E+04  0.50400001928E-02 0. -1.
       -1   -1    0    0    0  501  0.00000000000E+00  0.00000000000E+00 -0.11435672330E+04  0.11435672330E+04  0.50400001928E-02 0.  1.
    10030    2    1    2    0    0  0.00000000000E+00  0.00000000000E+00  0.10133230323E+04  0.33004574984E+04  0.31410501637E+04 0.  0.
        1    1    3    3  502    0 -0.52169977891E+03 -0.20498498279E+03 -0.10348851666E+04  0.11769353468E+04  0.50400001928E-02 0.  1.
       -1    1    3    3    0  502  0.52169977891E+03  0.20498498279E+03  0.20482081989E+04  0.21235221516E+04  0.50400001928E-02 0. -1.
</event>
<event>
 5   0  0.5114870E-06  0.3076409E+04  0.7818609E-02  0.8222242E-01
       -2   -1    0    0    0  501  0.00000000000E+00  0.00000000000E+00  0.10923632966E+04  0.10923632966E+04  0.25500000920E-02 0. -1.
        2   -1    0    0  501    0  0.00000000000E+00  0.00000000000E+00 -0.21660130981E+04  0.21660130981E+04  0.25500000920E-02 0.  1.
    10030    2    1    2    0    0  0.00000000000E+00  0.00000000000E+00 -0.10736498016E+04  0.32583763947E+04  0.30764090809E+04 0.  0.
        2    1    3    3  502    0 -0.12080154318E+04 -0.13712248208E+03  0.46123395822E+03  0.13003232763E+04  0.25500000920E-02 0. -1.
       -2    1    3    3    0  502  0.12080154318E+04  0.13712248208E+03 -0.15348837598E+04  0.19580531184E+04  0.25500000920E-02 0.  1.
</event>
<event>
 5   0  0.1853742E-06  0.3049913E+04  0.7818609E-02  0.8229620E-01
       -1   -1    0    0    0  501  0.00000000000E+00  0.00000000000E+00  0.18199331121E+04  0.18199331121E+04  0.50400001928E-02 0. -1.
        1   -1    0    0  501    0  0.00000000000E+00  0.00000000000E+00 -0.12777900033E+04  0.12777900033E+04  0.50400001928E-02 0.  1.
    10030    2    1    2    0    0  0.00000000000E+00  0.00000000000E+00  0.54214310881E+03  0.30977231154E+04  0.30499130068E+04 0.  0.
        5    1    3    3  502    0 -0.47223255030E+03  0.80382084611E+03  0.14967776378E+04  0.17633765682E+04  0.46999998093E+01 0. -1.
       -5    1    3    3    0  502  0.47223255030E+03 -0.80382084611E+03 -0.95463452898E+03  0.13343465472E+04  0.46999998093E+01 0.  1.
</event>
<event>
 5   0  0.1885307E-06  0.3148599E+04  0.7818609E-02  0.8202526E-01
       -1   -1    0    0    0  501  0.00000000000E+00  0.00000000000E+00  0.90973735465E+03  0.90973735466E+03  0.50400001928E-02 0. -1.
        1   -1    0    0  501    0  0.00000000000E+00  0.00000000000E+00 -0.27243230334E+04  0.27243230334E+04  0.50400001928E-02 0.  1.
    10030    2    1    2    0    0  0.00000000000E+00  0.00000000000E+00 -0.18145856788E+04  0.36340603881E+04  0.31485986913E+04 0.  0.
        3    1    3    3  502    0  0.65528871452E+03  0.81867282970E+03  0.44797108722E+03  0.11403098731E+04  0.10100000352E+00 0. -1.
       -3    1    3    3    0  502 -0.65528871452E+03 -0.81867282970E+03 -0.22625567660E+04  0.24937505150E+04  0.10100000352E+00 0.  1.
</event>
<event>
 5   0  0.1836401E-06  0.3078142E+04  0.7818609E-02  0.8221762E-01
       -1   -1    0    0    0  501  0.00000000000E+00  0.00000000000E+00  0.10590821782E+04  0.10590821782E+04  0.50400001928E-02 0. -1.
        1   -1    0    0  501    0  0.00000000000E+00  0.00000000000E+00 -0.22365965684E+04  0.22365965684E+04  0.50400001928E-02 0.  1.
    10030    2    1    2    0    0  0.00000000000E+00  0.00000000000E+00 -0.11775143902E+04  0.32956787466E+04  0.30781420145E+04 0.  0.
        2    1    3    3  502    0  0.12043457762E+04  0.26551819060E+03  0.39706954875E+03  0.12956129379E+04  0.25500000920E-02 0. -1.
       -2    1    3    3    0  502 -0.12043457762E+04 -0.26551819060E+03 -0.15745839390E+04  0.20000658087E+04  0.25500000920E-02 0.  1.
</event>
<event>
 5   0  0.5114870E-06  0.2697516E+04  0.7818609E-02  0.8335811E-01
       -2   -1    0    0    0  501  0.00000000000E+00  0.00000000000E+00  0.11930738114E+04  0.11930738114E+04  0.25500000920E-02 0.  1.
        2   -1    0    0  501    0  0.00000000000E+00  0.00000000000E+00 -0.15247579247E+04  0.15247579247E+04  0.25500000920E-02 0. -1.
    10030    2    1    2    0    0  0.00000000000E+00  0.00000000000E+00 -0.33168411332E+03  0.27178317360E+04  0.26975164493E+04 0.  0.
        2    1    3    3  502    0 -0.24320172532E+03 -0.13115062985E+04  0.35545489112E+02  0.13343385372E+04  0.25500000920E-02 0.  1.
       -2    1    3    3    0  502  0.24320172532E+03  0.13115062985E+04 -0.36722960244E+03  0.13834931988E+04  0.25500000920E-02 0. -1.
</event>
<event>
 5   0  0.5001658E-06  0.3119290E+04  0.7818609E-02  0.8210464E-01
       -2   -1    0    0    0  501  0.00000000000E+00  0.00000000000E+00  0.10459577175E+04  0.10459577175E+04  0.25500000920E-02 0. -1.
        2   -1    0    0  501    0  0.00000000000E+00  0.00000000000E+00 -0.23256119630E+04  0.23256119630E+04  0.25500000920E-02 0.  1.
    10030    2    1    2    0    0  0.00000000000E+00  0.00000000000E+00 -0.12796542456E+04  0.33715696805E+04  0.31192895220E+04 0.  0.
        3    1    3    3  502    0  0.15027284721E+04  0.12886774057E+03 -0.10690484612E+04  0.18486926132E+04  0.10100000352E+00 0.  1.
       -3    1    3    3    0  502 -0.15027284721E+04 -0.12886774057E+03 -0.21060578440E+03  0.15228770673E+04  0.10100000352E+00 0. -1.
</event>
<event>
 5   0  0.1853742E-06  0.3163936E+04  0.7818609E-02  0.8198407E-01
        1   -1    0    0  501    0  0.00000000000E+00  0.00000000000E+00  0.11386366223E+04  0.11386366223E+04  0.50400001928E-02 0.  1.
       -1   -1    0    0    0  501  0.00000000000E+00  0.00000000000E+00 -0.21979122959E+04  0.21979122959E+04  0.50400001928E-02 0. -1.
    10030    2    1    2    0    0  0.00000000000E+00  0.00000000000E+00 -0.10592756736E+04  0.33365489182E+04  0.31639364296E+04 0.  0.
        5    1    3    3  502    0  0.39636615774E+03 -0.15208531601E+04 -0.71975323290E+03  0.17286316183E+04  0.46999998093E+01 0.  1.
       -5    1    3    3    0  502 -0.39636615774E+03  0.15208531601E+04 -0.33952244073E+03  0.16079172999E+04  0.46999998093E+01 0. -1.
</event>
<event>
 5   0  0.1840431E-06  0.3046716E+04  0.7818609E-02  0.8230515E-01
        1   -1    0    0  501    0  0.00000000000E+00  0.00000000000E+00  0.17590942367E+04  0.17590942367E+04  0.50400001928E-02 0. -1.
       -1   -1    0    0    0  501  0.00000000000E+00  0.00000000000E+00 -0.13192130075E+04  0.13192130075E+04  0.50400001928E-02 0.  1.
    10030    2    1    2    0    0  0.00000000000E+00  0.00000000000E+00  0.43988122917E+03  0.30783072441E+04  0.30467162640E+04 0.  0.
        1    1    3    3  502    0  0.63613075058E+01 -0.34415543768E+03 -0.12794061184E+04  0.13249012972E+04  0.50400001928E-02 0.  1.
       -1    1    3    3    0  502 -0.63613075058E+01  0.34415543768E+03  0.17192873475E+04  0.17534059470E+04  0.50400001928E-02 0. -1.
</event>
<event>
 5   0  0.1853742E-06  0.2564306E+04  0.7818609E-02  0.8380428E-01
        1   -1    0    0  501    0  0.00000000000E+00  0.00000000000E+00  0.13067898733E+04  0.13067898733E+04  0.50400001928E-02 0.  1.
       -1   -1    0    0    0  501  0.00000000000E+00  0.00000000000E+00 -0.12579801923E+04  0.12579801923E+04  0.50400001928E-02 0. -1.
    10030    2    1    2    0    0  0.00000000000E+00  0.00000000000E+00  0.48809681027E+02  0.25647700656E+04  0.25643055793E+04 0.  0.
        5    1    3    3  502    0 -0.98257425111E+02 -0.72077614480E+03  0.10803995283E+04  0.13024814791E+04  0.46999998093E+01 0.  1.
       -5    1    3    3    0  502  0.98257425111E+02  0.72077614480E+03 -0.10315898473E+04  0.12622885865E+04  0.46999998093E+01 0. -1.
</event>
<event>
 5   0  0.4927533E-06  0.3172580E+04  0.7818609E-02  0.8196096E-01
       -2   -1    0    0    0  501  0.00000000000E+00  0.00000000000E+00  0.17627219144E+04  0.17627219144E+04  0.25500000920E-02 0.  1.
        2   -1    0    0  501    0  0.00000000000E+00  0.00000000000E+00 -0.14275176379E+04  0.14275176379E+04  0.25500000920E-02 0. -1.
    10030    2    1    2    0    0  0.00000000000E+00  0.00000000000E+00  0.33520427651E+03  0.31902395523E+04  0.31725804157E+04 0.  0.
        5    1    3    3  502    0  0.15324572285E+04 -0.22687195724E+03 -0.17546911727E+03  0.15590726549E+04  0.46999998093E+01 0. -1.
       -5    1    3    3    0  502 -0.15324572285E+04  0.22687195724E+03  0.51067339378E+03  0.16311668974E+04  0.46999998093E+01 0.  1.
</event>
<event>
 5   0  0.5114870E-06  0.3106904E+04  0.7818609E-02  0.8213846E-01
        2   -1    0    0  501    0  0.00000000000E+00  0.00000000000E+00  0.11509661342E+04  0.11509661342E+04  0.25500000920E-02 0. -1.
       -2   -1    0    0    0  501  0.00000000000E+00  0.00000000000E+00 -0.20966840566E+04  0.20966840566E+04  0.25500000920E-02 0.  1.
    10030    2    1    2    0    0  0.00000000000E+00  0.00000000000E+00 -0.94571792243E+03  0.32476501908E+04  0.31069035023E+04 0.  0.
        2    1    3    3  502    0 -0.14772216176E+04  0.19942120707E+03 -0.93000330319E+03  0.17569458356E+04  0.25500000920E-02 0.  1.
       -2    1    3    3    0  502  0.14772216176E+04 -0.19942120707E+03 -0.15714619238E+02  0.14907043552E+04  0.25500000920E-02 0. -1.
</event>
<event>
 5   0  0.5114870E-06  0.3127812E+04  0.7818609E-02  0.8208146E-01
       -2   -1    0    0    0  501  0.00000000000E+00  0.00000000000E+00  0.18535395039E+04  0.18535395039E+04  0.25500000920E-02 0.  1.
        2   -1    0    0  501    0  0.00000000000E+00  0.00000000000E+00 -0.13195306113E+04  0.13195306113E+04  0.25500000920E-02 0. -1.
    10030    2    1    2    0    0  0.00000000000E+00  0.00000000000E+00  0.53400889263E+03  0.31730701152E+04  0.31278120881E+04 0.  0.
        2    1    3    3  502    0  0.14968103641E+04 -0.45136415571E+03  0.30797755817E+03  0.15934305895E+04  0.25500000920E-02 0. -1.
       -2    1    3    3    0  502 -0.14968103641E+04  0.45136415571E+03  0.22603133446E+03  0.15796395257E+04  0.25500000920E-02 0.  1.
</event>
<event>
 5   0  0.4927533E-06  0.3101925E+04  0.7818609E-02  0.8215210E-01
        2   -1    0    0  501    0  0.00000000000E+00  0.00000000000E+00  0.23171414290E+04  0.23171414290E+04  0.25500000920E-02 0.  1.
       -2   -1    0    0    0  501  0.00000000000E+00  0.00000000000E+00 -0.10381258821E+04  0.10381258821E+04  0.25500000920E-02 0. -1.
    10030    2    1    2    0    0  0.00000000000E+00  0.00000000000E+00  0.12790155469E+04  0.33552673111E+04  0.31019248797E+04 0.  0.
        5    1    3    3  502    0 -0.72229734680E+03 -0.76461883354E+03  0.18723806781E+04  0.21476002681E+04  0.46999998093E+01 0.  1.
       -5    1    3    3    0  502  0.72229734680E+03  0.76461883354E+03 -0.59336513119E+03  0.12076670430E+04  0.46999998093E+01 0. -1.
</event>
<event>
 5   0  0.5328368E-06  0.3084923E+04  0.7818609E-02  0.8219888E-01
       -2   -1    0    0    0  501  0.00000000000E+00  0.00000000000E+00  0.14642890848E+04  0.14642890848E+04  0.25500000920E-02 0.  1.
        2   -1    0    0  501    0  0.00000000000E+00  0.00000000000E+00 -0.16248067093E+04  0.16248067093E+04  0.25500000920E-02 0. -1.
    10030    2    1    2    0    0  0.00000000000E+00  0.00000000000E+00 -0.16051762448E+03  0.30890957941E+04  0.30849225140E+04 0.  0.
        1    1    3    3  502    0 -0.95930937243E+03 -0.23683278826E+03  0.11057515287E+04  0.14829196488E+04  0.50400001928E-02 0.  1.
       -1    1    3    3    0  502  0.95930937243E+03  0.23683278826E+03 -0.12662691531E+04  0.16061761453E+04  0.50400001928E-02 0. -1.
</event>
<event>
 5   0  0.5114870E-06  0.3042550E+04  0.7818609E-02  0.8231684E-01
        2   -1    0    0  501    0  0.00000000000E+00  0.00000000000E+00  0.18755856581E+04  0.18755856581E+04  0.25500000920E-02 0. -1.
       -2   -1    0    0    0  501  0.00000000000E+00  0.00000000000E+00 -0.12338962291E+04  0.12338962291E+04  0.25500000920E-02 0.  1.
    10030    2    1    2    0    0  0.00000000000E+00  0.00000000000E+00  0.64168942893E+03  0.31094818872E+04  0.30425502927E+04 0.  0.
        2    1    3    3  502    0 -0.11795344129E+04 -0.29116820657E+03  0.12565164313E+04  0.17478311983E+04  0.25500000920E-02 0. -1.
       -2    1    3    3    0  502  0.11795344129E+04  0.29116820657E+03 -0.61482700234E+03  0.13616506889E+04  0.25500000920E-02 0.  1.
</event>
<event>
 5   0  0.5328368E-06  0.3037877E+04  0.7818609E-02  0.8232997E-01
       -2   -1    0    0    0  501  0.00000000000E+00  0.00000000000E+00  0.12220793703E+04  0.12220793703E+04  0.25500000920E-02 0. -1.
        2   -1    0    0  501    0  0.00000000000E+00  0.00000000000E+00 -0.18879083804E+04  0.18879083804E+04  0.25500000920E-02 0.  1.
    10030    2    1    2    0    0  0.00000000000E+00  0.00000000000E+00 -0.66582901010E+03  0.31099877506E+04  0.30378768142E+04 0.  0.
        1    1    3    3  502    0 -0.25821314910E+03 -0.99441085382E+03  0.81241232541E+03  0.13097865334E+04  0.50400001928E-02 0. -1.
       -1    1    3    3    0  502  0.25821314910E+03  0.99441085382E+03 -0.14782413355E+04  0.18002012172E+04  0.50400001928E-02 0.  1.
</event>
<event>
 5   0  0.1843709E-06  0.3027500E+04  0.7818609E-02  0.8235921E-01
        1   -1    0    0  501    0  0.00000000000E+00  0.00000000000E+00  0.67318470256E+03  0.67318470258E+03  0.50400001928E-02 0. -1.
       -1   -1    0    0    0  501  0.00000000000E+00  0.00000000000E+00 -0.34038782851E+04  0.34038782851E+04  0.50400001928E-02 0.  1.
    10030    2    1    2    0    0  0.00000000000E+00  0.00000000000E+00 -0.27306935825E+04  0.40770629876E+04  0.30274998206E+04 0.  0.
        4    1    3    3  502    0  0.27316624352E+03 -0.54182149831E+03 -0.32329336499E+04  0.32893847343E+04  0.12699999809E+01 0.  1.
       -4    1    3    3    0  502 -0.27316624352E+03  0.54182149831E+03  0.50224006739E+03  0.78767825337E+03  0.12699999809E+01 0. -1.
</event>
<event>
 5   0  0.1840431E-06  0.3211170E+04  0.7818609E-02  0.8185873E-01
        1   -1    0    0  501    0  0.00000000000E+00  0.00000000000E+00  0.15726171781E+04  0.15726171781E+04  0.50400001928E-02 0.  1.
       -1   -1    0    0    0  501  0.00000000000E+00  0.00000000000E+00 -0.16392444052E+04  0.16392444052E+04  0.50400001928E-02 0. -1.
    10030    2    1    2    0    0  0.00000000000E+00  0.00000000000E+00 -0.66627227119E+02  0.32118615833E+04  0.32111704475E+04 0.  0.
        1    1    3    3  502    0  0.95221992518E+03 -0.41041397805E+03 -0.12594410242E+04  0.16313657201E+04  0.50400001928E-02 0. -1.
       -1    1    3    3    0  502 -0.95221992518E+03  0.41041397805E+03  0.11928137970E+04  0.15804958632E+04  0.50400001928E-02 0.  1.
</event>
<event>
 5   0  0.1843709E-06  0.3243923E+04  0.7818609E-02  0.8177313E-01
       -1   -1    0    0    0  501  0.00000000000E+00  0.00000000000E+00  0.15943266883E+04  0.15943266883E+04  0.50400001928E-02 0. -1.
        1   -1    0    0  501    0  0.00000000000E+00  0.00000000000E+00 -0.16500753209E+04  0.16500753209E+04  0.50400001928E-02 0.  1.
    10030    2    1    2    0    0  0.00000000000E+00  0.00000000000E+00 -0.55748632518E+02  0.32444020092E+04  0.32439230088E+04 0.  0.
        4    1    3    3  502    0 -0.89661979139E+03  0.13509906973E+04  0.12808396897E+02  0.16215019526E+04  0.12699999809E+01 0.  1.
       -4    1    3    3    0  502  0.89661979139E+03 -0.13509906973E+04 -0.68557029416E+02  0.16229000566E+04  0.12699999809E+01 0. -1.
</event>
<event>
 5   0  0.4900679E-06  0.3155357E+04  0.7818609E-02  0.8200708E-01
       -2   -1    0    0    0  501  0.00000000000E+00  0.00000000000E+00  0.11058474103E+04  0.11058474103E+04  0.25500000920E-02 0.  1.
        2   -1    0    0  501    0  0.00000000000E+00  0.00000000000E+00 -0.22508251082E+04  0.22508251082E+04  0.25500000920E-02 0. -1.
    10030    2    1    2    0    0  0.00000000000E+00  0.00000000000E+00 -0.11449776979E+04  0.33566725185E+04  0.31553567893E+04 0.  0.
        4    1    3    3  502    0 -0.13841569347E+04 -0.58533197204E+03 -0.61683025064E+02  0.15040978511E+04  0.12699999809E+01 0.  1.
       -4    1    3    3    0  502  0.13841569347E+04  0.58533197204E+03 -0.10832946728E+04  0.18525746674E+04  0.12699999809E+01 0. -1.
</event>
<event>
 5   0  0.1853742E-06  0.3089493E+04  0.7818609E-02  0.8218627E-01
       -1   -1    0    0    0  501  0.00000000000E+00  0.00000000000E+00  0.12630505865E+04  0.12630505865E+04  0.50400001928E-02 0. -1.
        1   -1    0    0  501    0  0.00000000000E+00  0.00000000000E+00 -0.18892690019E+04  0.18892690019E+04  0.50400001928E-02 0.  1.
    10030    2    1    2    0    0  0.00000000000E+00  0.00000000000E+00 -0.62621841544E+03  0.31523195884E+04  0.30894933700E+04 0.  0.
        5    1    3    3  502    0 -0.39284325134E+03  0.39713336039E+03  0.11563791256E+04  0.12842412149E+04  0.46999998093E+01 0. -1.
       -5    1    3    3    0  502  0.39284325134E+03 -0.39713336039E+03 -0.17825975410E+04  0.18680783734E+04  0.46999998093E+01 0.  1.
</event>
<event>
 5   0  0.1836401E-06  0.3074533E+04  0.7818609E-02  0.8222762E-01
       -1   -1    0    0    0  501  0.00000000000E+00  0.00000000000E+00  0.14576716585E+04  0.14576716585E+04  0.50400001928E-02 0.  1.
        1   -1    0    0  501    0  0.00000000000E+00  0.00000000000E+00 -0.16212074368E+04  0.16212074368E+04  0.50400001928E-02 0. -1.
    10030    2    1    2    0    0  0.00000000000E+00  0.00000000000E+00 -0.16353577833E+03  0.30788790953E+04  0.30745328967E+04 0.  0.
        2    1    3    3  502    0 -0.67449724757E+03 -0.35189274811E+03  0.12559396999E+04  0.14683867246E+04  0.25500000920E-02 0.  1.
       -2    1    3    3    0  502  0.67449724757E+03  0.35189274811E+03 -0.14194754782E+04  0.16104923708E+04  0.25500000920E-02 0. -1.
</event>
<event>
 5   0  0.1843709E-06  0.3058288E+04  0.7818609E-02  0.8227280E-01
        1   -1    0    0  501    0  0.00000000000E+00  0.00000000000E+00  0.91419970685E+03  0.91419970687E+03  0.50400001928E-02 0. -1.
       -1   -1    0    0    0  501  0.00000000000E+00  0.00000000000E+00 -0.25577351573E+04  0.25577351573E+04  0.50400001928E-02 0.  1.
    10030    2    1    2    0    0  0.00000000000E+00  0.00000000000E+00 -0.16435354505E+04  0.34719348642E+04  0.30582875804E+04 0.  0.
        4    1    3    3  502    0  0.87752596354E+03 -0.11356351880E+04 -0.14209412859E+04  0.20196026460E+04  0.12699999809E+01 0.  1.
       -4    1    3    3    0  502 -0.87752596354E+03  0.11356351880E+04 -0.22259416458E+03  0.14523322182E+04  0.12699999809E+01 0. -1.
</event>
<event>
 5   0  0.1843709E-06  0.3042016E+04  0.7818609E-02  0.8231834E-01
        1   -1    0    0  501    0  0.00000000000E+00  0.00000000000E+00  0.19393832995E+04  0.19393832995E+04  0.50400001928E-02 0.  1.
       -1   -1    0    0    0  501  0.00000000000E+00  0.00000000000E+00 -0.11928867186E+04  0.11928867186E+04  0.50400001928E-02 0. -1.
    10030    2    1    2    0    0  0.00000000000E+00  0.00000000000E+00  0.74649658086E+03  0.31322700181E+04  0.30420155031E+04 0.  0.
        4    1    3    3  502    0 -0.13769363073E+04  0.38039233527E+02  0.10374148420E+04  0.17244221481E+04  0.12699999809E+01 0.  1.
       -4    1    3    3    0  502  0.13769363073E+04 -0.38039233527E+02 -0.29091826114E+03  0.14078478700E+04  0.12699999809E+01 0. -1.
</event>
<event>
 5   0  0.5001658E-06  0.3064581E+04  0.7818609E-02  0.8225526E-01
        2   -1    0    0  501    0  0.00000000000E+00  0.00000000000E+00  0.24051792295E+04  0.24051792295E+04  0.25500000920E-02 0. -1.
       -2   -1    0    0    0  501  0.00000000000E+00  0.00000000000E+00 -0.97619063438E+03  0.97619063438E+03  0.25500000920E-02 0.  1.
    10030    2    1    2    0    0  0.00000000000E+00  0.00000000000E+00  0.14289885951E+04  0.33813698639E+04  0.30645805180E+04 0.  0.
        3    1    3    3  502    0  0.67736667261E+03 -0.79353412171E+03 -0.52373765218E+03  0.11674001670E+04  0.10100000352E+00 0.  1.
       -3    1    3    3    0  502 -0.67736667261E+03  0.79353412171E+03  0.19527262473E+04  0.22139696968E+04  0.10100000352E+00 0. -1.
</event>
<event>
 5   0  0.1836401E-06  0.3232868E+04  0.7818609E-02  0.8180190E-01
        1   -1    0    0  501    0  0.00000000000E+00  0.00000000000E+00  0.68573068758E+03  0.68573068760E+03  0.50400001928E-02 0.  1.
       -1   -1    0    0    0  501  0.00000000000E+00  0.00000000000E+00 -0.38103286853E+04  0.38103286854E+04  0.50400001928E-02 0. -1.
    10030    2    1    2    0    0  0.00000000000E+00  0.00000000000E+00 -0.31245979978E+04  0.44960593730E+04  0.32328682679E+04 0.  0.
        2    1    3    3  502    0 -0.14934699918E+04  0.38242753736E+03 -0.22381382382E+04  0.27177134159E+04  0.25500000920E-02 0.  1.
       -2    1    3    3    0  502  0.14934699918E+04 -0.38242753736E+03 -0.88645975957E+03  0.17783459571E+04  0.25500000920E-02 0. -1.
</event>
<event>
 5   0  0.5001658E-06  0.2950311E+04  0.7818609E-02  0.8258064E-01
        2   -1    0    0  501    0  0.00000000000E+00  0.00000000000E+00  0.23278601851E+04  0.23278601851E+04  0.25500000920E-02 0. -1.
       -2   -1    0    0    0  501  0.00000000000E+00  0.00000000000E+00 -0.93480002725E+03  0.93480002726E+03  0.25500000920E-02 0.  1.
    10030    2    1    2    0    0  0.00000000000E+00  0.00000000000E+00  0.13930601578E+04  0.32626602123E+04  0.29503110104E+04 0.  0.
        3    1    3    3  502    0  0.70240826165E+03  0.65643580116E+03 -0.54075919366E+03  0.11030438989E+04  0.10100000352E+00 0.  1.
       -3    1    3    3    0  502 -0.70240826165E+03 -0.65643580116E+03  0.19338193515E+04  0.21596163135E+04  0.10100000352E+00 0. -1.
</event>
<event>
 5   0  0.1649875E-06  0.3069308E+04  0.7818609E-02  0.8224212E-01
       -3   -1    0    0    0  501  0.00000000000E+00  0.00000000000E+00  0.17449458314E+04  0.17449458344E+04  0.10100000352E+00 0.  1.
        3   -1    0    0  501    0  0.00000000000E+00  0.00000000000E+00 -0.13497057833E+04  0.13497057871E+04  0.10100000352E+00 0. -1.
    10030    2    1    2    0    0  0.00000000000E+00  0.00000000000E+00  0.39524004811E+03  0.30946516215E+04  0.30693083851E+04 0.  0.
        2    1    3    3  502    0 -0.80767502088E+03  0.96335397299E+03  0.10851002138E+04  0.16606722406E+04  0.25500000920E-02 0.  1.
       -2    1    3    3    0  502  0.80767502088E+03 -0.96335397299E+03 -0.68986016567E+03  0.14339793809E+04  0.25500000920E-02 0. -1.
</event>
<event>
 5   0  0.5001658E-06  0.3103321E+04  0.7818609E-02  0.8214827E-01
       -2   -1    0    0    0  501  0.00000000000E+00  0.00000000000E+00  0.10471940710E+04  0.10471940710E+04  0.25500000920E-02 0. -1.
        2   -1    0    0  501    0  0.00000000000E+00  0.00000000000E+00 -0.22991438074E+04  0.22991438074E+04  0.25500000920E-02 0.  1.
    10030    2    1    2    0    0  0.00000000000E+00  0.00000000000E+00 -0.12519497364E+04  0.33463378784E+04  0.31033206495E+04 0.  0.
        3    1    3    3  502    0 -0.55526257348E+03  0.12016832159E+04 -0.14988661029E+04  0.19997396535E+04  0.10100000352E+00 0.  1.
       -3    1    3    3    0  502  0.55526257348E+03 -0.12016832159E+04  0.24691636657E+03  0.13465982249E+04  0.10100000352E+00 0. -1.
</event>
<event>
 5   0  0.1885307E-06  0.3156692E+04  0.7818609E-02  0.8200349E-01
       -1   -1    0    0    0  501  0.00000000000E+00  0.00000000000E+00  0.15980564014E+04  0.15980564014E+04  0.50400001928E-02 0.  1.
        1   -1    0    0  501    0  0.00000000000E+00  0.00000000000E+00 -0.15588784977E+04  0.15588784978E+04  0.50400001928E-02 0. -1.
    10030    2    1    2    0    0  0.00000000000E+00  0.00000000000E+00  0.39177903610E+02  0.31569348991E+04  0.31566917887E+04 0.  0.
        3    1    3    3  502    0  0.12299263405E+03 -0.14531555292E+04  0.62328067789E+03  0.15859593292E+04  0.10100000352E+00 0. -1.
       -3    1    3    3    0  502 -0.12299263405E+03  0.14531555292E+04 -0.58410277428E+03  0.15709755699E+04  0.10100000352E+00 0.  1.
</event>
<event>
 5   0  0.1853742E-06  0.3099681E+04  0.7818609E-02  0.8215826E-01
        1   -1    0    0  501    0  0.00000000000E+00  0.00000000000E+00  0.22381972762E+04  0.22381972762E+04  0.50400001928E-02 0. -1.
       -1   -1    0    0    0  501  0.00000000000E+00  0.00000000000E+00 -0.10731872623E+04  0.10731872623E+04  0.50400001928E-02 0.  1.
    10030    2    1    2    0    0  0.00000000000E+00  0.00000000000E+00  0.11650100139E+04  0.33113845385E+04  0.30996805044E+04 0.  0.
        5    1    3    3  502    0 -0.12188833534E+04  0.41876551910E+03 -0.33706469401E+03  0.13321696165E+04  0.46999998093E+01 0.  1.
       -5    1    3    3    0  502  0.12188833534E+04 -0.41876551910E+03  0.15020747080E+04  0.19792149220E+04  0.46999998093E+01 0. -1.
</event>
<event>
 5   0  0.4927533E-06  0.3177321E+04  0.7818609E-02  0.8194832E-01
       -2   -1    0    0    0  501  0.00000000000E+00  0.00000000000E+00  0.98140790639E+03  0.98140790640E+03  0.25500000920E-02 0. -1.
        2   -1    0    0  501    0  0.00000000000E+00  0.00000000000E+00 -0.25716547748E+04  0.25716547748E+04  0.25500000920E-02 0.  1.
    10030    2    1    2    0    0  0.00000000000E+00  0.00000000000E+00 -0.15902468684E+04  0.35530626812E+04  0.31773210908E+04 0.  0.
        5    1    3    3  502    0  0.43742764436E+03 -0.13794533532E+04 -0.15280605120E+04  0.21045725257E+04  0.46999998093E+01 0.  1.
       -5    1    3    3    0  502 -0.43742764436E+03  0.13794533532E+04 -0.62186356367E+02  0.14484901555E+04  0.46999998093E+01 0. -1.
</event>
<event>
 5   0  0.1885307E-06  0.3226645E+04  0.7818609E-02  0.8181816E-01
        1   -1    0    0  501    0  0.00000000000E+00  0.00000000000E+00  0.26926960071E+04  0.26926960071E+04  0.50400001928E-02 0. -1.
       -1   -1    0    0    0  501  0.00000000000E+00  0.00000000000E+00 -0.96661835881E+03  0.96661835883E+03  0.50400001928E-02 0.  1.
    10030    2    1    2    0    0  0.00000000000E+00  0.00000000000E+00  0.17260776483E+04  0.36593143660E+04  0.32266449419E+04 0.  0.
        3    1    3    3  502    0 -0.18381409026E+03 -0.81546013773E+03 -0.70186380653E+03  0.10915015662E+04  0.10100000352E+00 0.  1.
       -3    1    3    3    0  502  0.18381409026E+03  0.81546013773E+03  0.24279414549E+04  0.25678127997E+04  0.10100000352E+00 0. -1.
</event>
<event>
 5   0  0.1836401E-06  0.3161388E+04  0.7818609E-02  0.8199090E-01
        1   -1    0    0  501    0  0.00000000000E+00  0.00000000000E+00  0.22204052281E+04  0.22204052281E+04  0.50400001928E-02 0. -1.
       -1   -1    0    0    0  501  0.00000000000E+00  0.00000000000E+00 -0.11252868733E+04  0.11252868733E+04  0.50400001928E-02 0.  1.
    10030    2    1    2    0    0  0.00000000000E+00  0.00000000000E+00  0.10951183549E+04  0.33456921014E+04  0.31613875793E+04 0.  0.
        2    1    3    3  502    0  0.13335463953E+04  0.24671998131E+03 -0.31180022971E+03  0.13915588815E+04  0.25500000920E-02 0.  1.
       -2    1    3    3    0  502 -0.13335463953E+04 -0.24671998131E+03  0.14069185846E+04  0.19541332199E+04  0.25500000920E-02 0. -1.
</event>
<event>
 5   0  0.5114870E-06  0.2464362E+04  0.7818609E-02  0.8415793E-01
        2   -1    0    0  501    0  0.00000000000E+00  0.00000000000E+00  0.18836585709E+04  0.18836585709E+04  0.25500000920E-02 0. -1.
       -2   -1    0    0    0  501  0.00000000000E+00  0.00000000000E+00 -0.80602201465E+03  0.80602201466E+03  0.25500000920E-02 0.  1.
    10030    2    1    2    0    0  0.00000000000E+00  0.00000000000E+00  0.10776365562E+04  0.26896805855E+04  0.24643622106E+04 0.  0.
        2    1    3    3  502    0 -0.12182258521E+03 -0.11660157183E+04  0.12488409485E+03  0.11789950953E+04  0.25500000920E-02 0.  1.
       -2    1    3    3    0  502  0.12182258521E+03  0.11660157183E+04  0.95275246136E+03  0.15106854902E+04  0.25500000920E-02 0. -1.
</event>
<event>
 5   0  0.5114870E-06  0.3118848E+04  0.7818609E-02  0.8210584E-01
        2   -1    0    0  501    0  0.00000000000E+00  0.00000000000E+00  0.21417499722E+04  0.21417499722E+04  0.25500000920E-02 0. -1.
       -2   -1    0    0    0  501  0.00000000000E+00  0.00000000000E+00 -0.11354278245E+04  0.11354278245E+04  0.25500000920E-02 0.  1.
    10030    2    1    2    0    0  0.00000000000E+00  0.00000000000E+00  0.10063221477E+04  0.32771777967E+04  0.31188475510E+04 0.  0.
        2    1    3    3  502    0 -0.14528260217E+02 -0.15138224569E+04  0.89622749539E+03  0.17592877039E+04  0.25500000920E-02 0. -1.
       -2    1    3    3    0  502  0.14528260217E+02  0.15138224569E+04  0.11009465231E+03  0.15178900928E+04  0.25500000920E-02 0.  1.
</event>
<event>
 5   0  0.4900679E-06  0.3136136E+04  0.7818609E-02  0.8205890E-01
        2   -1    0    0  501    0  0.00000000000E+00  0.00000000000E+00  0.22811409429E+04  0.22811409429E+04  0.25500000920E-02 0. -1.
       -2   -1    0    0    0  501  0.00000000000E+00  0.00000000000E+00 -0.10778978642E+04  0.10778978642E+04  0.25500000920E-02 0.  1.
    10030    2    1    2    0    0  0.00000000000E+00  0.00000000000E+00  0.12032430787E+04  0.33590388071E+04  0.31361358071E+04 0.  0.
        4    1    3    3  502    0 -0.10292917225E+04 -0.55688137275E+03 -0.51624339123E+03  0.12790884118E+04  0.12699999809E+01 0.  1.
       -4    1    3    3    0  502  0.10292917225E+04  0.55688137275E+03  0.17194864700E+04  0.20799503952E+04  0.12699999809E+01 0. -1.
</event>
<event>
 5   0  0.5328368E-06  0.3090437E+04  0.7818609E-02  0.8218367E-01
        2   -1    0    0  501    0  0.00000000000E+00  0.00000000000E+00  0.23002278650E+04  0.23002278650E+04  0.25500000920E-02 0.  1.
       -2   -1    0    0    0  501  0.00000000000E+00  0.00000000000E+00 -0.10380276269E+04  0.10380276269E+04  0.25500000920E-02 0. -1.
    10030    2    1    2    0    0  0.00000000000E+00  0.00000000000E+00  0.12622002381E+04  0.33382554919E+04  0.30904369090E+04 0.  0.
        1    1    3    3  502    0  0.10372112310E+04 -0.21158681589E+03 -0.58483174830E+03  0.12093817810E+04  0.50400001928E-02 0. -1.
       -1    1    3    3    0  502 -0.10372112310E+04  0.21158681589E+03  0.18470319864E+04  0.21288737109E+04  0.50400001928E-02 0.  1.
</event>
<event>
 5   0  0.1836401E-06  0.3137900E+04  0.7818609E-02  0.8205413E-01
       -1   -1    0    0    0  501  0.00000000000E+00  0.00000000000E+00  0.25527126260E+04  0.25527126260E+04  0.50400001928E-02 0. -1.
        1   -1    0    0  501    0  0.00000000000E+00  0.00000000000E+00 -0.96430899574E+03  0.96430899576E+03  0.50400001928E-02 0.  1.
    10030    2    1    2    0    0  0.00000000000E+00  0.00000000000E+00  0.15884036302E+04  0.35170216217E+04  0.31378997746E+04 0.  0.
        2    1    3    3  502    0 -0.57658634128E+03  0.84660089282E+03 -0.53783959281E+03  0.11569167249E+04  0.25500000920E-02 0.  1.
       -2    1    3    3    0  502  0.57658634128E+03 -0.84660089282E+03  0.21262432230E+04  0.23601048969E+04  0.25500000920E-02 0. -1.
</event>
<event>
 5   0  0.4900679E-06  0.2809059E+04  0.7818609E-02  0.8300461E-01
        2   -1    0    0  501    0  0.00000000000E+00  0.00000000000E+00  0.16092612067E+04  0.16092612067E+04  0.25500000920E-02 0. -1.
       -2   -1    0    0    0  501  0.00000000000E+00  0.00000000000E+00 -0.12258438057E+04  0.12258438057E+04  0.25500000920E-02 0.  1.
    10030    2    1    2    0    0  0.00000000000E+00  0.00000000000E+00  0.38341740100E+03  0.28351050125E+04  0.28090588332E+04 0.  0.
        4    1    3    3  502    0 -0.36441116338E+03 -0.13303196827E+04 -0.75615701692E+02  0.13813997616E+04  0.12699999809E+01 0.  1.
       -4    1    3    3    0  502  0.36441116338E+03  0.13303196827E+04  0.45903310269E+03  0.14537052509E+04  0.12699999809E+01 0. -1.
</event>
<event>
 5   0  0.5001658E-06  0.3092335E+04  0.7818609E-02  0.8217845E-01
       -2   -1    0    0    0  501  0.00000000000E+00  0.00000000000E+00  0.22064976560E+04  0.22064976560E+04  0.25500000920E-02 0. -1.
        2   -1    0    0  501    0  0.00000000000E+00  0.00000000000E+00 -0.10834518553E+04  0.10834518553E+04  0.25500000920E-02 0.  1.
    10030    2    1    2    0    0  0.00000000000E+00  0.00000000000E+00  0.11230458007E+04  0.32899495114E+04  0.30923350266E+04 0.  0.
        3    1    3    3  502    0 -0.70232711075E+03  0.73268170072E+03 -0.67944242685E+03  0.12213631183E+04  0.10100000352E+00 0.  1.
       -3    1    3    3    0  502  0.70232711075E+03 -0.73268170072E+03  0.18024882275E+04  0.20685863931E+04  0.10100000352E+00 0. -1.
</event>
<event>
 5   0  0.1885307E-06  0.3053650E+04  0.7818609E-02  0.8228575E-01
       -1   -1    0    0    0  501  0.00000000000E+00  0.00000000000E+00  0.17318484852E+04  0.17318484852E+04  0.50400001928E-02 0. -1.
        1   -1    0    0  501    0  0.00000000000E+00  0.00000000000E+00 -0.13460726486E+04  0.13460726486E+04  0.50400001928E-02 0.  1.
    10030    2    1    2    0    0  0.00000000000E+00  0.00000000000E+00  0.38577583668E+03  0.30779211338E+04  0.30536495394E+04 0.  0.
        3    1    3    3  502    0  0.77132244667E+03  0.10317744360E+04 -0.63319762112E+03  0.14354219035E+04  0.10100000352E+00 0.  1.
       -3    1    3    3    0  502 -0.77132244667E+03 -0.10317744360E+04  0.10189734578E+04  0.16424992303E+04  0.10100000352E+00 0. -1.
</event>
<event>
 5   0  0.4927533E-06  0.3115307E+04  0.7818609E-02  0.8211549E-01
       -2   -1    0    0    0  501  0.00000000000E+00  0.00000000000E+00  0.10918702504E+04  0.10918702504E+04  0.25500000920E-02 0.  1.
        2   -1    0    0  501    0  0.00000000000E+00  0.00000000000E+00 -0.22221368344E+04  0.22221368344E+04  0.25500000920E-02 0. -1.
    10030    2    1    2    0    0  0.00000000000E+00  0.00000000000E+00 -0.11302665840E+04  0.33140070848E+04  0.31153074338E+04 0.  0.
        5    1    3    3  502    0 -0.34483055585E+03 -0.15139985003E+04 -0.43413929382E+03  0.16123270722E+04  0.46999998093E+01 0.  1.
       -5    1    3    3    0  502  0.34483055585E+03  0.15139985003E+04 -0.69612729021E+03  0.17016800126E+04  0.46999998093E+01 0. -1.
</event>
<event>
 5   0  0.1843709E-06  0.3097664E+04  0.7818609E-02  0.8216379E-01
       -1   -1    0    0    0  501  0.00000000000E+00  0.00000000000E+00  0.30733926962E+04  0.30733926962E+04  0.50400001928E-02 0.  1.
        1   -1    0    0  501    0  0.00000000000E+00  0.00000000000E+00 -0.78053187580E+03  0.78053187582E+03  0.50400001928E-02 0. -1.
    10030    2    1    2    0    0  0.00000000000E+00  0.00000000000E+00  0.22928608204E+04  0.38539245720E+04  0.30976642596E+04 0.  0.
        4    1    3    3  502    0  0.55447406561E+03 -0.79198683956E+03 -0.35902633636E+03  0.10313031400E+04  0.12699999809E+01 0. -1.
       -4    1    3    3    0  502 -0.55447406561E+03  0.79198683956E+03  0.26518871567E+04  0.28226214320E+04  0.12699999809E+01 0.  1.
</event>
<event>
 5   0  0.5328368E-06  0.3126773E+04  0.7818609E-02  0.8208428E-01
        2   -1    0    0  501    0  0.00000000000E+00  0.00000000000E+00  0.20716847353E+04  0.20716847353E+04  0.25500000920E-02 0. -1.
       -2   -1    0    0    0  501  0.00000000000E+00  0.00000000000E+00 -0.11798017805E+04  0.11798017805E+04  0.25500000920E-02 0.  1.
    10030    2    1    2    0    0  0.00000000000E+00  0.00000000000E+00  0.89188295480E+03  0.32514865158E+04  0.31267729942E+04 0.  0.
        1    1    3    3  502    0 -0.14666420177E+03  0.12868019507E+04  0.13565439705E+04  0.18755215788E+04  0.50400001928E-02 0. -1.
       -1    1    3    3    0  502  0.14666420177E+03 -0.12868019507E+04 -0.46466101574E+03  0.13759649370E+04  0.50400001928E-02 0.  1.
</event>
<event>
 5   0  0.5114870E-06  0.3037602E+04  0.7818609E-02  0.8233074E-01
       -2   -1    0    0    0  501  0.00000000000E+00  0.00000000000E+00  0.11261669760E+04  0.11261669760E+04  0.25500000920E-02 0. -1.
        2   -1    0    0  501    0  0.00000000000E+00  0.00000000000E+00 -0.20483258436E+04  0.20483258436E+04  0.25500000920E-02 0.  1.
    10030    2    1    2    0    0  0.00000000000E+00  0.00000000000E+00 -0.92215886761E+03  0.31744928196E+04  0.30376022921E+04 0.  0.
        2    1    3    3  502    0 -0.39300151207E+03  0.95947707868E+03 -0.16209185554E+04  0.19241682401E+04  0.25500000920E-02 0.  1.
       -2    1    3    3    0  502  0.39300151207E+03 -0.95947707868E+03  0.69875968775E+03  0.12503245796E+04  0.25500000920E-02 0. -1.
</event>
<event>
 5   0  0.1853742E-06  0.3195582E+04  0.7818609E-02  0.8189985E-01
       -1   -1    0    0    0  501  0.00000000000E+00  0.00000000000E+00  0.34252504089E+04  0.34252504089E+04  0.50400001928E-02 0.  1.
        1   -1    0    0  501    0  0.00000000000E+00  0.00000000000E+00 -0.74532839303E+03  0.74532839305E+03  0.50400001928E-02 0. -1.
    10030    2    1    2    0    0  0.00000000000E+00  0.00000000000E+00  0.26799220159E+04  0.41705788019E+04  0.31955821899E+04 0.  0.
        5    1    3    3  502    0 -0.62211733829E+03  0.10774372328E+04  0.31585974390E+02  0.12445564419E+04  0.46999998093E+01 0. -1.
       -5    1    3    3    0  502  0.62211733829E+03 -0.10774372328E+04  0.26483360415E+04  0.29260223601E+04  0.46999998093E+01 0.  1.
</event>
<event>
 5   0  0.4900679E-06  0.3094996E+04  0.7818609E-02  0.8217113E-01
       -2   -1    0    0    0  501  0.00000000000E+00  0.00000000000E+00  0.15823109606E+04  0.15823109606E+04  0.25500000920E-02 0.  1.
        2   -1    0    0  501    0  0.00000000000E+00  0.00000000000E+00 -0.15134508923E+04  0.15134508924E+04  0.25500000920E-02 0. -1.
    10030    2    1    2    0    0  0.00000000000E+00  0.00000000000E+00  0.68860068289E+02  0.30957618530E+04  0.30949959195E+04 0.  0.
        4    1    3    3  502    0 -0.27818772689E+03  0.33175020053E+03 -0.14516367052E+04  0.15148258460E+04  0.12699999809E+01 0. -1.
       -4    1    3    3    0  502  0.27818772689E+03 -0.33175020053E+03  0.15204967735E+04  0.15809360070E+04  0.12699999809E+01 0.  1.
</event>
<event>
 5   0  0.4927533E-06  0.2559262E+04  0.7818609E-02  0.8382172E-01
        2   -1    0    0  501    0  0.00000000000E+00  0.00000000000E+00  0.13336895653E+04  0.13336895653E+04  0.25500000920E-02 0.  1.
       -2   -1    0    0    0  501  0.00000000000E+00  0.00000000000E+00 -0.12277639177E+04  0.12277639177E+04  0.25500000920E-02 0. -1.
    10030    2    1    2    0    0  0.00000000000E+00  0.00000000000E+00  0.10592564757E+03  0.25614534830E+04  0.25592623357E+04 0.  0.
        5    1    3    3  502    0 -0.44140524389E+03  0.23947606818E+03 -0.11250097862E+04  0.12320131840E+04  0.46999998093E+01 0. -1.
       -5    1    3    3    0  502  0.44140524389E+03 -0.23947606818E+03  0.12309354338E+04  0.13294402990E+04  0.46999998093E+01 0.  1.
</event>
<event>
 5   0  0.1843709E-06  0.3074951E+04  0.7818609E-02  0.8222646E-01
       -1   -1    0    0    0  501  0.00000000000E+00  0.00000000000E+00  0.17640924897E+04  0.17640924897E+04  0.50400001928E-02 0.  1.
        1   -1    0    0  501    0  0.00000000000E+00  0.00000000000E+00 -0.13399701645E+04  0.13399701646E+04  0.50400001928E-02 0. -1.
    10030    2    1    2    0    0  0.00000000000E+00  0.00000000000E+00  0.42412232513E+03  0.31040626542E+04  0.30749512540E+04 0.  0.
        4    1    3    3  502    0 -0.40811632346E+03  0.66347631382E+03 -0.11260332816E+04  0.13692013426E+04  0.12699999809E+01 0. -1.
       -4    1    3    3    0  502  0.40811632346E+03 -0.66347631382E+03  0.15501556067E+04  0.17348613116E+04  0.12699999809E+01 0.  1.
</event>
<event>
 5   0  0.5001658E-06  0.3037043E+04  0.7818609E-02  0.8233231E-01
        2   -1    0    0  501    0  0.00000000000E+00  0.00000000000E+00  0.26901319541E+04  0.26901319541E+04  0.25500000920E-02 0. -1.
       -2   -1    0    0    0  501  0.00000000000E+00  0.00000000000E+00 -0.85717278589E+03  0.85717278589E+03  0.25500000920E-02 0.  1.
    10030    2    1    2    0    0  0.00000000000E+00  0.00000000000E+00  0.18329591682E+04  0.35473047400E+04  0.30370432341E+04 0.  0.
        3    1    3    3  502    0 -0.23032787108E+03 -0.13418542885E+04  0.13096699049E+03  0.13677632187E+04  0.10100000352E+00 0.  1.
       -3    1    3    3    0  502  0.23032787108E+03  0.13418542885E+04  0.17019921777E+04  0.21795415213E+04  0.10100000352E+00 0. -1.
</event>
<event>
 5   0  0.1649875E-06  0.3119956E+04  0.7818609E-02  0.8210282E-01
        3   -1    0    0  501    0  0.00000000000E+00  0.00000000000E+00  0.10520748264E+04  0.10520748313E+04  0.10100000352E+00 0.  1.
       -3   -1    0    0    0  501  0.00000000000E+00  0.00000000000E+00 -0.23130780271E+04  0.23130780293E+04  0.10100000352E+00 0. -1.
    10030    2    1    2    0    0  0.00000000000E+00  0.00000000000E+00 -0.12610032007E+04  0.33651528606E+04  0.31199558816E+04 0.  0.
        3    1    3    3  502    0  0.87793863940E+03  0.12835440070E+04 -0.76378359936E+03  0.17325203807E+04  0.10100000352E+00 0. -1.
       -3    1    3    3    0  502 -0.87793863940E+03 -0.12835440070E+04 -0.49721960131E+03  0.16326324800E+04  0.10100000352E+00 0.  1.
</event>
<event>
 5   0  0.1885307E-06  0.3055401E+04  0.7818609E-02  0.8228085E-01
        1   -1    0    0  501    0  0.00000000000E+00  0.00000000000E+00  0.18129633406E+04  0.18129633406E+04  0.50400001928E-02 0. -1.
       -1   -1    0    0    0  501  0.00000000000E+00  0.00000000000E+00 -0.12873224684E+04  0.12873224684E+04  0.50400001928E-02 0.  1.
    10030    2    1    2    0    0  0.00000000000E+00  0.00000000000E+00  0.52564087215E+03  0.31002858090E+04  0.30554007546E+04 0.  0.
        3    1    3    3  502    0  0.76998942272E+03 -0.74752163304E+02  0.15995173687E+04  0.17767744426E+04  0.10100000352E+00 0. -1.
       -3    1    3    3    0  502 -0.76998942272E+03  0.74752163304E+02 -0.10738764965E+04  0.13235113664E+04  0.10100000352E+00 0.  1.
</event>
<event>
 5   0  0.1885307E-06  0.3140691E+04  0.7818609E-02  0.8204658E-01
        1   -1    0    0  501    0  0.00000000000E+00  0.00000000000E+00  0.25460647668E+04  0.25460647668E+04  0.50400001928E-02 0.  1.
       -1   -1    0    0    0  501  0.00000000000E+00  0.00000000000E+00 -0.96854784475E+03  0.96854784476E+03  0.50400001928E-02 0. -1.
    10030    2    1    2    0    0  0.00000000000E+00  0.00000000000E+00  0.15775169221E+04  0.35146126116E+04  0.31406913523E+04 0.  0.
        3    1    3    3  502    0 -0.49551026277E+03  0.94556281708E+03  0.20775536503E+04  0.23357758115E+04  0.10100000352E+00 0.  1.
       -3    1    3    3    0  502  0.49551026277E+03 -0.94556281708E+03 -0.50003672820E+03  0.11788368001E+04  0.10100000352E+00 0. -1.
</event>
<event>
 5   0  0.1840431E-06  0.2889175E+04  0.7818609E-02  0.8276105E-01
       -1   -1    0    0    0  501  0.00000000000E+00  0.00000000000E+00  0.12266051471E+04  0.12266051471E+04  0.50400001928E-02 0.  1.
        1   -1    0    0  501    0  0.00000000000E+00  0.00000000000E+00 -0.17013084115E+04  0.17013084115E+04  0.50400001928E-02 0. -1.
    10030    2    1    2    0    0  0.00000000000E+00  0.00000000000E+00 -0.47470326447E+03  0.29279135586E+04  0.28891754217E+04 0.  0.
        1    1    3    3  502    0  0.36944165054E+03 -0.27523058482E+03  0.11501644493E+04  0.12389984941E+04  0.50400001928E-02 0.  1.
       -1    1    3    3    0  502 -0.36944165054E+03  0.27523058482E+03 -0.16248677137E+04  0.16889150645E+04  0.50400001928E-02 0. -1.
</event>
<event>
 5   0  0.5001658E-06  0.3079411E+04  0.7818609E-02  0.8221411E-01
       -2   -1    0    0    0  501  0.00000000000E+00  0.00000000000E+00  0.10975474729E+04  0.10975474729E+04  0.25500000920E-02 0.  1.
        2   -1    0    0  501    0  0.00000000000E+00  0.00000000000E+00 -0.21599909064E+04  0.21599909064E+04  0.25500000920E-02 0. -1.
    10030    2    1    2    0    0  0.00000000000E+00  0.00000000000E+00 -0.10624434336E+04  0.32575383793E+04  0.30794106973E+04 0.  0.
        3    1    3    3  502    0 -0.49228461220E+03 -0.14277761656E+04 -0.21421469788E+03  0.15253776140E+04  0.10100000352E+00 0. -1.
       -3    1    3    3    0  502  0.49228461220E+03  0.14277761656E+04 -0.84822873568E+03  0.17321607652E+04  0.10100000352E+00 0.  1.
</event>
<event>
 5   0  0.5001658E-06  0.3032586E+04  0.7818609E-02  0.8234487E-01
        2   -1    0    0  501    0  0.00000000000E+00  0.00000000000E+00  0.25472950077E+04  0.25472950077E+04  0.25500000920E-02 0. -1.
       -2   -1    0    0    0  501  0.00000000000E+00  0.00000000000E+00 -0.90258256484E+03  0.90258256484E+03  0.25500000920E-02 0.  1.
    10030    2    1    2    0    0  0.00000000000E+00  0.00000000000E+00  0.16447124428E+04  0.34498775725E+04  0.30325857359E+04 0.  0.
        3    1    3    3  502    0  0.25266311742E+03 -0.74026273222E+03  0.23000650586E+04  0.24294293255E+04  0.10100000352E+00 0. -1.
       -3    1    3    3    0  502 -0.25266311742E+03  0.74026273222E+03 -0.65535261578E+03  0.10204482470E+04  0.10100000352E+00 0.  1.
</event>
<event>
 5   0  0.4927533E-06  0.3120276E+04  0.7818609E-02  0.8210195E-01
       -2   -1    0    0    0  501  0.00000000000E+00  0.00000000000E+00  0.22695267827E+04  0.22695267827E+04  0.25500000920E-02 0. -1.
        2   -1    0    0  501    0  0.00000000000E+00  0.00000000000E+00 -0.10724839532E+04  0.10724839532E+04  0.25500000920E-02 0.  1.
    10030    2    1    2    0    0  0.00000000000E+00  0.00000000000E+00  0.11970428295E+04  0.33420107359E+04  0.31202763056E+04 0.  0.
        5    1    3    3  502    0 -0.14514542065E+04 -0.20568735070E+03  0.11702945964E+04  0.18758033298E+04  0.46999998093E+01 0. -1.
       -5    1    3    3    0  502  0.14514542065E+04  0.20568735070E+03  0.26748233118E+02  0.14662074061E+04  0.46999998093E+01 0.  1.
</event>
<event>
 5   0  0.1843709E-06  0.3099422E+04  0.7818609E-02  0.8215897E-01
       -1   -1    0    0    0  501  0.00000000000E+00  0.00000000000E+00  0.13342496052E+04  0.13342496052E+04  0.50400001928E-02 0. -1.
        1   -1    0    0  501    0  0.00000000000E+00  0.00000000000E+00 -0.17999663330E+04  0.17999663330E+04  0.50400001928E-02 0.  1.
    10030    2    1    2    0    0  0.00000000000E+00  0.00000000000E+00 -0.46571672780E+03  0.31342159382E+04  0.30994221198E+04 0.  0.
        4    1    3    3  502    0  0.33757138165E+03  0.56158535151E+03 -0.16529991299E+04  0.17781283084E+04  0.12699999809E+01 0.  1.
       -4    1    3    3    0  502 -0.33757138165E+03 -0.56158535151E+03  0.11872824021E+04  0.13560876299E+04  0.12699999809E+01 0. -1.
</event>
<event>
 5   0  0.1843709E-06  0.3095298E+04  0.7818609E-02  0.8217029E-01
       -1   -1    0    0    0  501  0.00000000000E+00  0.00000000000E+00  0.34346956517E+04  0.34346956517E+04  0.50400001928E-02 0.  1.
        1   -1    0    0  501    0  0.00000000000E+00  0.00000000000E+00 -0.69735963832E+03  0.69735963834E+03  0.50400001928E-02 0. -1.
    10030    2    1    2    0    0  0.00000000000E+00  0.00000000000E+00  0.27373360134E+04  0.41320552900E+04  0.30952984460E+04 0.  0.
        4    1    3    3  502    0 -0.13031887483E+03 -0.12740035287E+04  0.25287262050E+04  0.28345239165E+04  0.12699999809E+01 0.  1.
       -4    1    3    3    0  502  0.13031887483E+03  0.12740035287E+04  0.20860980835E+03  0.12975313735E+04  0.12699999809E+01 0. -1.
</event>
<event>
 5   0  0.5114870E-06  0.3016207E+04  0.7818609E-02  0.8239118E-01
       -2   -1    0    0    0  501  0.00000000000E+00  0.00000000000E+00  0.10803654441E+04  0.10803654441E+04  0.25500000920E-02 0.  1.
        2   -1    0    0  501    0  0.00000000000E+00  0.00000000000E+00 -0.21051922054E+04  0.21051922054E+04  0.25500000920E-02 0. -1.
    10030    2    1    2    0    0  0.00000000000E+00  0.00000000000E+00 -0.10248267614E+04  0.31855576495E+04  0.30162074941E+04 0.  0.
        2    1    3    3  502    0 -0.13549734512E+04  0.63294362951E+03 -0.30705809558E+03  0.15267139109E+04  0.25500000920E-02 0.  1.
       -2    1    3    3    0  502  0.13549734512E+04 -0.63294362951E+03 -0.71776866581E+03  0.16588437386E+04  0.25500000920E-02 0. -1.
</event>
<event>
 5   0  0.5001658E-06  0.3130539E+04  0.7818609E-02  0.8207406E-01
        2   -1    0    0  501    0  0.00000000000E+00  0.00000000000E+00  0.19432628640E+04  0.19432628640E+04  0.25500000920E-02 0. -1.
       -2   -1    0    0    0  501  0.00000000000E+00  0.00000000000E+00 -0.12608016105E+04  0.12608016105E+04  0.25500000920E-02 0.  1.
    10030    2    1    2    0    0  0.00000000000E+00  0.00000000000E+00  0.68246125354E+03  0.32040644745E+04  0.31305392178E+04 0.  0.
        3    1    3    3  502    0  0.66789674714E+03 -0.13387124721E+04 -0.12983093364E+03  0.15016967834E+04  0.10100000352E+00 0.  1.
       -3    1    3    3    0  502 -0.66789674714E+03  0.13387124721E+04  0.81229218718E+03  0.17023676910E+04  0.10100000352E+00 0. -1.
</event>
<event>
 5   0  0.1840431E-06  0.3099939E+04  0.7818609E-02  0.8215755E-01
        1   -1    0    0  501    0  0.00000000000E+00  0.00000000000E+00  0.12634000823E+04  0.12634000823E+04  0.50400001928E-02 0. -1.
       -1   -1    0    0    0  501  0.00000000000E+00  0.00000000000E+00 -0.19015398059E+04  0.19015398059E+04  0.50400001928E-02 0.  1.
    10030    2    1    2    0    0  0.00000000000E+00  0.00000000000E+00 -0.63813972360E+03  0.31649398883E+04  0.30999390622E+04 0.  0.
        1    1    3    3  502    0  0.59301585528E+03 -0.87104184376E+03  0.84143663034E+03  0.13484796258E+04  0.50400001928E-02 0. -1.
       -1    1    3    3    0  502 -0.59301585528E+03  0.87104184376E+03 -0.14795763539E+04  0.18164602625E+04  0.50400001928E-02 0.  1.
</event>
<event>
 5   0  0.4927533E-06  0.2951969E+04  0.7818609E-02  0.8257581E-01
       -2   -1    0    0    0  501  0.00000000000E+00  0.00000000000E+00  0.98895138158E+03  0.98895138158E+03  0.25500000920E-02 0.  1.
        2   -1    0    0  501    0  0.00000000000E+00  0.00000000000E+00 -0.22028692143E+04  0.22028692143E+04  0.25500000920E-02 0. -1.
    10030    2    1    2    0    0  0.00000000000E+00  0.00000000000E+00 -0.12139178327E+04  0.31918205959E+04  0.29519692091E+04 0.  0.
        5    1    3    3  502    0 -0.53629578068E+03  0.10577541296E+04 -0.15570161852E+04  0.19572374547E+04  0.46999998093E+01 0. -1.
       -5    1    3    3    0  502  0.53629578068E+03 -0.10577541296E+04  0.34309835249E+03  0.12345831412E+04  0.46999998093E+01 0.  1.
</event>
<event>
 5   0  0.1843709E-06  0.3171310E+04  0.7818609E-02  0.8196435E-01
        1   -1    0    0  501    0  0.00000000000E+00  0.00000000000E+00  0.79704932792E+03  0.79704932794E+03  0.50400001928E-02 0. -1.
       -1   -1    0    0    0  501  0.00000000000E+00  0.00000000000E+00 -0.31545125387E+04  0.31545125387E+04  0.50400001928E-02 0.  1.
    10030    2    1    2    0    0  0.00000000000E+00  0.00000000000E+00 -0.23574632108E+04  0.39515618666E+04  0.31713102017E+04 0.  0.
        4    1    3    3  502    0 -0.13335546164E+03 -0.12107042331E+04  0.86292325712E+02  0.12210800128E+04  0.12699999809E+01 0. -1.
       -4    1    3    3    0  502  0.13335546164E+03  0.12107042331E+04 -0.24437555365E+04  0.27304818539E+04  0.12699999809E+01 0.  1.
</event>
<event>
 5   0  0.1853742E-06  0.3086952E+04  0.7818609E-02  0.8219328E-01
        1   -1    0    0  501    0  0.00000000000E+00  0.00000000000E+00  0.20889317727E+04  0.20889317727E+04  0.50400001928E-02 0. -1.
       -1   -1    0    0    0  501  0.00000000000E+00  0.00000000000E+00 -0.11404478440E+04  0.11404478440E+04  0.50400001928E-02 0.  1.
    10030    2    1    2    0    0  0.00000000000E+00  0.00000000000E+00  0.94848392863E+03  0.32293796167E+04  0.30869517240E+04 0.  0.
        5    1    3    3  502    0  0.14208361852E+04 -0.57198440119E+03  0.67370642171E+03  0.16732734543E+04  0.46999998093E+01 0.  1.
       -5    1    3    3    0  502 -0.14208361852E+04  0.57198440119E+03  0.27477750692E+03  0.15561061624E+04  0.46999998093E+01 0. -1.
</event>
<event>
 5   0  0.5114870E-06  0.3114672E+04  0.7818609E-02  0.8211723E-01
        2   -1    0    0  501    0  0.00000000000E+00  0.00000000000E+00  0.16548636053E+04  0.16548636053E+04  0.25500000920E-02 0. -1.
       -2   -1    0    0    0  501  0.00000000000E+00  0.00000000000E+00 -0.14655558769E+04  0.14655558769E+04  0.25500000920E-02 0.  1.
    10030    2    1    2    0    0  0.00000000000E+00  0.00000000000E+00  0.18930772844E+03  0.31204194822E+04  0.31146717851E+04 0.  0.
        2    1    3    3  502    0 -0.86463846975E+03  0.20089992627E+03 -0.11872911988E+04  0.14824374707E+04  0.25500000920E-02 0.  1.
       -2    1    3    3    0  502  0.86463846975E+03 -0.20089992627E+03  0.13765989272E+04  0.16379820116E+04  0.25500000920E-02 0. -1.
</event>
<event>
 5   0  0.1840431E-06  0.3100008E+04  0.7818609E-02  0.8215736E-01
       -1   -1    0    0    0  501  0.00000000000E+00  0.00000000000E+00  0.98762641013E+03  0.98762641014E+03  0.50400001928E-02 0.  1.
        1   -1    0    0  501    0  0.00000000000E+00  0.00000000000E+00 -0.24326130716E+04  0.24326130716E+04  0.50400001928E-02 0. -1.
    10030    2    1    2    0    0  0.00000000000E+00  0.00000000000E+00 -0.14449866615E+04  0.34202394818E+04  0.31000083324E+04 0.  0.
        1    1    3    3  502    0  0.12289386441E+04  0.69450925820E+03 -0.14288463639E+04  0.20085405727E+04  0.50400001928E-02 0. -1.
       -1    1    3    3    0  502 -0.12289386441E+04 -0.69450925820E+03 -0.16140297571E+02  0.14116989090E+04  0.50400001928E-02 0.  1.
</event>
<event>
 5   0  0.1836401E-06  0.3147126E+04  0.7818609E-02  0.8202922E-01
        1   -1    0    0  501    0  0.00000000000E+00  0.00000000000E+00  0.17409710794E+04  0.17409710794E+04  0.50400001928E-02 0. -1.
       -1   -1    0    0    0  501  0.00000000000E+00  0.00000000000E+00 -0.14222521643E+04  0.14222521643E+04  0.50400001928E-02 0.  1.
    10030    2    1    2    0    0  0.00000000000E+00  0.00000000000E+00  0.31871891514E+03  0.31632232437E+04  0.31471256001E+04 0.  0.
        2    1    3    3  502    0  0.15305119137E+04  0.31120595958E+03  0.35213207909E+03  0.16010349366E+04  0.25500000920E-02 0.  1.
       -2    1    3    3    0  502 -0.15305119137E+04 -0.31120595958E+03 -0.33413163946E+02  0.15621883071E+04  0.25500000920E-02 0. -1.
</event>
<event>
 5   0  0.4927533E-06  0.3184363E+04  0.7818609E-02  0.8192959E-01
        2   -1    0    0  501    0  0.00000000000E+00  0.00000000000E+00  0.16466706032E+04  0.16466706032E+04  0.25500000920E-02 0. -1.
       -2   -1    0    0    0  501  0.00000000000E+00  0.00000000000E+00 -0.15394956205E+04  0.15394956205E+04  0.25500000920E-02 0.  1.
    10030    2    1    2    0    0  0.00000000000E+00  0.00000000000E+00  0.10717498271E+03  0.31861662236E+04  0.31843631589E+04 0.  0.
        5    1    3    3  502    0 -0.10701697141E+04  0.76133576227E+03  0.95416642567E+03  0.16233764251E+04  0.46999998093E+01 0. -1.
       -5    1    3    3    0  502  0.10701697141E+04 -0.76133576227E+03 -0.84699144296E+03  0.15627897985E+04  0.46999998093E+01 0.  1.
</event>
<event>
 5   0  0.4900679E-06  0.3223192E+04  0.7818609E-02  0.8182719E-01
       -2   -1    0    0    0  501  0.00000000000E+00  0.00000000000E+00  0.13536862395E+04  0.13536862395E+04  0.25500000920E-02 0. -1.
        2   -1    0    0  501    0  0.00000000000E+00  0.00000000000E+00 -0.19186439340E+04  0.19186439340E+04  0.25500000920E-02 0.  1.
    10030    2    1    2    0    0  0.00000000000E+00  0.00000000000E+00 -0.56495769445E+03  0.32723301735E+04  0.32231921395E+04 0.  0.
        4    1    3    3  502    0  0.11570395014E+04 -0.33611127210E+03 -0.13690895583E+04  0.18237650689E+04  0.12699999809E+01 0.  1.
       -4    1    3    3    0  502 -0.11570395014E+04  0.33611127210E+03  0.80413186382E+03  0.14485651046E+04  0.12699999809E+01 0. -1.
</event>
<event>
 5   0  0.1836401E-06  0.3146990E+04  0.7818609E-02  0.8202959E-01
        1   -1    0    0  501    0  0.00000000000E+00  0.00000000000E+00  0.12405055146E+04  0.12405055146E+04  0.50400001928E-02 0. -1.
       -1   -1    0    0    0  501  0.00000000000E+00  0.00000000000E+00 -0.19958694118E+04  0.19958694119E+04  0.50400001928E-02 0.  1.
    10030    2    1    2    0    0  0.00000000000E+00  0.00000000000E+00 -0.75536389726E+03  0.32363749265E+04  0.31469903157E+04 0.  0.
        2    1    3    3  502    0 -0.30949237600E+03  0.12811092201E+04 -0.12616665287E+04  0.18245078225E+04  0.25500000920E-02 0.  1.
       -2    1    3    3    0  502  0.30949237600E+03 -0.12811092201E+04  0.50630263147E+03  0.14118671040E+04  0.25500000920E-02 0. -1.
</event>
<event>
 5   0  0.1885307E-06  0.2520447E+04  0.7818609E-02  0.8395737E-01
       -1   -1    0    0    0  501  0.00000000000E+00  0.00000000000E+00  0.97687855402E+03  0.97687855403E+03  0.50400001928E-02 0.  1.
        1   -1    0    0  501    0  0.00000000000E+00  0.00000000000E+00 -0.16257527531E+04  0.16257527531E+04  0.50400001928E-02 0. -1.
    10030    2    1    2    0    0  0.00000000000E+00  0.00000000000E+00 -0.64887419912E+03  0.26026313072E+04  0.25204467848E+04 0.  0.
        3    1    3    3  502    0  0.66401008366E+03 -0.70838997378E+03  0.50515026310E+03  0.10944873433E+04  0.10100000352E+00 0.  1.
       -3    1    3    3    0  502 -0.66401008366E+03  0.70838997378E+03 -0.11540244622E+04  0.15081439639E+04  0.10100000352E+00 0. -1.
</event>
<event>
 5   0  0.1836401E-06  0.3081166E+04  0.7818609E-02  0.8220926E-01
       -1   -1    0    0    0  501  0.00000000000E+00  0.00000000000E+00  0.10446968509E+04  0.10446968509E+04  0.50400001928E-02 0. -1.
        1   -1    0    0  501    0  0.00000000000E+00  0.00000000000E+00 -0.22718516187E+04  0.22718516187E+04  0.50400001928E-02 0.  1.
    10030    2    1    2    0    0  0.00000000000E+00  0.00000000000E+00 -0.12271547678E+04  0.33165484696E+04  0.30811661635E+04 0.  0.
        2    1    3    3  502    0 -0.47269167828E+03  0.47480568084E+03  0.87967170940E+03  0.11057577373E+04  0.25500000920E-02 0. -1.
       -2    1    3    3    0  502  0.47269167828E+03 -0.47480568084E+03 -0.21068264772E+04  0.22107907323E+04  0.25500000920E-02 0.  1.
</event>
<event>
 5   0  0.5001658E-06  0.3165615E+04  0.7818609E-02  0.8197958E-01
        2   -1    0    0  501    0  0.00000000000E+00  0.00000000000E+00  0.19186463676E+04  0.19186463676E+04  0.25500000920E-02 0. -1.
       -2   -1    0    0    0  501  0.00000000000E+00  0.00000000000E+00 -0.13057533370E+04  0.13057533370E+04  0.25500000920E-02 0.  1.
    10030    2    1    2    0    0  0.00000000000E+00  0.00000000000E+00  0.61289303059E+03  0.32243997047E+04  0.31656145673E+04 0.  0.
        3    1    3    3  502    0 -0.78917154497E+03  0.43237133758E+03 -0.10198637678E+04  0.13600951496E+04  0.10100000352E+00 0.  1.
       -3    1    3    3    0  502  0.78917154497E+03 -0.43237133758E+03  0.16327567984E+04  0.18643045550E+04  0.10100000352E+00 0. -1.
</event>
<event>
 5   0  0.1649875E-06  0.3035085E+04  0.7818609E-02  0.8233783E-01
        3   -1    0    0  501    0  0.00000000000E+00  0.00000000000E+00  0.18198707554E+04  0.18198707582E+04  0.10100000352E+00 0. -1.
       -3   -1    0    0    0  501  0.00000000000E+00  0.00000000000E+00 -0.12654386366E+04  0.12654386406E+04  0.10100000352E+00 0.  1.
    10030    2    1    2    0    0  0.00000000000E+00  0.00000000000E+00  0.55443211883E+03  0.30853093989E+04  0.30350846961E+04 0.  0.
        5    1    3    3  502    0  0.22325337033E+03  0.13344521356E+04 -0.42140329440E+03  0.14171123442E+04  0.46999998093E+01 0.  1.
       -5    1    3    3    0  502 -0.22325337033E+03 -0.13344521356E+04  0.97583541323E+03  0.16681970547E+04  0.46999998093E+01 0. -1.
</event>
<event>
 5   0  0.1843709E-06  0.3093599E+04  0.7818609E-02  0.8217497E-01
       -1   -1    0    0    0  501  0.00000000000E+00  0.00000000000E+00  0.96740787235E+03  0.96740787236E+03  0.50400001928E-02 0. -1.
        1   -1    0    0  501    0  0.00000000000E+00  0.00000000000E+00 -0.24731948508E+04  0.24731948508E+04  0.50400001928E-02 0.  1.
    10030    2    1    2    0    0  0.00000000000E+00  0.00000000000E+00 -0.15057869785E+04  0.34406027232E+04  0.30935986608E+04 0.  0.
        4    1    3    3  502    0 -0.58863808694E+03 -0.11595738799E+04 -0.16843836216E+04  0.21279699664E+04  0.12699999809E+01 0.  1.
       -4    1    3    3    0  502  0.58863808694E+03  0.11595738799E+04  0.17859664310E+03  0.13126327568E+04  0.12699999809E+01 0. -1.
</event>
<event>
 5   0  0.1885307E-06  0.3095178E+04  0.7818609E-02  0.8217063E-01
        1   -1    0    0  501    0  0.00000000000E+00  0.00000000000E+00  0.22124808688E+04  0.22124808688E+04  0.50400001928E-02 0.  1.
       -1   -1    0    0    0  501  0.00000000000E+00  0.00000000000E+00 -0.10825093149E+04  0.10825093149E+04  0.50400001928E-02 0. -1.
    10030    2    1    2    0    0  0.00000000000E+00  0.00000000000E+00  0.11299715539E+04  0.32949901837E+04  0.30951776360E+04 0.  0.
        3    1    3    3  502    0  0.62370179659E+03 -0.12282188880E+04  0.13158605621E+04  0.19049972695E+04  0.10100000352E+00 0.  1.
       -3    1    3    3    0  502 -0.62370179659E+03  0.12282188880E+04 -0.18588900824E+03  0.13899929142E+04  0.10100000352E+00 0. -1.
</event>
<event>
 5   0  0.5328368E-06  0.3075473E+04  0.7818609E-02  0.8222501E-01
       -2   -1    0    0    0  501  0.00000000000E+00  0.00000000000E+00  0.15582939587E+04  0.15582939587E+04  0.25500000920E-02 0.  1.
        2   -1    0    0  501    0  0.00000000000E+00  0.00000000000E+00 -0.15174504711E+04  0.15174504711E+04  0.25500000920E-02 0. -1.
    10030    2    1    2    0    0  0.00000000000E+00  0.00000000000E+00  0.40843487563E+02  0.30757444298E+04  0.30754732330E+04 0.  0.
        1    1    3    3  502    0  0.94570099004E+01  0.15177101521E+04 -0.22678492513E+03  0.15345895031E+04  0.50400001928E-02 0. -1.
       -1    1    3    3    0  502 -0.94570099004E+01 -0.15177101521E+04  0.26762841269E+03  0.15411549267E+04  0.50400001928E-02 0.  1.
</event>
<event>
 5   0  0.1840431E-06  0.3061178E+04  0.7818609E-02  0.8226474E-01
        1   -1    0    0  501    0  0.00000000000E+00  0.00000000000E+00  0.18091291431E+04  0.18091291431E+04  0.50400001928E-02 0. -1.
       -1   -1    0    0    0  501  0.00000000000E+00  0.00000000000E+00 -0.12949336308E+04  0.12949336308E+04  0.50400001928E-02 0.  1.
    10030    2    1    2    0    0  0.00000000000E+00  0.00000000000E+00  0.51419551226E+03  0.31040627739E+04  0.30611776622E+04 0.  0.
        1    1    3    3  502    0  0.90628594678E+03  0.87989028190E+03 -0.61938476035E+03  0.14068399365E+04  0.50400001928E-02 0.  1.
       -1    1    3    3    0  502 -0.90628594678E+03 -0.87989028190E+03  0.11335802726E+04  0.16972228375E+04  0.50400001928E-02 0. -1.
</event>
<event>
 5   0  0.5001658E-06  0.2769029E+04  0.7818609E-02  0.8312949E-01
        2   -1    0    0  501    0  0.00000000000E+00  0.00000000000E+00  0.70382185527E+03  0.70382185527E+03  0.25500000920E-02 0. -1.
       -2   -1    0    0    0  501  0.00000000000E+00  0.00000000000E+00 -0.27235306042E+04  0.27235306042E+04  0.25500000920E-02 0.  1.
    10030    2    1    2    0    0  0.00000000000E+00  0.00000000000E+00 -0.20197087489E+04  0.34273524595E+04  0.27690289726E+04 0.  0.
        3    1    3    3  502    0 -0.12234290118E+04  0.64610980587E+03 -0.94621062261E+03  0.16761715249E+04  0.10100000352E+00 0. -1.
       -3    1    3    3    0  502  0.12234290118E+04 -0.64610980587E+03 -0.10734981263E+04  0.17511809346E+04  0.10100000352E+00 0.  1.
</event>
<event>
 5   0  0.5001658E-06  0.3149211E+04  0.7818609E-02  0.8202361E-01
        2   -1    0    0  501    0  0.00000000000E+00  0.00000000000E+00  0.18336200560E+04  0.18336200560E+04  0.25500000920E-02 0. -1.
       -2   -1    0    0    0  501  0.00000000000E+00  0.00000000000E+00 -0.13521792549E+04  0.13521792549E+04  0.25500000920E-02 0.  1.
    10030    2    1    2    0    0  0.00000000000E+00  0.00000000000E+00  0.48144080105E+03  0.31857993109E+04  0.31492113305E+04 0.  0.
        3    1    3    3  502    0  0.21970416215E+03  0.12999209829E+04 -0.63028135594E+03  0.14612731020E+04  0.10100000352E+00 0.  1.
       -3    1    3    3    0  502 -0.21970416215E+03 -0.12999209829E+04  0.11117221570E+04  0.17245262089E+04  0.10100000352E+00 0. -1.
</event>
<event>
 5   0  0.4900679E-06  0.3044661E+04  0.7818609E-02  0.8231091E-01
       -2   -1    0    0    0  501  0.00000000000E+00  0.00000000000E+00  0.80767758561E+03  0.80767758562E+03  0.25500000920E-02 0. -1.
        2   -1    0    0  501    0  0.00000000000E+00  0.00000000000E+00 -0.28693263695E+04  0.28693263695E+04  0.25500000920E-02 0.  1.
    10030    2    1    2    0    0  0.00000000000E+00  0.00000000000E+00 -0.20616487839E+04  0.36770039551E+04  0.30446612911E+04 0.  0.
        4    1    3    3  502    0 -0.87462525956E+03 -0.64436474318E+03  0.25711447494E+03  0.11163712344E+04  0.12699999809E+01 0. -1.
       -4    1    3    3    0  502  0.87462525956E+03  0.64436474318E+03 -0.23187632588E+04  0.25606327207E+04  0.12699999809E+01 0.  1.
</event>
<event>
 5   0  0.1853742E-06  0.3202017E+04  0.7818609E-02  0.8188285E-01
       -1   -1    0    0    0  501  0.00000000000E+00  0.00000000000E+00  0.11345386512E+04  0.11345386512E+04  0.50400001928E-02 0.  1.
        1   -1    0    0  501    0  0.00000000000E+00  0.00000000000E+00 -0.22592693794E+04  0.22592693794E+04  0.50400001928E-02 0. -1.
    10030    2    1    2    0    0  0.00000000000E+00  0.00000000000E+00 -0.11247307282E+04  0.33938080307E+04  0.32020171358E+04 0.  0.
        5    1    3    3  502    0  0.13566726560E+04 -0.48201471229E+03  0.17979520128E+03  0.14509470297E+04  0.46999998093E+01 0. -1.
       -5    1    3    3    0  502 -0.13566726560E+04  0.48201471229E+03 -0.13045259295E+04  0.19428610010E+04  0.46999998093E+01 0.  1.
</event>
<event>
 5   0  0.4900679E-06  0.3063847E+04  0.7818609E-02  0.8225730E-01
       -2   -1    0    0    0  501  0.00000000000E+00  0.00000000000E+00  0.10761353870E+04  0.10761353870E+04  0.25500000920E-02 0. -1.
        2   -1    0    0  501    0  0.00000000000E+00  0.00000000000E+00 -0.21807573639E+04  0.21807573639E+04  0.25500000920E-02 0.  1.
    10030    2    1    2    0    0  0.00000000000E+00  0.00000000000E+00 -0.11046219769E+04  0.32568927509E+04  0.30638473655E+04 0.  0.
        4    1    3    3  502    0  0.67234442220E+03 -0.42013364026E+03  0.84109247858E+03  0.11558535669E+04  0.12699999809E+01 0. -1.
       -4    1    3    3    0  502 -0.67234442220E+03  0.42013364026E+03 -0.19457144554E+04  0.21010391840E+04  0.12699999809E+01 0.  1.
</event>
<event>
 5   0  0.1853742E-06  0.3066004E+04  0.7818609E-02  0.8225130E-01
       -1   -1    0    0    0  501  0.00000000000E+00  0.00000000000E+00  0.14956387761E+04  0.14956387761E+04  0.50400001928E-02 0. -1.
        1   -1    0    0  501    0  0.00000000000E+00  0.00000000000E+00 -0.15712984647E+04  0.15712984647E+04  0.50400001928E-02 0.  1.
    10030    2    1    2    0    0  0.00000000000E+00  0.00000000000E+00 -0.75659688542E+02  0.30669372408E+04  0.30660038569E+04 0.  0.
        5    1    3    3  502    0 -0.13893977656E+04 -0.60384112622E+03 -0.27247014762E+03  0.15392570702E+04  0.46999998093E+01 0.  1.
       -5    1    3    3    0  502  0.13893977656E+04  0.60384112622E+03  0.19681045908E+03  0.15276801706E+04  0.46999998093E+01 0. -1.
</event>
<event>
 5   0  0.5328368E-06  0.3079039E+04  0.7818609E-02  0.8221514E-01
        2   -1    0    0  501    0  0.00000000000E+00  0.00000000000E+00  0.88864030469E+03  0.88864030469E+03  0.25500000920E-02 0. -1.
       -2   -1    0    0    0  501  0.00000000000E+00  0.00000000000E+00 -0.26671306884E+04  0.26671306884E+04  0.25500000920E-02 0.  1.
    10030    2    1    2    0    0  0.00000000000E+00  0.00000000000E+00 -0.17784903837E+04  0.35557709931E+04  0.30790386991E+04 0.  0.
        1    1    3    3  502    0  0.32086056726E+03 -0.15049475522E+04 -0.94464328033E+03  0.18055939648E+04  0.50400001928E-02 0. -1.
       -1    1    3    3    0  502 -0.32086056726E+03  0.15049475522E+04 -0.83384710336E+03  0.17501770283E+04  0.50400001928E-02 0.  1.
</event>
<event>
 5   0  0.1836401E-06  0.3216771E+04  0.7818609E-02  0.8184402E-01
       -1   -1    0    0    0  501  0.00000000000E+00  0.00000000000E+00  0.30054017248E+04  0.30054017248E+04  0.50400001928E-02 0.  1.
        1   -1    0    0  501    0  0.00000000000E+00  0.00000000000E+00 -0.86075138459E+03  0.86075138460E+03  0.50400001928E-02 0. -1.
    10030    2    1    2    0    0  0.00000000000E+00  0.00000000000E+00  0.21446503402E+04  0.38661531094E+04  0.32167708628E+04 0.  0.
        2    1    3    3  502    0  0.57896362676E+02 -0.15880084835E+04  0.77359054850E+03  0.17673611033E+04  0.25500000920E-02 0. -1.
       -2    1    3    3    0  502 -0.57896362676E+02  0.15880084835E+04  0.13710597917E+04  0.20987920062E+04  0.25500000920E-02 0.  1.
</event>
<event>
 5   0  0.4927533E-06  0.2978871E+04  0.7818609E-02  0.8249790E-01
        2   -1    0    0  501    0  0.00000000000E+00  0.00000000000E+00  0.21345151597E+04  0.21345151597E+04  0.25500000920E-02 0.  1.
       -2   -1    0    0    0  501  0.00000000000E+00  0.00000000000E+00 -0.10393079723E+04  0.10393079723E+04  0.25500000920E-02 0. -1.
    10030    2    1    2    0    0  0.00000000000E+00  0.00000000000E+00  0.10952071874E+04  0.31738231320E+04  0.29788713450E+04 0.  0.
        5    1    3    3  502    0 -0.11581672498E+04  0.26850130060E+03  0.15035114296E+04  0.19167715137E+04  0.46999998093E+01 0.  1.
       -5    1    3    3    0  502  0.11581672498E+04 -0.26850130060E+03 -0.40830424224E+03  0.12570516183E+04  0.46999998093E+01 0. -1.
</event>
<event>
 5   0  0.1885307E-06  0.3083828E+04  0.7818609E-02  0.8220190E-01
        1   -1    0    0  501    0  0.00000000000E+00  0.00000000000E+00  0.21460461827E+04  0.21460461827E+04  0.50400001928E-02 0.  1.
       -1   -1    0    0    0  501  0.00000000000E+00  0.00000000000E+00 -0.11078503893E+04  0.11078503893E+04  0.50400001928E-02 0. -1.
    10030    2    1    2    0    0  0.00000000000E+00  0.00000000000E+00  0.10381957934E+04  0.32538965720E+04  0.30838275561E+04 0.  0.
        3    1    3    3  502    0 -0.77865194314E+03  0.35786759907E+03 -0.83344056831E+03  0.11954042237E+04  0.10100000352E+00 0. -1.
       -3    1    3    3    0  502  0.77865194314E+03 -0.35786759907E+03  0.18716363618E+04  0.20584923483E+04  0.10100000352E+00 0.  1.
</event>
<event>
 5   0  0.1885307E-06  0.3102007E+04  0.7818609E-02  0.8215187E-01
        1   -1    0    0  501    0  0.00000000000E+00  0.00000000000E+00  0.12432802651E+04  0.12432802651E+04  0.50400001928E-02 0. -1.
       -1   -1    0    0    0  501  0.00000000000E+00  0.00000000000E+00 -0.19348912535E+04  0.19348912535E+04  0.50400001928E-02 0.  1.
    10030    2    1    2    0    0  0.00000000000E+00  0.00000000000E+00 -0.69161098840E+03  0.31781715186E+04  0.31020071635E+04 0.  0.
        3    1    3    3  502    0 -0.65704647190E+03 -0.14041966782E+04 -0.29847908621E+03  0.15787869244E+04  0.10100000352E+00 0. -1.
       -3    1    3    3    0  502  0.65704647190E+03  0.14041966782E+04 -0.39313190219E+03  0.15993845942E+04  0.10100000352E+00 0.  1.
</event>
<event>
 5   0  0.1885307E-06  0.2986761E+04  0.7818609E-02  0.8247521E-01
       -1   -1    0    0    0  501  0.00000000000E+00  0.00000000000E+00  0.13075358819E+04  0.13075358819E+04  0.50400001928E-02 0. -1.
        1   -1    0    0  501    0  0.00000000000E+00  0.00000000000E+00 -0.17056399619E+04  0.17056399619E+04  0.50400001928E-02 0.  1.
    10030    2    1    2    0    0  0.00000000000E+00  0.00000000000E+00 -0.39810408000E+03  0.30131758438E+04  0.29867610898E+04 0.  0.
        3    1    3    3  502    0  0.91340604236E+03 -0.20772288721E+03  0.97430158189E+03  0.13515631612E+04  0.10100000352E+00 0. -1.
       -3    1    3    3    0  502 -0.91340604236E+03  0.20772288721E+03 -0.13724056619E+04  0.16616126826E+04  0.10100000352E+00 0.  1.
</event>
<event>
 5   0  0.1836401E-06  0.3127654E+04  0.7818609E-02  0.8208189E-01
       -1   -1    0    0    0  501  0.00000000000E+00  0.00000000000E+00  0.12830178756E+04  0.12830178756E+04  0.50400001928E-02 0.  1.
        1   -1    0    0  501    0  0.00000000000E+00  0.00000000000E+00 -0.19060956380E+04  0.19060956380E+04  0.50400001928E-02 0. -1.
    10030    2    1    2    0    0  0.00000000000E+00  0.00000000000E+00 -0.62307776241E+03  0.31891135135E+04  0.31276539297E+04 0.  0.
        2    1    3    3  502    0 -0.48744822411E+03  0.12747110866E+04 -0.10901276798E+04  0.17466746931E+04  0.25500000920E-02 0. -1.
       -2    1    3    3    0  502  0.48744822411E+03 -0.12747110866E+04  0.46704991735E+03  0.14424388204E+04  0.25500000920E-02 0.  1.
</event>
<event>
 5   0  0.1853742E-06  0.3027665E+04  0.7818609E-02  0.8235875E-01
        1   -1    0    0  501    0  0.00000000000E+00  0.00000000000E+00  0.12493520293E+04  0.12493520293E+04  0.50400001928E-02 0. -1.
       -1   -1    0    0    0  501  0.00000000000E+00  0.00000000000E+00 -0.18343014260E+04  0.18343014260E+04  0.50400001928E-02 0.  1.
    10030    2    1    2    0    0  0.00000000000E+00  0.00000000000E+00 -0.58494939671E+03  0.30836534553E+04  0.30276645844E+04 0.  0.
        5    1    3    3  502    0  0.11799133296E+04 -0.36481062927E+02  0.67275299184E+03  0.13587291898E+04  0.46999998093E+01 0. -1.
       -5    1    3    3    0  502 -0.11799133296E+04  0.36481062927E+02 -0.12577023886E+04  0.17249242654E+04  0.46999998093E+01 0.  1.
</event>
<event>
 5   0  0.4927533E-06  0.2765839E+04  0.7818609E-02  0.8313953E-01
        2   -1    0    0  501    0  0.00000000000E+00  0.00000000000E+00  0.13521801473E+04  0.13521801473E+04  0.25500000920E-02 0. -1.
       -2   -1    0    0    0  501  0.00000000000E+00  0.00000000000E+00 -0.14143573928E+04  0.14143573928E+04  0.25500000920E-02 0.  1.
    10030    2    1    2    0    0  0.00000000000E+00  0.00000000000E+00 -0.62177245475E+02  0.27665375401E+04  0.27658387428E+04 0.  0.
        5    1    3    3  502    0  0.36152098862E+03 -0.80963060579E+03  0.10304262970E+04  0.13594114853E+04  0.46999998093E+01 0. -1.
       -5    1    3    3    0  502 -0.36152098862E+03  0.80963060579E+03 -0.10926035424E+04  0.14071260548E+04  0.46999998093E+01 0.  1.
</event>
<event>
 5   0  0.1649875E-06  0.3108563E+04  0.7818609E-02  0.8213392E-01
        3   -1    0    0  501    0  0.00000000000E+00  0.00000000000E+00  0.25213605487E+04  0.25213605507E+04  0.10100000352E+00 0.  1.
       -3   -1    0    0    0  501  0.00000000000E+00  0.00000000000E+00 -0.95812987596E+03  0.95812988128E+03  0.10100000352E+00 0. -1.
    10030    2    1    2    0    0  0.00000000000E+00  0.00000000000E+00  0.15632306727E+04  0.34794904320E+04  0.31085629365E+04 0.  0.
        3    1    3    3  502    0 -0.45275098492E+02  0.14963417828E+04  0.12494639015E+04  0.19499355417E+04  0.10100000352E+00 0.  1.
       -3    1    3    3    0  502  0.45275098492E+02 -0.14963417828E+04  0.31376677119E+03  0.15295548903E+04  0.10100000352E+00 0. -1.
</event>
<event>
 5   0  0.5328368E-06  0.3105114E+04  0.7818609E-02  0.8214336E-01
       -2   -1    0    0    0  501  0.00000000000E+00  0.00000000000E+00  0.18102840132E+04  0.18102840132E+04  0.25500000920E-02 0. -1.
        2   -1    0    0  501    0  0.00000000000E+00  0.00000000000E+00 -0.13315224616E+04  0.13315224616E+04  0.25500000920E-02 0.  1.
    10030    2    1    2    0    0  0.00000000000E+00  0.00000000000E+00  0.47876155158E+03  0.31418064748E+04  0.31051143782E+04 0.  0.
        1    1    3    3  502    0  0.14549346220E+03  0.90858103264E+01 -0.13245824223E+04  0.13325800137E+04  0.50400001928E-02 0.  1.
       -1    1    3    3    0  502 -0.14549346220E+03 -0.90858103264E+01  0.18033439738E+04  0.18092264611E+04  0.50400001928E-02 0. -1.
</event>
<event>
 5   0  0.1840431E-06  0.3094196E+04  0.7818609E-02  0.8217333E-01
       -1   -1    0    0    0  501  0.00000000000E+00  0.00000000000E+00  0.13956634647E+04  0.13956634647E+04  0.50400001928E-02 0. -1.
        1   -1    0    0  501    0  0.00000000000E+00  0.00000000000E+00 -0.17149632608E+04  0.17149632608E+04  0.50400001928E-02 0.  1.
    10030    2    1    2    0    0  0.00000000000E+00  0.00000000000E+00 -0.31929979610E+03  0.31106267255E+04  0.30941955765E+04 0.  0.
        1    1    3    3  502    0  0.11536835224E+03 -0.24419577409E+02 -0.17104385359E+04  0.17144988066E+04  0.50400001928E-02 0.  1.
       -1    1    3    3    0  502 -0.11536835224E+03  0.24419577409E+02  0.13911387398E+04  0.13961279189E+04  0.50400001928E-02 0. -1.
</event>
<event>
 5   0  0.4900679E-06  0.3115201E+04  0.7818609E-02  0.8211578E-01
        2   -1    0    0  501    0  0.00000000000E+00  0.00000000000E+00  0.14002041120E+04  0.14002041120E+04  0.25500000920E-02 0.  1.
       -2   -1    0    0    0  501  0.00000000000E+00  0.00000000000E+00 -0.17326901138E+04  0.17326901138E+04  0.25500000920E-02 0. -1.
    10030    2    1    2    0    0  0.00000000000E+00  0.00000000000E+00 -0.33248600178E+03  0.31328942258E+04  0.31152013239E+04 0.  0.
        4    1    3    3  502    0 -0.66052208468E+03 -0.73378834966E+03 -0.13778190954E+04  0.16950285658E+04  0.12699999809E+01 0. -1.
       -4    1    3    3    0  502  0.66052208468E+03  0.73378834966E+03  0.10453330936E+04  0.14378656599E+04  0.12699999809E+01 0.  1.
</event>
<event>
 5   0  0.5001658E-06  0.3110582E+04  0.7818609E-02  0.8212840E-01
       -2   -1    0    0    0  501  0.00000000000E+00  0.00000000000E+00  0.11924275594E+04  0.11924275594E+04  0.25500000920E-02 0.  1.
        2   -1    0    0  501    0  0.00000000000E+00  0.00000000000E+00 -0.20285764978E+04  0.20285764978E+04  0.25500000920E-02 0. -1.
    10030    2    1    2    0    0  0.00000000000E+00  0.00000000000E+00 -0.83614893839E+03  0.32210040573E+04  0.31105822750E+04 0.  0.
        3    1    3    3  502    0 -0.14314113052E+02 -0.14388360203E+04 -0.10293490588E+04  0.17691844115E+04  0.10100000352E+00 0.  1.
       -3    1    3    3    0  502  0.14314113052E+02  0.14388360203E+04  0.19320012038E+03  0.14518196457E+04  0.10100000352E+00 0. -1.
</event>
<event>
 5   0  0.1885307E-06  0.3156254E+04  0.7818609E-02  0.8200467E-01
       -1   -1    0    0    0  501  0.00000000000E+00  0.00000000000E+00  0.11731090428E+04  0.11731090428E+04  0.50400001928E-02 0. -1.
        1   -1    0    0  501    0  0.00000000000E+00  0.00000000000E+00 -0.21229775863E+04  0.21229775863E+04  0.50400001928E-02 0.  1.
    10030    2    1    2    0    0  0.00000000000E+00  0.00000000000E+00 -0.94986854354E+03  0.32960866291E+04  0.31562536046E+04 0.  0.
        3    1    3    3  502    0  0.13796265244E+04  0.29171204408E+03  0.26498914707E+03  0.14348116677E+04  0.10100000352E+00 0. -1.
       -3    1    3    3    0  502 -0.13796265244E+04 -0.29171204408E+03 -0.12148576906E+04  0.18612749614E+04  0.10100000352E+00 0.  1.
</event>
<event>
 5   0  0.1853742E-06  0.3106425E+04  0.7818609E-02  0.8213977E-01
        1   -1    0    0  501    0  0.00000000000E+00  0.00000000000E+00  0.17979599095E+04  0.17979599095E+04  0.50400001928E-02 0. -1.
       -1   -1    0    0    0  501  0.00000000000E+00  0.00000000000E+00 -0.13417814910E+04  0.13417814910E+04  0.50400001928E-02 0.  1.
    10030    2    1    2    0    0  0.00000000000E+00  0.00000000000E+00  0.45617841851E+03  0.31397414005E+04  0.31064251661E+04 0.  0.
        5    1    3    3  502    0 -0.80531770484E+03  0.13280518752E+04  0.21419957890E+03  0.15678526520E+04  0.46999998093E+01 0.  1.
       -5    1    3    3    0  502  0.80531770484E+03 -0.13280518752E+04  0.24197883962E+03  0.15718887485E+04  0.46999998093E+01 0. -1.
</event>
<event>
 5   0  0.1843709E-06  0.3104670E+04  0.7818609E-02  0.8214458E-01
        1   -1    0    0  501    0  0.00000000000E+00  0.00000000000E+00  0.25501501598E+04  0.25501501598E+04  0.50400001928E-02 0. -1.
       -1   -1    0    0    0  501  0.00000000000E+00  0.00000000000E+00 -0.94494177812E+03  0.94494177814E+03  0.50400001928E-02 0.  1.
    10030    2    1    2    0    0  0.00000000000E+00  0.00000000000E+00  0.16052083817E+04  0.34950919379E+04  0.31046696613E+04 0.  0.
        4    1    3    3  502    0  0.12566440484E+04  0.24433494635E+03 -0.18580970964E+03  0.12935921658E+04  0.12699999809E+01 0.  1.
       -4    1    3    3    0  502 -0.12566440484E+04 -0.24433494635E+03  0.17910180913E+04  0.22014997721E+04  0.12699999809E+01 0. -1.
</event>
<event>
 5   0  0.4927533E-06  0.3066892E+04  0.7818609E-02  0.8224883E-01
       -2   -1    0    0    0  501  0.00000000000E+00  0.00000000000E+00  0.16045016266E+04  0.16045016266E+04  0.25500000920E-02 0.  1.
        2   -1    0    0  501    0  0.00000000000E+00  0.00000000000E+00 -0.14655373146E+04  0.14655373146E+04  0.25500000920E-02 0. -1.
    10030    2    1    2    0    0  0.00000000000E+00  0.00000000000E+00  0.13896431199E+03  0.30700389411E+04  0.30668922413E+04 0.  0.
        5    1    3    3  502    0 -0.38178893849E+03 -0.13261229095E+04 -0.59983692258E+03  0.15047229606E+04  0.46999998093E+01 0. -1.
       -5    1    3    3    0  502  0.38178893849E+03  0.13261229095E+04  0.73880123457E+03  0.15653159805E+04  0.46999998093E+01 0.  1.
</event>
<event>
 5   0  0.5114870E-06  0.3160602E+04  0.7818609E-02  0.8199300E-01
       -2   -1    0    0    0  501  0.00000000000E+00  0.00000000000E+00  0.15960316657E+04  0.15960316657E+04  0.25500000920E-02 0. -1.
        2   -1    0    0  501    0  0.00000000000E+00  0.00000000000E+00 -0.15647250969E+04  0.15647250969E+04  0.25500000920E-02 0.  1.
    10030    2    1    2    0    0  0.00000000000E+00  0.00000000000E+00  0.31306568831E+02  0.31607567626E+04  0.31606017166E+04 0.  0.
        2    1    3    3  502    0  0.72827014595E+03 -0.73625058569E+03  0.12094071435E+04  0.15922022387E+04  0.25500000920E-02 0. -1.
       -2    1    3    3    0  502 -0.72827014595E+03  0.73625058569E+03 -0.11781005746E+04  0.15685545239E+04  0.25500000920E-02 0.  1.
</event>
<event>
 5   0  0.5001658E-06  0.3109169E+04  0.7818609E-02  0.8213226E-01
       -2   -1    0    0    0  501  0.00000000000E+00  0.00000000000E+00  0.10061453840E+04  0.10061453840E+04  0.25500000920E-02 0.  1.
        2   -1    0    0  501    0  0.00000000000E+00  0.00000000000E+00 -0.24019725133E+04  0.24019725133E+04  0.25500000920E-02 0. -1.
    10030    2    1    2    0    0  0.00000000000E+00  0.00000000000E+00 -0.13958271293E+04  0.34081178973E+04  0.31091693789E+04 0.  0.
        3    1    3    3  502    0  0.97327750289E+03 -0.32333181154E+03 -0.19785444868E+04  0.22285535341E+04  0.10100000352E+00 0. -1.
       -3    1    3    3    0  502 -0.97327750289E+03  0.32333181154E+03  0.58271735747E+03  0.11795643632E+04  0.10100000352E+00 0.  1.
</event>
<event>
 5   0  0.5114870E-06  0.3070187E+04  0.7818609E-02  0.8223968E-01
       -2   -1    0    0    0  501  0.00000000000E+00  0.00000000000E+00  0.13794813132E+04  0.13794813132E+04  0.25500000920E-02 0.  1.
        2   -1    0    0  501    0  0.00000000000E+00  0.00000000000E+00 -0.17082591311E+04  0.17082591311E+04  0.25500000920E-02 0. -1.
    10030    2    1    2    0    0  0.00000000000E+00  0.00000000000E+00 -0.32877781790E+03  0.30877404442E+04  0.30701866714E+04 0.  0.
        2    1    3    3  502    0 -0.12699590119E+04  0.86228943936E+03 -0.15117682030E+03  0.15424634194E+04  0.25500000920E-02 0.  1.
       -2    1    3    3    0  502  0.12699590119E+04 -0.86228943936E+03 -0.17760099760E+03  0.15452770248E+04  0.25500000920E-02 0. -1.
</event>
<event>
 5   0  0.5001658E-06  0.3003738E+04  0.7818609E-02  0.8242664E-01
        2   -1    0    0  501    0  0.00000000000E+00  0.00000000000E+00  0.16660191491E+04  0.16660191491E+04  0.25500000920E-02 0. -1.
       -2   -1    0    0    0  501  0.00000000000E+00  0.00000000000E+00 -0.13538923678E+04  0.13538923678E+04  0.25500000920E-02 0.  1.
    10030    2    1    2    0    0  0.00000000000E+00  0.00000000000E+00  0.31212678132E+03  0.30199115169E+04  0.30037380781E+04 0.  0.
        3    1    3    3  502    0 -0.47418556471E+03  0.77406448608E+03  0.13589935058E+04  0.16342861247E+04  0.10100000352E+00 0. -1.
       -3    1    3    3    0  502  0.47418556471E+03 -0.77406448608E+03 -0.10468667245E+04  0.13856253922E+04  0.10100000352E+00 0.  1.
</event>
<event>
 5   0  0.4927533E-06  0.3059593E+04  0.7818609E-02  0.8226915E-01
        2   -1    0    0  501    0  0.00000000000E+00  0.00000000000E+00  0.15562818672E+04  0.15562818672E+04  0.25500000920E-02 0. -1.
       -2   -1    0    0    0  501  0.00000000000E+00  0.00000000000E+00 -0.15037622278E+04  0.15037622278E+04  0.25500000920E-02 0.  1.
    10030    2    1    2    0    0  0.00000000000E+00  0.00000000000E+00  0.52519639368E+02  0.30600440950E+04  0.30595933636E+04 0.  0.
        5    1    3    3  502    0  0.35338887826E+03  0.28113518802E+03 -0.14355762141E+04  0.15049325067E+04  0.46999998093E+01 0.  1.
       -5    1    3    3    0  502 -0.35338887826E+03 -0.28113518802E+03  0.14880958534E+04  0.15551115883E+04  0.46999998093E+01 0. -1.
</event>
<event>
 5   0  0.4900679E-06  0.3084975E+04  0.7818609E-02  0.8219873E-01
       -2   -1    0    0    0  501  0.00000000000E+00  0.00000000000E+00  0.10322648427E+04  0.10322648427E+04  0.25500000920E-02 0. -1.
        2   -1    0    0  501    0  0.00000000000E+00  0.00000000000E+00 -0.23049009526E+04  0.23049009526E+04  0.25500000920E-02 0.  1.
    10030    2    1    2    0    0  0.00000000000E+00  0.00000000000E+00 -0.12726361099E+04  0.33371657952E+04  0.30849753446E+04 0.  0.
        4    1    3    3  502    0 -0.14288137400E+04  0.23617885168E+03 -0.12107429819E+04  0.18876412092E+04  0.12699999809E+01 0. -1.
       -4    1    3    3    0  502  0.14288137400E+04 -0.23617885168E+03 -0.61893128023E+02  0.14495245861E+04  0.12699999809E+01 0.  1.
</event>
<event>
 5   0  0.4900679E-06  0.3079007E+04  0.7818609E-02  0.8221523E-01
       -2   -1    0    0    0  501  0.00000000000E+00  0.00000000000E+00  0.98280118031E+03  0.98280118031E+03  0.25500000920E-02 0. -1.
        2   -1    0    0  501    0  0.00000000000E+00  0.00000000000E+00 -0.24115471206E+04  0.24115471206E+04  0.25500000920E-02 0.  1.
    10030    2    1    2    0    0  0.00000000000E+00  0.00000000000E+00 -0.14287459403E+04  0.33943483009E+04  0.30790072143E+04 0.  0.
        4    1    3    3  502    0  0.12878709034E+04  0.67313474051E+03 -0.15403743383E+03  0.14613182359E+04  0.12699999809E+01 0. -1.
       -4    1    3    3    0  502 -0.12878709034E+04 -0.67313474051E+03 -0.12747085065E+04  0.19330300650E+04  0.12699999809E+01 0.  1.
</event>
<event>
 5   0  0.1840431E-06  0.3090389E+04  0.7818609E-02  0.8218381E-01
       -1   -1    0    0    0  501  0.00000000000E+00  0.00000000000E+00  0.12842525063E+04  0.12842525063E+04  0.50400001928E-02 0.  1.
        1   -1    0    0  501    0  0.00000000000E+00  0.00000000000E+00 -0.18591560669E+04  0.18591560669E+04  0.50400001928E-02 0. -1.
    10030    2    1    2    0    0  0.00000000000E+00  0.00000000000E+00 -0.57490356062E+03  0.31434085732E+04  0.30903888678E+04 0.  0.
        1    1    3    3  502    0  0.28085601763E+03 -0.10968774918E+04 -0.13569690426E+04  0.17673101927E+04  0.50400001928E-02 0. -1.
       -1    1    3    3    0  502 -0.28085601763E+03  0.10968774918E+04  0.78206548202E+03  0.13760983805E+04  0.50400001928E-02 0.  1.
</event>
<event>
 5   0  0.5114870E-06  0.2653009E+04  0.7818609E-02  0.8350415E-01
        2   -1    0    0  501    0  0.00000000000E+00  0.00000000000E+00  0.18981558637E+04  0.18981558637E+04  0.25500000920E-02 0.  1.
       -2   -1    0    0    0  501  0.00000000000E+00  0.00000000000E+00 -0.92701240004E+03  0.92701240004E+03  0.25500000920E-02 0. -1.
    10030    2    1    2    0    0  0.00000000000E+00  0.00000000000E+00  0.97114346364E+03  0.28251682637E+04  0.26530088751E+04 0.  0.
        2    1    3    3  502    0 -0.63007110269E+03  0.62422377576E+03 -0.56482930444E+03  0.10515117973E+04  0.25500000920E-02 0. -1.
       -2    1    3    3    0  502  0.63007110269E+03 -0.62422377576E+03  0.15359727681E+04  0.17736564664E+04  0.25500000920E-02 0.  1.
</event>
<event>
 5   0  0.1853742E-06  0.3198719E+04  0.7818609E-02  0.8189155E-01
       -1   -1    0    0    0  501  0.00000000000E+00  0.00000000000E+00  0.14358844301E+04  0.14358844301E+04  0.50400001928E-02 0.  1.
        1   -1    0    0  501    0  0.00000000000E+00  0.00000000000E+00 -0.17814464359E+04  0.17814464359E+04  0.50400001928E-02 0. -1.
    10030    2    1    2    0    0  0.00000000000E+00  0.00000000000E+00 -0.34556200585E+03  0.32173308660E+04  0.31987192439E+04 0.  0.
        5    1    3    3  502    0  0.12190820050E+04 -0.20392251715E+03  0.84810431206E+03  0.14990157911E+04  0.46999998093E+01 0.  1.
       -5    1    3    3    0  502 -0.12190820050E+04  0.20392251715E+03 -0.11936663179E+04  0.17183150749E+04  0.46999998093E+01 0. -1.
</event>
<event>
 5   0  0.1840431E-06  0.2935977E+04  0.7818609E-02  0.8262253E-01
       -1   -1    0    0    0  501  0.00000000000E+00  0.00000000000E+00  0.13256369571E+04  0.13256369571E+04  0.50400001928E-02 0.  1.
        1   -1    0    0  501    0  0.00000000000E+00  0.00000000000E+00 -0.16256267132E+04  0.16256267132E+04  0.50400001928E-02 0. -1.
    10030    2    1    2    0    0  0.00000000000E+00  0.00000000000E+00 -0.29998975605E+03  0.29512636703E+04  0.29359774178E+04 0.  0.
        1    1    3    3  502    0 -0.14622136910E+04  0.12402400332E+03 -0.11054749614E+03  0.14716220916E+04  0.50400001928E-02 0.  1.
       -1    1    3    3    0  502  0.14622136910E+04 -0.12402400332E+03 -0.18944225991E+03  0.14796415787E+04  0.50400001928E-02 0. -1.
</event>
<event>
 5   0  0.1853742E-06  0.3084390E+04  0.7818609E-02  0.8220035E-01
        1   -1    0    0  501    0  0.00000000000E+00  0.00000000000E+00  0.15142497086E+04  0.15142497086E+04  0.50400001928E-02 0. -1.
       -1   -1    0    0    0  501  0.00000000000E+00  0.00000000000E+00 -0.15706563974E+04  0.15706563974E+04  0.50400001928E-02 0.  1.
    10030    2    1    2    0    0  0.00000000000E+00  0.00000000000E+00 -0.56406688780E+02  0.30849061060E+04  0.30843903722E+04 0.  0.
        5    1    3    3  502    0 -0.12075952861E+04  0.19291978478E+03  0.91154914613E+03  0.15252699283E+04  0.46999998093E+01 0. -1.
       -5    1    3    3    0  502  0.12075952861E+04 -0.19291978478E+03 -0.96795583491E+03  0.15596361777E+04  0.46999998093E+01 0.  1.
</event>
<event>
 5   0  0.5328368E-06  0.2992285E+04  0.7818609E-02  0.8245937E-01
       -2   -1    0    0    0  501  0.00000000000E+00  0.00000000000E+00  0.85953335436E+03  0.85953335436E+03  0.25500000920E-02 0.  1.
        2   -1    0    0  501    0  0.00000000000E+00  0.00000000000E+00 -0.26042530324E+04  0.26042530324E+04  0.25500000920E-02 0. -1.
    10030    2    1    2    0    0  0.00000000000E+00  0.00000000000E+00 -0.17447196781E+04  0.34637863868E+04  0.29922849761E+04 0.  0.
        1    1    3    3  502    0  0.51465668599E+03  0.13066678526E+04 -0.27512657729E+03  0.14310649933E+04  0.50400001928E-02 0.  1.
       -1    1    3    3    0  502 -0.51465668599E+03 -0.13066678526E+04 -0.14695931008E+04  0.20327213935E+04  0.50400001928E-02 0. -1.
</event>
<event>
 5   0  0.5001658E-06  0.2995996E+04  0.7818609E-02  0.8244875E-01
        2   -1    0    0  501    0  0.00000000000E+00  0.00000000000E+00  0.26403156692E+04  0.26403156692E+04  0.25500000920E-02 0. -1.
       -2   -1    0    0    0  501  0.00000000000E+00  0.00000000000E+00 -0.84989758208E+03  0.84989758209E+03  0.25500000920E-02 0.  1.
    10030    2    1    2    0    0  0.00000000000E+00  0.00000000000E+00  0.17904180871E+04  0.34902132512E+04  0.29959959300E+04 0.  0.
        3    1    3    3  502    0 -0.11613697483E+03  0.70061866240E+03  0.24317384776E+04  0.25333192339E+04  0.10100000352E+00 0. -1.
       -3    1    3    3    0  502  0.11613697483E+03 -0.70061866240E+03 -0.64132039052E+03  0.95689401739E+03  0.10100000352E+00 0.  1.
</event>
<event>
 5   0  0.4927533E-06  0.3208058E+04  0.7818609E-02  0.8186692E-01
        2   -1    0    0  501    0  0.00000000000E+00  0.00000000000E+00  0.17997321135E+04  0.17997321135E+04  0.25500000920E-02 0. -1.
       -2   -1    0    0    0  501  0.00000000000E+00  0.00000000000E+00 -0.14296069922E+04  0.14296069922E+04  0.25500000920E-02 0.  1.
    10030    2    1    2    0    0  0.00000000000E+00  0.00000000000E+00  0.37012512134E+03  0.32293391057E+04  0.32080583620E+04 0.  0.
        5    1    3    3  502    0  0.59483130653E+03  0.10523195998E+04  0.12464222675E+04  0.17363154616E+04  0.46999998093E+01 0. -1.
       -5    1    3    3    0  502 -0.59483130653E+03 -0.10523195998E+04 -0.87629714619E+03  0.14930236441E+04  0.46999998093E+01 0.  1.
</event>
<event>
 5   0  0.1853742E-06  0.3184281E+04  0.7818609E-02  0.8192981E-01
        1   -1    0    0  501    0  0.00000000000E+00  0.00000000000E+00  0.74281803117E+03  0.74281803118E+03  0.50400001928E-02 0. -1.
       -1   -1    0    0    0  501  0.00000000000E+00  0.00000000000E+00 -0.34125595918E+04  0.34125595918E+04  0.50400001928E-02 0.  1.
    10030    2    1    2    0    0  0.00000000000E+00  0.00000000000E+00 -0.26697415607E+04  0.41553776230E+04  0.31842806392E+04 0.  0.
        5    1    3    3  502    0  0.92539967351E+03 -0.97885115443E+02  0.35098285907E+03  0.99456377820E+03  0.46999998093E+01 0. -1.
       -5    1    3    3    0  502 -0.92539967351E+03  0.97885115443E+02 -0.30207244197E+04  0.31608138448E+04  0.46999998093E+01 0.  1.
</event>
<event>
 5   0  0.5001658E-06  0.3097647E+04  0.7818609E-02  0.8216384E-01
       -2   -1    0    0    0  501  0.00000000000E+00  0.00000000000E+00  0.13600067065E+04  0.13600067065E+04  0.25500000920E-02 0.  1.
        2   -1    0    0  501    0  0.00000000000E+00  0.00000000000E+00 -0.17638549697E+04  0.17638549697E+04  0.25500000920E-02 0. -1.
    10030    2    1    2    0    0  0.00000000000E+00  0.00000000000E+00 -0.40384826327E+03  0.31238616762E+04  0.30976472285E+04 0.  0.
        3    1    3    3  502    0 -0.66984628640E+03  0.74803416871E+03  0.98729474931E+03  0.14081903625E+04  0.10100000352E+00 0.  1.
       -3    1    3    3    0  502  0.66984628640E+03 -0.74803416871E+03 -0.13911430126E+04  0.17156713137E+04  0.10100000352E+00 0. -1.
</event>
<event>
 5   0  0.4900679E-06  0.3049538E+04  0.7818609E-02  0.8229725E-01
        2   -1    0    0  501    0  0.00000000000E+00  0.00000000000E+00  0.17818852537E+04  0.17818852537E+04  0.25500000920E-02 0.  1.
       -2   -1    0    0    0  501  0.00000000000E+00  0.00000000000E+00 -0.13047529318E+04  0.13047529318E+04  0.25500000920E-02 0. -1.
    10030    2    1    2    0    0  0.00000000000E+00  0.00000000000E+00  0.47713232192E+03  0.30866381855E+04  0.30495376757E+04 0.  0.
        4    1    3    3  502    0  0.11986919154E+04 -0.82593875099E+03  0.69782776472E+03  0.16143117204E+04  0.12699999809E+01 0. -1.
       -4    1    3    3    0  502 -0.11986919154E+04  0.82593875099E+03 -0.22069544280E+03  0.14723264651E+04  0.12699999809E+01 0.  1.
</event>
<event>
 5   0  0.4927533E-06  0.2998409E+04  0.7818609E-02  0.8244185E-01
       -2   -1    0    0    0  501  0.00000000000E+00  0.00000000000E+00  0.15824615407E+04  0.15824615407E+04  0.25500000920E-02 0. -1.
        2   -1    0    0  501    0  0.00000000000E+00  0.00000000000E+00 -0.14203278188E+04  0.14203278188E+04  0.25500000920E-02 0.  1.
    10030    2    1    2    0    0  0.00000000000E+00  0.00000000000E+00  0.16213372197E+03  0.30027893595E+04  0.29984090104E+04 0.  0.
        5    1    3    3  502    0 -0.67108586267E+02  0.17097277092E+03  0.15711440201E+04  0.15818504583E+04  0.46999998093E+01 0. -1.
       -5    1    3    3    0  502  0.67108586267E+02 -0.17097277092E+03 -0.14090102981E+04  0.14209389012E+04  0.46999998093E+01 0.  1.
</event>
<event>
 5   0  0.1853742E-06  0.3136897E+04  0.7818609E-02  0.8205684E-01
        1   -1    0    0  501    0  0.00000000000E+00  0.00000000000E+00  0.27208145708E+04  0.27208145708E+04  0.50400001928E-02 0.  1.
       -1   -1    0    0    0  501  0.00000000000E+00  0.00000000000E+00 -0.90415236519E+03  0.90415236521E+03  0.50400001928E-02 0. -1.
    10030    2    1    2    0    0  0.00000000000E+00  0.00000000000E+00  0.18166622056E+04  0.36249669360E+04  0.31368971481E+04 0.  0.
        5    1    3    3  502    0 -0.48479744735E+03  0.73464595468E+03  0.24084968191E+04  0.25642956657E+04  0.46999998093E+01 0.  1.
       -5    1    3    3    0  502  0.48479744735E+03 -0.73464595468E+03 -0.59183461355E+03  0.10606712702E+04  0.46999998093E+01 0. -1.
</event>
<event>
 5   0  0.5001658E-06  0.3157406E+04  0.7818609E-02  0.8200158E-01
       -2   -1    0    0    0  501  0.00000000000E+00  0.00000000000E+00  0.83920827708E+03  0.83920827709E+03  0.25500000920E-02 0.  1.
        2   -1    0    0  501    0  0.00000000000E+00  0.00000000000E+00 -0.29698261406E+04  0.29698261406E+04  0.25500000920E-02 0. -1.
    10030    2    1    2    0    0  0.00000000000E+00  0.00000000000E+00 -0.21306178635E+04  0.38090344177E+04  0.31574056937E+04 0.  0.
        3    1    3    3  502    0 -0.67343166790E+03 -0.11497535477E+03  0.65164432632E+03  0.94412386992E+03  0.10100000352E+00 0.  1.
       -3    1    3    3    0  502  0.67343166790E+03  0.11497535477E+03 -0.27822621899E+04  0.28649105478E+04  0.10100000352E+00 0. -1.
</event>
<event>
 5   0  0.5328368E-06  0.2882257E+04  0.7818609E-02  0.8278176E-01
        2   -1    0    0  501    0  0.00000000000E+00  0.00000000000E+00  0.16081967574E+04  0.16081967575E+04  0.25500000920E-02 0. -1.
       -2   -1    0    0    0  501  0.00000000000E+00  0.00000000000E+00 -0.12914160741E+04  0.12914160741E+04  0.25500000920E-02 0.  1.
    10030    2    1    2    0    0  0.00000000000E+00  0.00000000000E+00  0.31678068331E+03  0.28996128316E+04  0.28822568539E+04 0.  0.
        1    1    3    3  502    0  0.11752300035E+04  0.77867346568E+03 -0.14232973638E+03  0.14169529566E+04  0.50400001928E-02 0. -1.
       -1    1    3    3    0  502 -0.11752300035E+04 -0.77867346568E+03  0.45911041968E+03  0.14826598750E+04  0.50400001928E-02 0.  1.
</event>
<event>
 5   0  0.4900679E-06  0.3145262E+04  0.7818609E-02  0.8203425E-01
       -2   -1    0    0    0  501  0.00000000000E+00  0.00000000000E+00  0.15388262881E+04  0.15388262881E+04  0.25500000920E-02 0.  1.
        2   -1    0    0  501    0  0.00000000000E+00  0.00000000000E+00 -0.16071780917E+04  0.16071780917E+04  0.25500000920E-02 0. -1.
    10030    2    1    2    0    0  0.00000000000E+00  0.00000000000E+00 -0.68351803581E+02  0.31460043799E+04  0.31452617680E+04 0.  0.
        4    1    3    3  502    0 -0.34497537405E+02 -0.35706444105E+03 -0.15657072946E+04  0.16062770746E+04  0.12699999809E+01 0. -1.
       -4    1    3    3    0  502  0.34497537405E+02  0.35706444105E+03  0.14973554910E+04  0.15397273053E+04  0.12699999809E+01 0.  1.
</event>
<event>
 5   0  0.5328368E-06  0.3082577E+04  0.7818609E-02  0.8220536E-01
       -2   -1    0    0    0  501  0.00000000000E+00  0.00000000000E+00  0.15751836147E+04  0.15751836147E+04  0.25500000920E-02 0. -1.
        2   -1    0    0  501    0  0.00000000000E+00  0.00000000000E+00 -0.15081225201E+04  0.15081225201E+04  0.25500000920E-02 0.  1.
    10030    2    1    2    0    0  0.00000000000E+00  0.00000000000E+00  0.67061094591E+02  0.30833061348E+04  0.30825767679E+04 0.  0.
        1    1    3    3  502    0  0.10136291473E+04 -0.14713132720E+03 -0.11184703189E+04  0.15165973526E+04  0.50400001928E-02 0.  1.
       -1    1    3    3    0  502 -0.10136291473E+04  0.14713132720E+03  0.11855314135E+04  0.15667087821E+04  0.50400001928E-02 0. -1.
</event>
<event>
 5   0  0.5001658E-06  0.3103129E+04  0.7818609E-02  0.8214880E-01
       -2   -1    0    0    0  501  0.00000000000E+00  0.00000000000E+00  0.13638836630E+04  0.13638836630E+04  0.25500000920E-02 0. -1.
        2   -1    0    0  501    0  0.00000000000E+00  0.00000000000E+00 -0.17650714043E+04  0.17650714043E+04  0.25500000920E-02 0.  1.
    10030    2    1    2    0    0  0.00000000000E+00  0.00000000000E+00 -0.40118774130E+03  0.31289550673E+04  0.31031287774E+04 0.  0.
        3    1    3    3  502    0  0.14393986177E+04 -0.56121256899E+03 -0.56139150830E+02  0.15459558670E+04  0.10100000352E+00 0. -1.
       -3    1    3    3    0  502 -0.14393986177E+04  0.56121256899E+03 -0.34504859047E+03  0.15829992003E+04  0.10100000352E+00 0.  1.
</event>
<event>
 5   0  0.5114870E-06  0.3086980E+04  0.7818609E-02  0.8219320E-01
       -2   -1    0    0    0  501  0.00000000000E+00  0.00000000000E+00  0.12766236730E+04  0.12766236731E+04  0.25500000920E-02 0.  1.
        2   -1    0    0  501    0  0.00000000000E+00  0.00000000000E+00 -0.18661416733E+04  0.18661416733E+04  0.25500000920E-02 0. -1.
    10030    2    1    2    0    0  0.00000000000E+00  0.00000000000E+00 -0.58951800021E+03  0.31427653463E+04  0.30869795188E+04 0.  0.
        2    1    3    3  502    0 -0.14065587245E+04 -0.61587329062E+03 -0.45461008136E+03  0.16013674411E+04  0.25500000920E-02 0. -1.
       -2    1    3    3    0  502  0.14065587245E+04  0.61587329062E+03 -0.13490791885E+03  0.15413979052E+04  0.25500000920E-02 0.  1.
</event>
<event>
 5   0  0.5328368E-06  0.3105842E+04  0.7818609E-02  0.8214137E-01
        2   -1    0    0  501    0  0.00000000000E+00  0.00000000000E+00  0.13780521028E+04  0.13780521029E+04  0.25500000920E-02 0.  1.
       -2   -1    0    0    0  501  0.00000000000E+00  0.00000000000E+00 -0.17499795873E+04  0.17499795873E+04  0.25500000920E-02 0. -1.
    10030    2    1    2    0    0  0.00000000000E+00  0.00000000000E+00 -0.37192748447E+03  0.31280316902E+04  0.31058416252E+04 0.  0.
        1    1    3    3  502    0  0.11445298581E+04  0.10338365682E+04 -0.36835539322E+03  0.15857024757E+04  0.50400001928E-02 0.  1.
       -1    1    3    3    0  502 -0.11445298581E+04 -0.10338365682E+04 -0.35720912471E+01  0.15423292144E+04  0.50400001928E-02 0. -1.
</event>
<event>
 5   0  0.5114870E-06  0.3623901E+04  0.7818609E-02  0.8085039E-01
        2   -1    0    0  501    0  0.00000000000E+00  0.00000000000E+00  0.20559100632E+04  0.20559100632E+04  0.25500000920E-02 0.  1.
       -2   -1    0    0    0  501  0.00000000000E+00  0.00000000000E+00 -0.15969399976E+04  0.15969399976E+04  0.25500000920E-02 0. -1.
    10030    2    1    2    0    0  0.00000000000E+00  0.00000000000E+00  0.45897006560E+03  0.36528500609E+04  0.36239012191E+04 0.  0.
        2    1    3    3  502    0  0.14217213018E+04  0.11053825007E+04  0.27879612967E+02  0.18010938914E+04  0.25500000920E-02 0. -1.
       -2    1    3    3    0  502 -0.14217213018E+04 -0.11053825007E+04  0.43109045263E+03  0.18517561695E+04  0.25500000920E-02 0.  1.
</event>
<event>
 5   0  0.1840431E-06  0.3132256E+04  0.7818609E-02  0.8206941E-01
        1   -1    0    0  501    0  0.00000000000E+00  0.00000000000E+00  0.26726777693E+04  0.26726777693E+04  0.50400001928E-02 0. -1.
       -1   -1    0    0    0  501  0.00000000000E+00  0.00000000000E+00 -0.91771522555E+03  0.91771522557E+03  0.50400001928E-02 0.  1.
    10030    2    1    2    0    0  0.00000000000E+00  0.00000000000E+00  0.17549625438E+04  0.35903929949E+04  0.31322561083E+04 0.  0.
        1    1    3    3  502    0  0.21492965051E+03 -0.60599933587E+03  0.25144039735E+04  0.25953144880E+04  0.50400001928E-02 0. -1.
       -1    1    3    3    0  502 -0.21492965051E+03  0.60599933587E+03 -0.75944142970E+03  0.99507850691E+03  0.50400001928E-02 0.  1.
</event>
<event>
 5   0  0.1836401E-06  0.3042807E+04  0.7818609E-02  0.8231612E-01
       -1   -1    0    0    0  501  0.00000000000E+00  0.00000000000E+00  0.18209492643E+04  0.18209492643E+04  0.50400001928E-02 0. -1.
        1   -1    0    0  501    0  0.00000000000E+00  0.00000000000E+00 -0.12711332523E+04  0.12711332523E+04  0.50400001928E-02 0.  1.
    10030    2    1    2    0    0  0.00000000000E+00  0.00000000000E+00  0.54981601201E+03  0.30920825166E+04  0.30428073620E+04 0.  0.
        2    1    3    3  502    0  0.11562306211E+04  0.46880146583E+03 -0.60983758928E+03  0.13887209759E+04  0.25500000920E-02 0.  1.
       -2    1    3    3    0  502 -0.11562306211E+04 -0.46880146583E+03  0.11596536013E+04  0.17033615407E+04  0.25500000920E-02 0. -1.
</event>
<event>
 5   0  0.1843709E-06  0.3100931E+04  0.7818609E-02  0.8215482E-01
       -1   -1    0    0    0  501  0.00000000000E+00  0.00000000000E+00  0.15557412835E+04  0.15557412835E+04  0.50400001928E-02 0.  1.
        1   -1    0    0  501    0  0.00000000000E+00  0.00000000000E+00 -0.15452077430E+04  0.15452077430E+04  0.50400001928E-02 0. -1.
    10030    2    1    2    0    0  0.00000000000E+00  0.00000000000E+00  0.10533540529E+02  0.31009490265E+04  0.31009311358E+04 0.  0.
        4    1    3    3  502    0  0.13532898534E+04 -0.68604908134E+03 -0.31392951855E+03  0.15493902429E+04  0.12699999809E+01 0.  1.
       -4    1    3    3    0  502 -0.13532898534E+04  0.68604908134E+03  0.32446305908E+03  0.15515587836E+04  0.12699999809E+01 0. -1.
</event>
<event>
 5   0  0.1649875E-06  0.3067843E+04  0.7818609E-02  0.8224619E-01
        3   -1    0    0  501    0  0.00000000000E+00  0.00000000000E+00  0.79461563663E+03  0.79461564305E+03  0.10100000352E+00 0. -1.
       -3   -1    0    0    0  501  0.00000000000E+00  0.00000000000E+00 -0.29610740208E+04  0.29610740225E+04  0.10100000352E+00 0.  1.
    10030    2    1    2    0    0  0.00000000000E+00  0.00000000000E+00 -0.21664583842E+04  0.37556896656E+04  0.30678433685E+04 0.  0.
        4    1    3    3  502    0 -0.13704046801E+04 -0.56552330989E+03 -0.15653394160E+04  0.21559486778E+04  0.12699999809E+01 0. -1.
       -4    1    3    3    0  502  0.13704046801E+04  0.56552330989E+03 -0.60111896820E+03  0.15997409878E+04  0.12699999809E+01 0.  1.
</event>
<event>
 5   0  0.5001658E-06  0.3100873E+04  0.7818609E-02  0.8215498E-01
       -2   -1    0    0    0  501  0.00000000000E+00  0.00000000000E+00  0.12225314655E+04  0.12225314655E+04  0.25500000920E-02 0. -1.
        2   -1    0    0  501    0  0.00000000000E+00  0.00000000000E+00 -0.19662921768E+04  0.19662921768E+04  0.25500000920E-02 0.  1.
    10030    2    1    2    0    0  0.00000000000E+00  0.00000000000E+00 -0.74376071131E+03  0.31888236423E+04  0.31008734618E+04 0.  0.
        3    1    3    3  502    0 -0.18010132010E+03  0.13475834295E+04 -0.11382947446E+04  0.17731701895E+04  0.10100000352E+00 0.  1.
       -3    1    3    3    0  502  0.18010132010E+03 -0.13475834295E+04  0.39453403334E+03  0.14156534528E+04  0.10100000352E+00 0. -1.
</event>
<event>
 5   0  0.5001658E-06  0.3124508E+04  0.7818609E-02  0.8209044E-01
       -2   -1    0    0    0  501  0.00000000000E+00  0.00000000000E+00  0.24278835679E+04  0.24278835679E+04  0.25500000920E-02 0. -1.
        2   -1    0    0  501    0  0.00000000000E+00  0.00000000000E+00 -0.10052528185E+04  0.10052528185E+04  0.25500000920E-02 0.  1.
    10030    2    1    2    0    0  0.00000000000E+00  0.00000000000E+00  0.14226307494E+04  0.34331363864E+04  0.31245075130E+04 0.  0.
        3    1    3    3  502    0  0.67713622019E+03  0.13803241339E+04  0.10158740556E+04  0.18427719019E+04  0.10100000352E+00 0.  1.
       -3    1    3    3    0  502 -0.67713622019E+03 -0.13803241339E+04  0.40675669376E+03  0.15903644845E+04  0.10100000352E+00 0. -1.
</event>
<event>
 5   0  0.1885307E-06  0.3114171E+04  0.7818609E-02  0.8211860E-01
        1   -1    0    0  501    0  0.00000000000E+00  0.00000000000E+00  0.20098313928E+04  0.20098313928E+04  0.50400001928E-02 0. -1.
       -1   -1    0    0    0  501  0.00000000000E+00  0.00000000000E+00 -0.12063275054E+04  0.12063275054E+04  0.50400001928E-02 0.  1.
    10030    2    1    2    0    0  0.00000000000E+00  0.00000000000E+00  0.80350388747E+03  0.32161588982E+04  0.31141707662E+04 0.  0.
        3    1    3    3  502    0 -0.99704491031E+03 -0.11910310327E+04  0.51422879756E+03  0.16361799230E+04  0.10100000352E+00 0. -1.
       -3    1    3    3    0  502  0.99704491031E+03  0.11910310327E+04  0.28927508991E+03  0.15799789752E+04  0.10100000352E+00 0.  1.
</event>
<event>
 5   0  0.1843709E-06  0.2903474E+04  0.7818609E-02  0.8271845E-01
        1   -1    0    0  501    0  0.00000000000E+00  0.00000000000E+00  0.17138992703E+04  0.17138992703E+04  0.50400001928E-02 0. -1.
       -1   -1    0    0    0  501  0.00000000000E+00  0.00000000000E+00 -0.12296757883E+04  0.12296757883E+04  0.50400001928E-02 0.  1.
    10030    2    1    2    0    0  0.00000000000E+00  0.00000000000E+00  0.48422348203E+03  0.29435750586E+04  0.29034740820E+04 0.  0.
        4    1    3    3  502    0  0.54922476536E+03  0.86103692516E+02 -0.11174834542E+04  0.12481316325E+04  0.12699999809E+01 0.  1.
       -4    1    3    3    0  502 -0.54922476536E+03 -0.86103692516E+02  0.16017069362E+04  0.16954434261E+04  0.12699999809E+01 0. -1.
</event>
<event>
 5   0  0.1649875E-06  0.2368344E+04  0.7818609E-02  0.8451451E-01
        3   -1    0    0  501    0  0.00000000000E+00  0.00000000000E+00  0.13856448238E+04  0.13856448275E+04  0.10100000352E+00 0. -1.
       -3   -1    0    0    0  501  0.00000000000E+00  0.00000000000E+00 -0.10119934761E+04  0.10119934812E+04  0.10100000352E+00 0.  1.
    10030    2    1    2    0    0  0.00000000000E+00  0.00000000000E+00  0.37365134770E+03  0.23976383086E+04  0.23683441746E+04 0.  0.
        2    1    3    3  502    0  0.40301317151E+03  0.74034108102E+03  0.10288215883E+04  0.13300369894E+04  0.25500000920E-02 0. -1.
       -2    1    3    3    0  502 -0.40301317151E+03 -0.74034108102E+03 -0.65517024060E+03  0.10676013192E+04  0.25500000920E-02 0.  1.
</event>
<event>
 5   0  0.4900679E-06  0.2395843E+04  0.7818609E-02  0.8441061E-01
        2   -1    0    0  501    0  0.00000000000E+00  0.00000000000E+00  0.14555775387E+04  0.14555775387E+04  0.25500000920E-02 0. -1.
       -2   -1    0    0    0  501  0.00000000000E+00  0.00000000000E+00 -0.98587428429E+03  0.98587428429E+03  0.25500000920E-02 0.  1.
    10030    2    1    2    0    0  0.00000000000E+00  0.00000000000E+00  0.46970325438E+03  0.24414518230E+04  0.23958434541E+04 0.  0.
        4    1    3    3  502    0  0.96919787707E+03  0.41413182672E+03 -0.34534191048E+03  0.11091042976E+04  0.12699999809E+01 0.  1.
       -4    1    3    3    0  502 -0.96919787707E+03 -0.41413182672E+03  0.81504516486E+03  0.13323475254E+04  0.12699999809E+01 0. -1.
</event>
<event>
 5   0  0.4900679E-06  0.3129116E+04  0.7818609E-02  0.8207792E-01
       -2   -1    0    0    0  501  0.00000000000E+00  0.00000000000E+00  0.12481255994E+04  0.12481255994E+04  0.25500000920E-02 0.  1.
        2   -1    0    0  501    0  0.00000000000E+00  0.00000000000E+00 -0.19612145025E+04  0.19612145025E+04  0.25500000920E-02 0. -1.
    10030    2    1    2    0    0  0.00000000000E+00  0.00000000000E+00 -0.71308890316E+03  0.32093401019E+04  0.31291161861E+04 0.  0.
        4    1    3    3  502    0 -0.52266542323E+03 -0.94540602968E+03 -0.15173149498E+04  0.18625836828E+04  0.12699999809E+01 0. -1.
       -4    1    3    3    0  502  0.52266542323E+03  0.94540602968E+03  0.80422604659E+03  0.13467564191E+04  0.12699999809E+01 0.  1.
</event>
<event>
 5   0  0.5001658E-06  0.3074815E+04  0.7818609E-02  0.8222684E-01
       -2   -1    0    0    0  501  0.00000000000E+00  0.00000000000E+00  0.14812467085E+04  0.14812467085E+04  0.25500000920E-02 0. -1.
        2   -1    0    0  501    0  0.00000000000E+00  0.00000000000E+00 -0.15956972227E+04  0.15956972227E+04  0.25500000920E-02 0.  1.
    10030    2    1    2    0    0  0.00000000000E+00  0.00000000000E+00 -0.11445051426E+03  0.30769439312E+04  0.30748146344E+04 0.  0.
        3    1    3    3  502    0 -0.90916075678E+03 -0.42088198288E+03 -0.12241830263E+04  0.15818783194E+04  0.10100000352E+00 0.  1.
       -3    1    3    3    0  502  0.90916075678E+03  0.42088198288E+03  0.11097325121E+04  0.14950656118E+04  0.10100000352E+00 0. -1.
</event>
<event>
 5   0  0.1840431E-06  0.2215070E+04  0.7818609E-02  0.8512182E-01
        1   -1    0    0  501    0  0.00000000000E+00  0.00000000000E+00  0.11707247155E+04  0.11707247155E+04  0.50400001928E-02 0. -1.
       -1   -1    0    0    0  501  0.00000000000E+00  0.00000000000E+00 -0.10477563680E+04  0.10477563680E+04  0.50400001928E-02 0.  1.
    10030    2    1    2    0    0  0.00000000000E+00  0.00000000000E+00  0.12296834752E+03  0.22184810835E+04  0.22150704512E+04 0.  0.
        1    1    3    3  502    0 -0.87617506743E+03 -0.65356969697E+03  0.24007917792E+03  0.11191398971E+04  0.50400001928E-02 0.  1.
       -1    1    3    3    0  502  0.87617506743E+03  0.65356969697E+03 -0.11711083040E+03  0.10993411864E+04  0.50400001928E-02 0. -1.
</event>
<event>
 5   0  0.4900679E-06  0.3117017E+04  0.7818609E-02  0.8211083E-01
        2   -1    0    0  501    0  0.00000000000E+00  0.00000000000E+00  0.14359350903E+04  0.14359350903E+04  0.25500000920E-02 0.  1.
       -2   -1    0    0    0  501  0.00000000000E+00  0.00000000000E+00 -0.16915446993E+04  0.16915446993E+04  0.25500000920E-02 0. -1.
    10030    2    1    2    0    0  0.00000000000E+00  0.00000000000E+00 -0.25560960901E+03  0.31274797896E+04  0.31170167728E+04 0.  0.
        4    1    3    3  502    0 -0.98151145628E+03  0.19051161655E+03 -0.13273459507E+04  0.16617786557E+04  0.12699999809E+01 0. -1.
       -4    1    3    3    0  502  0.98151145628E+03 -0.19051161655E+03  0.10717363417E+04  0.14657011339E+04  0.12699999809E+01 0.  1.
</event>
<event>
 5   0  0.1843709E-06  0.3062166E+04  0.7818609E-02  0.8226198E-01
       -1   -1    0    0    0  501  0.00000000000E+00  0.00000000000E+00  0.11756550411E+04  0.11756550411E+04  0.50400001928E-02 0. -1.
        1   -1    0    0  501    0  0.00000000000E+00  0.00000000000E+00 -0.19939654947E+04  0.19939654947E+04  0.50400001928E-02 0.  1.
    10030    2    1    2    0    0  0.00000000000E+00  0.00000000000E+00 -0.81831045362E+03  0.31696205359E+04  0.30621662827E+04 0.  0.
        4    1    3    3  502    0  0.84444663745E+03  0.77342992079E+03 -0.14611508884E+04  0.18564071475E+04  0.12699999809E+01 0.  1.
       -4    1    3    3    0  502 -0.84444663745E+03 -0.77342992079E+03  0.64284043477E+03  0.13132133883E+04  0.12699999809E+01 0. -1.
</event>
<event>
 5   0  0.5328368E-06  0.3112997E+04  0.7818609E-02  0.8212180E-01
       -2   -1    0    0    0  501  0.00000000000E+00  0.00000000000E+00  0.11166619765E+04  0.11166619765E+04  0.25500000920E-02 0. -1.
        2   -1    0    0  501    0  0.00000000000E+00  0.00000000000E+00 -0.21695807221E+04  0.21695807221E+04  0.25500000920E-02 0.  1.
    10030    2    1    2    0    0  0.00000000000E+00  0.00000000000E+00 -0.10529187456E+04  0.32862426986E+04  0.31129974605E+04 0.  0.
        1    1    3    3  502    0  0.11057966523E+03  0.15450516976E+04 -0.68751359636E+03  0.16947234452E+04  0.50400001928E-02 0. -1.
       -1    1    3    3    0  502 -0.11057966523E+03 -0.15450516976E+04 -0.36540514920E+03  0.15915192533E+04  0.50400001928E-02 0.  1.
</event>
<event>
 5   0  0.4927533E-06  0.3087053E+04  0.7818609E-02  0.8219300E-01
        2   -1    0    0  501    0  0.00000000000E+00  0.00000000000E+00  0.20025165306E+04  0.20025165306E+04  0.25500000920E-02 0. -1.
       -2   -1    0    0    0  501  0.00000000000E+00  0.00000000000E+00 -0.11897400033E+04  0.11897400033E+04  0.25500000920E-02 0.  1.
    10030    2    1    2    0    0  0.00000000000E+00  0.00000000000E+00  0.81277652737E+03  0.31922565339E+04  0.30870529790E+04 0.  0.
        5    1    3    3  502    0  0.58032304943E+03  0.80500450593E+03 -0.81612087450E+03  0.12848667122E+04  0.46999998093E+01 0. -1.
       -5    1    3    3    0  502 -0.58032304943E+03 -0.80500450593E+03  0.16288974019E+04  0.19073898217E+04  0.46999998093E+01 0.  1.
</event>
<event>
 5   0  0.1840431E-06  0.3104897E+04  0.7818609E-02  0.8214395E-01
       -1   -1    0    0    0  501  0.00000000000E+00  0.00000000000E+00  0.13669530605E+04  0.13669530605E+04  0.50400001928E-02 0. -1.
        1   -1    0    0  501    0  0.00000000000E+00  0.00000000000E+00 -0.17631151779E+04  0.17631151779E+04  0.50400001928E-02 0.  1.
    10030    2    1    2    0    0  0.00000000000E+00  0.00000000000E+00 -0.39616211734E+03  0.31300682384E+04  0.31048965770E+04 0.  0.
        1    1    3    3  502    0  0.32522047610E+03  0.35128854842E+03 -0.16868486348E+04  0.17534623803E+04  0.50400001928E-02 0.  1.
       -1    1    3    3    0  502 -0.32522047610E+03 -0.35128854842E+03  0.12906865174E+04  0.13766058581E+04  0.50400001928E-02 0. -1.
</event>
<event>
 5   0  0.1840431E-06  0.3107046E+04  0.7818609E-02  0.8213807E-01
       -1   -1    0    0    0  501  0.00000000000E+00  0.00000000000E+00  0.12972766918E+04  0.12972766918E+04  0.50400001928E-02 0. -1.
        1   -1    0    0  501    0  0.00000000000E+00  0.00000000000E+00 -0.18603848363E+04  0.18603848363E+04  0.50400001928E-02 0.  1.
    10030    2    1    2    0    0  0.00000000000E+00  0.00000000000E+00 -0.56310814454E+03  0.31576615281E+04  0.31070461123E+04 0.  0.
        1    1    3    3  502    0 -0.59700315807E+03  0.13595140022E+04  0.18277258996E+03  0.14960270427E+04  0.50400001928E-02 0.  1.
       -1    1    3    3    0  502  0.59700315807E+03 -0.13595140022E+04 -0.74588073450E+03  0.16616344854E+04  0.50400001928E-02 0. -1.
</event>
<event>
 5   0  0.1843709E-06  0.3081737E+04  0.7818609E-02  0.8220768E-01
       -1   -1    0    0    0  501  0.00000000000E+00  0.00000000000E+00  0.14973346298E+04  0.14973346298E+04  0.50400001928E-02 0. -1.
        1   -1    0    0  501    0  0.00000000000E+00  0.00000000000E+00 -0.15856675825E+04  0.15856675825E+04  0.50400001928E-02 0.  1.
    10030    2    1    2    0    0  0.00000000000E+00  0.00000000000E+00 -0.88332952712E+02  0.30830022124E+04  0.30817365123E+04 0.  0.
        4    1    3    3  502    0 -0.42807238394E+03 -0.13664184627E+04  0.52521399776E+03  0.15251874434E+04  0.12699999809E+01 0. -1.
       -4    1    3    3    0  502  0.42807238394E+03  0.13664184627E+04 -0.61354695047E+03  0.15578147690E+04  0.12699999809E+01 0.  1.
</event>
<event>
 5   0  0.4900679E-06  0.3201557E+04  0.7818609E-02  0.8188406E-01
        2   -1    0    0  501    0  0.00000000000E+00  0.00000000000E+00  0.20388279490E+04  0.20388279490E+04  0.25500000920E-02 0. -1.
       -2   -1    0    0    0  501  0.00000000000E+00  0.00000000000E+00 -0.12568454232E+04  0.12568454232E+04  0.25500000920E-02 0.  1.
    10030    2    1    2    0    0  0.00000000000E+00  0.00000000000E+00  0.78198252575E+03  0.32956733722E+04  0.32015568566E+04 0.  0.
        4    1    3    3  502    0  0.12330249890E+04  0.38374330550E+03  0.13647815670E+04  0.18788932611E+04  0.12699999809E+01 0. -1.
       -4    1    3    3    0  502 -0.12330249890E+04 -0.38374330550E+03 -0.58279904128E+03  0.14167801112E+04  0.12699999809E+01 0.  1.
</event>
<event>
 5   0  0.1840431E-06  0.3123110E+04  0.7818609E-02  0.8209424E-01
       -1   -1    0    0    0  501  0.00000000000E+00  0.00000000000E+00  0.12907423716E+04  0.12907423716E+04  0.50400001928E-02 0.  1.
        1   -1    0    0  501    0  0.00000000000E+00  0.00000000000E+00 -0.18891866451E+04  0.18891866452E+04  0.50400001928E-02 0. -1.
    10030    2    1    2    0    0  0.00000000000E+00  0.00000000000E+00 -0.59844427355E+03  0.31799290168E+04  0.31231095087E+04 0.  0.
        1    1    3    3  502    0 -0.60102639484E+03 -0.34788197126E+03  0.11248654187E+04  0.13219594560E+04  0.50400001928E-02 0.  1.
       -1    1    3    3    0  502  0.60102639484E+03  0.34788197126E+03 -0.17233096922E+04  0.18579695607E+04  0.50400001928E-02 0. -1.
</event>
<event>
 5   0  0.5328368E-06  0.3366731E+04  0.7818609E-02  0.8146120E-01
        2   -1    0    0  501    0  0.00000000000E+00  0.00000000000E+00  0.11426562691E+04  0.11426562691E+04  0.25500000920E-02 0.  1.
       -2   -1    0    0    0  501  0.00000000000E+00  0.00000000000E+00 -0.24799408544E+04  0.24799408544E+04  0.25500000920E-02 0. -1.
    10030    2    1    2    0    0  0.00000000000E+00  0.00000000000E+00 -0.13372845852E+04  0.36225971235E+04  0.33667313313E+04 0.  0.
        1    1    3    3  502    0 -0.10479389826E+04 -0.42844553505E+03 -0.20091039513E+04  0.23061310403E+04  0.50400001928E-02 0. -1.
       -1    1    3    3    0  502  0.10479389826E+04  0.42844553505E+03  0.67181936604E+03  0.13164660833E+04  0.50400001928E-02 0.  1.
</event>
<event>
 5   0  0.1649875E-06  0.3103165E+04  0.7818609E-02  0.8214870E-01
       -3   -1    0    0    0  501  0.00000000000E+00  0.00000000000E+00  0.19953262225E+04  0.19953262251E+04  0.10100000352E+00 0.  1.
        3   -1    0    0  501    0  0.00000000000E+00  0.00000000000E+00 -0.12065239538E+04  0.12065239580E+04  0.10100000352E+00 0. -1.
    10030    2    1    2    0    0  0.00000000000E+00  0.00000000000E+00  0.78880226872E+03  0.32018501831E+04  0.31031654122E+04 0.  0.
        1    1    3    3  502    0  0.12469824831E+04 -0.42652392332E+03 -0.45049290921E+03  0.13927784575E+04  0.50400001928E-02 0. -1.
       -1    1    3    3    0  502 -0.12469824831E+04  0.42652392332E+03  0.12392951779E+04  0.18090717256E+04  0.50400001928E-02 0.  1.
</event>
<event>
 5   0  0.5001658E-06  0.3075849E+04  0.7818609E-02  0.8222397E-01
        2   -1    0    0  501    0  0.00000000000E+00  0.00000000000E+00  0.18825936233E+04  0.18825936233E+04  0.25500000920E-02 0.  1.
       -2   -1    0    0    0  501  0.00000000000E+00  0.00000000000E+00 -0.12563578442E+04  0.12563578442E+04  0.25500000920E-02 0. -1.
    10030    2    1    2    0    0  0.00000000000E+00  0.00000000000E+00  0.62623577909E+03  0.31389514675E+04  0.30758486739E+04 0.  0.
        3    1    3    3  502    0  0.39521851524E+03 -0.59383141712E+03  0.17035597122E+04  0.18468755047E+04  0.10100000352E+00 0.  1.
       -3    1    3    3    0  502 -0.39521851524E+03  0.59383141712E+03 -0.10773239331E+04  0.12920759628E+04  0.10100000352E+00 0. -1.
</event>
<event>
 5   0  0.1840431E-06  0.2869674E+04  0.7818609E-02  0.8281958E-01
        1   -1    0    0  501    0  0.00000000000E+00  0.00000000000E+00  0.11121113104E+04  0.11121113105E+04  0.50400001928E-02 0. -1.
       -1   -1    0    0    0  501  0.00000000000E+00  0.00000000000E+00 -0.18512154859E+04  0.18512154859E+04  0.50400001928E-02 0.  1.
    10030    2    1    2    0    0  0.00000000000E+00  0.00000000000E+00 -0.73910417546E+03  0.29633267964E+04  0.28696743230E+04 0.  0.
        1    1    3    3  502    0  0.30880861838E+03  0.38736258183E+03 -0.17601038943E+04  0.18284907031E+04  0.50400001928E-02 0.  1.
       -1    1    3    3    0  502 -0.30880861838E+03 -0.38736258183E+03  0.10209997189E+04  0.11348360932E+04  0.50400001928E-02 0. -1.
</event>
<event>
 5   0  0.1649875E-06  0.3043224E+04  0.7818609E-02  0.8231495E-01
        3   -1    0    0  501    0  0.00000000000E+00  0.00000000000E+00  0.97402596236E+03  0.97402596760E+03  0.10100000352E+00 0.  1.
       -3   -1    0    0    0  501  0.00000000000E+00  0.00000000000E+00 -0.23770443206E+04  0.23770443227E+04  0.10100000352E+00 0. -1.
    10030    2    1    2    0    0  0.00000000000E+00  0.00000000000E+00 -0.14030183582E+04  0.33510702903E+04  0.30432238789E+04 0.  0.
        1    1    3    3  502    0 -0.28325656215E+03  0.54419482945E+03 -0.22348180458E+04  0.23174973550E+04  0.50400001928E-02 0. -1.
       -1    1    3    3    0  502  0.28325656215E+03 -0.54419482945E+03  0.83179968758E+03  0.10335729354E+04  0.50400001928E-02 0.  1.
</event>
<event>
 5   0  0.4927533E-06  0.3134200E+04  0.7818609E-02  0.8206414E-01
        2   -1    0    0  501    0  0.00000000000E+00  0.00000000000E+00  0.17354272226E+04  0.17354272226E+04  0.25500000920E-02 0. -1.
       -2   -1    0    0    0  501  0.00000000000E+00  0.00000000000E+00 -0.14150994047E+04  0.14150994047E+04  0.25500000920E-02 0.  1.
    10030    2    1    2    0    0  0.00000000000E+00  0.00000000000E+00  0.32032781788E+03  0.31505266272E+04  0.31341997572E+04 0.  0.
        5    1    3    3  502    0  0.11106945994E+04 -0.11016184797E+04  0.67084725336E+02  0.15657995460E+04  0.46999998093E+01 0. -1.
       -5    1    3    3    0  502 -0.11106945994E+04  0.11016184797E+04  0.25324309254E+03  0.15847270812E+04  0.46999998093E+01 0.  1.
</event>
<event>
 5   0  0.1840431E-06  0.3083724E+04  0.7818609E-02  0.8220219E-01
       -1   -1    0    0    0  501  0.00000000000E+00  0.00000000000E+00  0.14024530282E+04  0.14024530282E+04  0.50400001928E-02 0.  1.
        1   -1    0    0  501    0  0.00000000000E+00  0.00000000000E+00 -0.16951283727E+04  0.16951283727E+04  0.50400001928E-02 0. -1.
    10030    2    1    2    0    0  0.00000000000E+00  0.00000000000E+00 -0.29267534444E+03  0.30975814009E+04  0.30837236708E+04 0.  0.
        1    1    3    3  502    0  0.47506227752E+03 -0.98934688886E+03  0.94150942919E+03  0.14460053386E+04  0.50400001928E-02 0.  1.
       -1    1    3    3    0  502 -0.47506227752E+03  0.98934688886E+03 -0.12341847736E+04  0.16515760623E+04  0.50400001928E-02 0. -1.
</event>
<event>
 5   0  0.1853742E-06  0.2907699E+04  0.7818609E-02  0.8270591E-01
       -1   -1    0    0    0  501  0.00000000000E+00  0.00000000000E+00  0.13882748953E+04  0.13882748953E+04  0.50400001928E-02 0. -1.
        1   -1    0    0  501    0  0.00000000000E+00  0.00000000000E+00 -0.15225210095E+04  0.15225210095E+04  0.50400001928E-02 0.  1.
    10030    2    1    2    0    0  0.00000000000E+00  0.00000000000E+00 -0.13424611415E+03  0.29107959048E+04  0.29076985367E+04 0.  0.
        5    1    3    3  502    0  0.13298474964E+03 -0.91550754966E+03 -0.11898419638E+04  0.15071778282E+04  0.46999998093E+01 0.  1.
       -5    1    3    3    0  502 -0.13298474964E+03  0.91550754966E+03  0.10555958496E+04  0.14036180766E+04  0.46999998093E+01 0. -1.
</event>
<event>
 5   0  0.1885307E-06  0.3104446E+04  0.7818609E-02  0.8214519E-01
        1   -1    0    0  501    0  0.00000000000E+00  0.00000000000E+00  0.29542636655E+04  0.29542636655E+04  0.50400001928E-02 0. -1.
       -1   -1    0    0    0  501  0.00000000000E+00  0.00000000000E+00 -0.81556564296E+03  0.81556564298E+03  0.50400001928E-02 0.  1.
    10030    2    1    2    0    0  0.00000000000E+00  0.00000000000E+00  0.21386980226E+04  0.37698293085E+04  0.31044458094E+04 0.  0.
        3    1    3    3  502    0  0.84258243113E+03  0.11464931037E+04  0.31587128425E+03  0.14574519781E+04  0.10100000352E+00 0.  1.
       -3    1    3    3    0  502 -0.84258243113E+03 -0.11464931037E+04  0.18228267383E+04  0.23123773304E+04  0.10100000352E+00 0. -1.
</event>
<event>
 5   0  0.4900679E-06  0.3121545E+04  0.7818609E-02  0.8209850E-01
       -2   -1    0    0    0  501  0.00000000000E+00  0.00000000000E+00  0.17822656740E+04  0.17822656740E+04  0.25500000920E-02 0.  1.
        2   -1    0    0  501    0  0.00000000000E+00  0.00000000000E+00 -0.13668056599E+04  0.13668056599E+04  0.25500000920E-02 0. -1.
    10030    2    1    2    0    0  0.00000000000E+00  0.00000000000E+00  0.41546001414E+03  0.31490713339E+04  0.31215450089E+04 0.  0.
        4    1    3    3  502    0 -0.12193860058E+04 -0.52654439093E+03  0.10346274221E+04  0.16836290394E+04  0.12699999809E+01 0.  1.
       -4    1    3    3    0  502  0.12193860058E+04  0.52654439093E+03 -0.61916740793E+03  0.14654422946E+04  0.12699999809E+01 0. -1.
</event>
<event>
 5   0  0.1836401E-06  0.3028268E+04  0.7818609E-02  0.8235704E-01
       -1   -1    0    0    0  501  0.00000000000E+00  0.00000000000E+00  0.16887747441E+04  0.16887747441E+04  0.50400001928E-02 0.  1.
        1   -1    0    0  501    0  0.00000000000E+00  0.00000000000E+00 -0.13575535976E+04  0.13575535976E+04  0.50400001928E-02 0. -1.
    10030    2    1    2    0    0  0.00000000000E+00  0.00000000000E+00  0.33122114654E+03  0.30463283417E+04  0.30282683035E+04 0.  0.
        2    1    3    3  502    0  0.13489180706E+03 -0.22657298185E+03  0.16654992895E+04  0.16862440508E+04  0.25500000920E-02 0.  1.
       -2    1    3    3    0  502 -0.13489180706E+03  0.22657298185E+03 -0.13342781429E+04  0.13600842909E+04  0.25500000920E-02 0. -1.
</event>
<event>
 5   0  0.5328368E-06  0.3187660E+04  0.7818609E-02  0.8192084E-01
        2   -1    0    0  501    0  0.00000000000E+00  0.00000000000E+00  0.25218990692E+04  0.25218990692E+04  0.25500000920E-02 0.  1.
       -2   -1    0    0    0  501  0.00000000000E+00  0.00000000000E+00 -0.10072940960E+04  0.10072940960E+04  0.25500000920E-02 0. -1.
    10030    2    1    2    0    0  0.00000000000E+00  0.00000000000E+00  0.15146049732E+04  0.35291931652E+04  0.31876599838E+04 0.  0.
        1    1    3    3  502    0 -0.10580640068E+04  0.91659911705E+03  0.16009424825E+04  0.21266570518E+04  0.50400001928E-02 0.  1.
       -1    1    3    3    0  502  0.10580640068E+04 -0.91659911705E+03 -0.86337509247E+02  0.14025361134E+04  0.50400001928E-02 0. -1.
</event>
<event>
 5   0  0.4900679E-06  0.3101808E+04  0.7818609E-02  0.8215242E-01
        2   -1    0    0  501    0  0.00000000000E+00  0.00000000000E+00  0.24676551568E+04  0.24676551568E+04  0.25500000920E-02 0. -1.
       -2   -1    0    0    0  501  0.00000000000E+00  0.00000000000E+00 -0.97473200191E+03  0.97473200191E+03  0.25500000920E-02 0.  1.
    10030    2    1    2    0    0  0.00000000000E+00  0.00000000000E+00  0.14929231549E+04  0.34423871587E+04  0.31018075059E+04 0.  0.
        4    1    3    3  502    0 -0.11213890458E+04  0.52524634789E+03  0.17827463957E+04  0.21706182167E+04  0.12699999809E+01 0. -1.
       -4    1    3    3    0  502  0.11213890458E+04 -0.52524634789E+03 -0.28982324089E+03  0.12717689420E+04  0.12699999809E+01 0.  1.
</event>
<event>
 5   0  0.4900679E-06  0.3072312E+04  0.7818609E-02  0.8223378E-01
        2   -1    0    0  501    0  0.00000000000E+00  0.00000000000E+00  0.93451872411E+03  0.93451872412E+03  0.25500000920E-02 0.  1.
       -2   -1    0    0    0  501  0.00000000000E+00  0.00000000000E+00 -0.25251238501E+04  0.25251238501E+04  0.25500000920E-02 0. -1.
    10030    2    1    2    0    0  0.00000000000E+00  0.00000000000E+00 -0.15906051260E+04  0.34596425742E+04  0.30723121708E+04 0.  0.
        4    1    3    3  502    0  0.60145557176E+03  0.10985929425E+04  0.20627987834E+03  0.12693337856E+04  0.12699999809E+01 0.  1.
       -4    1    3    3    0  502 -0.60145557176E+03 -0.10985929425E+04 -0.17968850043E+04  0.21903087887E+04  0.12699999809E+01 0. -1.
</event>
<event>
 5   0  0.5114870E-06  0.3088585E+04  0.7818609E-02  0.8218878E-01
        2   -1    0    0  501    0  0.00000000000E+00  0.00000000000E+00  0.12685094375E+04  0.12685094376E+04  0.25500000920E-02 0. -1.
       -2   -1    0    0    0  501  0.00000000000E+00  0.00000000000E+00 -0.18800326818E+04  0.18800326818E+04  0.25500000920E-02 0.  1.
    10030    2    1    2    0    0  0.00000000000E+00  0.00000000000E+00 -0.61152324420E+03  0.31485421193E+04  0.30885849185E+04 0.  0.
        2    1    3    3  502    0  0.12943672150E+04 -0.58320712747E+03 -0.92527778842E+03  0.16945961249E+04  0.25500000920E-02 0.  1.
       -2    1    3    3    0  502 -0.12943672150E+04  0.58320712747E+03  0.31375454421E+03  0.14539459944E+04  0.25500000920E-02 0. -1.
</event>
<event>
 5   0  0.5001658E-06  0.3175017E+04  0.7818609E-02  0.8195446E-01
       -2   -1    0    0    0  501  0.00000000000E+00  0.00000000000E+00  0.11118314928E+04  0.11118314928E+04  0.25500000920E-02 0.  1.
        2   -1    0    0  501    0  0.00000000000E+00  0.00000000000E+00 -0.22666954756E+04  0.22666954756E+04  0.25500000920E-02 0. -1.
    10030    2    1    2    0    0  0.00000000000E+00  0.00000000000E+00 -0.11548639828E+04  0.33785269684E+04  0.31750171114E+04 0.  0.
        3    1    3    3  502    0 -0.44453086883E+03 -0.57159249585E+03 -0.20807335574E+04  0.22031290979E+04  0.10100000352E+00 0. -1.
       -3    1    3    3    0  502  0.44453086883E+03  0.57159249585E+03  0.92586957463E+03  0.11753978705E+04  0.10100000352E+00 0.  1.
</event>
<event>
 5   0  0.1885307E-06  0.3061837E+04  0.7818609E-02  0.8226290E-01
        1   -1    0    0  501    0  0.00000000000E+00  0.00000000000E+00  0.88004799323E+03  0.88004799325E+03  0.50400001928E-02 0.  1.
       -1   -1    0    0    0  501  0.00000000000E+00  0.00000000000E+00 -0.26631640967E+04  0.26631640967E+04  0.50400001928E-02 0. -1.
    10030    2    1    2    0    0  0.00000000000E+00  0.00000000000E+00 -0.17831161035E+04  0.35432120900E+04  0.30618374999E+04 0.  0.
        3    1    3    3  502    0 -0.81970506922E+03  0.29663041909E+03 -0.23479089604E+04  0.25045124282E+04  0.10100000352E+00 0. -1.
       -3    1    3    3    0  502  0.81970506922E+03 -0.29663041909E+03  0.56479285694E+03  0.10386996618E+04  0.10100000352E+00 0.  1.
</event>
<event>
 5   0  0.1843709E-06  0.3125660E+04  0.7818609E-02  0.8208731E-01
       -1   -1    0    0    0  501  0.00000000000E+00  0.00000000000E+00  0.13792767719E+04  0.13792767719E+04  0.50400001928E-02 0. -1.
        1   -1    0    0  501    0  0.00000000000E+00  0.00000000000E+00 -0.17708109329E+04  0.17708109329E+04  0.50400001928E-02 0.  1.
    10030    2    1    2    0    0  0.00000000000E+00  0.00000000000E+00 -0.39153416103E+03  0.31500877048E+04  0.31256604980E+04 0.  0.
        4    1    3    3  502    0  0.15268928865E+04 -0.28107080190E+03 -0.37614652643E+03  0.15974637726E+04  0.12699999809E+01 0.  1.
       -4    1    3    3    0  502 -0.15268928865E+04  0.28107080190E+03 -0.15387634601E+02  0.15526239322E+04  0.12699999809E+01 0. -1.
</event>
<event>
 5   0  0.5001658E-06  0.3324775E+04  0.7818609E-02  0.8156620E-01
       -2   -1    0    0    0  501  0.00000000000E+00  0.00000000000E+00  0.20453138358E+04  0.20453138358E+04  0.25500000920E-02 0. -1.
        2   -1    0    0  501    0  0.00000000000E+00  0.00000000000E+00 -0.13511529198E+04  0.13511529198E+04  0.25500000920E-02 0.  1.
    10030    2    1    2    0    0  0.00000000000E+00  0.00000000000E+00  0.69416091605E+03  0.33964667556E+04  0.33247747360E+04 0.  0.
        3    1    3    3  502    0  0.10634308624E+04  0.48906538194E+03 -0.85882329163E+03  0.14517739505E+04  0.10100000352E+00 0.  1.
       -3    1    3    3    0  502 -0.10634308624E+04 -0.48906538194E+03  0.15529842077E+04  0.19446928051E+04  0.10100000352E+00 0. -1.
</event>
<event>
 5   0  0.5114870E-06  0.3092340E+04  0.7818609E-02  0.8217843E-01
        2   -1    0    0  501    0  0.00000000000E+00  0.00000000000E+00  0.27070937159E+04  0.27070937159E+04  0.25500000920E-02 0.  1.
       -2   -1    0    0    0  501  0.00000000000E+00  0.00000000000E+00 -0.88310255124E+03  0.88310255124E+03  0.25500000920E-02 0. -1.
    10030    2    1    2    0    0  0.00000000000E+00  0.00000000000E+00  0.18239911647E+04  0.35901962671E+04  0.30923398047E+04 0.  0.
        2    1    3    3  502    0 -0.23938432934E+03 -0.13566040411E+04  0.96845277303E+02  0.13809628486E+04  0.25500000920E-02 0. -1.
       -2    1    3    3    0  502  0.23938432934E+03  0.13566040411E+04  0.17271458874E+04  0.22092334186E+04  0.25500000920E-02 0.  1.
</event>
<event>
 5   0  0.1840431E-06  0.3056827E+04  0.7818609E-02  0.8227687E-01
       -1   -1    0    0    0  501  0.00000000000E+00  0.00000000000E+00  0.14013973316E+04  0.14013973316E+04  0.50400001928E-02 0. -1.
        1   -1    0    0  501    0  0.00000000000E+00  0.00000000000E+00 -0.16669421013E+04  0.16669421014E+04  0.50400001928E-02 0.  1.
    10030    2    1    2    0    0  0.00000000000E+00  0.00000000000E+00 -0.26554476973E+03  0.30683394330E+04  0.30568272524E+04 0.  0.
        1    1    3    3  502    0 -0.26996683290E+03 -0.12550310061E+04  0.69984735034E+03  0.14621119078E+04  0.50400001928E-02 0. -1.
       -1    1    3    3    0  502  0.26996683290E+03  0.12550310061E+04 -0.96539212007E+03  0.16062275252E+04  0.50400001928E-02 0.  1.
</event>
<event>
 5   0  0.5328368E-06  0.3116680E+04  0.7818609E-02  0.8211175E-01
       -2   -1    0    0    0  501  0.00000000000E+00  0.00000000000E+00  0.14291146344E+04  0.14291146344E+04  0.25500000920E-02 0. -1.
        2   -1    0    0  501    0  0.00000000000E+00  0.00000000000E+00 -0.16992500992E+04  0.16992500992E+04  0.25500000920E-02 0.  1.
    10030    2    1    2    0    0  0.00000000000E+00  0.00000000000E+00 -0.27013546475E+03  0.31283647336E+04  0.31166797618E+04 0.  0.
        1    1    3    3  502    0  0.88589470132E+03 -0.12393564218E+04  0.19420089289E+03  0.15357498979E+04  0.50400001928E-02 0. -1.
       -1    1    3    3    0  502 -0.88589470132E+03  0.12393564218E+04 -0.46433635765E+03  0.15926148358E+04  0.50400001928E-02 0.  1.
</event>
<event>
 5   0  0.1836401E-06  0.3003501E+04  0.7818609E-02  0.8242732E-01
       -1   -1    0    0    0  501  0.00000000000E+00  0.00000000000E+00  0.15855368347E+04  0.15855368347E+04  0.50400001928E-02 0. -1.
        1   -1    0    0  501    0  0.00000000000E+00  0.00000000000E+00 -0.14223922193E+04  0.14223922193E+04  0.50400001928E-02 0.  1.
    10030    2    1    2    0    0  0.00000000000E+00  0.00000000000E+00  0.16314461540E+03  0.30079290540E+04  0.30035014614E+04 0.  0.
        2    1    3    3  502    0 -0.17522835798E+03  0.11716392174E+04  0.10058693709E+04  0.15540967230E+04  0.25500000920E-02 0. -1.
       -2    1    3    3    0  502  0.17522835798E+03 -0.11716392174E+04 -0.84272475545E+03  0.14538323310E+04  0.25500000920E-02 0.  1.
</event>
<event>
 5   0  0.4927533E-06  0.3111901E+04  0.7818609E-02  0.8212479E-01
        2   -1    0    0  501    0  0.00000000000E+00  0.00000000000E+00  0.19115833766E+04  0.19115833766E+04  0.25500000920E-02 0. -1.
       -2   -1    0    0    0  501  0.00000000000E+00  0.00000000000E+00 -0.12664801950E+04  0.12664801950E+04  0.25500000920E-02 0.  1.
    10030    2    1    2    0    0  0.00000000000E+00  0.00000000000E+00  0.64510318168E+03  0.31780635716E+04  0.31119013400E+04 0.  0.
        5    1    3    3  502    0 -0.11207446244E+04 -0.35144831034E+03  0.13647263162E+04  0.18005789169E+04  0.46999998093E+01 0. -1.
       -5    1    3    3    0  502  0.11207446244E+04  0.35144831034E+03 -0.71962313450E+03  0.13774846546E+04  0.46999998093E+01 0.  1.
</event>
<event>
 5   0  0.1836401E-06  0.3109414E+04  0.7818609E-02  0.8213159E-01
       -1   -1    0    0    0  501  0.00000000000E+00  0.00000000000E+00  0.12549115308E+04  0.12549115308E+04  0.50400001928E-02 0.  1.
        1   -1    0    0  501    0  0.00000000000E+00  0.00000000000E+00 -0.19261235052E+04  0.19261235052E+04  0.50400001928E-02 0. -1.
    10030    2    1    2    0    0  0.00000000000E+00  0.00000000000E+00 -0.67121197436E+03  0.31810350360E+04  0.31094144764E+04 0.  0.
        2    1    3    3  502    0 -0.11145111015E+04 -0.48030206129E+03 -0.13297342566E+04  0.18002828274E+04  0.25500000920E-02 0. -1.
       -2    1    3    3    0  502  0.11145111015E+04  0.48030206129E+03  0.65852228224E+03  0.13807522086E+04  0.25500000920E-02 0.  1.
</event>
<event>
 5   0  0.1885307E-06  0.2326568E+04  0.7818609E-02  0.8467519E-01
        1   -1    0    0  501    0  0.00000000000E+00  0.00000000000E+00  0.29684895913E+04  0.29684895914E+04  0.50400001928E-02 0.  1.
       -1   -1    0    0    0  501  0.00000000000E+00  0.00000000000E+00 -0.45586470861E+03  0.45586470864E+03  0.50400001928E-02 0. -1.
    10030    2    1    2    0    0  0.00000000000E+00  0.00000000000E+00  0.25126248827E+04  0.34243543000E+04  0.23265679811E+04 0.  0.
        3    1    3    3  502    0 -0.50800409066E+02  0.10747403740E+04  0.60539265204E+03  0.12345638203E+04  0.10100000352E+00 0. -1.
       -3    1    3    3    0  502  0.50800409066E+02 -0.10747403740E+04  0.19072322307E+04  0.21897904797E+04  0.10100000352E+00 0.  1.
</event>
<event>
 5   0  0.1649875E-06  0.3028312E+04  0.7818609E-02  0.8235692E-01
       -3   -1    0    0    0  501  0.00000000000E+00  0.00000000000E+00  0.15289741819E+04  0.15289741853E+04  0.10100000352E+00 0.  1.
        3   -1    0    0  501    0  0.00000000000E+00  0.00000000000E+00 -0.14994816252E+04  0.14994816286E+04  0.10100000352E+00 0. -1.
    10030    2    1    2    0    0  0.00000000000E+00  0.00000000000E+00  0.29492556770E+02  0.30284558139E+04  0.30283122041E+04 0.  0.
        2    1    3    3  502    0  0.70314975668E+03 -0.12461914483E+04  0.51000303706E+03  0.15190509550E+04  0.25500000920E-02 0.  1.
       -2    1    3    3    0  502 -0.70314975668E+03  0.12461914483E+04 -0.48051048029E+03  0.15094048588E+04  0.25500000920E-02 0. -1.
</event>
<event>
 5   0  0.5328368E-06  0.3146596E+04  0.7818609E-02  0.8203065E-01
       -2   -1    0    0    0  501  0.00000000000E+00  0.00000000000E+00  0.11252052210E+04  0.11252052210E+04  0.25500000920E-02 0. -1.
        2   -1    0    0  501    0  0.00000000000E+00  0.00000000000E+00 -0.21998359544E+04  0.21998359544E+04  0.25500000920E-02 0.  1.
    10030    2    1    2    0    0  0.00000000000E+00  0.00000000000E+00 -0.10746307334E+04  0.33250411754E+04  0.31465961935E+04 0.  0.
        1    1    3    3  502    0  0.29249075822E+03  0.15361273688E+04 -0.35420001864E+03  0.16033389504E+04  0.50400001928E-02 0. -1.
       -1    1    3    3    0  502 -0.29249075822E+03 -0.15361273688E+04 -0.72043071476E+03  0.17217022250E+04  0.50400001928E-02 0.  1.
</event>
<event>
 5   0  0.1885307E-06  0.3090234E+04  0.7818609E-02  0.8218423E-01
        1   -1    0    0  501    0  0.00000000000E+00  0.00000000000E+00  0.20601346679E+04  0.20601346679E+04  0.50400001928E-02 0.  1.
       -1   -1    0    0    0  501  0.00000000000E+00  0.00000000000E+00 -0.11588497828E+04  0.11588497828E+04  0.50400001928E-02 0. -1.
    10030    2    1    2    0    0  0.00000000000E+00  0.00000000000E+00  0.90128488510E+03  0.32189844507E+04  0.30902340444E+04 0.  0.
        3    1    3    3  502    0  0.73492463861E+03  0.90501586102E+03  0.15069010196E+04  0.19052345331E+04  0.10100000352E+00 0.  1.
       -3    1    3    3    0  502 -0.73492463861E+03 -0.90501586102E+03 -0.60561613454E+03  0.13137499175E+04  0.10100000352E+00 0. -1.
</event>
<event>
 5   0  0.5114870E-06  0.3137120E+04  0.7818609E-02  0.8205624E-01
        2   -1    0    0  501    0  0.00000000000E+00  0.00000000000E+00  0.21756369388E+04  0.21756369389E+04  0.25500000920E-02 0. -1.
       -2   -1    0    0    0  501  0.00000000000E+00  0.00000000000E+00 -0.11308783249E+04  0.11308783249E+04  0.25500000920E-02 0.  1.
    10030    2    1    2    0    0  0.00000000000E+00  0.00000000000E+00  0.10447586139E+04  0.33065152638E+04  0.31371201170E+04 0.  0.
        2    1    3    3  502    0  0.11108646397E+04  0.86693215090E+03 -0.20387669346E+03  0.14237827462E+04  0.25500000920E-02 0.  1.
       -2    1    3    3    0  502 -0.11108646397E+04 -0.86693215090E+03  0.12486353074E+04  0.18827325176E+04  0.25500000920E-02 0. -1.
</event>
<event>
 5   0  0.1843709E-06  0.3081951E+04  0.7818609E-02  0.8220709E-01
        1   -1    0    0  501    0  0.00000000000E+00  0.00000000000E+00  0.31538513511E+04  0.31538513511E+04  0.50400001928E-02 0.  1.
       -1   -1    0    0    0  501  0.00000000000E+00  0.00000000000E+00 -0.75292233269E+03  0.75292233271E+03  0.50400001928E-02 0. -1.
    10030    2    1    2    0    0  0.00000000000E+00  0.00000000000E+00  0.24009290184E+04  0.39067736838E+04  0.30819507564E+04 0.  0.
        4    1    3    3  502    0  0.13123320999E+03  0.15136491173E+04  0.15267351181E+04  0.21538982194E+04  0.12699999809E+01 0.  1.
       -4    1    3    3    0  502 -0.13123320999E+03 -0.15136491173E+04  0.87419390029E+03  0.17528754644E+04  0.12699999809E+01 0. -1.
</event>
<event>
 5   0  0.1853742E-06  0.3105173E+04  0.7818609E-02  0.8214320E-01
       -1   -1    0    0    0  501  0.00000000000E+00  0.00000000000E+00  0.13975227444E+04  0.13975227445E+04  0.50400001928E-02 0. -1.
        1   -1    0    0  501    0  0.00000000000E+00  0.00000000000E+00 -0.17248551668E+04  0.17248551668E+04  0.50400001928E-02 0.  1.
    10030    2    1    2    0    0  0.00000000000E+00  0.00000000000E+00 -0.32733242237E+03  0.31223779113E+04  0.31051726693E+04 0.  0.
        5    1    3    3  502    0  0.48324605954E+03 -0.91758148788E+03 -0.13254987822E+04  0.16829889045E+04  0.46999998093E+01 0.  1.
       -5    1    3    3    0  502 -0.48324605954E+03  0.91758148788E+03  0.99816635985E+03  0.14393890068E+04  0.46999998093E+01 0. -1.
</event>
<event>
 5   0  0.4927533E-06  0.3081351E+04  0.7818609E-02  0.8220875E-01
       -2   -1    0    0    0  501  0.00000000000E+00  0.00000000000E+00  0.16109212237E+04  0.16109212237E+04  0.25500000920E-02 0.  1.
        2   -1    0    0  501    0  0.00000000000E+00  0.00000000000E+00 -0.14734925854E+04  0.14734925854E+04  0.25500000920E-02 0. -1.
    10030    2    1    2    0    0  0.00000000000E+00  0.00000000000E+00  0.13742863828E+03  0.30844138091E+04  0.30813506640E+04 0.  0.
        5    1    3    3  502    0  0.48415166779E+03  0.12404443809E+04 -0.70700978947E+03  0.15076438677E+04  0.46999998093E+01 0. -1.
       -5    1    3    3    0  502 -0.48415166779E+03 -0.12404443809E+04  0.84443842775E+03  0.15767699413E+04  0.46999998093E+01 0.  1.
</event>
<event>
 5   0  0.1853742E-06  0.3097518E+04  0.7818609E-02  0.8216420E-01
        1   -1    0    0  501    0  0.00000000000E+00  0.00000000000E+00  0.14150134500E+04  0.14150134500E+04  0.50400001928E-02 0. -1.
       -1   -1    0    0    0  501  0.00000000000E+00  0.00000000000E+00 -0.16951455634E+04  0.16951455634E+04  0.50400001928E-02 0.  1.
    10030    2    1    2    0    0  0.00000000000E+00  0.00000000000E+00 -0.28013211336E+03  0.31101590134E+04  0.30975175686E+04 0.  0.
        5    1    3    3  502    0 -0.14105759165E+04 -0.33318984126E+03  0.40795606086E+03  0.15057191385E+04  0.46999998093E+01 0. -1.
       -5    1    3    3    0  502  0.14105759165E+04  0.33318984126E+03 -0.68808817422E+03  0.16044398749E+04  0.46999998093E+01 0.  1.
</event>
<event>
 5   0  0.1836401E-06  0.3136959E+04  0.7818609E-02  0.8205667E-01
       -1   -1    0    0    0  501  0.00000000000E+00  0.00000000000E+00  0.99545881487E+03  0.99545881488E+03  0.50400001928E-02 0. -1.
        1   -1    0    0  501    0  0.00000000000E+00  0.00000000000E+00 -0.24713513592E+04  0.24713513592E+04  0.50400001928E-02 0.  1.
    10030    2    1    2    0    0  0.00000000000E+00  0.00000000000E+00 -0.14758925443E+04  0.34668101741E+04  0.31369593527E+04 0.  0.
        2    1    3    3  502    0  0.78721532902E+03  0.22531920790E+03  0.74049963342E+03  0.11040001933E+04  0.25500000920E-02 0. -1.
       -2    1    3    3    0  502 -0.78721532902E+03 -0.22531920790E+03 -0.22163921777E+04  0.23628099808E+04  0.25500000920E-02 0.  1.
</event>
<event>
 5   0  0.5328368E-06  0.3115961E+04  0.7818609E-02  0.8211371E-01
        2   -1    0    0  501    0  0.00000000000E+00  0.00000000000E+00  0.15197124224E+04  0.15197124224E+04  0.25500000920E-02 0.  1.
       -2   -1    0    0    0  501  0.00000000000E+00  0.00000000000E+00 -0.15972124281E+04  0.15972124281E+04  0.25500000920E-02 0. -1.
    10030    2    1    2    0    0  0.00000000000E+00  0.00000000000E+00 -0.77500005670E+02  0.31169248505E+04  0.31159612117E+04 0.  0.
        1    1    3    3  502    0  0.11585595134E+04 -0.98355494074E+02  0.99857099714E+03  0.15326702143E+04  0.50400001928E-02 0.  1.
       -1    1    3    3    0  502 -0.11585595134E+04  0.98355494074E+02 -0.10760710028E+04  0.15842546363E+04  0.50400001928E-02 0. -1.
</event>
<event>
 5   0  0.1843709E-06  0.3045324E+04  0.7818609E-02  0.8230905E-01
        1   -1    0    0  501    0  0.00000000000E+00  0.00000000000E+00  0.17545021868E+04  0.17545021868E+04  0.50400001928E-02 0. -1.
       -1   -1    0    0    0  501  0.00000000000E+00  0.00000000000E+00 -0.13214575704E+04  0.13214575704E+04  0.50400001928E-02 0.  1.
    10030    2    1    2    0    0  0.00000000000E+00  0.00000000000E+00  0.43304461636E+03  0.30759597572E+04  0.30453244143E+04 0.  0.
        4    1    3    3  502    0  0.14619689170E+04  0.90395475698E+02  0.63660777785E+03  0.15971210135E+04  0.12699999809E+01 0.  1.
       -4    1    3    3    0  502 -0.14619689170E+04 -0.90395475698E+02 -0.20356316149E+03  0.14788387437E+04  0.12699999809E+01 0. -1.
</event>
<event>
 5   0  0.5328368E-06  0.3021204E+04  0.7818609E-02  0.8237702E-01
        2   -1    0    0  501    0  0.00000000000E+00  0.00000000000E+00  0.21581272114E+04  0.21581272114E+04  0.25500000920E-02 0.  1.
       -2   -1    0    0    0  501  0.00000000000E+00  0.00000000000E+00 -0.10573605377E+04  0.10573605377E+04  0.25500000920E-02 0. -1.
    10030    2    1    2    0    0  0.00000000000E+00  0.00000000000E+00  0.11007666737E+04  0.32154877492E+04  0.30212040969E+04 0.  0.
        1    1    3    3  502    0 -0.26731190401E+03 -0.10849906708E+04  0.16322437056E+04  0.19781000794E+04  0.50400001928E-02 0.  1.
       -1    1    3    3    0  502  0.26731190401E+03  0.10849906708E+04 -0.53147703189E+03  0.12373876697E+04  0.50400001928E-02 0. -1.
</event>
<event>
 5   0  0.5328368E-06  0.3033000E+04  0.7818609E-02  0.8234370E-01
       -2   -1    0    0    0  501  0.00000000000E+00  0.00000000000E+00  0.19959527153E+04  0.19959527153E+04  0.25500000920E-02 0.  1.
        2   -1    0    0  501    0  0.00000000000E+00  0.00000000000E+00 -0.11522177568E+04  0.11522177568E+04  0.25500000920E-02 0. -1.
    10030    2    1    2    0    0  0.00000000000E+00  0.00000000000E+00  0.84373495855E+03  0.31481704721E+04  0.30329999409E+04 0.  0.
        1    1    3    3  502    0  0.10902235743E+04  0.10491617164E+04  0.31578886924E+03  0.15456553170E+04  0.50400001928E-02 0. -1.
       -1    1    3    3    0  502 -0.10902235743E+04 -0.10491617164E+04  0.52794608931E+03  0.16025151551E+04  0.50400001928E-02 0.  1.
</event>
<event>
 5   0  0.1843709E-06  0.3096321E+04  0.7818609E-02  0.8216748E-01
       -1   -1    0    0    0  501  0.00000000000E+00  0.00000000000E+00  0.13281565305E+04  0.13281565305E+04  0.50400001928E-02 0.  1.
        1   -1    0    0  501    0  0.00000000000E+00  0.00000000000E+00 -0.18046072473E+04  0.18046072473E+04  0.50400001928E-02 0. -1.
    10030    2    1    2    0    0  0.00000000000E+00  0.00000000000E+00 -0.47645071677E+03  0.31327637778E+04  0.30963209786E+04 0.  0.
        4    1    3    3  502    0 -0.10912078641E+04  0.15240216149E+03  0.86215886832E+03  0.13990284302E+04  0.12699999809E+01 0.  1.
       -4    1    3    3    0  502  0.10912078641E+04 -0.15240216149E+03 -0.13386095851E+04  0.17337353476E+04  0.12699999809E+01 0. -1.
</event>
<event>
 5   0  0.1853742E-06  0.3068457E+04  0.7818609E-02  0.8224448E-01
        1   -1    0    0  501    0  0.00000000000E+00  0.00000000000E+00  0.13653886279E+04  0.13653886280E+04  0.50400001928E-02 0.  1.
       -1   -1    0    0    0  501  0.00000000000E+00  0.00000000000E+00 -0.17239465835E+04  0.17239465835E+04  0.50400001928E-02 0. -1.
    10030    2    1    2    0    0  0.00000000000E+00  0.00000000000E+00 -0.35855795551E+03  0.30893352114E+04  0.30684569805E+04 0.  0.
        5    1    3    3  502    0  0.29426787254E+03 -0.13635855555E+03 -0.16890313069E+04  0.17198942067E+04  0.46999998093E+01 0. -1.
       -5    1    3    3    0  502 -0.29426787254E+03  0.13635855555E+03  0.13304733514E+04  0.13694410047E+04  0.46999998093E+01 0.  1.
</event>
<event>
 5   0  0.4900679E-06  0.2810507E+04  0.7818609E-02  0.8300014E-01
        2   -1    0    0  501    0  0.00000000000E+00  0.00000000000E+00  0.10684656388E+04  0.10684656388E+04  0.25500000920E-02 0.  1.
       -2   -1    0    0    0  501  0.00000000000E+00  0.00000000000E+00 -0.18481988965E+04  0.18481988965E+04  0.25500000920E-02 0. -1.
    10030    2    1    2    0    0  0.00000000000E+00  0.00000000000E+00 -0.77973325765E+03  0.29166645353E+04  0.28105067263E+04 0.  0.
        4    1    3    3  502    0 -0.23810498439E+02 -0.13875203599E+04 -0.61948336541E+03  0.15197173889E+04  0.12699999809E+01 0.  1.
       -4    1    3    3    0  502  0.23810498439E+02  0.13875203599E+04 -0.16024989224E+03  0.13969471464E+04  0.12699999809E+01 0. -1.
</event>
<event>
 5   0  0.1843709E-06  0.3082247E+04  0.7818609E-02  0.8220627E-01
       -1   -1    0    0    0  501  0.00000000000E+00  0.00000000000E+00  0.14731352151E+04  0.14731352151E+04  0.50400001928E-02 0.  1.
        1   -1    0    0  501    0  0.00000000000E+00  0.00000000000E+00 -0.16122497976E+04  0.16122497976E+04  0.50400001928E-02 0. -1.
    10030    2    1    2    0    0  0.00000000000E+00  0.00000000000E+00 -0.13911458244E+03  0.30853850127E+04  0.30822472013E+04 0.  0.
        4    1    3    3  502    0  0.18597205591E+03 -0.41113084582E+03  0.14055256198E+04  0.14761836129E+04  0.12699999809E+01 0.  1.
       -4    1    3    3    0  502 -0.18597205591E+03  0.41113084582E+03 -0.15446402023E+04  0.16092013999E+04  0.12699999809E+01 0. -1.
</event>
<event>
 5   0  0.1840431E-06  0.3141453E+04  0.7818609E-02  0.8204453E-01
       -1   -1    0    0    0  501  0.00000000000E+00  0.00000000000E+00  0.25744659829E+04  0.25744659829E+04  0.50400001928E-02 0.  1.
        1   -1    0    0  501    0  0.00000000000E+00  0.00000000000E+00 -0.95832772175E+03  0.95832772176E+03  0.50400001928E-02 0. -1.
    10030    2    1    2    0    0  0.00000000000E+00  0.00000000000E+00  0.16161382612E+04  0.35327937047E+04  0.31414532434E+04 0.  0.
        1    1    3    3  502    0  0.27754025247E+03 -0.13707625908E+04  0.16120904657E+04  0.21342104727E+04  0.50400001928E-02 0.  1.
       -1    1    3    3    0  502 -0.27754025247E+03  0.13707625908E+04  0.40477954506E+01  0.13985832320E+04  0.50400001928E-02 0. -1.
</event>
<event>
 5   0  0.1853742E-06  0.3079834E+04  0.7818609E-02  0.8221294E-01
       -1   -1    0    0    0  501  0.00000000000E+00  0.00000000000E+00  0.18113230594E+04  0.18113230594E+04  0.50400001928E-02 0. -1.
        1   -1    0    0  501    0  0.00000000000E+00  0.00000000000E+00 -0.13091782207E+04  0.13091782208E+04  0.50400001928E-02 0.  1.
    10030    2    1    2    0    0  0.00000000000E+00  0.00000000000E+00  0.50214483863E+03  0.31205012801E+04  0.30798342164E+04 0.  0.
        5    1    3    3  502    0 -0.88017509398E+03 -0.50577268153E+03 -0.92215009328E+03  0.13714580147E+04  0.46999998093E+01 0.  1.
       -5    1    3    3    0  502  0.88017509398E+03  0.50577268153E+03  0.14242949319E+04  0.17490432655E+04  0.46999998093E+01 0. -1.
</event>
<event>
 5   0  0.4900679E-06  0.3067487E+04  0.7818609E-02  0.8224718E-01
        2   -1    0    0  501    0  0.00000000000E+00  0.00000000000E+00  0.21264722000E+04  0.21264722000E+04  0.25500000920E-02 0.  1.
       -2   -1    0    0    0  501  0.00000000000E+00  0.00000000000E+00 -0.11062306898E+04  0.11062306898E+04  0.25500000920E-02 0. -1.
    10030    2    1    2    0    0  0.00000000000E+00  0.00000000000E+00  0.10202415102E+04  0.32327028897E+04  0.30674867945E+04 0.  0.
        4    1    3    3  502    0  0.12640172338E+03 -0.99039493198E+03 -0.71684963079E+03  0.12291194096E+04  0.12699999809E+01 0. -1.
       -4    1    3    3    0  502 -0.12640172338E+03  0.99039493198E+03  0.17370911410E+04  0.20035834802E+04  0.12699999809E+01 0.  1.
</event>
<event>
 5   0  0.5114870E-06  0.3125498E+04  0.7818609E-02  0.8208775E-01
        2   -1    0    0  501    0  0.00000000000E+00  0.00000000000E+00  0.14743776586E+04  0.14743776586E+04  0.25500000920E-02 0.  1.
       -2   -1    0    0    0  501  0.00000000000E+00  0.00000000000E+00 -0.16564170509E+04  0.16564170509E+04  0.25500000920E-02 0. -1.
    10030    2    1    2    0    0  0.00000000000E+00  0.00000000000E+00 -0.18203939227E+03  0.31307947096E+04  0.31254979080E+04 0.  0.
        2    1    3    3  502    0 -0.90240986579E+03 -0.42524342234E+03  0.11139356662E+04  0.14953354816E+04  0.25500000920E-02 0.  1.
       -2    1    3    3    0  502  0.90240986579E+03  0.42524342234E+03 -0.12959750585E+04  0.16354592279E+04  0.25500000920E-02 0. -1.
</event>
<event>
 5   0  0.1853742E-06  0.2234828E+04  0.7818609E-02  0.8504070E-01
       -1   -1    0    0    0  501  0.00000000000E+00  0.00000000000E+00  0.87552693336E+03  0.87552693337E+03  0.50400001928E-02 0. -1.
        1   -1    0    0  501    0  0.00000000000E+00  0.00000000000E+00 -0.14261282688E+04  0.14261282689E+04  0.50400001928E-02 0.  1.
    10030    2    1    2    0    0  0.00000000000E+00  0.00000000000E+00 -0.55060133549E+03  0.23016552022E+04  0.22348276979E+04 0.  0.
        5    1    3    3  502    0  0.73215661185E+03 -0.27720678250E+03  0.54584559429E+03  0.95439321421E+03  0.46999998093E+01 0. -1.
       -5    1    3    3    0  502 -0.73215661185E+03  0.27720678250E+03 -0.10964469298E+04  0.13472619880E+04  0.46999998093E+01 0.  1.
</event>
<event>
 5   0  0.1840431E-06  0.2728594E+04  0.7818609E-02  0.8325787E-01
       -1   -1    0    0    0  501  0.00000000000E+00  0.00000000000E+00  0.74314398270E+03  0.74314398272E+03  0.50400001928E-02 0.  1.
        1   -1    0    0  501    0  0.00000000000E+00  0.00000000000E+00 -0.25046367827E+04  0.25046367827E+04  0.50400001928E-02 0. -1.
    10030    2    1    2    0    0  0.00000000000E+00  0.00000000000E+00 -0.17614928000E+04  0.32477807654E+04  0.27285935967E+04 0.  0.
        1    1    3    3  502    0  0.88763788774E+03  0.14442816031E+03  0.34040141222E+03  0.96157871997E+03  0.50400001928E-02 0.  1.
       -1    1    3    3    0  502 -0.88763788774E+03 -0.14442816031E+03 -0.21018942122E+04  0.22862020454E+04  0.50400001928E-02 0. -1.
</event>
<event>
 5   0  0.5001658E-06  0.3090115E+04  0.7818609E-02  0.8218456E-01
        2   -1    0    0  501    0  0.00000000000E+00  0.00000000000E+00  0.19529876116E+04  0.19529876116E+04  0.25500000920E-02 0.  1.
       -2   -1    0    0    0  501  0.00000000000E+00  0.00000000000E+00 -0.12223339334E+04  0.12223339334E+04  0.25500000920E-02 0. -1.
    10030    2    1    2    0    0  0.00000000000E+00  0.00000000000E+00  0.73065367825E+03  0.31753215450E+04  0.30901152271E+04 0.  0.
        3    1    3    3  502    0  0.12041180706E+04 -0.71885854027E+03  0.10317027964E+04  0.17409964386E+04  0.10100000352E+00 0.  1.
       -3    1    3    3    0  502 -0.12041180706E+04  0.71885854027E+03 -0.30104911819E+03  0.14343251064E+04  0.10100000352E+00 0. -1.
</event>
<event>
 5   0  0.4900679E-06  0.3135958E+04  0.7818609E-02  0.8205938E-01
        2   -1    0    0  501    0  0.00000000000E+00  0.00000000000E+00  0.13981153331E+04  0.13981153331E+04  0.25500000920E-02 0.  1.
       -2   -1    0    0    0  501  0.00000000000E+00  0.00000000000E+00 -0.17584805063E+04  0.17584805063E+04  0.25500000920E-02 0. -1.
    10030    2    1    2    0    0  0.00000000000E+00  0.00000000000E+00 -0.36036517323E+03  0.31565958395E+04  0.31359582643E+04 0.  0.
        4    1    3    3  502    0  0.48148322424E+03  0.14774486225E+04 -0.39102806444E+03  0.16023685867E+04  0.12699999809E+01 0.  1.
       -4    1    3    3    0  502 -0.48148322424E+03 -0.14774486225E+04  0.30662891212E+02  0.15542272528E+04  0.12699999809E+01 0. -1.
</event>
<event>
 5   0  0.4900679E-06  0.3052742E+04  0.7818609E-02  0.8228828E-01
       -2   -1    0    0    0  501  0.00000000000E+00  0.00000000000E+00  0.21213483597E+04  0.21213483597E+04  0.25500000920E-02 0.  1.
        2   -1    0    0  501    0  0.00000000000E+00  0.00000000000E+00 -0.10982676806E+04  0.10982676806E+04  0.25500000920E-02 0. -1.
    10030    2    1    2    0    0  0.00000000000E+00  0.00000000000E+00  0.10230806791E+04  0.32196160403E+04  0.30527419431E+04 0.  0.
        4    1    3    3  502    0 -0.14053334319E+03  0.14954175126E+04  0.79802002305E+03  0.17008411823E+04  0.12699999809E+01 0. -1.
       -4    1    3    3    0  502  0.14053334319E+03 -0.14954175126E+04  0.22506065603E+03  0.15187748580E+04  0.12699999809E+01 0.  1.
</event>
<event>
 5   0  0.1885307E-06  0.2283781E+04  0.7818609E-02  0.8484344E-01
        1   -1    0    0  501    0  0.00000000000E+00  0.00000000000E+00  0.12518953067E+04  0.12518953067E+04  0.50400001928E-02 0. -1.
       -1   -1    0    0    0  501  0.00000000000E+00  0.00000000000E+00 -0.10415520448E+04  0.10415520448E+04  0.50400001928E-02 0.  1.
    10030    2    1    2    0    0  0.00000000000E+00  0.00000000000E+00  0.21034326181E+03  0.22934473515E+04  0.22837811774E+04 0.  0.
        3    1    3    3  502    0 -0.45342247690E+02 -0.96241703490E+03 -0.51029399961E+03  0.10902763158E+04  0.10100000352E+00 0.  1.
       -3    1    3    3    0  502  0.45342247690E+02  0.96241703490E+03  0.72063726143E+03  0.12031710357E+04  0.10100000352E+00 0. -1.
</event>
<event>
 5   0  0.1853742E-06  0.3121950E+04  0.7818609E-02  0.8209740E-01
       -1   -1    0    0    0  501  0.00000000000E+00  0.00000000000E+00  0.97184427820E+03  0.97184427821E+03  0.50400001928E-02 0. -1.
        1   -1    0    0  501    0  0.00000000000E+00  0.00000000000E+00 -0.25072361803E+04  0.25072361803E+04  0.50400001928E-02 0.  1.
    10030    2    1    2    0    0  0.00000000000E+00  0.00000000000E+00 -0.15353919021E+04  0.34790804585E+04  0.31219501187E+04 0.  0.
        5    1    3    3  502    0 -0.69804965812E+03 -0.13845081027E+04 -0.96854980874E+03  0.18281812912E+04  0.46999998093E+01 0.  1.
       -5    1    3    3    0  502  0.69804965812E+03  0.13845081027E+04 -0.56684209333E+03  0.16508991672E+04  0.46999998093E+01 0. -1.
</event>
<event>
 5   0  0.1885307E-06  0.3123415E+04  0.7818609E-02  0.8209341E-01
       -1   -1    0    0    0  501  0.00000000000E+00  0.00000000000E+00  0.13212463292E+04  0.13212463292E+04  0.50400001928E-02 0. -1.
        1   -1    0    0  501    0  0.00000000000E+00  0.00000000000E+00 -0.18459310551E+04  0.18459310551E+04  0.50400001928E-02 0.  1.
    10030    2    1    2    0    0  0.00000000000E+00  0.00000000000E+00 -0.52468472589E+03  0.31671773843E+04  0.31234145614E+04 0.  0.
        3    1    3    3  502    0 -0.10205859705E+04 -0.78792446594E+03 -0.11558864497E+04  0.17316160608E+04  0.10100000352E+00 0.  1.
       -3    1    3    3    0  502  0.10205859705E+04  0.78792446594E+03  0.63120172379E+03  0.14355613235E+04  0.10100000352E+00 0. -1.
</event>
<event>
 5   0  0.1836401E-06  0.2270266E+04  0.7818609E-02  0.8489738E-01
        1   -1    0    0  501    0  0.00000000000E+00  0.00000000000E+00  0.12403863620E+04  0.12403863620E+04  0.50400001928E-02 0.  1.
       -1   -1    0    0    0  501  0.00000000000E+00  0.00000000000E+00 -0.10388111247E+04  0.10388111247E+04  0.50400001928E-02 0. -1.
    10030    2    1    2    0    0  0.00000000000E+00  0.00000000000E+00  0.20157523730E+03  0.22791974867E+04  0.22702661974E+04 0.  0.
        2    1    3    3  502    0  0.10920203726E+04  0.92189891468E+02 -0.19621346828E+03  0.11133315748E+04  0.25500000920E-02 0. -1.
       -2    1    3    3    0  502 -0.10920203726E+04 -0.92189891468E+02  0.39778870558E+03  0.11658659119E+04  0.25500000920E-02 0.  1.
</event>
<event>
 5   0  0.5001658E-06  0.3106750E+04  0.7818609E-02  0.8213888E-01
       -2   -1    0    0    0  501  0.00000000000E+00  0.00000000000E+00  0.23113986644E+04  0.23113986644E+04  0.25500000920E-02 0.  1.
        2   -1    0    0  501    0  0.00000000000E+00  0.00000000000E+00 -0.10439454495E+04  0.10439454495E+04  0.25500000920E-02 0. -1.
    10030    2    1    2    0    0  0.00000000000E+00  0.00000000000E+00  0.12674532148E+04  0.33553441139E+04  0.31067501462E+04 0.  0.
        3    1    3    3  502    0  0.13626171150E+04  0.55095342493E+03  0.11766424637E+04  0.18827539872E+04  0.10100000352E+00 0.  1.
       -3    1    3    3    0  502 -0.13626171150E+04 -0.55095342493E+03  0.90810751102E+02  0.14725901267E+04  0.10100000352E+00 0. -1.
</event>
<event>
 5   0  0.5001658E-06  0.3120776E+04  0.7818609E-02  0.8210059E-01
        2   -1    0    0  501    0  0.00000000000E+00  0.00000000000E+00  0.11754517708E+04  0.11754517708E+04  0.25500000920E-02 0.  1.
       -2   -1    0    0    0  501  0.00000000000E+00  0.00000000000E+00 -0.20713829341E+04  0.20713829341E+04  0.25500000920E-02 0. -1.
    10030    2    1    2    0    0  0.00000000000E+00  0.00000000000E+00 -0.89593116324E+03  0.32468347049E+04  0.31207760176E+04 0.  0.
        3    1    3    3  502    0 -0.13966492920E+04  0.32665377593E+03  0.19124485719E+03  0.14470337038E+04  0.10100000352E+00 0.  1.
       -3    1    3    3    0  502  0.13966492920E+04 -0.32665377593E+03 -0.10871760204E+04  0.17998010012E+04  0.10100000352E+00 0. -1.
</event>
<event>
 5   0  0.1885307E-06  0.2931492E+04  0.7818609E-02  0.8263569E-01
        1   -1    0    0  501    0  0.00000000000E+00  0.00000000000E+00  0.14187054130E+04  0.14187054130E+04  0.50400001928E-02 0.  1.
       -1   -1    0    0    0  501  0.00000000000E+00  0.00000000000E+00 -0.15143464958E+04  0.15143464958E+04  0.50400001928E-02 0. -1.
    10030    2    1    2    0    0  0.00000000000E+00  0.00000000000E+00 -0.95641082784E+02  0.29330519087E+04  0.29314921597E+04 0.  0.
        3    1    3    3  502    0  0.12622373912E+04 -0.18549656917E+03 -0.76984107864E+03  0.14900696311E+04  0.10100000352E+00 0. -1.
       -3    1    3    3    0  502 -0.12622373912E+04  0.18549656917E+03  0.67419999586E+03  0.14429822776E+04  0.10100000352E+00 0.  1.
</event>
<event>
 5   0  0.5114870E-06  0.3103455E+04  0.7818609E-02  0.8214790E-01
        2   -1    0    0  501    0  0.00000000000E+00  0.00000000000E+00  0.17096094516E+04  0.17096094516E+04  0.25500000920E-02 0. -1.
       -2   -1    0    0    0  501  0.00000000000E+00  0.00000000000E+00 -0.14084261082E+04  0.14084261082E+04  0.25500000920E-02 0.  1.
    10030    2    1    2    0    0  0.00000000000E+00  0.00000000000E+00  0.30118334349E+03  0.31180355598E+04  0.31034552270E+04 0.  0.
        2    1    3    3  502    0  0.90776323806E+03  0.85935983111E+03 -0.77314350010E+03  0.14697905590E+04  0.25500000920E-02 0. -1.
       -2    1    3    3    0  502 -0.90776323806E+03 -0.85935983111E+03  0.10743268436E+04  0.16482450008E+04  0.25500000920E-02 0.  1.
</event>
<event>
 5   0  0.5328368E-06  0.2271344E+04  0.7818609E-02  0.8489306E-01
       -2   -1    0    0    0  501  0.00000000000E+00  0.00000000000E+00  0.11914694414E+04  0.11914694414E+04  0.25500000920E-02 0. -1.
        2   -1    0    0  501    0  0.00000000000E+00  0.00000000000E+00 -0.10824876136E+04  0.10824876136E+04  0.25500000920E-02 0.  1.
    10030    2    1    2    0    0  0.00000000000E+00  0.00000000000E+00  0.10898182782E+03  0.22739570550E+04  0.22713440182E+04 0.  0.
        1    1    3    3  502    0  0.45024463685E+03  0.87576705678E+03  0.62088264122E+03  0.11641234578E+04  0.50400001928E-02 0. -1.
       -1    1    3    3    0  502 -0.45024463685E+03 -0.87576705678E+03 -0.51190081340E+03  0.11098335972E+04  0.50400001928E-02 0.  1.
</event>
<event>
 5   0  0.4900679E-06  0.2986954E+04  0.7818609E-02  0.8247466E-01
       -2   -1    0    0    0  501  0.00000000000E+00  0.00000000000E+00  0.10279944405E+04  0.10279944405E+04  0.25500000920E-02 0. -1.
        2   -1    0    0  501    0  0.00000000000E+00  0.00000000000E+00 -0.21697332654E+04  0.21697332654E+04  0.25500000920E-02 0.  1.
    10030    2    1    2    0    0  0.00000000000E+00  0.00000000000E+00 -0.11417388249E+04  0.31977277059E+04  0.29869541237E+04 0.  0.
        4    1    3    3  502    0  0.53112977970E+03 -0.13570119150E+04 -0.92088340698E+03  0.17238352713E+04  0.12699999809E+01 0. -1.
       -4    1    3    3    0  502 -0.53112977970E+03  0.13570119150E+04 -0.22085541792E+03  0.14738924346E+04  0.12699999809E+01 0.  1.
</event>
<event>
 5   0  0.1853742E-06  0.2617552E+04  0.7818609E-02  0.8362264E-01
        1   -1    0    0  501    0  0.00000000000E+00  0.00000000000E+00  0.11001288475E+04  0.11001288475E+04  0.50400001928E-02 0. -1.
       -1   -1    0    0    0  501  0.00000000000E+00  0.00000000000E+00 -0.15569944575E+04  0.15569944575E+04  0.50400001928E-02 0.  1.
    10030    2    1    2    0    0  0.00000000000E+00  0.00000000000E+00 -0.45686560992E+03  0.26571233050E+04  0.26175519235E+04 0.  0.
        5    1    3    3  502    0 -0.72662149942E+03  0.99600883810E+03  0.21736456897E+03  0.12519112807E+04  0.46999998093E+01 0. -1.
       -5    1    3    3    0  502  0.72662149942E+03 -0.99600883810E+03 -0.67423017890E+03  0.14052120243E+04  0.46999998093E+01 0.  1.
</event>
<event>
 5   0  0.5328368E-06  0.3113520E+04  0.7818609E-02  0.8212037E-01
        2   -1    0    0  501    0  0.00000000000E+00  0.00000000000E+00  0.14974091257E+04  0.14974091257E+04  0.25500000920E-02 0. -1.
       -2   -1    0    0    0  501  0.00000000000E+00  0.00000000000E+00 -0.16184636657E+04  0.16184636657E+04  0.25500000920E-02 0.  1.
    10030    2    1    2    0    0  0.00000000000E+00  0.00000000000E+00 -0.12105453993E+03  0.31158727914E+04  0.31135203630E+04 0.  0.
        1    1    3    3  502    0  0.12019565904E+04 -0.54349082336E+03  0.76678975064E+03  0.15257943642E+04  0.50400001928E-02 0.  1.
       -1    1    3    3    0  502 -0.12019565904E+04  0.54349082336E+03 -0.88784429057E+03  0.15900784272E+04  0.50400001928E-02 0. -1.
</event>
<event>
 5   0  0.5001658E-06  0.3017498E+04  0.7818609E-02  0.8238752E-01
        2   -1    0    0  501    0  0.00000000000E+00  0.00000000000E+00  0.15918709266E+04  0.15918709266E+04  0.25500000920E-02 0. -1.
       -2   -1    0    0    0  501  0.00000000000E+00  0.00000000000E+00 -0.14299674305E+04  0.14299674305E+04  0.25500000920E-02 0.  1.
    10030    2    1    2    0    0  0.00000000000E+00  0.00000000000E+00  0.16190349611E+03  0.30218383571E+04  0.30174980222E+04 0.  0.
        3    1    3    3  502    0 -0.45527696617E+03 -0.10319886019E+03 -0.13558232011E+04  0.14339399163E+04  0.10100000352E+00 0.  1.
       -3    1    3    3    0  502  0.45527696617E+03  0.10319886019E+03  0.15177266972E+04  0.15878984408E+04  0.10100000352E+00 0. -1.
</event>
<event>
 5   0  0.1843709E-06  0.3097068E+04  0.7818609E-02  0.8216543E-01
        1   -1    0    0  501    0  0.00000000000E+00  0.00000000000E+00  0.24324108042E+04  0.24324108042E+04  0.50400001928E-02 0.  1.
       -1   -1    0    0    0  501  0.00000000000E+00  0.00000000000E+00 -0.98583563542E+03  0.98583563544E+03  0.50400001928E-02 0. -1.
    10030    2    1    2    0    0  0.00000000000E+00  0.00000000000E+00  0.14465751688E+04  0.34182464396E+04  0.30970678073E+04 0.  0.
        4    1    3    3  502    0 -0.10746437203E+04 -0.65086493291E+03 -0.27583676659E+03  0.12863016058E+04  0.12699999809E+01 0. -1.
       -4    1    3    3    0  502  0.10746437203E+04  0.65086493291E+03  0.17224119354E+04  0.21319448338E+04  0.12699999809E+01 0.  1.
</event>
<event>
 5   0  0.4927533E-06  0.2972145E+04  0.7818609E-02  0.8251730E-01
        2   -1    0    0  501    0  0.00000000000E+00  0.00000000000E+00  0.17664360246E+04  0.17664360246E+04  0.25500000920E-02 0. -1.
       -2   -1    0    0    0  501  0.00000000000E+00  0.00000000000E+00 -0.12502076889E+04  0.12502076889E+04  0.25500000920E-02 0.  1.
    10030    2    1    2    0    0  0.00000000000E+00  0.00000000000E+00  0.51622833569E+03  0.30166437134E+04  0.29721452857E+04 0.  0.
        5    1    3    3  502    0  0.14593901875E+04  0.10104183884E+01  0.54261254263E+03  0.15570071296E+04  0.46999998093E+01 0.  1.
       -5    1    3    3    0  502 -0.14593901875E+04 -0.10104183884E+01 -0.26384206937E+02  0.14596365838E+04  0.46999998093E+01 0. -1.
</event>
<event>
 5   0  0.5114870E-06  0.3052232E+04  0.7818609E-02  0.8228971E-01
        2   -1    0    0  501    0  0.00000000000E+00  0.00000000000E+00  0.22866837588E+04  0.22866837588E+04  0.25500000920E-02 0. -1.
       -2   -1    0    0    0  501  0.00000000000E+00  0.00000000000E+00 -0.10185189203E+04  0.10185189203E+04  0.25500000920E-02 0.  1.
    10030    2    1    2    0    0  0.00000000000E+00  0.00000000000E+00  0.12681648385E+04  0.33052026791E+04  0.30522324113E+04 0.  0.
        2    1    3    3  502    0  0.11691341883E+04 -0.58072587259E+03  0.14901152268E+04  0.19810503978E+04  0.25500000920E-02 0. -1.
       -2    1    3    3    0  502 -0.11691341883E+04  0.58072587259E+03 -0.22195038838E+03  0.13241522813E+04  0.25500000920E-02 0.  1.
</event>
<event>
 5   0  0.5114870E-06  0.3065994E+04  0.7818609E-02  0.8225133E-01
        2   -1    0    0  501    0  0.00000000000E+00  0.00000000000E+00  0.13412427248E+04  0.13412427248E+04  0.25500000920E-02 0.  1.
       -2   -1    0    0    0  501  0.00000000000E+00  0.00000000000E+00 -0.17521657839E+04  0.17521657839E+04  0.25500000920E-02 0. -1.
    10030    2    1    2    0    0  0.00000000000E+00  0.00000000000E+00 -0.41092305910E+03  0.30934085086E+04  0.30659938749E+04 0.  0.
        2    1    3    3  502    0 -0.14850300436E+04  0.36626011567E+03 -0.30943101950E+03  0.15605153823E+04  0.25500000920E-02 0. -1.
       -2    1    3    3    0  502  0.14850300436E+04 -0.36626011567E+03 -0.10149203960E+03  0.15328931263E+04  0.25500000920E-02 0.  1.
</event>
<event>
 5   0  0.1885307E-06  0.3075509E+04  0.7818609E-02  0.8222492E-01
       -1   -1    0    0    0  501  0.00000000000E+00  0.00000000000E+00  0.12245239791E+04  0.12245239791E+04  0.50400001928E-02 0.  1.
        1   -1    0    0  501    0  0.00000000000E+00  0.00000000000E+00 -0.19311083303E+04  0.19311083303E+04  0.50400001928E-02 0. -1.
    10030    2    1    2    0    0  0.00000000000E+00  0.00000000000E+00 -0.70658435122E+03  0.31556323095E+04  0.30755087103E+04 0.  0.
        3    1    3    3  502    0  0.15668643547E+03 -0.13623904218E+04 -0.10671399965E+04  0.17376553407E+04  0.10100000352E+00 0. -1.
       -3    1    3    3    0  502 -0.15668643547E+03  0.13623904218E+04  0.36055564533E+03  0.14179769688E+04  0.10100000352E+00 0.  1.
</event>
<event>
 5   0  0.1836401E-06  0.3125445E+04  0.7818609E-02  0.8208789E-01
       -1   -1    0    0    0  501  0.00000000000E+00  0.00000000000E+00  0.14544841793E+04  0.14544841793E+04  0.50400001928E-02 0.  1.
        1   -1    0    0  501    0  0.00000000000E+00  0.00000000000E+00 -0.16790152747E+04  0.16790152747E+04  0.50400001928E-02 0. -1.
    10030    2    1    2    0    0  0.00000000000E+00  0.00000000000E+00 -0.22453109539E+03  0.31334994541E+04  0.31254447069E+04 0.  0.
        2    1    3    3  502    0 -0.70361795823E+03  0.82050881990E+03 -0.12437964363E+04  0.16478296422E+04  0.25500000920E-02 0. -1.
       -2    1    3    3    0  502  0.70361795823E+03 -0.82050881990E+03  0.10192653409E+04  0.14856698119E+04  0.25500000920E-02 0.  1.
</event>
<event>
 5   0  0.5328368E-06  0.3060192E+04  0.7818609E-02  0.8226749E-01
        2   -1    0    0  501    0  0.00000000000E+00  0.00000000000E+00  0.16360867204E+04  0.16360867204E+04  0.25500000920E-02 0.  1.
       -2   -1    0    0    0  501  0.00000000000E+00  0.00000000000E+00 -0.14309712915E+04  0.14309712915E+04  0.25500000920E-02 0. -1.
    10030    2    1    2    0    0  0.00000000000E+00  0.00000000000E+00  0.20511542889E+03  0.30670580120E+04  0.30601915805E+04 0.  0.
        1    1    3    3  502    0  0.15283495114E+04  0.43824562095E+01  0.29444099781E+02  0.15286393918E+04  0.50400001928E-02 0. -1.
       -1    1    3    3    0  502 -0.15283495114E+04 -0.43824562095E+01  0.17567132911E+03  0.15384186202E+04  0.50400001928E-02 0.  1.
</event>
<event>
 5   0  0.1836401E-06  0.3104363E+04  0.7818609E-02  0.8214542E-01
       -1   -1    0    0    0  501  0.00000000000E+00  0.00000000000E+00  0.23823060725E+04  0.23823060725E+04  0.50400001928E-02 0.  1.
        1   -1    0    0  501    0  0.00000000000E+00  0.00000000000E+00 -0.10113172641E+04  0.10113172641E+04  0.50400001928E-02 0. -1.
    10030    2    1    2    0    0  0.00000000000E+00  0.00000000000E+00  0.13709888084E+04  0.33936233366E+04  0.31043629037E+04 0.  0.
        2    1    3    3  502    0  0.45782117876E+03  0.85710337902E+03 -0.63767672451E+03  0.11622641864E+04  0.25500000920E-02 0. -1.
       -2    1    3    3    0  502 -0.45782117876E+03 -0.85710337902E+03  0.20086655329E+04  0.22313591502E+04  0.25500000920E-02 0.  1.
</event>
<event>
 5   0  0.1853742E-06  0.3090784E+04  0.7818609E-02  0.8218272E-01
       -1   -1    0    0    0  501  0.00000000000E+00  0.00000000000E+00  0.13329595259E+04  0.13329595259E+04  0.50400001928E-02 0. -1.
        1   -1    0    0  501    0  0.00000000000E+00  0.00000000000E+00 -0.17916791936E+04  0.17916791936E+04  0.50400001928E-02 0.  1.
    10030    2    1    2    0    0  0.00000000000E+00  0.00000000000E+00 -0.45871966769E+03  0.31246387196E+04  0.30907836214E+04 0.  0.
        5    1    3    3  502    0 -0.35364800049E+03  0.13812774234E+04 -0.83189115217E+03  0.16507753353E+04  0.46999998093E+01 0. -1.
       -5    1    3    3    0  502  0.35364800049E+03 -0.13812774234E+04  0.37317148448E+03  0.14738633843E+04  0.46999998093E+01 0.  1.
</event>
<event>
 5   0  0.4927533E-06  0.3081018E+04  0.7818609E-02  0.8220967E-01
        2   -1    0    0  501    0  0.00000000000E+00  0.00000000000E+00  0.22880435939E+04  0.22880435939E+04  0.25500000920E-02 0.  1.
       -2   -1    0    0    0  501  0.00000000000E+00  0.00000000000E+00 -0.10372040678E+04  0.10372040678E+04  0.25500000920E-02 0. -1.
    10030    2    1    2    0    0  0.00000000000E+00  0.00000000000E+00  0.12508395261E+04  0.33252476617E+04  0.30810180934E+04 0.  0.
        5    1    3    3  502    0 -0.41593937497E+03  0.21927048376E+03  0.22086972227E+04  0.22581963201E+04  0.46999998093E+01 0.  1.
       -5    1    3    3    0  502  0.41593937497E+03 -0.21927048376E+03 -0.95785769659E+03  0.10670513416E+04  0.46999998093E+01 0. -1.
</event>
<event>
 5   0  0.1836401E-06  0.3153456E+04  0.7818609E-02  0.8201219E-01
        1   -1    0    0  501    0  0.00000000000E+00  0.00000000000E+00  0.23371210894E+04  0.23371210894E+04  0.50400001928E-02 0.  1.
       -1   -1    0    0    0  501  0.00000000000E+00  0.00000000000E+00 -0.10637321024E+04  0.10637321024E+04  0.50400001928E-02 0. -1.
    10030    2    1    2    0    0  0.00000000000E+00  0.00000000000E+00  0.12733889870E+04  0.34008531918E+04  0.31534557108E+04 0.  0.
        2    1    3    3  502    0 -0.14346429657E+04  0.53817452337E+03  0.23572104696E+03  0.15502892209E+04  0.25500000920E-02 0. -1.
       -2    1    3    3    0  502  0.14346429657E+04 -0.53817452337E+03  0.10376679400E+04  0.18505639709E+04  0.25500000920E-02 0.  1.
</event>
<event>
 5   0  0.1885307E-06  0.3110276E+04  0.7818609E-02  0.8212924E-01
        1   -1    0    0  501    0  0.00000000000E+00  0.00000000000E+00  0.16955446610E+04  0.16955446610E+04  0.50400001928E-02 0. -1.
       -1   -1    0    0    0  501  0.00000000000E+00  0.00000000000E+00 -0.14263579689E+04  0.14263579689E+04  0.50400001928E-02 0.  1.
    10030    2    1    2    0    0  0.00000000000E+00  0.00000000000E+00  0.26918669216E+03  0.31219026299E+04  0.31102756398E+04 0.  0.
        3    1    3    3  502    0 -0.86029283387E+02 -0.50282732533E+03  0.16091723865E+04  0.16880971940E+04  0.10100000352E+00 0. -1.
       -3    1    3    3    0  502  0.86029283387E+02  0.50282732533E+03 -0.13399856944E+04  0.14338054359E+04  0.10100000352E+00 0.  1.
</event>
<event>
 5   0  0.1853742E-06  0.3089832E+04  0.7818609E-02  0.8218534E-01
        1   -1    0    0  501    0  0.00000000000E+00  0.00000000000E+00  0.14656669477E+04  0.14656669477E+04  0.50400001928E-02 0. -1.
       -1   -1    0    0    0  501  0.00000000000E+00  0.00000000000E+00 -0.16284502358E+04  0.16284502358E+04  0.50400001928E-02 0.  1.
    10030    2    1    2    0    0  0.00000000000E+00  0.00000000000E+00 -0.16278328816E+03  0.30941171835E+04  0.30898321551E+04 0.  0.
        5    1    3    3  502    0 -0.25811116029E+03  0.47067475884E+03  0.13692675999E+04  0.14707385729E+04  0.46999998093E+01 0. -1.
       -5    1    3    3    0  502  0.25811116029E+03 -0.47067475884E+03 -0.15320508881E+04  0.16233786106E+04  0.46999998093E+01 0.  1.
</event>
<event>
 5   0  0.5114870E-06  0.2290493E+04  0.7818609E-02  0.8481679E-01
       -2   -1    0    0    0  501  0.00000000000E+00  0.00000000000E+00  0.89327518165E+03  0.89327518165E+03  0.25500000920E-02 0.  1.
        2   -1    0    0  501    0  0.00000000000E+00  0.00000000000E+00 -0.14682924115E+04  0.14682924115E+04  0.25500000920E-02 0. -1.
    10030    2    1    2    0    0  0.00000000000E+00  0.00000000000E+00 -0.57501722982E+03  0.23615675931E+04  0.22904926724E+04 0.  0.
        2    1    3    3  502    0 -0.93443626697E+02 -0.11253011338E+04 -0.90382671777E+02  0.11327856727E+04  0.25500000920E-02 0.  1.
       -2    1    3    3    0  502  0.93443626697E+02  0.11253011338E+04 -0.48463455804E+03  0.12287819204E+04  0.25500000920E-02 0. -1.
</event>
<event>
 5   0  0.5001658E-06  0.3068299E+04  0.7818609E-02  0.8224492E-01
        2   -1    0    0  501    0  0.00000000000E+00  0.00000000000E+00  0.19465221801E+04  0.19465221801E+04  0.25500000920E-02 0. -1.
       -2   -1    0    0    0  501  0.00000000000E+00  0.00000000000E+00 -0.12091385509E+04  0.12091385509E+04  0.25500000920E-02 0.  1.
    10030    2    1    2    0    0  0.00000000000E+00  0.00000000000E+00  0.73738362925E+03  0.31556607310E+04  0.30682992084E+04 0.  0.
        3    1    3    3  502    0  0.11957829250E+04 -0.56486961571E+03 -0.43103419052E+03  0.13909582920E+04  0.10100000352E+00 0.  1.
       -3    1    3    3    0  502 -0.11957829250E+04  0.56486961571E+03  0.11684178198E+04  0.17647024390E+04  0.10100000352E+00 0. -1.
</event>
<event>
 5   0  0.1885307E-06  0.3049380E+04  0.7818609E-02  0.8229769E-01
        1   -1    0    0  501    0  0.00000000000E+00  0.00000000000E+00  0.16697538246E+04  0.16697538247E+04  0.50400001928E-02 0.  1.
       -1   -1    0    0    0  501  0.00000000000E+00  0.00000000000E+00 -0.13922292151E+04  0.13922292151E+04  0.50400001928E-02 0. -1.
    10030    2    1    2    0    0  0.00000000000E+00  0.00000000000E+00  0.27752460958E+03  0.30619830397E+04  0.30493803021E+04 0.  0.
        3    1    3    3  502    0 -0.10704069221E+04  0.66323566519E+03 -0.72445769865E+03  0.14527530740E+04  0.10100000352E+00 0. -1.
       -3    1    3    3    0  502  0.10704069221E+04 -0.66323566519E+03  0.10019823082E+04  0.16092299658E+04  0.10100000352E+00 0.  1.
</event>
<event>
 5   0  0.5328368E-06  0.3108336E+04  0.7818609E-02  0.8213454E-01
        2   -1    0    0  501    0  0.00000000000E+00  0.00000000000E+00  0.22083549160E+04  0.22083549160E+04  0.25500000920E-02 0.  1.
       -2   -1    0    0    0  501  0.00000000000E+00  0.00000000000E+00 -0.10937726058E+04  0.10937726058E+04  0.25500000920E-02 0. -1.
    10030    2    1    2    0    0  0.00000000000E+00  0.00000000000E+00  0.11145823102E+04  0.33021275218E+04  0.31083359606E+04 0.  0.
        1    1    3    3  502    0  0.81281555098E+03 -0.84820959916E+03  0.16382296431E+04  0.20159179069E+04  0.50400001928E-02 0.  1.
       -1    1    3    3    0  502 -0.81281555098E+03  0.84820959916E+03 -0.52364733291E+03  0.12862096148E+04  0.50400001928E-02 0. -1.
</event>
<event>
 5   0  0.5328368E-06  0.3259383E+04  0.7818609E-02  0.8173308E-01
       -2   -1    0    0    0  501  0.00000000000E+00  0.00000000000E+00  0.12254658201E+04  0.12254658201E+04  0.25500000920E-02 0.  1.
        2   -1    0    0  501    0  0.00000000000E+00  0.00000000000E+00 -0.21672535575E+04  0.21672535575E+04  0.25500000920E-02 0. -1.
    10030    2    1    2    0    0  0.00000000000E+00  0.00000000000E+00 -0.94178773735E+03  0.33927193776E+04  0.32593834743E+04 0.  0.
        1    1    3    3  502    0  0.86106869878E+03 -0.12813881385E+04  0.72476518776E+02  0.15455250600E+04  0.50400001928E-02 0.  1.
       -1    1    3    3    0  502 -0.86106869878E+03  0.12813881385E+04 -0.10142642561E+04  0.18471943175E+04  0.50400001928E-02 0. -1.
</event>
<event>
 5   0  0.4927533E-06  0.3034439E+04  0.7818609E-02  0.8233964E-01
        2   -1    0    0  501    0  0.00000000000E+00  0.00000000000E+00  0.17192935061E+04  0.17192935061E+04  0.25500000920E-02 0. -1.
       -2   -1    0    0    0  501  0.00000000000E+00  0.00000000000E+00 -0.13388958146E+04  0.13388958146E+04  0.25500000920E-02 0.  1.
    10030    2    1    2    0    0  0.00000000000E+00  0.00000000000E+00  0.38039769144E+03  0.30581893207E+04  0.30344389131E+04 0.  0.
        5    1    3    3  502    0  0.46599185269E+03 -0.11288020136E+04  0.10975736077E+04  0.16419598981E+04  0.46999998093E+01 0. -1.
       -5    1    3    3    0  502 -0.46599185269E+03  0.11288020136E+04 -0.71717591622E+03  0.14162294226E+04  0.46999998093E+01 0.  1.
</event>
<event>
 5   0  0.5001658E-06  0.2944028E+04  0.7818609E-02  0.8259897E-01
       -2   -1    0    0    0  501  0.00000000000E+00  0.00000000000E+00  0.15952126863E+04  0.15952126863E+04  0.25500000920E-02 0. -1.
        2   -1    0    0  501    0  0.00000000000E+00  0.00000000000E+00 -0.13583298470E+04  0.13583298470E+04  0.25500000920E-02 0.  1.
    10030    2    1    2    0    0  0.00000000000E+00  0.00000000000E+00  0.23688283930E+03  0.29535425334E+04  0.29440278560E+04 0.  0.
        3    1    3    3  502    0 -0.16178398865E+03 -0.51948609411E+03  0.14906283216E+04  0.15868247112E+04  0.10100000352E+00 0. -1.
       -3    1    3    3    0  502  0.16178398865E+03  0.51948609411E+03 -0.12537454823E+04  0.13667178222E+04  0.10100000352E+00 0.  1.
</event>
<event>
 5   0  0.1840431E-06  0.3079002E+04  0.7818609E-02  0.8221524E-01
       -1   -1    0    0    0  501  0.00000000000E+00  0.00000000000E+00  0.20535352713E+04  0.20535352713E+04  0.50400001928E-02 0. -1.
        1   -1    0    0  501    0  0.00000000000E+00  0.00000000000E+00 -0.11541382566E+04  0.11541382566E+04  0.50400001928E-02 0.  1.
    10030    2    1    2    0    0  0.00000000000E+00  0.00000000000E+00  0.89939701473E+03  0.32076735278E+04  0.30790021876E+04 0.  0.
        1    1    3    3  502    0  0.40431270245E+03  0.12407001244E+04  0.13006936400E+04  0.18424466085E+04  0.50400001928E-02 0. -1.
       -1    1    3    3    0  502 -0.40431270245E+03 -0.12407001244E+04 -0.40129662526E+03  0.13652269194E+04  0.50400001928E-02 0.  1.
</event>
<event>
 5   0  0.1840431E-06  0.3091257E+04  0.7818609E-02  0.8218142E-01
        1   -1    0    0  501    0  0.00000000000E+00  0.00000000000E+00  0.19138841910E+04  0.19138841910E+04  0.50400001928E-02 0.  1.
       -1   -1    0    0    0  501  0.00000000000E+00  0.00000000000E+00 -0.12482296031E+04  0.12482296031E+04  0.50400001928E-02 0. -1.
    10030    2    1    2    0    0  0.00000000000E+00  0.00000000000E+00  0.66565458790E+03  0.31621137941E+04  0.30912566404E+04 0.  0.
        1    1    3    3  502    0  0.93237032130E+03  0.17706958374E+03 -0.91509489144E+03  0.13183575820E+04  0.50400001928E-02 0. -1.
       -1    1    3    3    0  502 -0.93237032130E+03 -0.17706958374E+03  0.15807494793E+04  0.18437562122E+04  0.50400001928E-02 0.  1.
</event>
<event>
 5   0  0.1885307E-06  0.3073155E+04  0.7818609E-02  0.8223144E-01
        1   -1    0    0  501    0  0.00000000000E+00  0.00000000000E+00  0.12208641448E+04  0.12208641448E+04  0.50400001928E-02 0.  1.
       -1   -1    0    0    0  501  0.00000000000E+00  0.00000000000E+00 -0.19339332654E+04  0.19339332654E+04  0.50400001928E-02 0. -1.
    10030    2    1    2    0    0  0.00000000000E+00  0.00000000000E+00 -0.71306912056E+03  0.31547974102E+04  0.30731545892E+04 0.  0.
        3    1    3    3  502    0  0.53191116943E+03 -0.20821953933E+03  0.11078202625E+04  0.12464151046E+04  0.10100000352E+00 0.  1.
       -3    1    3    3    0  502 -0.53191116943E+03  0.20821953933E+03 -0.18208893831E+04  0.19083823056E+04  0.10100000352E+00 0. -1.
</event>
<event>
 5   0  0.4927533E-06  0.3121319E+04  0.7818609E-02  0.8209911E-01
        2   -1    0    0  501    0  0.00000000000E+00  0.00000000000E+00  0.13601662317E+04  0.13601662317E+04  0.25500000920E-02 0. -1.
       -2   -1    0    0    0  501  0.00000000000E+00  0.00000000000E+00 -0.17907060780E+04  0.17907060780E+04  0.25500000920E-02 0.  1.
    10030    2    1    2    0    0  0.00000000000E+00  0.00000000000E+00 -0.43053984632E+03  0.31508723096E+04  0.31213189123E+04 0.  0.
        5    1    3    3  502    0 -0.14085586734E+04 -0.20269412976E+02  0.46279483267E+03  0.14827843851E+04  0.46999998093E+01 0. -1.
       -5    1    3    3    0  502  0.14085586734E+04  0.20269412976E+02 -0.89333467899E+03  0.16680879246E+04  0.46999998093E+01 0.  1.
</event>
<event>
 5   0  0.5328368E-06  0.3123250E+04  0.7818609E-02  0.8209386E-01
        2   -1    0    0  501    0  0.00000000000E+00  0.00000000000E+00  0.18160119851E+04  0.18160119851E+04  0.25500000920E-02 0.  1.
       -2   -1    0    0    0  501  0.00000000000E+00  0.00000000000E+00 -0.13428722941E+04  0.13428722941E+04  0.25500000920E-02 0. -1.
    10030    2    1    2    0    0  0.00000000000E+00  0.00000000000E+00  0.47313969095E+03  0.31588842792E+04  0.31232497054E+04 0.  0.
        1    1    3    3  502    0  0.14086506592E+04 -0.60189427204E+03  0.54351017980E+03  0.16254158576E+04  0.50400001928E-02 0.  1.
       -1    1    3    3    0  502 -0.14086506592E+04  0.60189427204E+03 -0.70370488850E+02  0.15334684217E+04  0.50400001928E-02 0. -1.
</event>
<event>
 5   0  0.1853742E-06  0.2240640E+04  0.7818609E-02  0.8501701E-01
       -1   -1    0    0    0  501  0.00000000000E+00  0.00000000000E+00  0.73549789076E+03  0.73549789078E+03  0.50400001928E-02 0.  1.
        1   -1    0    0  501    0  0.00000000000E+00  0.00000000000E+00 -0.17064864435E+04  0.17064864435E+04  0.50400001928E-02 0. -1.
    10030    2    1    2    0    0  0.00000000000E+00  0.00000000000E+00 -0.97098855276E+03  0.24419843343E+04  0.22406402476E+04 0.  0.
        5    1    3    3  502    0  0.52417813042E+03 -0.55778700268E+03 -0.13770544619E+04  0.15754967895E+04  0.46999998093E+01 0. -1.
       -5    1    3    3    0  502 -0.52417813042E+03  0.55778700268E+03  0.40606590910E+03  0.86648754481E+03  0.46999998093E+01 0.  1.
</event>
<event>
 5   0  0.1853742E-06  0.3132703E+04  0.7818609E-02  0.8206820E-01
       -1   -1    0    0    0  501  0.00000000000E+00  0.00000000000E+00  0.13155063985E+04  0.13155063985E+04  0.50400001928E-02 0.  1.
        1   -1    0    0  501    0  0.00000000000E+00  0.00000000000E+00 -0.18650284212E+04  0.18650284212E+04  0.50400001928E-02 0. -1.
    10030    2    1    2    0    0  0.00000000000E+00  0.00000000000E+00 -0.54952202265E+03  0.31805348197E+04  0.31327028723E+04 0.  0.
        5    1    3    3  502    0 -0.68197300445E+03  0.12666774983E+04 -0.90379808438E+03  0.16989503026E+04  0.46999998093E+01 0. -1.
       -5    1    3    3    0  502  0.68197300445E+03 -0.12666774983E+04  0.35427606172E+03  0.14815845171E+04  0.46999998093E+01 0.  1.
</event>
<event>
 5   0  0.5328368E-06  0.3036754E+04  0.7818609E-02  0.8233313E-01
        2   -1    0    0  501    0  0.00000000000E+00  0.00000000000E+00  0.21080751420E+04  0.21080751420E+04  0.25500000920E-02 0. -1.
       -2   -1    0    0    0  501  0.00000000000E+00  0.00000000000E+00 -0.10936371402E+04  0.10936371402E+04  0.25500000920E-02 0.  1.
    10030    2    1    2    0    0  0.00000000000E+00  0.00000000000E+00  0.10144380018E+04  0.32017122823E+04  0.30367543659E+04 0.  0.
        1    1    3    3  502    0  0.41545674823E+03 -0.10439260328E+04  0.15840118284E+04  0.19420296970E+04  0.50400001928E-02 0. -1.
       -1    1    3    3    0  502 -0.41545674823E+03  0.10439260328E+04 -0.56957382658E+03  0.12596825852E+04  0.50400001928E-02 0.  1.
</event>
<event>
 5   0  0.1885307E-06  0.3153949E+04  0.7818609E-02  0.8201086E-01
        1   -1    0    0  501    0  0.00000000000E+00  0.00000000000E+00  0.92372211545E+03  0.92372211547E+03  0.50400001928E-02 0. -1.
       -1   -1    0    0    0  501  0.00000000000E+00  0.00000000000E+00 -0.26922040368E+04  0.26922040368E+04  0.50400001928E-02 0.  1.
    10030    2    1    2    0    0  0.00000000000E+00  0.00000000000E+00 -0.17684819213E+04  0.36159261522E+04  0.31539488950E+04 0.  0.
        3    1    3    3  502    0 -0.12679299975E+04 -0.70616603027E+03 -0.17701176238E+03  0.14620704891E+04  0.10100000352E+00 0. -1.
       -3    1    3    3    0  502  0.12679299975E+04  0.70616603027E+03 -0.15914701589E+04  0.21538556632E+04  0.10100000352E+00 0.  1.
</event>
<event>
 5   0  0.1836401E-06  0.2981431E+04  0.7818609E-02  0.8249053E-01
        1   -1    0    0  501    0  0.00000000000E+00  0.00000000000E+00  0.19262957282E+04  0.19262957282E+04  0.50400001928E-02 0. -1.
       -1   -1    0    0    0  501  0.00000000000E+00  0.00000000000E+00 -0.11536297124E+04  0.11536297124E+04  0.50400001928E-02 0.  1.
    10030    2    1    2    0    0  0.00000000000E+00  0.00000000000E+00  0.77266601573E+03  0.30799254406E+04  0.29814305204E+04 0.  0.
        2    1    3    3  502    0  0.76708756844E+03  0.63501969059E+03  0.15322856428E+04  0.18274497630E+04  0.25500000920E-02 0.  1.
       -2    1    3    3    0  502 -0.76708756844E+03 -0.63501969059E+03 -0.75961962709E+03  0.12524756776E+04  0.25500000920E-02 0. -1.
</event>
<event>
 5   0  0.1843709E-06  0.3154712E+04  0.7818609E-02  0.8200881E-01
       -1   -1    0    0    0  501  0.00000000000E+00  0.00000000000E+00  0.15995400832E+04  0.15995400832E+04  0.50400001928E-02 0. -1.
        1   -1    0    0  501    0  0.00000000000E+00  0.00000000000E+00 -0.15554800772E+04  0.15554800772E+04  0.50400001928E-02 0.  1.
    10030    2    1    2    0    0  0.00000000000E+00  0.00000000000E+00  0.44060005990E+02  0.31550201605E+04  0.31547124954E+04 0.  0.
        4    1    3    3  502    0 -0.79618365748E+03 -0.72594069298E+03  0.11741635405E+04  0.15935996797E+04  0.12699999809E+01 0. -1.
       -4    1    3    3    0  502  0.79618365748E+03  0.72594069298E+03 -0.11301035346E+04  0.15614204808E+04  0.12699999809E+01 0.  1.
</event>
<event>
 5   0  0.1843709E-06  0.3088629E+04  0.7818609E-02  0.8218866E-01
        1   -1    0    0  501    0  0.00000000000E+00  0.00000000000E+00  0.19812370157E+04  0.19812370157E+04  0.50400001928E-02 0.  1.
       -1   -1    0    0    0  501  0.00000000000E+00  0.00000000000E+00 -0.12037462201E+04  0.12037462201E+04  0.50400001928E-02 0. -1.
    10030    2    1    2    0    0  0.00000000000E+00  0.00000000000E+00  0.77749079555E+03  0.31849832358E+04  0.30886285428E+04 0.  0.
        4    1    3    3  502    0 -0.52119673571E+03  0.41328720091E+03  0.18259436688E+04  0.19433281355E+04  0.12699999809E+01 0.  1.
       -4    1    3    3    0  502  0.52119673571E+03 -0.41328720091E+03 -0.10484528733E+04  0.12416551003E+04  0.12699999809E+01 0. -1.
</event>
<event>
 5   0  0.1840431E-06  0.3032165E+04  0.7818609E-02  0.8234605E-01
       -1   -1    0    0    0  501  0.00000000000E+00  0.00000000000E+00  0.91988733720E+03  0.91988733721E+03  0.50400001928E-02 0.  1.
        1   -1    0    0  501    0  0.00000000000E+00  0.00000000000E+00 -0.24986814382E+04  0.24986814382E+04  0.50400001928E-02 0. -1.
    10030    2    1    2    0    0  0.00000000000E+00  0.00000000000E+00 -0.15787941010E+04  0.34185687754E+04  0.30321645171E+04 0.  0.
        1    1    3    3  502    0  0.44461829886E+03  0.37088282646E+03 -0.23691207125E+04  0.24388465415E+04  0.50400001928E-02 0. -1.
       -1    1    3    3    0  502 -0.44461829886E+03 -0.37088282646E+03  0.79032661152E+03  0.97972223388E+03  0.50400001928E-02 0.  1.
</event>
<event>
 5   0  0.1885307E-06  0.3044223E+04  0.7818609E-02  0.8231214E-01
        1   -1    0    0  501    0  0.00000000000E+00  0.00000000000E+00  0.12104674302E+04  0.12104674302E+04  0.50400001928E-02 0. -1.
       -1   -1    0    0    0  501  0.00000000000E+00  0.00000000000E+00 -0.19139902239E+04  0.19139902239E+04  0.50400001928E-02 0.  1.
    10030    2    1    2    0    0  0.00000000000E+00  0.00000000000E+00 -0.70352279370E+03  0.31244576542E+04  0.30442226120E+04 0.  0.
        3    1    3    3  502    0  0.43665874773E+03 -0.14469532311E+04 -0.53672867176E+03  0.16038772373E+04  0.10100000352E+00 0. -1.
       -3    1    3    3    0  502 -0.43665874773E+03  0.14469532311E+04 -0.16679412194E+03  0.15205804169E+04  0.10100000352E+00 0.  1.
</event>
<event>
 5   0  0.1843709E-06  0.3093918E+04  0.7818609E-02  0.8217409E-01
       -1   -1    0    0    0  501  0.00000000000E+00  0.00000000000E+00  0.22074176495E+04  0.22074176495E+04  0.50400001928E-02 0.  1.
        1   -1    0    0  501    0  0.00000000000E+00  0.00000000000E+00 -0.10841092647E+04  0.10841092647E+04  0.50400001928E-02 0. -1.
    10030    2    1    2    0    0  0.00000000000E+00  0.00000000000E+00  0.11233083848E+04  0.32915269142E+04  0.30939178560E+04 0.  0.
        4    1    3    3  502    0 -0.10310594682E+04  0.49027834397E+03 -0.54886719777E+03  0.12667727876E+04  0.12699999809E+01 0. -1.
       -4    1    3    3    0  502  0.10310594682E+04 -0.49027834397E+03  0.16721755825E+04  0.20247541266E+04  0.12699999809E+01 0.  1.
</event>
<event>
 5   0  0.4927533E-06  0.3093738E+04  0.7818609E-02  0.8217459E-01
       -2   -1    0    0    0  501  0.00000000000E+00  0.00000000000E+00  0.12248644482E+04  0.12248644482E+04  0.25500000920E-02 0.  1.
        2   -1    0    0  501    0  0.00000000000E+00  0.00000000000E+00 -0.19535248010E+04  0.19535248010E+04  0.25500000920E-02 0. -1.
    10030    2    1    2    0    0  0.00000000000E+00  0.00000000000E+00 -0.72866035283E+03  0.31783892492E+04  0.30937375954E+04 0.  0.
        5    1    3    3  502    0 -0.42523511573E+02 -0.86310981553E+03 -0.16824060020E+04  0.18913695694E+04  0.46999998093E+01 0. -1.
       -5    1    3    3    0  502  0.42523511573E+02  0.86310981553E+03  0.95374564915E+03  0.12870196797E+04  0.46999998093E+01 0.  1.
</event>
<event>
 5   0  0.1836401E-06  0.3110000E+04  0.7818609E-02  0.8212999E-01
       -1   -1    0    0    0  501  0.00000000000E+00  0.00000000000E+00  0.16871318770E+04  0.16871318770E+04  0.50400001928E-02 0.  1.
        1   -1    0    0  501    0  0.00000000000E+00  0.00000000000E+00 -0.14332167017E+04  0.14332167017E+04  0.50400001928E-02 0. -1.
    10030    2    1    2    0    0  0.00000000000E+00  0.00000000000E+00  0.25391517528E+03  0.31203485786E+04  0.31100003756E+04 0.  0.
        2    1    3    3  502    0  0.88983718109E+03  0.12025932121E+04 -0.29870036944E+03  0.15255368083E+04  0.25500000920E-02 0.  1.
       -2    1    3    3    0  502 -0.88983718109E+03 -0.12025932121E+04  0.55261554472E+03  0.15948117704E+04  0.25500000920E-02 0. -1.
</event>
<event>
 5   0  0.1885307E-06  0.3164354E+04  0.7818609E-02  0.8198295E-01
       -1   -1    0    0    0  501  0.00000000000E+00  0.00000000000E+00  0.10412815351E+04  0.10412815352E+04  0.50400001928E-02 0. -1.
        1   -1    0    0  501    0  0.00000000000E+00  0.00000000000E+00 -0.24040412161E+04  0.24040412161E+04  0.50400001928E-02 0.  1.
    10030    2    1    2    0    0  0.00000000000E+00  0.00000000000E+00 -0.13627596810E+04  0.34453227513E+04  0.31643537906E+04 0.  0.
        3    1    3    3  502    0  0.14834309522E+04 -0.46144566535E+03 -0.35513406311E+03  0.15936184314E+04  0.10100000352E+00 0. -1.
       -3    1    3    3    0  502 -0.14834309522E+04  0.46144566535E+03 -0.10076256179E+04  0.18517043198E+04  0.10100000352E+00 0.  1.
</event>
<event>
 5   0  0.1836401E-06  0.3114434E+04  0.7818609E-02  0.8211788E-01
       -1   -1    0    0    0  501  0.00000000000E+00  0.00000000000E+00  0.14972397417E+04  0.14972397417E+04  0.50400001928E-02 0. -1.
        1   -1    0    0  501    0  0.00000000000E+00  0.00000000000E+00 -0.16195968736E+04  0.16195968736E+04  0.50400001928E-02 0.  1.
    10030    2    1    2    0    0  0.00000000000E+00  0.00000000000E+00 -0.12235713191E+03  0.31168366153E+04  0.31144340125E+04 0.  0.
        2    1    3    3  502    0 -0.58932995054E+03  0.14354596864E+04  0.69576360482E+02  0.15532852834E+04  0.25500000920E-02 0.  1.
       -2    1    3    3    0  502  0.58932995054E+03 -0.14354596864E+04 -0.19193349240E+03  0.15635513318E+04  0.25500000920E-02 0. -1.
</event>
<event>
 5   0  0.5328368E-06  0.3068123E+04  0.7818609E-02  0.8224541E-01
        2   -1    0    0  501    0  0.00000000000E+00  0.00000000000E+00  0.14610319840E+04  0.14610319840E+04  0.25500000920E-02 0. -1.
       -2   -1    0    0    0  501  0.00000000000E+00  0.00000000000E+00 -0.16107417817E+04  0.16107417817E+04  0.25500000920E-02 0.  1.
    10030    2    1    2    0    0  0.00000000000E+00  0.00000000000E+00 -0.14970979778E+03  0.30717737657E+04  0.30681233750E+04 0.  0.
        1    1    3    3  502    0  0.59942354660E+03 -0.96268406738E+03 -0.11091745867E+04  0.15862967773E+04  0.50400001928E-02 0.  1.
       -1    1    3    3    0  502 -0.59942354660E+03  0.96268406738E+03  0.95946478895E+03  0.14854769884E+04  0.50400001928E-02 0. -1.
</event>
<event>
 5   0  0.1840431E-06  0.3105856E+04  0.7818609E-02  0.8214133E-01
       -1   -1    0    0    0  501  0.00000000000E+00  0.00000000000E+00  0.83814424842E+03  0.83814424843E+03  0.50400001928E-02 0.  1.
        1   -1    0    0  501    0  0.00000000000E+00  0.00000000000E+00 -0.28772923889E+04  0.28772923889E+04  0.50400001928E-02 0. -1.
    10030    2    1    2    0    0  0.00000000000E+00  0.00000000000E+00 -0.20391481405E+04  0.37154366373E+04  0.31058564466E+04 0.  0.
        1    1    3    3  502    0 -0.93874552449E+03  0.93690611477E+03 -0.19859260129E+04  0.23880825690E+04  0.50400001928E-02 0. -1.
       -1    1    3    3    0  502  0.93874552449E+03 -0.93690611477E+03 -0.53222127512E+02  0.13273540683E+04  0.50400001928E-02 0.  1.
</event>
<event>
 5   0  0.5114870E-06  0.3143495E+04  0.7818609E-02  0.8203901E-01
       -2   -1    0    0    0  501  0.00000000000E+00  0.00000000000E+00  0.14791310188E+04  0.14791310188E+04  0.25500000920E-02 0. -1.
        2   -1    0    0  501    0  0.00000000000E+00  0.00000000000E+00 -0.16701634679E+04  0.16701634679E+04  0.25500000920E-02 0.  1.
    10030    2    1    2    0    0  0.00000000000E+00  0.00000000000E+00 -0.19103244909E+03  0.31492944867E+04  0.31434952470E+04 0.  0.
        2    1    3    3  502    0  0.14006630207E+04 -0.71307952898E+03 -0.10269042714E+03  0.15750824219E+04  0.25500000920E-02 0. -1.
       -2    1    3    3    0  502 -0.14006630207E+04  0.71307952898E+03 -0.88342021958E+02  0.15742120648E+04  0.25500000920E-02 0.  1.
</event>
<event>
 5   0  0.1649875E-06  0.3057847E+04  0.7818609E-02  0.8227403E-01
        3   -1    0    0  501    0  0.00000000000E+00  0.00000000000E+00  0.25750528016E+04  0.25750528036E+04  0.10100000352E+00 0.  1.
       -3   -1    0    0    0  501  0.00000000000E+00  0.00000000000E+00 -0.90778984703E+03  0.90778985265E+03  0.10100000352E+00 0. -1.
    10030    2    1    2    0    0  0.00000000000E+00  0.00000000000E+00  0.16672629546E+04  0.34828426562E+04  0.30578468255E+04 0.  0.
        5    1    3    3  502    0 -0.81333611467E+03  0.48650281174E+03  0.22001215379E+04  0.23955703899E+04  0.46999998093E+01 0.  1.
       -5    1    3    3    0  502  0.81333611467E+03 -0.48650281174E+03 -0.53285858337E+03  0.10872722663E+04  0.46999998093E+01 0. -1.
</event>
<event>
 5   0  0.1840431E-06  0.2999364E+04  0.7818609E-02  0.8243913E-01
        1   -1    0    0  501    0  0.00000000000E+00  0.00000000000E+00  0.14196179995E+04  0.14196179995E+04  0.50400001928E-02 0.  1.
       -1   -1    0    0    0  501  0.00000000000E+00  0.00000000000E+00 -0.15842609942E+04  0.15842609942E+04  0.50400001928E-02 0. -1.
    10030    2    1    2    0    0  0.00000000000E+00  0.00000000000E+00 -0.16464299462E+03  0.30038789937E+04  0.29993635480E+04 0.  0.
        1    1    3    3  502    0 -0.47761369575E+03  0.65239703666E+03 -0.13472782852E+04  0.15712719414E+04  0.50400001928E-02 0. -1.
       -1    1    3    3    0  502  0.47761369575E+03 -0.65239703666E+03  0.11826352906E+04  0.14326070524E+04  0.50400001928E-02 0.  1.
</event>
<event>
 5   0  0.1885307E-06  0.2835931E+04  0.7818609E-02  0.8292199E-01
        1   -1    0    0  501    0  0.00000000000E+00  0.00000000000E+00  0.16408064623E+04  0.16408064624E+04  0.50400001928E-02 0.  1.
       -1   -1    0    0    0  501  0.00000000000E+00  0.00000000000E+00 -0.12253890770E+04  0.12253890770E+04  0.50400001928E-02 0. -1.
    10030    2    1    2    0    0  0.00000000000E+00  0.00000000000E+00  0.41541738531E+03  0.28661955394E+04  0.28359311109E+04 0.  0.
        3    1    3    3  502    0  0.13503607608E+04 -0.39394930323E+03  0.38837901152E+03  0.14592835586E+04  0.10100000352E+00 0.  1.
       -3    1    3    3    0  502 -0.13503607608E+04  0.39394930323E+03  0.27038373788E+02  0.14069119808E+04  0.10100000352E+00 0. -1.
</event>
<event>
 5   0  0.5001658E-06  0.3102373E+04  0.7818609E-02  0.8215087E-01
        2   -1    0    0  501    0  0.00000000000E+00  0.00000000000E+00  0.21181966275E+04  0.21181966275E+04  0.25500000920E-02 0.  1.
       -2   -1    0    0    0  501  0.00000000000E+00  0.00000000000E+00 -0.11359564089E+04  0.11359564089E+04  0.25500000920E-02 0. -1.
    10030    2    1    2    0    0  0.00000000000E+00  0.00000000000E+00  0.98224021867E+03  0.32541530364E+04  0.31023726625E+04 0.  0.
        3    1    3    3  502    0 -0.54381758653E+03  0.11999263537E+04  0.13500973892E+04  0.18863519800E+04  0.10100000352E+00 0.  1.
       -3    1    3    3    0  502  0.54381758653E+03 -0.11999263537E+04 -0.36785717057E+03  0.13678010564E+04  0.10100000352E+00 0. -1.
</event>
<event>
 5   0  0.4900679E-06  0.3042954E+04  0.7818609E-02  0.8231570E-01
        2   -1    0    0  501    0  0.00000000000E+00  0.00000000000E+00  0.12195117523E+04  0.12195117523E+04  0.25500000920E-02 0.  1.
       -2   -1    0    0    0  501  0.00000000000E+00  0.00000000000E+00 -0.18982123478E+04  0.18982123478E+04  0.25500000920E-02 0. -1.
    10030    2    1    2    0    0  0.00000000000E+00  0.00000000000E+00 -0.67870059554E+03  0.31177241001E+04  0.30429540032E+04 0.  0.
        4    1    3    3  502    0  0.53458909798E+03 -0.14093735043E+04 -0.55124466281E+03  0.16049895543E+04  0.12699999809E+01 0.  1.
       -4    1    3    3    0  502 -0.53458909798E+03  0.14093735043E+04 -0.12745593274E+03  0.15127345458E+04  0.12699999809E+01 0. -1.
</event>
<event>
 5   0  0.1840431E-06  0.3098255E+04  0.7818609E-02  0.8216217E-01
        1   -1    0    0  501    0  0.00000000000E+00  0.00000000000E+00  0.22030535437E+04  0.22030535437E+04  0.50400001928E-02 0.  1.
       -1   -1    0    0    0  501  0.00000000000E+00  0.00000000000E+00 -0.10893044258E+04  0.10893044258E+04  0.50400001928E-02 0. -1.
    10030    2    1    2    0    0  0.00000000000E+00  0.00000000000E+00  0.11137491180E+04  0.32923579695E+04  0.30982549769E+04 0.  0.
        1    1    3    3  502    0  0.83369605596E+03  0.13054725059E+04  0.53339030233E+03  0.16382346572E+04  0.50400001928E-02 0. -1.
       -1    1    3    3    0  502 -0.83369605596E+03 -0.13054725059E+04  0.58035881563E+03  0.16541233123E+04  0.50400001928E-02 0.  1.
</event>
<event>
 5   0  0.1853742E-06  0.3392494E+04  0.7818609E-02  0.8139751E-01
       -1   -1    0    0    0  501  0.00000000000E+00  0.00000000000E+00  0.12065778687E+04  0.12065778687E+04  0.50400001928E-02 0.  1.
        1   -1    0    0  501    0  0.00000000000E+00  0.00000000000E+00 -0.23846405989E+04  0.23846405989E+04  0.50400001928E-02 0. -1.
    10030    2    1    2    0    0  0.00000000000E+00  0.00000000000E+00 -0.11780627302E+04  0.35912184677E+04  0.33924944047E+04 0.  0.
        5    1    3    3  502    0  0.12577811253E+04 -0.37986564682E+02  0.61504007421E+03  0.14006258320E+04  0.46999998093E+01 0.  1.
       -5    1    3    3    0  502 -0.12577811253E+04  0.37986564682E+02 -0.17931028044E+04  0.21905926357E+04  0.46999998093E+01 0. -1.
</event>
<event>
 5   0  0.5001658E-06  0.3104428E+04  0.7818609E-02  0.8214524E-01
       -2   -1    0    0    0  501  0.00000000000E+00  0.00000000000E+00  0.14362502808E+04  0.14362502808E+04  0.25500000920E-02 0.  1.
        2   -1    0    0  501    0  0.00000000000E+00  0.00000000000E+00 -0.16775407064E+04  0.16775407064E+04  0.25500000920E-02 0. -1.
    10030    2    1    2    0    0  0.00000000000E+00  0.00000000000E+00 -0.24129042563E+03  0.31137909873E+04  0.31044280057E+04 0.  0.
        3    1    3    3  502    0 -0.75763764205E+03  0.11827361763E+04 -0.78331067777E+03  0.16082460283E+04  0.10100000352E+00 0. -1.
       -3    1    3    3    0  502  0.75763764205E+03 -0.11827361763E+04  0.54202025213E+03  0.15055449589E+04  0.10100000352E+00 0.  1.
</event>
<event>
 5   0  0.1843709E-06  0.2574241E+04  0.7818609E-02  0.8377004E-01
        1   -1    0    0  501    0  0.00000000000E+00  0.00000000000E+00  0.12504992393E+04  0.12504992393E+04  0.50400001928E-02 0.  1.
       -1   -1    0    0    0  501  0.00000000000E+00  0.00000000000E+00 -0.13248145833E+04  0.13248145833E+04  0.50400001928E-02 0. -1.
    10030    2    1    2    0    0  0.00000000000E+00  0.00000000000E+00 -0.74315343956E+02  0.25753138226E+04  0.25742413474E+04 0.  0.
        4    1    3    3  502    0  0.38612888205E+03 -0.36963960427E+03  0.11342054772E+04  0.12538551064E+04  0.12699999809E+01 0.  1.
       -4    1    3    3    0  502 -0.38612888205E+03  0.36963960427E+03 -0.12085208211E+04  0.13214587162E+04  0.12699999809E+01 0. -1.
</event>
<event>
 5   0  0.5001658E-06  0.2647271E+04  0.7818609E-02  0.8352319E-01
       -2   -1    0    0    0  501  0.00000000000E+00  0.00000000000E+00  0.11531672023E+04  0.11531672023E+04  0.25500000920E-02 0. -1.
        2   -1    0    0  501    0  0.00000000000E+00  0.00000000000E+00 -0.15193033369E+04  0.15193033369E+04  0.25500000920E-02 0.  1.
    10030    2    1    2    0    0  0.00000000000E+00  0.00000000000E+00 -0.36613613466E+03  0.26724705392E+04  0.26472708803E+04 0.  0.
        3    1    3    3  502    0 -0.83575455037E+02 -0.68133878210E+03  0.95943079317E+03  0.11797096464E+04  0.10100000352E+00 0. -1.
       -3    1    3    3    0  502  0.83575455037E+02  0.68133878210E+03 -0.13255669278E+04  0.14927608928E+04  0.10100000352E+00 0.  1.
</event>
<event>
 5   0  0.1649875E-06  0.3072459E+04  0.7818609E-02  0.8223337E-01
        3   -1    0    0  501    0  0.00000000000E+00  0.00000000000E+00  0.12588445399E+04  0.12588445440E+04  0.10100000352E+00 0.  1.
       -3   -1    0    0    0  501  0.00000000000E+00  0.00000000000E+00 -0.18747358913E+04  0.18747358940E+04  0.10100000352E+00 0. -1.
    10030    2    1    2    0    0  0.00000000000E+00  0.00000000000E+00 -0.61589135135E+03  0.31335804380E+04  0.30724589834E+04 0.  0.
        3    1    3    3  502    0  0.13771783973E+03  0.63542732861E+03 -0.17274917334E+04  0.18457957072E+04  0.10100000352E+00 0. -1.
       -3    1    3    3    0  502 -0.13771783973E+03 -0.63542732861E+03  0.11116003821E+04  0.12877847308E+04  0.10100000352E+00 0.  1.
</event>
<event>
 5   0  0.1836401E-06  0.3090396E+04  0.7818609E-02  0.8218379E-01
        1   -1    0    0  501    0  0.00000000000E+00  0.00000000000E+00  0.14987229283E+04  0.14987229283E+04  0.50400001928E-02 0.  1.
       -1   -1    0    0    0  501  0.00000000000E+00  0.00000000000E+00 -0.15931141895E+04  0.15931141895E+04  0.50400001928E-02 0. -1.
    10030    2    1    2    0    0  0.00000000000E+00  0.00000000000E+00 -0.94391261222E+02  0.30918371178E+04  0.30903959379E+04 0.  0.
        2    1    3    3  502    0  0.22285749349E+03 -0.13521532399E+04  0.66703708501E+03  0.15241136176E+04  0.25500000920E-02 0.  1.
       -2    1    3    3    0  502 -0.22285749349E+03  0.13521532399E+04 -0.76142834623E+03  0.15677235002E+04  0.25500000920E-02 0. -1.
</event>
<event>
 5   0  0.4927533E-06  0.3130603E+04  0.7818609E-02  0.8207389E-01
       -2   -1    0    0    0  501  0.00000000000E+00  0.00000000000E+00  0.13661537316E+04  0.13661537316E+04  0.25500000920E-02 0.  1.
        2   -1    0    0  501    0  0.00000000000E+00  0.00000000000E+00 -0.17934796502E+04  0.17934796502E+04  0.25500000920E-02 0. -1.
    10030    2    1    2    0    0  0.00000000000E+00  0.00000000000E+00 -0.42732591860E+03  0.31596333819E+04  0.31306030836E+04 0.  0.
        5    1    3    3  502    0 -0.13693385139E+04 -0.70280956474E+03 -0.50111551181E+03  0.16186933298E+04  0.46999998093E+01 0.  1.
       -5    1    3    3    0  502  0.13693385139E+04  0.70280956474E+03  0.73789593214E+02  0.15409400520E+04  0.46999998093E+01 0. -1.
</event>
<event>
 5   0  0.1840431E-06  0.3121775E+04  0.7818609E-02  0.8209787E-01
        1   -1    0    0  501    0  0.00000000000E+00  0.00000000000E+00  0.24048755540E+04  0.24048755541E+04  0.50400001928E-02 0. -1.
       -1   -1    0    0    0  501  0.00000000000E+00  0.00000000000E+00 -0.10130956846E+04  0.10130956846E+04  0.50400001928E-02 0.  1.
    10030    2    1    2    0    0  0.00000000000E+00  0.00000000000E+00  0.13917798695E+04  0.34179712387E+04  0.31217745247E+04 0.  0.
        1    1    3    3  502    0 -0.13132426166E+04 -0.89243966788E+02  0.16144149877E+04  0.20830041786E+04  0.50400001928E-02 0. -1.
       -1    1    3    3    0  502  0.13132426166E+04  0.89243966788E+02 -0.22263511820E+03  0.13349670601E+04  0.50400001928E-02 0.  1.
</event>
<event>
 5   0  0.1840431E-06  0.3080713E+04  0.7818609E-02  0.8221051E-01
       -1   -1    0    0    0  501  0.00000000000E+00  0.00000000000E+00  0.92611495361E+03  0.92611495362E+03  0.50400001928E-02 0. -1.
        1   -1    0    0  501    0  0.00000000000E+00  0.00000000000E+00 -0.25619905815E+04  0.25619905815E+04  0.50400001928E-02 0.  1.
    10030    2    1    2    0    0  0.00000000000E+00  0.00000000000E+00 -0.16358756278E+04  0.34881055351E+04  0.30807127672E+04 0.  0.
        1    1    3    3  502    0  0.10985590343E+04 -0.80744907486E+03 -0.16295980383E+04  0.21247107396E+04  0.50400001928E-02 0.  1.
       -1    1    3    3    0  502 -0.10985590343E+04  0.80744907486E+03 -0.62775895539E+01  0.13633947955E+04  0.50400001928E-02 0. -1.
</event>
<event>
 5   0  0.5001658E-06  0.3129353E+04  0.7818609E-02  0.8207728E-01
        2   -1    0    0  501    0  0.00000000000E+00  0.00000000000E+00  0.11510570221E+04  0.11510570221E+04  0.25500000920E-02 0. -1.
       -2   -1    0    0    0  501  0.00000000000E+00  0.00000000000E+00 -0.21269248547E+04  0.21269248547E+04  0.25500000920E-02 0.  1.
    10030    2    1    2    0    0  0.00000000000E+00  0.00000000000E+00 -0.97586783268E+03  0.32779818768E+04  0.31293525141E+04 0.  0.
        3    1    3    3  502    0 -0.56554380474E+03  0.14564024133E+04 -0.39865686878E+03  0.16124128174E+04  0.10100000352E+00 0.  1.
       -3    1    3    3    0  502  0.56554380474E+03 -0.14564024133E+04 -0.57721096390E+03  0.16655690594E+04  0.10100000352E+00 0. -1.
</event>
<event>
 5   0  0.1843709E-06  0.3125382E+04  0.7818609E-02  0.8208806E-01
        1   -1    0    0  501    0  0.00000000000E+00  0.00000000000E+00  0.10991626518E+04  0.10991626518E+04  0.50400001928E-02 0.  1.
       -1   -1    0    0    0  501  0.00000000000E+00  0.00000000000E+00 -0.22216946126E+04  0.22216946126E+04  0.50400001928E-02 0. -1.
    10030    2    1    2    0    0  0.00000000000E+00  0.00000000000E+00 -0.11225319608E+04  0.33208572644E+04  0.31253823714E+04 0.  0.
        4    1    3    3  502    0  0.42980833807E+03  0.70772236396E+01  0.10351045114E+04  0.11208158890E+04  0.12699999809E+01 0.  1.
       -4    1    3    3    0  502 -0.42980833807E+03 -0.70772236396E+01 -0.21576364722E+04  0.22000413754E+04  0.12699999809E+01 0. -1.
</event>
<event>
 5   0  0.1840431E-06  0.3110657E+04  0.7818609E-02  0.8212819E-01
        1   -1    0    0  501    0  0.00000000000E+00  0.00000000000E+00  0.20891092775E+04  0.20891092775E+04  0.50400001928E-02 0. -1.
       -1   -1    0    0    0  501  0.00000000000E+00  0.00000000000E+00 -0.11579319441E+04  0.11579319441E+04  0.50400001928E-02 0.  1.
    10030    2    1    2    0    0  0.00000000000E+00  0.00000000000E+00  0.93117733338E+03  0.32470412216E+04  0.31106567584E+04 0.  0.
        1    1    3    3  502    0  0.66275508052E+03  0.83614677782E+03  0.16468683657E+04  0.19622846748E+04  0.50400001928E-02 0. -1.
       -1    1    3    3    0  502 -0.66275508052E+03 -0.83614677782E+03 -0.71569103236E+03  0.12847565468E+04  0.50400001928E-02 0.  1.
</event>
<event>
 5   0  0.4927533E-06  0.3249118E+04  0.7818609E-02  0.8175964E-01
       -2   -1    0    0    0  501  0.00000000000E+00  0.00000000000E+00  0.14893601330E+04  0.14893601330E+04  0.25500000920E-02 0.  1.
        2   -1    0    0  501    0  0.00000000000E+00  0.00000000000E+00 -0.17720309208E+04  0.17720309208E+04  0.25500000920E-02 0. -1.
    10030    2    1    2    0    0  0.00000000000E+00  0.00000000000E+00 -0.28267078773E+03  0.32613910538E+04  0.32491181621E+04 0.  0.
        5    1    3    3  502    0 -0.38168536113E+02 -0.87612716091E+03 -0.15140222210E+04  0.17496688301E+04  0.46999998093E+01 0. -1.
       -5    1    3    3    0  502  0.38168536113E+02  0.87612716091E+03  0.12313514333E+04  0.15117222237E+04  0.46999998093E+01 0.  1.
</event>
<event>
 5   0  0.1853742E-06  0.3118279E+04  0.7818609E-02  0.8210739E-01
        1   -1    0    0  501    0  0.00000000000E+00  0.00000000000E+00  0.18676382535E+04  0.18676382535E+04  0.50400001928E-02 0.  1.
       -1   -1    0    0    0  501  0.00000000000E+00  0.00000000000E+00 -0.13015992183E+04  0.13015992183E+04  0.50400001928E-02 0. -1.
    10030    2    1    2    0    0  0.00000000000E+00  0.00000000000E+00  0.56603903522E+03  0.31692374717E+04  0.31182793273E+04 0.  0.
        5    1    3    3  502    0  0.92607767240E+03  0.11838414830E+04  0.70427311407E+03  0.16598563858E+04  0.46999998093E+01 0.  1.
       -5    1    3    3    0  502 -0.92607767240E+03 -0.11838414830E+04 -0.13823407885E+03  0.15093810860E+04  0.46999998093E+01 0. -1.
</event>
<event>
 5   0  0.5001658E-06  0.3101121E+04  0.7818609E-02  0.8215430E-01
        2   -1    0    0  501    0  0.00000000000E+00  0.00000000000E+00  0.24368709394E+04  0.24368709394E+04  0.25500000920E-02 0.  1.
       -2   -1    0    0    0  501  0.00000000000E+00  0.00000000000E+00 -0.98660834781E+03  0.98660834781E+03  0.25500000920E-02 0. -1.
    10030    2    1    2    0    0  0.00000000000E+00  0.00000000000E+00  0.14502625916E+04  0.34234792872E+04  0.31011205790E+04 0.  0.
        3    1    3    3  502    0 -0.20041450787E+03  0.42615379188E+03 -0.90575098079E+03  0.10208613416E+04  0.10100000352E+00 0. -1.
       -3    1    3    3    0  502  0.20041450787E+03 -0.42615379188E+03  0.23560135724E+04  0.24026179456E+04  0.10100000352E+00 0.  1.
</event>
<event>
 5   0  0.1836401E-06  0.3114147E+04  0.7818609E-02  0.8211866E-01
        1   -1    0    0  501    0  0.00000000000E+00  0.00000000000E+00  0.24067600008E+04  0.24067600008E+04  0.50400001928E-02 0. -1.
       -1   -1    0    0    0  501  0.00000000000E+00  0.00000000000E+00 -0.10073617697E+04  0.10073617697E+04  0.50400001928E-02 0.  1.
    10030    2    1    2    0    0  0.00000000000E+00  0.00000000000E+00  0.13993982311E+04  0.34141217705E+04  0.31141470830E+04 0.  0.
        2    1    3    3  502    0 -0.15773561752E+03 -0.28582079426E+03 -0.96942105391E+03  0.10229131103E+04  0.25500000920E-02 0.  1.
       -2    1    3    3    0  502  0.15773561752E+03  0.28582079426E+03  0.23688192850E+04  0.23912086602E+04  0.25500000920E-02 0. -1.
</event>
<event>
 5   0  0.1843709E-06  0.3104012E+04  0.7818609E-02  0.8214638E-01
        1   -1    0    0  501    0  0.00000000000E+00  0.00000000000E+00  0.19566726257E+04  0.19566726257E+04  0.50400001928E-02 0.  1.
       -1   -1    0    0    0  501  0.00000000000E+00  0.00000000000E+00 -0.12310297033E+04  0.12310297033E+04  0.50400001928E-02 0. -1.
    10030    2    1    2    0    0  0.00000000000E+00  0.00000000000E+00  0.72564292249E+03  0.31877023290E+04  0.31040116764E+04 0.  0.
        4    1    3    3  502    0  0.13044052938E+04  0.68774409764E+03  0.85987047213E+03  0.17069985226E+04  0.12699999809E+01 0. -1.
       -4    1    3    3    0  502 -0.13044052938E+04 -0.68774409764E+03 -0.13422754964E+03  0.14807038064E+04  0.12699999809E+01 0.  1.
</event>
<event>
 5   0  0.1840431E-06  0.3119598E+04  0.7818609E-02  0.8210380E-01
       -1   -1    0    0    0  501  0.00000000000E+00  0.00000000000E+00  0.11990309343E+04  0.11990309343E+04  0.50400001928E-02 0.  1.
        1   -1    0    0  501    0  0.00000000000E+00  0.00000000000E+00 -0.20291156424E+04  0.20291156424E+04  0.50400001928E-02 0. -1.
    10030    2    1    2    0    0  0.00000000000E+00  0.00000000000E+00 -0.83008470812E+03  0.32281465768E+04  0.31195976821E+04 0.  0.
        1    1    3    3  502    0 -0.10089738416E+04 -0.55873095769E+03 -0.15017079888E+04  0.18934981859E+04  0.50400001928E-02 0. -1.
       -1    1    3    3    0  502  0.10089738416E+04  0.55873095769E+03  0.67162328071E+03  0.13346483909E+04  0.50400001928E-02 0.  1.
</event>
<event>
 5   0  0.1843709E-06  0.3095933E+04  0.7818609E-02  0.8216855E-01
       -1   -1    0    0    0  501  0.00000000000E+00  0.00000000000E+00  0.13618451010E+04  0.13618451010E+04  0.50400001928E-02 0. -1.
        1   -1    0    0  501    0  0.00000000000E+00  0.00000000000E+00 -0.17595245461E+04  0.17595245461E+04  0.50400001928E-02 0.  1.
    10030    2    1    2    0    0  0.00000000000E+00  0.00000000000E+00 -0.39767944516E+03  0.31213696471E+04  0.30959327404E+04 0.  0.
        4    1    3    3  502    0 -0.39729293939E+03  0.12044326030E+04 -0.10936557391E+04  0.16746892438E+04  0.12699999809E+01 0.  1.
       -4    1    3    3    0  502  0.39729293939E+03 -0.12044326030E+04  0.69597629390E+03  0.14466804033E+04  0.12699999809E+01 0. -1.
</event>
<event>
 5   0  0.5114870E-06  0.3134131E+04  0.7818609E-02  0.8206433E-01
       -2   -1    0    0    0  501  0.00000000000E+00  0.00000000000E+00  0.14641574150E+04  0.14641574150E+04  0.25500000920E-02 0.  1.
        2   -1    0    0  501    0  0.00000000000E+00  0.00000000000E+00 -0.16772063884E+04  0.16772063884E+04  0.25500000920E-02 0. -1.
    10030    2    1    2    0    0  0.00000000000E+00  0.00000000000E+00 -0.21304897345E+03  0.31413638034E+04  0.31341309290E+04 0.  0.
        2    1    3    3  502    0  0.89320574520E+03 -0.41667888510E+03 -0.13276366613E+04  0.16534983825E+04  0.25500000920E-02 0. -1.
       -2    1    3    3    0  502 -0.89320574520E+03  0.41667888510E+03  0.11145876879E+04  0.14878654208E+04  0.25500000920E-02 0.  1.
</event>
<event>
 5   0  0.5328368E-06  0.3141707E+04  0.7818609E-02  0.8204384E-01
        2   -1    0    0  501    0  0.00000000000E+00  0.00000000000E+00  0.21512472698E+04  0.21512472698E+04  0.25500000920E-02 0. -1.
       -2   -1    0    0    0  501  0.00000000000E+00  0.00000000000E+00 -0.11470467412E+04  0.11470467412E+04  0.25500000920E-02 0.  1.
    10030    2    1    2    0    0  0.00000000000E+00  0.00000000000E+00  0.10042005286E+04  0.32982940110E+04  0.31417072876E+04 0.  0.
        1    1    3    3  502    0  0.13640916259E+04  0.34495643628E+02  0.13191204885E+04  0.18978974620E+04  0.50400001928E-02 0. -1.
       -1    1    3    3    0  502 -0.13640916259E+04 -0.34495643628E+02 -0.31491995986E+03  0.14003965490E+04  0.50400001928E-02 0.  1.
</event>
<event>
 5   0  0.5001658E-06  0.2398662E+04  0.7818609E-02  0.8440005E-01
        2   -1    0    0  501    0  0.00000000000E+00  0.00000000000E+00  0.14158651916E+04  0.14158651916E+04  0.25500000920E-02 0.  1.
       -2   -1    0    0    0  501  0.00000000000E+00  0.00000000000E+00 -0.10159120551E+04  0.10159120551E+04  0.25500000920E-02 0. -1.
    10030    2    1    2    0    0  0.00000000000E+00  0.00000000000E+00  0.39995313651E+03  0.24317772468E+04  0.23986617241E+04 0.  0.
        3    1    3    3  502    0  0.11856761671E+04 -0.12303863295E+03  0.66138731179E+02  0.11938763841E+04  0.10100000352E+00 0.  1.
       -3    1    3    3    0  502 -0.11856761671E+04  0.12303863295E+03  0.33381440533E+03  0.12379008627E+04  0.10100000352E+00 0. -1.
</event>
<event>
 5   0  0.5328368E-06  0.3279992E+04  0.7818609E-02  0.8168005E-01
       -2   -1    0    0    0  501  0.00000000000E+00  0.00000000000E+00  0.11985376647E+04  0.11985376647E+04  0.25500000920E-02 0.  1.
        2   -1    0    0  501    0  0.00000000000E+00  0.00000000000E+00 -0.22440565259E+04  0.22440565259E+04  0.25500000920E-02 0. -1.
    10030    2    1    2    0    0  0.00000000000E+00  0.00000000000E+00 -0.10455188612E+04  0.34425941905E+04  0.32799916267E+04 0.  0.
        1    1    3    3  502    0  0.16899357331E+03  0.51826192553E+03  0.11006680729E+04  0.12282607451E+04  0.50400001928E-02 0.  1.
       -1    1    3    3    0  502 -0.16899357331E+03 -0.51826192553E+03 -0.21461869341E+04  0.22143334454E+04  0.50400001928E-02 0. -1.
</event>
<event>
 5   0  0.4900679E-06  0.3121432E+04  0.7818609E-02  0.8209881E-01
       -2   -1    0    0    0  501  0.00000000000E+00  0.00000000000E+00  0.18777705899E+04  0.18777705899E+04  0.25500000920E-02 0. -1.
        2   -1    0    0  501    0  0.00000000000E+00  0.00000000000E+00 -0.12971947095E+04  0.12971947095E+04  0.25500000920E-02 0.  1.
    10030    2    1    2    0    0  0.00000000000E+00  0.00000000000E+00  0.58057588040E+03  0.31749652995E+04  0.31214317709E+04 0.  0.
        4    1    3    3  502    0 -0.25431309751E+03  0.55003068754E+03  0.17532257662E+04  0.18549962558E+04  0.12699999809E+01 0. -1.
       -4    1    3    3    0  502  0.25431309751E+03 -0.55003068754E+03 -0.11726498858E+04  0.13199690437E+04  0.12699999809E+01 0.  1.
</event>
<event>
 5   0  0.1885307E-06  0.2953716E+04  0.7818609E-02  0.8257072E-01
        1   -1    0    0  501    0  0.00000000000E+00  0.00000000000E+00  0.17171615342E+04  0.17171615342E+04  0.50400001928E-02 0.  1.
       -1   -1    0    0    0  501  0.00000000000E+00  0.00000000000E+00 -0.12701834197E+04  0.12701834197E+04  0.50400001928E-02 0. -1.
    10030    2    1    2    0    0  0.00000000000E+00  0.00000000000E+00  0.44697811451E+03  0.29873449539E+04  0.29537163775E+04 0.  0.
        3    1    3    3  502    0 -0.11512204254E+04  0.40635576264E+03 -0.61704238207E+03  0.13679089097E+04  0.10100000352E+00 0. -1.
       -3    1    3    3    0  502  0.11512204254E+04 -0.40635576264E+03  0.10640204966E+04  0.16194360442E+04  0.10100000352E+00 0.  1.
</event>
<event>
 5   0  0.1840431E-06  0.3088949E+04  0.7818609E-02  0.8218777E-01
        1   -1    0    0  501    0  0.00000000000E+00  0.00000000000E+00  0.11992612571E+04  0.11992612572E+04  0.50400001928E-02 0. -1.
       -1   -1    0    0    0  501  0.00000000000E+00  0.00000000000E+00 -0.19890586738E+04  0.19890586738E+04  0.50400001928E-02 0.  1.
    10030    2    1    2    0    0  0.00000000000E+00  0.00000000000E+00 -0.78979741668E+03  0.31883199310E+04  0.30889486922E+04 0.  0.
        1    1    3    3  502    0 -0.76011681332E+03 -0.60635480747E+03  0.84368682683E+03  0.12873426833E+04  0.50400001928E-02 0. -1.
       -1    1    3    3    0  502  0.76011681332E+03  0.60635480747E+03 -0.16334842435E+04  0.19009772477E+04  0.50400001928E-02 0.  1.
</event>
<event>
 5   0  0.1649875E-06  0.3370097E+04  0.7818609E-02  0.8145285E-01
        3   -1    0    0  501    0  0.00000000000E+00  0.00000000000E+00  0.18902572774E+04  0.18902572801E+04  0.10100000352E+00 0.  1.
       -3   -1    0    0    0  501  0.00000000000E+00  0.00000000000E+00 -0.15021171246E+04  0.15021171280E+04  0.10100000352E+00 0. -1.
    10030    2    1    2    0    0  0.00000000000E+00  0.00000000000E+00  0.38814015275E+03  0.33923744081E+04  0.33700966376E+04 0.  0.
        5    1    3    3  502    0 -0.78931340460E+03  0.13041306731E+03 -0.12987513500E+04  0.15253853211E+04  0.46999998093E+01 0. -1.
       -5    1    3    3    0  502  0.78931340460E+03 -0.13041306731E+03  0.16868915027E+04  0.18669890870E+04  0.46999998093E+01 0.  1.
</event>
<event>
 5   0  0.1840431E-06  0.3104191E+04  0.7818609E-02  0.8214589E-01
       -1   -1    0    0    0  501  0.00000000000E+00  0.00000000000E+00  0.98695968891E+03  0.98695968892E+03  0.50400001928E-02 0.  1.
        1   -1    0    0  501    0  0.00000000000E+00  0.00000000000E+00 -0.24408291387E+04  0.24408291387E+04  0.50400001928E-02 0. -1.
    10030    2    1    2    0    0  0.00000000000E+00  0.00000000000E+00 -0.14538694498E+04  0.34277888276E+04  0.31041906948E+04 0.  0.
        1    1    3    3  502    0  0.82921136176E+03  0.12779310022E+04 -0.39880310696E+03  0.15747199901E+04  0.50400001928E-02 0. -1.
       -1    1    3    3    0  502 -0.82921136176E+03 -0.12779310022E+04 -0.10550663429E+04  0.18530688376E+04  0.50400001928E-02 0.  1.
</event>
<event>
 5   0  0.1843709E-06  0.2684047E+04  0.7818609E-02  0.8340200E-01
       -1   -1    0    0    0  501  0.00000000000E+00  0.00000000000E+00  0.30714861385E+04  0.30714861385E+04  0.50400001928E-02 0.  1.
        1   -1    0    0  501    0  0.00000000000E+00  0.00000000000E+00 -0.58636971479E+03  0.58636971481E+03  0.50400001928E-02 0. -1.
    10030    2    1    2    0    0  0.00000000000E+00  0.00000000000E+00  0.24851164237E+04  0.36578558533E+04  0.26840465354E+04 0.  0.
        4    1    3    3  502    0 -0.91571358802E+03  0.97352563364E+03  0.10770938420E+04  0.17165128289E+04  0.12699999809E+01 0. -1.
       -4    1    3    3    0  502  0.91571358802E+03 -0.97352563364E+03  0.14080225817E+04  0.19413430244E+04  0.12699999809E+01 0.  1.
</event>
<event>
 5   0  0.1885307E-06  0.3128999E+04  0.7818609E-02  0.8207824E-01
        1   -1    0    0  501    0  0.00000000000E+00  0.00000000000E+00  0.10380810874E+04  0.10380810874E+04  0.50400001928E-02 0.  1.
       -1   -1    0    0    0  501  0.00000000000E+00  0.00000000000E+00 -0.23578686108E+04  0.23578686108E+04  0.50400001928E-02 0. -1.
    10030    2    1    2    0    0  0.00000000000E+00  0.00000000000E+00 -0.13197875234E+04  0.33959496982E+04  0.31289990805E+04 0.  0.
        3    1    3    3  502    0  0.38655241996E+03  0.50052409108E+03  0.89317332146E+03  0.10943974285E+04  0.10100000352E+00 0.  1.
       -3    1    3    3    0  502 -0.38655241996E+03 -0.50052409108E+03 -0.22129608449E+04  0.23015522697E+04  0.10100000352E+00 0. -1.
</event>
<event>
 5   0  0.4900679E-06  0.3112440E+04  0.7818609E-02  0.8212332E-01
        2   -1    0    0  501    0  0.00000000000E+00  0.00000000000E+00  0.21389640745E+04  0.21389640745E+04  0.25500000920E-02 0. -1.
       -2   -1    0    0    0  501  0.00000000000E+00  0.00000000000E+00 -0.11322399590E+04  0.11322399590E+04  0.25500000920E-02 0.  1.
    10030    2    1    2    0    0  0.00000000000E+00  0.00000000000E+00  0.10067241156E+04  0.32712040335E+04  0.31124399406E+04 0.  0.
        4    1    3    3  502    0 -0.23515305918E+03  0.10155174914E+04  0.17178335815E+04  0.20093597396E+04  0.12699999809E+01 0. -1.
       -4    1    3    3    0  502  0.23515305918E+03 -0.10155174914E+04 -0.71110946592E+03  0.12618442939E+04  0.12699999809E+01 0.  1.
</event>
<event>
 5   0  0.1836401E-06  0.3108869E+04  0.7818609E-02  0.8213308E-01
        1   -1    0    0  501    0  0.00000000000E+00  0.00000000000E+00  0.21518020626E+04  0.21518020626E+04  0.50400001928E-02 0.  1.
       -1   -1    0    0    0  501  0.00000000000E+00  0.00000000000E+00 -0.11229036308E+04  0.11229036308E+04  0.50400001928E-02 0. -1.
    10030    2    1    2    0    0  0.00000000000E+00  0.00000000000E+00  0.10288984318E+04  0.32747056933E+04  0.31088688289E+04 0.  0.
        2    1    3    3  502    0 -0.10662745091E+04  0.11303494461E+04  0.47185519635E+03  0.16239699891E+04  0.25500000920E-02 0.  1.
       -2    1    3    3    0  502  0.10662745091E+04 -0.11303494461E+04  0.55704323547E+03  0.16507357043E+04  0.25500000920E-02 0. -1.
</event>
<event>
 5   0  0.1885307E-06  0.3113293E+04  0.7818609E-02  0.8212099E-01
        1   -1    0    0  501    0  0.00000000000E+00  0.00000000000E+00  0.22113048520E+04  0.22113048520E+04  0.50400001928E-02 0. -1.
       -1   -1    0    0    0  501  0.00000000000E+00  0.00000000000E+00 -0.10957999948E+04  0.10957999948E+04  0.50400001928E-02 0.  1.
    10030    2    1    2    0    0  0.00000000000E+00  0.00000000000E+00  0.11155048573E+04  0.33071048468E+04  0.31132926912E+04 0.  0.
        3    1    3    3  502    0 -0.14286532694E+04 -0.49851584621E+03  0.94599049646E+03  0.17845072829E+04  0.10100000352E+00 0. -1.
       -3    1    3    3    0  502  0.14286532694E+04  0.49851584621E+03  0.16951436080E+03  0.15225975639E+04  0.10100000352E+00 0.  1.
</event>
<event>
 5   0  0.4927533E-06  0.3108665E+04  0.7818609E-02  0.8213364E-01
       -2   -1    0    0    0  501  0.00000000000E+00  0.00000000000E+00  0.14483922516E+04  0.14483922516E+04  0.25500000920E-02 0. -1.
        2   -1    0    0  501    0  0.00000000000E+00  0.00000000000E+00 -0.16680220088E+04  0.16680220088E+04  0.25500000920E-02 0.  1.
    10030    2    1    2    0    0  0.00000000000E+00  0.00000000000E+00 -0.21962975721E+03  0.31164142605E+04  0.31086654070E+04 0.  0.
        5    1    3    3  502    0 -0.53316139411E+02  0.98779434162E+03 -0.13116977213E+04  0.16429100018E+04  0.46999998093E+01 0.  1.
       -5    1    3    3    0  502  0.53316139411E+02 -0.98779434162E+03  0.10920679641E+04  0.14735042586E+04  0.46999998093E+01 0. -1.
</event>
<event>
 5   0  0.1836401E-06  0.3080639E+04  0.7818609E-02  0.8221072E-01
       -1   -1    0    0    0  501  0.00000000000E+00  0.00000000000E+00  0.11017990737E+04  0.11017990737E+04  0.50400001928E-02 0.  1.
        1   -1    0    0  501    0  0.00000000000E+00  0.00000000000E+00 -0.21533724742E+04  0.21533724742E+04  0.50400001928E-02 0. -1.
    10030    2    1    2    0    0  0.00000000000E+00  0.00000000000E+00 -0.10515734005E+04  0.32551715479E+04  0.30806387632E+04 0.  0.
        2    1    3    3  502    0 -0.89278790056E+03 -0.11933314499E+04 -0.93703261501E+03  0.17604375326E+04  0.25500000920E-02 0. -1.
       -2    1    3    3    0  502  0.89278790056E+03  0.11933314499E+04 -0.11454078553E+03  0.14947340152E+04  0.25500000920E-02 0.  1.
</event>
<event>
 5   0  0.1853742E-06  0.3027339E+04  0.7818609E-02  0.8235967E-01
        1   -1    0    0  501    0  0.00000000000E+00  0.00000000000E+00  0.10772649814E+04  0.10772649814E+04  0.50400001928E-02 0. -1.
       -1   -1    0    0    0  501  0.00000000000E+00  0.00000000000E+00 -0.21268638708E+04  0.21268638709E+04  0.50400001928E-02 0.  1.
    10030    2    1    2    0    0  0.00000000000E+00  0.00000000000E+00 -0.10495988894E+04  0.32041288523E+04  0.30273394050E+04 0.  0.
        5    1    3    3  502    0  0.96730716275E+03 -0.88309245899E+03  0.27821573060E+03  0.13390151310E+04  0.46999998093E+01 0. -1.
       -5    1    3    3    0  502 -0.96730716275E+03  0.88309245899E+03 -0.13278146200E+04  0.18651137213E+04  0.46999998093E+01 0.  1.
</event>
<event>
 5   0  0.1853742E-06  0.3071393E+04  0.7818609E-02  0.8223633E-01
       -1   -1    0    0    0  501  0.00000000000E+00  0.00000000000E+00  0.18936388759E+04  0.18936388759E+04  0.50400001928E-02 0.  1.
        1   -1    0    0  501    0  0.00000000000E+00  0.00000000000E+00 -0.12454140700E+04  0.12454140700E+04  0.50400001928E-02 0. -1.
    10030    2    1    2    0    0  0.00000000000E+00  0.00000000000E+00  0.64822480591E+03  0.31390529459E+04  0.30713934945E+04 0.  0.
        5    1    3    3  502    0  0.13230412315E+04  0.46391544179E+03  0.96456400593E+03  0.17017818452E+04  0.46999998093E+01 0.  1.
       -5    1    3    3    0  502 -0.13230412315E+04 -0.46391544179E+03 -0.31633920001E+03  0.14372711006E+04  0.46999998093E+01 0. -1.
</event>
<event>
 5   0  0.5114870E-06  0.3102667E+04  0.7818609E-02  0.8215006E-01
       -2   -1    0    0    0  501  0.00000000000E+00  0.00000000000E+00  0.22965986326E+04  0.22965986326E+04  0.25500000920E-02 0.  1.
        2   -1    0    0  501    0  0.00000000000E+00  0.00000000000E+00 -0.10479128547E+04  0.10479128547E+04  0.25500000920E-02 0. -1.
    10030    2    1    2    0    0  0.00000000000E+00  0.00000000000E+00  0.12486857779E+04  0.33445114872E+04  0.31026667427E+04 0.  0.
        2    1    3    3  502    0 -0.25448012444E+03 -0.30171910931E+03 -0.99288022089E+03  0.10684594928E+04  0.25500000920E-02 0. -1.
       -2    1    3    3    0  502  0.25448012444E+03  0.30171910931E+03  0.22415659988E+04  0.22760519945E+04  0.25500000920E-02 0.  1.
</event>
<event>
 5   0  0.5114870E-06  0.3000394E+04  0.7818609E-02  0.8243618E-01
        2   -1    0    0  501    0  0.00000000000E+00  0.00000000000E+00  0.26176229193E+04  0.26176229193E+04  0.25500000920E-02 0.  1.
       -2   -1    0    0    0  501  0.00000000000E+00  0.00000000000E+00 -0.85978423630E+03  0.85978423631E+03  0.25500000920E-02 0. -1.
    10030    2    1    2    0    0  0.00000000000E+00  0.00000000000E+00  0.17578386830E+04  0.34774071556E+04  0.30003939226E+04 0.  0.
        2    1    3    3  502    0  0.96750455448E+03 -0.70303693312E+03  0.19285930959E+04  0.22693164878E+04  0.25500000920E-02 0.  1.
       -2    1    3    3    0  502 -0.96750455448E+03  0.70303693312E+03 -0.17075441284E+03  0.12080906679E+04  0.25500000920E-02 0. -1.
</event>
<event>
 5   0  0.4927533E-06  0.3053623E+04  0.7818609E-02  0.8228582E-01
       -2   -1    0    0    0  501  0.00000000000E+00  0.00000000000E+00  0.11148333897E+04  0.11148333897E+04  0.25500000920E-02 0. -1.
        2   -1    0    0  501    0  0.00000000000E+00  0.00000000000E+00 -0.20910336101E+04  0.20910336101E+04  0.25500000920E-02 0.  1.
    10030    2    1    2    0    0  0.00000000000E+00  0.00000000000E+00 -0.97620022044E+03  0.32058669999E+04  0.30536234788E+04 0.  0.
        5    1    3    3  502    0 -0.50327613898E+03 -0.14267477989E+04 -0.70385994554E+03  0.16686332931E+04  0.46999998093E+01 0. -1.
       -5    1    3    3    0  502  0.50327613898E+03  0.14267477989E+04 -0.27234027491E+03  0.15372337068E+04  0.46999998093E+01 0.  1.
</event>
<event>
 5   0  0.4900679E-06  0.3063871E+04  0.7818609E-02  0.8225724E-01
       -2   -1    0    0    0  501  0.00000000000E+00  0.00000000000E+00  0.96693106385E+03  0.96693106385E+03  0.25500000920E-02 0. -1.
        2   -1    0    0  501    0  0.00000000000E+00  0.00000000000E+00 -0.24270873592E+04  0.24270873592E+04  0.25500000920E-02 0.  1.
    10030    2    1    2    0    0  0.00000000000E+00  0.00000000000E+00 -0.14601562953E+04  0.33940184230E+04  0.30638708604E+04 0.  0.
        4    1    3    3  502    0 -0.10618370049E+04 -0.71635451547E+03 -0.16609635023E+04  0.20974896867E+04  0.12699999809E+01 0.  1.
       -4    1    3    3    0  502  0.10618370049E+04  0.71635451547E+03  0.20080720701E+03  0.12965287363E+04  0.12699999809E+01 0. -1.
</event>
<event>
 5   0  0.1840431E-06  0.3107183E+04  0.7818609E-02  0.8213769E-01
       -1   -1    0    0    0  501  0.00000000000E+00  0.00000000000E+00  0.15536103657E+04  0.15536103657E+04  0.50400001928E-02 0.  1.
        1   -1    0    0  501    0  0.00000000000E+00  0.00000000000E+00 -0.15535722240E+04  0.15535722241E+04  0.50400001928E-02 0. -1.
    10030    2    1    2    0    0  0.00000000000E+00  0.00000000000E+00  0.38141604816E-01  0.31071825897E+04  0.31071825895E+04 0.  0.
        1    1    3    3  502    0  0.14156255181E+04  0.65725682864E+02 -0.63663659624E+03  0.15535834797E+04  0.50400001928E-02 0. -1.
       -1    1    3    3    0  502 -0.14156255181E+04 -0.65725682864E+02  0.63667473784E+03  0.15535991100E+04  0.50400001928E-02 0.  1.
</event>
<event>
 5   0  0.4900679E-06  0.3044423E+04  0.7818609E-02  0.8231158E-01
        2   -1    0    0  501    0  0.00000000000E+00  0.00000000000E+00  0.19524268376E+04  0.19524268376E+04  0.25500000920E-02 0. -1.
       -2   -1    0    0    0  501  0.00000000000E+00  0.00000000000E+00 -0.11867933118E+04  0.11867933118E+04  0.25500000920E-02 0.  1.
    10030    2    1    2    0    0  0.00000000000E+00  0.00000000000E+00  0.76563352578E+03  0.31392201494E+04  0.30444225151E+04 0.  0.
        4    1    3    3  502    0 -0.32944839122E+03 -0.13159963878E+04 -0.32914866173E+03  0.13959667581E+04  0.12699999809E+01 0.  1.
       -4    1    3    3    0  502  0.32944839122E+03  0.13159963878E+04  0.10947821875E+04  0.17432533913E+04  0.12699999809E+01 0. -1.
</event>
<event>
 5   0  0.1843709E-06  0.3078924E+04  0.7818609E-02  0.8221546E-01
        1   -1    0    0  501    0  0.00000000000E+00  0.00000000000E+00  0.18058890147E+04  0.18058890147E+04  0.50400001928E-02 0. -1.
       -1   -1    0    0    0  501  0.00000000000E+00  0.00000000000E+00 -0.13123416684E+04  0.13123416684E+04  0.50400001928E-02 0.  1.
    10030    2    1    2    0    0  0.00000000000E+00  0.00000000000E+00  0.49354734630E+03  0.31182306831E+04  0.30789240994E+04 0.  0.
        4    1    3    3  502    0 -0.14826731806E+04  0.20954109792E+03 -0.11516039046E+03  0.15018291383E+04  0.12699999809E+01 0.  1.
       -4    1    3    3    0  502  0.14826731806E+04 -0.20954109792E+03  0.60870773676E+03  0.16164015448E+04  0.12699999809E+01 0. -1.
</event>
<event>
 5   0  0.5328368E-06  0.3019946E+04  0.7818609E-02  0.8238058E-01
       -2   -1    0    0    0  501  0.00000000000E+00  0.00000000000E+00  0.14662801954E+04  0.14662801954E+04  0.25500000920E-02 0. -1.
        2   -1    0    0  501    0  0.00000000000E+00  0.00000000000E+00 -0.15549677810E+04  0.15549677810E+04  0.25500000920E-02 0.  1.
    10030    2    1    2    0    0  0.00000000000E+00  0.00000000000E+00 -0.88687585570E+02  0.30212479764E+04  0.30199460007E+04 0.  0.
        1    1    3    3  502    0 -0.69577322481E+03 -0.46404703119E+03 -0.13020963850E+04  0.15475448373E+04  0.50400001928E-02 0.  1.
       -1    1    3    3    0  502  0.69577322481E+03  0.46404703119E+03  0.12134087995E+04  0.14737031391E+04  0.50400001928E-02 0. -1.
</event>
<event>
 5   0  0.1885307E-06  0.3064223E+04  0.7818609E-02  0.8225626E-01
       -1   -1    0    0    0  501  0.00000000000E+00  0.00000000000E+00  0.13513471937E+04  0.13513471937E+04  0.50400001928E-02 0.  1.
        1   -1    0    0  501    0  0.00000000000E+00  0.00000000000E+00 -0.17370555630E+04  0.17370555630E+04  0.50400001928E-02 0. -1.
    10030    2    1    2    0    0  0.00000000000E+00  0.00000000000E+00 -0.38570836926E+03  0.30884027567E+04  0.30642226814E+04 0.  0.
        3    1    3    3  502    0  0.40484323620E+03  0.10825411158E+04 -0.12065600827E+04  0.16708023691E+04  0.10100000352E+00 0. -1.
       -3    1    3    3    0  502 -0.40484323620E+03 -0.10825411158E+04  0.82085171343E+03  0.14176003876E+04  0.10100000352E+00 0.  1.
</event>
<event>
 5   0  0.5001658E-06  0.3141354E+04  0.7818609E-02  0.8204479E-01
       -2   -1    0    0    0  501  0.00000000000E+00  0.00000000000E+00  0.86618159302E+03  0.86618159303E+03  0.25500000920E-02 0. -1.
        2   -1    0    0  501    0  0.00000000000E+00  0.00000000000E+00 -0.28481633979E+04  0.28481633979E+04  0.25500000920E-02 0.  1.
    10030    2    1    2    0    0  0.00000000000E+00  0.00000000000E+00 -0.19819818049E+04  0.37143449909E+04  0.31413542998E+04 0.  0.
        3    1    3    3  502    0 -0.41261478915E+03  0.13940638694E+04 -0.28812086141E+03  0.14821196568E+04  0.10100000352E+00 0. -1.
       -3    1    3    3    0  502  0.41261478915E+03 -0.13940638694E+04 -0.16938609434E+04  0.22322253341E+04  0.10100000352E+00 0.  1.
</event>
<event>
 5   0  0.1853742E-06  0.2808577E+04  0.7818609E-02  0.8300611E-01
       -1   -1    0    0    0  501  0.00000000000E+00  0.00000000000E+00  0.16733375839E+04  0.16733375839E+04  0.50400001928E-02 0.  1.
        1   -1    0    0  501    0  0.00000000000E+00  0.00000000000E+00 -0.11784983219E+04  0.11784983219E+04  0.50400001928E-02 0. -1.
    10030    2    1    2    0    0  0.00000000000E+00  0.00000000000E+00  0.49483926196E+03  0.28518359058E+04  0.28085765325E+04 0.  0.
        5    1    3    3  502    0  0.57007393925E+03 -0.12825960493E+04  0.20239110062E+03  0.14181047808E+04  0.46999998093E+01 0.  1.
       -5    1    3    3    0  502 -0.57007393925E+03  0.12825960493E+04  0.29244816134E+03  0.14337311250E+04  0.46999998093E+01 0. -1.
</event>
<event>
 5   0  0.5328368E-06  0.3077116E+04  0.7818609E-02  0.8222046E-01
        2   -1    0    0  501    0  0.00000000000E+00  0.00000000000E+00  0.10886380775E+04  0.10886380775E+04  0.25500000920E-02 0.  1.
       -2   -1    0    0    0  501  0.00000000000E+00  0.00000000000E+00 -0.21744236633E+04  0.21744236633E+04  0.25500000920E-02 0. -1.
    10030    2    1    2    0    0  0.00000000000E+00  0.00000000000E+00 -0.10857855858E+04  0.32630617408E+04  0.30771157901E+04 0.  0.
        1    1    3    3  502    0 -0.14495313083E+03  0.10175493478E+04  0.67116709886E+03  0.12275517748E+04  0.50400001928E-02 0.  1.
       -1    1    3    3    0  502  0.14495313083E+03 -0.10175493478E+04 -0.17569526847E+04  0.20355099660E+04  0.50400001928E-02 0. -1.
</event>
<event>
 5   0  0.5001658E-06  0.3047300E+04  0.7818609E-02  0.8230352E-01
        2   -1    0    0  501    0  0.00000000000E+00  0.00000000000E+00  0.17358858880E+04  0.17358858880E+04  0.25500000920E-02 0.  1.
       -2   -1    0    0    0  501  0.00000000000E+00  0.00000000000E+00 -0.13373627377E+04  0.13373627377E+04  0.25500000920E-02 0. -1.
    10030    2    1    2    0    0  0.00000000000E+00  0.00000000000E+00  0.39852315027E+03  0.30732486257E+04  0.30472998563E+04 0.  0.
        3    1    3    3  502    0 -0.32126236997E+03  0.20464745153E+03  0.16870931105E+04  0.17295586904E+04  0.10100000352E+00 0.  1.
       -3    1    3    3    0  502  0.32126236997E+03 -0.20464745153E+03 -0.12885699602E+04  0.13436899353E+04  0.10100000352E+00 0. -1.
</event>
<event>
 5   0  0.1649875E-06  0.3070639E+04  0.7818609E-02  0.8223842E-01
        3   -1    0    0  501    0  0.00000000000E+00  0.00000000000E+00  0.14522695570E+04  0.14522695605E+04  0.10100000352E+00 0.  1.
       -3   -1    0    0    0  501  0.00000000000E+00  0.00000000000E+00 -0.16231188055E+04  0.16231188087E+04  0.10100000352E+00 0. -1.
    10030    2    1    2    0    0  0.00000000000E+00  0.00000000000E+00 -0.17084924850E+03  0.30753883692E+04  0.30706390468E+04 0.  0.
        5    1    3    3  502    0 -0.10770912693E+04  0.82944727249E+03  0.62917424866E+03  0.14979955626E+04  0.46999998093E+01 0.  1.
       -5    1    3    3    0  502  0.10770912693E+04 -0.82944727249E+03 -0.80002349716E+03  0.15773928066E+04  0.46999998093E+01 0. -1.
</event>
<event>
 5   0  0.1843709E-06  0.3198310E+04  0.7818609E-02  0.8189264E-01
       -1   -1    0    0    0  501  0.00000000000E+00  0.00000000000E+00  0.10895707778E+04  0.10895707778E+04  0.50400001928E-02 0.  1.
        1   -1    0    0  501    0  0.00000000000E+00  0.00000000000E+00 -0.23470679097E+04  0.23470679097E+04  0.50400001928E-02 0. -1.
    10030    2    1    2    0    0  0.00000000000E+00  0.00000000000E+00 -0.12574971319E+04  0.34366386875E+04  0.31983099336E+04 0.  0.
        4    1    3    3  502    0  0.14421892041E+04 -0.12053850993E+03  0.10228305884E+03  0.14508282703E+04  0.12699999809E+01 0.  1.
       -4    1    3    3    0  502 -0.14421892041E+04  0.12053850993E+03 -0.13597801907E+04  0.19858104172E+04  0.12699999809E+01 0. -1.
</event>
<event>
 5   0  0.1836401E-06  0.3061952E+04  0.7818609E-02  0.8226258E-01
        1   -1    0    0  501    0  0.00000000000E+00  0.00000000000E+00  0.19217491039E+04  0.19217491039E+04  0.50400001928E-02 0.  1.
       -1   -1    0    0    0  501  0.00000000000E+00  0.00000000000E+00 -0.12196636361E+04  0.12196636362E+04  0.50400001928E-02 0. -1.
    10030    2    1    2    0    0  0.00000000000E+00  0.00000000000E+00  0.70208546771E+03  0.31414127400E+04  0.30619519916E+04 0.  0.
        2    1    3    3  502    0 -0.33936472379E+03 -0.14853749651E+04  0.19755999309E+03  0.15364039683E+04  0.25500000920E-02 0. -1.
       -2    1    3    3    0  502  0.33936472379E+03  0.14853749651E+04  0.50452547462E+03  0.16050087717E+04  0.25500000920E-02 0.  1.
</event>
<event>
 5   0  0.4900679E-06  0.3003790E+04  0.7818609E-02  0.8242650E-01
        2   -1    0    0  501    0  0.00000000000E+00  0.00000000000E+00  0.17615661906E+04  0.17615661906E+04  0.25500000920E-02 0.  1.
       -2   -1    0    0    0  501  0.00000000000E+00  0.00000000000E+00 -0.12805016109E+04  0.12805016109E+04  0.25500000920E-02 0. -1.
    10030    2    1    2    0    0  0.00000000000E+00  0.00000000000E+00  0.48106457965E+03  0.30420678015E+04  0.30037898360E+04 0.  0.
        4    1    3    3  502    0 -0.37489983751E+03  0.13422740421E+04  0.80752130238E+03  0.16106960479E+04  0.12699999809E+01 0.  1.
       -4    1    3    3    0  502  0.37489983751E+03 -0.13422740421E+04 -0.32645672273E+03  0.14313717536E+04  0.12699999809E+01 0. -1.
</event>
<event>
 5   0  0.5328368E-06  0.3093719E+04  0.7818609E-02  0.8217464E-01
        2   -1    0    0  501    0  0.00000000000E+00  0.00000000000E+00  0.31564205742E+04  0.31564205742E+04  0.25500000920E-02 0. -1.
       -2   -1    0    0    0  501  0.00000000000E+00  0.00000000000E+00 -0.75806585797E+03  0.75806585797E+03  0.25500000920E-02 0.  1.
    10030    2    1    2    0    0  0.00000000000E+00  0.00000000000E+00  0.23983547163E+04  0.39144864322E+04  0.30937192314E+04 0.  0.
        1    1    3    3  502    0  0.88968302155E+01  0.19887003301E+03  0.31401452574E+04  0.31464489002E+04  0.50400001928E-02 0. -1.
       -1    1    3    3    0  502 -0.88968302155E+01 -0.19887003301E+03 -0.74179054116E+03  0.76803753203E+03  0.50400001928E-02 0.  1.
</event>
<event>
 5   0  0.1840431E-06  0.3082088E+04  0.7818609E-02  0.8220671E-01
        1   -1    0    0  501    0  0.00000000000E+00  0.00000000000E+00  0.30821681028E+04  0.30821681028E+04  0.50400001928E-02 0.  1.
       -1   -1    0    0    0  501  0.00000000000E+00  0.00000000000E+00 -0.77050178204E+03  0.77050178206E+03  0.50400001928E-02 0. -1.
    10030    2    1    2    0    0  0.00000000000E+00  0.00000000000E+00  0.23116663208E+04  0.38526698849E+04  0.30820876145E+04 0.  0.
        1    1    3    3  502    0  0.44700085850E+03  0.11160636477E+04 -0.49258452260E+02  0.12032598341E+04  0.50400001928E-02 0. -1.
       -1    1    3    3    0  502 -0.44700085850E+03 -0.11160636477E+04  0.23609247730E+04  0.26494100508E+04  0.50400001928E-02 0.  1.
</event>
<event>
 5   0  0.4927533E-06  0.3105124E+04  0.7818609E-02  0.8214333E-01
       -2   -1    0    0    0  501  0.00000000000E+00  0.00000000000E+00  0.15123567891E+04  0.15123567891E+04  0.25500000920E-02 0. -1.
        2   -1    0    0  501    0  0.00000000000E+00  0.00000000000E+00 -0.15938363246E+04  0.15938363246E+04  0.25500000920E-02 0.  1.
    10030    2    1    2    0    0  0.00000000000E+00  0.00000000000E+00 -0.81479535468E+02  0.31061931137E+04  0.31051242721E+04 0.  0.
        5    1    3    3  502    0  0.14855658330E+04 -0.43934140369E+03  0.61766882426E+02  0.15504076725E+04  0.46999998093E+01 0.  1.
       -5    1    3    3    0  502 -0.14855658330E+04  0.43934140369E+03 -0.14324641789E+03  0.15557854413E+04  0.46999998093E+01 0. -1.
</event>
<event>
 5   0  0.1843709E-06  0.3087346E+04  0.7818609E-02  0.8219219E-01
        1   -1    0    0  501    0  0.00000000000E+00  0.00000000000E+00  0.11470302973E+04  0.11470302973E+04  0.50400001928E-02 0. -1.
       -1   -1    0    0    0  501  0.00000000000E+00  0.00000000000E+00 -0.20774751492E+04  0.20774751492E+04  0.50400001928E-02 0.  1.
    10030    2    1    2    0    0  0.00000000000E+00  0.00000000000E+00 -0.93044485192E+03  0.32245054466E+04  0.30873463934E+04 0.  0.
        4    1    3    3  502    0  0.82118521729E+03 -0.11996809241E+04  0.76819519682E+02  0.14558441992E+04  0.12699999809E+01 0. -1.
       -4    1    3    3    0  502 -0.82118521729E+03  0.11996809241E+04 -0.10072643716E+04  0.17686612474E+04  0.12699999809E+01 0.  1.
</event>
<event>
 5   0  0.1853742E-06  0.2369510E+04  0.7818609E-02  0.8451007E-01
       -1   -1    0    0    0  501  0.00000000000E+00  0.00000000000E+00  0.81994288391E+03  0.81994288392E+03  0.50400001928E-02 0.  1.
        1   -1    0    0  501    0  0.00000000000E+00  0.00000000000E+00 -0.17118811949E+04  0.17118811949E+04  0.50400001928E-02 0. -1.
    10030    2    1    2    0    0  0.00000000000E+00  0.00000000000E+00 -0.89193831100E+03  0.25318240788E+04  0.23695103324E+04 0.  0.
        5    1    3    3  502    0 -0.39991995772E+03 -0.60783963325E+03 -0.14450133997E+04  0.16178661279E+04  0.46999998093E+01 0. -1.
       -5    1    3    3    0  502  0.39991995772E+03  0.60783963325E+03  0.55307508874E+03  0.91395795096E+03  0.46999998093E+01 0.  1.
</event>
<event>
 5   0  0.1836401E-06  0.3039523E+04  0.7818609E-02  0.8232534E-01
        1   -1    0    0  501    0  0.00000000000E+00  0.00000000000E+00  0.16592073824E+04  0.16592073825E+04  0.50400001928E-02 0.  1.
       -1   -1    0    0    0  501  0.00000000000E+00  0.00000000000E+00 -0.13920348757E+04  0.13920348757E+04  0.50400001928E-02 0. -1.
    10030    2    1    2    0    0  0.00000000000E+00  0.00000000000E+00  0.26717250679E+03  0.30512422581E+04  0.30395226878E+04 0.  0.
        2    1    3    3  502    0  0.96054551704E+03  0.92489486737E+03  0.86550402221E+03  0.15897092245E+04  0.25500000920E-02 0.  1.
       -2    1    3    3    0  502 -0.96054551704E+03 -0.92489486737E+03 -0.59833151542E+03  0.14615330336E+04  0.25500000920E-02 0. -1.
</event>
<event>
 5   0  0.4900679E-06  0.3162051E+04  0.7818609E-02  0.8198912E-01
       -2   -1    0    0    0  501  0.00000000000E+00  0.00000000000E+00  0.30574453698E+04  0.30574453698E+04  0.25500000920E-02 0. -1.
        2   -1    0    0  501    0  0.00000000000E+00  0.00000000000E+00 -0.81755871288E+03  0.81755871289E+03  0.25500000920E-02 0.  1.
    10030    2    1    2    0    0  0.00000000000E+00  0.00000000000E+00  0.22398866569E+04  0.38750040827E+04  0.31620506645E+04 0.  0.
        4    1    3    3  502    0  0.50097709620E+02 -0.39519136903E+03  0.29949366829E+04  0.30213131824E+04  0.12699999809E+01 0. -1.
       -4    1    3    3    0  502 -0.50097709620E+02  0.39519136903E+03 -0.75505002596E+03  0.85369090031E+03  0.12699999809E+01 0.  1.
</event>
<event>
 5   0  0.1840431E-06  0.3098419E+04  0.7818609E-02  0.8216172E-01
        1   -1    0    0  501    0  0.00000000000E+00  0.00000000000E+00  0.18164048738E+04  0.18164048738E+04  0.50400001928E-02 0. -1.
       -1   -1    0    0    0  501  0.00000000000E+00  0.00000000000E+00 -0.13213188333E+04  0.13213188333E+04  0.50400001928E-02 0.  1.
    10030    2    1    2    0    0  0.00000000000E+00  0.00000000000E+00  0.49508604055E+03  0.31377237071E+04  0.30984189314E+04 0.  0.
        1    1    3    3  502    0 -0.62028339080E+03  0.10527746604E+04 -0.71688447990E+03  0.14166895666E+04  0.50400001928E-02 0.  1.
       -1    1    3    3    0  502  0.62028339080E+03 -0.10527746604E+04  0.12119705204E+04  0.17210341405E+04  0.50400001928E-02 0. -1.
</event>
<event>
 5   0  0.1885307E-06  0.3108677E+04  0.7818609E-02  0.8213361E-01
       -1   -1    0    0    0  501  0.00000000000E+00  0.00000000000E+00  0.12459586752E+04  0.12459586752E+04  0.50400001928E-02 0.  1.
        1   -1    0    0  501    0  0.00000000000E+00  0.00000000000E+00 -0.19390433964E+04  0.19390433964E+04  0.50400001928E-02 0. -1.
    10030    2    1    2    0    0  0.00000000000E+00  0.00000000000E+00 -0.69308472117E+03  0.31850020716E+04  0.31086768512E+04 0.  0.
        3    1    3    3  502    0 -0.92997694358E+03 -0.36549466402E+03 -0.15663726741E+04  0.18579469394E+04  0.10100000352E+00 0. -1.
       -3    1    3    3    0  502  0.92997694358E+03  0.36549466402E+03  0.87328795297E+03  0.13270551322E+04  0.10100000352E+00 0.  1.
</event>
<event>
 5   0  0.5114870E-06  0.3104033E+04  0.7818609E-02  0.8214632E-01
       -2   -1    0    0    0  501  0.00000000000E+00  0.00000000000E+00  0.28350227928E+04  0.28350227928E+04  0.25500000920E-02 0. -1.
        2   -1    0    0  501    0  0.00000000000E+00  0.00000000000E+00 -0.84964210042E+03  0.84964210043E+03  0.25500000920E-02 0.  1.
    10030    2    1    2    0    0  0.00000000000E+00  0.00000000000E+00  0.19853806923E+04  0.36846648932E+04  0.31040326805E+04 0.  0.
        2    1    3    3  502    0  0.85764317622E+03  0.54071311182E+03  0.23875874407E+04  0.25939345161E+04  0.25500000920E-02 0. -1.
       -2    1    3    3    0  502 -0.85764317622E+03 -0.54071311182E+03 -0.40220674836E+03  0.10907303771E+04  0.25500000920E-02 0.  1.
</event>
<event>
 5   0  0.4900679E-06  0.2795414E+04  0.7818609E-02  0.8304693E-01
       -2   -1    0    0    0  501  0.00000000000E+00  0.00000000000E+00  0.13961761017E+04  0.13961761017E+04  0.25500000920E-02 0. -1.
        2   -1    0    0  501    0  0.00000000000E+00  0.00000000000E+00 -0.13992400526E+04  0.13992400526E+04  0.25500000920E-02 0.  1.
    10030    2    1    2    0    0  0.00000000000E+00  0.00000000000E+00 -0.30639508248E+01  0.27954161543E+04  0.27954144752E+04 0.  0.
        4    1    3    3  502    0 -0.12023275951E+04  0.15466371995E+03  0.69422083883E+03  0.13969454886E+04  0.12699999809E+01 0. -1.
       -4    1    3    3    0  502  0.12023275951E+04 -0.15466371995E+03 -0.69728478966E+03  0.13984706657E+04  0.12699999809E+01 0.  1.
</event>
<event>
 5   0  0.1853742E-06  0.3078853E+04  0.7818609E-02  0.8221566E-01
       -1   -1    0    0    0  501  0.00000000000E+00  0.00000000000E+00  0.14835442116E+04  0.14835442116E+04  0.50400001928E-02 0.  1.
        1   -1    0    0  501    0  0.00000000000E+00  0.00000000000E+00 -0.15974139988E+04  0.15974139988E+04  0.50400001928E-02 0. -1.
    10030    2    1    2    0    0  0.00000000000E+00  0.00000000000E+00 -0.11386978714E+03  0.30809582104E+04  0.30788532226E+04 0.  0.
        5    1    3    3  502    0 -0.95697232630E+03 -0.97662090779E+03 -0.76468626808E+03  0.15666370382E+04  0.46999998093E+01 0.  1.
       -5    1    3    3    0  502  0.95697232630E+03  0.97662090779E+03  0.65081648094E+03  0.15143211722E+04  0.46999998093E+01 0. -1.
</event>
<event>
 5   0  0.4900679E-06  0.3080807E+04  0.7818609E-02  0.8221025E-01
        2   -1    0    0  501    0  0.00000000000E+00  0.00000000000E+00  0.11501385771E+04  0.11501385771E+04  0.25500000920E-02 0.  1.
       -2   -1    0    0    0  501  0.00000000000E+00  0.00000000000E+00 -0.20630936905E+04  0.20630936905E+04  0.25500000920E-02 0. -1.
    10030    2    1    2    0    0  0.00000000000E+00  0.00000000000E+00 -0.91295511336E+03  0.32132322676E+04  0.30808074536E+04 0.  0.
        4    1    3    3  502    0 -0.46873366256E+03  0.78878619700E+03 -0.17469765138E+04  0.19732773408E+04  0.12699999809E+01 0. -1.
       -4    1    3    3    0  502  0.46873366256E+03 -0.78878619700E+03  0.83402140049E+03  0.12399549267E+04  0.12699999809E+01 0.  1.
</event>
<event>
 5   0  0.1836401E-06  0.3098106E+04  0.7818609E-02  0.8216258E-01
       -1   -1    0    0    0  501  0.00000000000E+00  0.00000000000E+00  0.10023333503E+04  0.10023333503E+04  0.50400001928E-02 0. -1.
        1   -1    0    0  501    0  0.00000000000E+00  0.00000000000E+00 -0.23939799630E+04  0.23939799630E+04  0.50400001928E-02 0.  1.
    10030    2    1    2    0    0  0.00000000000E+00  0.00000000000E+00 -0.13916466127E+04  0.33963133133E+04  0.30981064906E+04 0.  0.
        2    1    3    3  502    0 -0.64424471275E+02  0.13439809578E+04 -0.15372517857E+04  0.20429337679E+04  0.25500000920E-02 0.  1.
       -2    1    3    3    0  502  0.64424471275E+02 -0.13439809578E+04  0.14560517297E+03  0.13533795454E+04  0.25500000920E-02 0. -1.
</event>
<event>
 5   0  0.4927533E-06  0.3011323E+04  0.7818609E-02  0.8240505E-01
       -2   -1    0    0    0  501  0.00000000000E+00  0.00000000000E+00  0.16219583672E+04  0.16219583672E+04  0.25500000920E-02 0.  1.
        2   -1    0    0  501    0  0.00000000000E+00  0.00000000000E+00 -0.13977029645E+04  0.13977029645E+04  0.25500000920E-02 0. -1.
    10030    2    1    2    0    0  0.00000000000E+00  0.00000000000E+00  0.22425540268E+03  0.30196613317E+04  0.30113226450E+04 0.  0.
        5    1    3    3  502    0  0.93934983817E+03  0.31559169632E+03 -0.10245975326E+04  0.14254116708E+04  0.46999998093E+01 0. -1.
       -5    1    3    3    0  502 -0.93934983817E+03 -0.31559169632E+03  0.12488529353E+04  0.15942496609E+04  0.46999998093E+01 0.  1.
</event>
<event>
 5   0  0.1843709E-06  0.3186849E+04  0.7818609E-02  0.8192299E-01
        1   -1    0    0  501    0  0.00000000000E+00  0.00000000000E+00  0.12708492691E+04  0.12708492691E+04  0.50400001928E-02 0. -1.
       -1   -1    0    0    0  501  0.00000000000E+00  0.00000000000E+00 -0.19978777683E+04  0.19978777684E+04  0.50400001928E-02 0.  1.
    10030    2    1    2    0    0  0.00000000000E+00  0.00000000000E+00 -0.72702849923E+03  0.32687270375E+04  0.31868489150E+04 0.  0.
        4    1    3    3  502    0  0.89771225615E+03  0.11014656401E+04 -0.11030705781E+04  0.17988552372E+04  0.12699999809E+01 0.  1.
       -4    1    3    3    0  502 -0.89771225615E+03 -0.11014656401E+04  0.37604207888E+03  0.14698718003E+04  0.12699999809E+01 0. -1.
</event>
<event>
 5   0  0.5001658E-06  0.3072758E+04  0.7818609E-02  0.8223254E-01
        2   -1    0    0  501    0  0.00000000000E+00  0.00000000000E+00  0.12699679041E+04  0.12699679041E+04  0.25500000920E-02 0. -1.
       -2   -1    0    0    0  501  0.00000000000E+00  0.00000000000E+00 -0.18586767672E+04  0.18586767673E+04  0.25500000920E-02 0.  1.
    10030    2    1    2    0    0  0.00000000000E+00  0.00000000000E+00 -0.58870886315E+03  0.31286446714E+04  0.30727576139E+04 0.  0.
        3    1    3    3  502    0 -0.44264741243E+03 -0.11055776660E+04  0.69398097973E+03  0.13783498532E+04  0.10100000352E+00 0. -1.
       -3    1    3    3    0  502  0.44264741243E+03  0.11055776660E+04 -0.12826898429E+04  0.17502948182E+04  0.10100000352E+00 0.  1.
</event>
<event>
 5   0  0.1836401E-06  0.3076211E+04  0.7818609E-02  0.8222297E-01
        1   -1    0    0  501    0  0.00000000000E+00  0.00000000000E+00  0.15759299338E+04  0.15759299338E+04  0.50400001928E-02 0. -1.
       -1   -1    0    0    0  501  0.00000000000E+00  0.00000000000E+00 -0.15011893611E+04  0.15011893611E+04  0.50400001928E-02 0.  1.
    10030    2    1    2    0    0  0.00000000000E+00  0.00000000000E+00  0.74740572761E+02  0.30771192949E+04  0.30762114690E+04 0.  0.
        2    1    3    3  502    0  0.11097334904E+04  0.97586752268E+03  0.46404441504E+03  0.15489231939E+04  0.25500000920E-02 0. -1.
       -2    1    3    3    0  502 -0.11097334904E+04 -0.97586752268E+03 -0.38930384227E+03  0.15281961010E+04  0.25500000920E-02 0.  1.
</event>
<event>
 5   0  0.5114870E-06  0.3085266E+04  0.7818609E-02  0.8219793E-01
        2   -1    0    0  501    0  0.00000000000E+00  0.00000000000E+00  0.23684087042E+04  0.23684087042E+04  0.25500000920E-02 0. -1.
       -2   -1    0    0    0  501  0.00000000000E+00  0.00000000000E+00 -0.10047745212E+04  0.10047745212E+04  0.25500000920E-02 0.  1.
    10030    2    1    2    0    0  0.00000000000E+00  0.00000000000E+00  0.13636341830E+04  0.33731832253E+04  0.30852660966E+04 0.  0.
        2    1    3    3  502    0  0.35512775640E+03 -0.12892904895E+04 -0.15892470898E+03  0.13467155426E+04  0.25500000920E-02 0.  1.
       -2    1    3    3    0  502 -0.35512775640E+03  0.12892904895E+04  0.15225588920E+04  0.20264676827E+04  0.25500000920E-02 0. -1.
</event>
<event>
 5   0  0.4900679E-06  0.3124490E+04  0.7818609E-02  0.8209049E-01
       -2   -1    0    0    0  501  0.00000000000E+00  0.00000000000E+00  0.10110669650E+04  0.10110669650E+04  0.25500000920E-02 0. -1.
        2   -1    0    0  501    0  0.00000000000E+00  0.00000000000E+00 -0.24138955731E+04  0.24138955731E+04  0.25500000920E-02 0.  1.
    10030    2    1    2    0    0  0.00000000000E+00  0.00000000000E+00 -0.14028286081E+04  0.34249625381E+04  0.31244904038E+04 0.  0.
        4    1    3    3  502    0  0.38597305128E+03 -0.65394882060E+03 -0.21979867466E+04  0.23254615902E+04  0.12699999809E+01 0.  1.
       -4    1    3    3    0  502 -0.38597305128E+03  0.65394882060E+03  0.79515813850E+03  0.10995009479E+04  0.12699999809E+01 0. -1.
</event>
<event>
 5   0  0.4927533E-06  0.3082263E+04  0.7818609E-02  0.8220623E-01
        2   -1    0    0  501    0  0.00000000000E+00  0.00000000000E+00  0.12813683522E+04  0.12813683522E+04  0.25500000920E-02 0.  1.
       -2   -1    0    0    0  501  0.00000000000E+00  0.00000000000E+00 -0.18535548691E+04  0.18535548691E+04  0.25500000920E-02 0. -1.
    10030    2    1    2    0    0  0.00000000000E+00  0.00000000000E+00 -0.57218651693E+03  0.31349232212E+04  0.30822631609E+04 0.  0.
        5    1    3    3  502    0  0.38689929552E+03 -0.12817986478E+03  0.12255505824E+04  0.12915562174E+04  0.46999998093E+01 0.  1.
       -5    1    3    3    0  502 -0.38689929552E+03  0.12817986478E+03 -0.17977370993E+04  0.18433670039E+04  0.46999998093E+01 0. -1.
</event>
<event>
 5   0  0.1840431E-06  0.3078840E+04  0.7818609E-02  0.8221569E-01
       -1   -1    0    0    0  501  0.00000000000E+00  0.00000000000E+00  0.15998074187E+04  0.15998074187E+04  0.50400001928E-02 0. -1.
        1   -1    0    0  501    0  0.00000000000E+00  0.00000000000E+00 -0.14813115563E+04  0.14813115563E+04  0.50400001928E-02 0.  1.
    10030    2    1    2    0    0  0.00000000000E+00  0.00000000000E+00  0.11849586245E+03  0.30811189750E+04  0.30788395328E+04 0.  0.
        1    1    3    3  502    0 -0.86286425109E+03 -0.63008175428E+03  0.11683443579E+04  0.15832139058E+04  0.50400001928E-02 0. -1.
       -1    1    3    3    0  502  0.86286425109E+03  0.63008175428E+03 -0.10498484954E+04  0.14979050692E+04  0.50400001928E-02 0.  1.
</event>
<event>
 5   0  0.1836401E-06  0.3114579E+04  0.7818609E-02  0.8211748E-01
       -1   -1    0    0    0  501  0.00000000000E+00  0.00000000000E+00  0.13177551803E+04  0.13177551803E+04  0.50400001928E-02 0.  1.
        1   -1    0    0  501    0  0.00000000000E+00  0.00000000000E+00 -0.18403646981E+04  0.18403646981E+04  0.50400001928E-02 0. -1.
    10030    2    1    2    0    0  0.00000000000E+00  0.00000000000E+00 -0.52260951784E+03  0.31581198784E+04  0.31145786967E+04 0.  0.
        2    1    3    3  502    0  0.46179762860E+03 -0.32740439051E+03  0.12097347741E+04  0.13356305284E+04  0.25500000920E-02 0.  1.
       -2    1    3    3    0  502 -0.46179762860E+03  0.32740439051E+03 -0.17323442920E+04  0.18224893500E+04  0.25500000920E-02 0. -1.
</event>
<event>
 5   0  0.4927533E-06  0.3172343E+04  0.7818609E-02  0.8196160E-01
       -2   -1    0    0    0  501  0.00000000000E+00  0.00000000000E+00  0.15863910209E+04  0.15863910209E+04  0.25500000920E-02 0. -1.
        2   -1    0    0  501    0  0.00000000000E+00  0.00000000000E+00 -0.15859517889E+04  0.15859517889E+04  0.25500000920E-02 0.  1.
    10030    2    1    2    0    0  0.00000000000E+00  0.00000000000E+00  0.43923208967E+00  0.31723428098E+04  0.31723427794E+04 0.  0.
        5    1    3    3  502    0  0.13708956452E+04  0.54761478185E+03  0.58046161258E+03  0.15862517433E+04  0.46999998093E+01 0. -1.
       -5    1    3    3    0  502 -0.13708956452E+04 -0.54761478185E+03 -0.58002238049E+03  0.15860910665E+04  0.46999998093E+01 0.  1.
</event>
<event>
 5   0  0.1885307E-06  0.3069813E+04  0.7818609E-02  0.8224072E-01
        1   -1    0    0  501    0  0.00000000000E+00  0.00000000000E+00  0.14317307502E+04  0.14317307502E+04  0.50400001928E-02 0.  1.
       -1   -1    0    0    0  501  0.00000000000E+00  0.00000000000E+00 -0.16455176241E+04  0.16455176241E+04  0.50400001928E-02 0. -1.
    10030    2    1    2    0    0  0.00000000000E+00  0.00000000000E+00 -0.21378687391E+03  0.30772483743E+04  0.30698131425E+04 0.  0.
        3    1    3    3  502    0 -0.66895865272E+03  0.65857074954E+03 -0.13242140112E+04  0.16231955732E+04  0.10100000352E+00 0. -1.
       -3    1    3    3    0  502  0.66895865272E+03 -0.65857074954E+03  0.11104271373E+04  0.14540528012E+04  0.10100000352E+00 0.  1.
</event>
<event>
 5   0  0.5328368E-06  0.3095493E+04  0.7818609E-02  0.8216976E-01
       -2   -1    0    0    0  501  0.00000000000E+00  0.00000000000E+00  0.17348297915E+04  0.17348297915E+04  0.25500000920E-02 0.  1.
        2   -1    0    0  501    0  0.00000000000E+00  0.00000000000E+00 -0.13808380893E+04  0.13808380893E+04  0.25500000920E-02 0. -1.
    10030    2    1    2    0    0  0.00000000000E+00  0.00000000000E+00  0.35399170214E+03  0.31156678808E+04  0.30954928878E+04 0.  0.
        1    1    3    3  502    0  0.33589343528E+03  0.14286442083E+04 -0.31780798735E+03  0.15016159930E+04  0.50400001928E-02 0. -1.
       -1    1    3    3    0  502 -0.33589343528E+03 -0.14286442083E+04  0.67179968949E+03  0.16140518878E+04  0.50400001928E-02 0.  1.
</event>
<event>
 5   0  0.1840431E-06  0.3116145E+04  0.7818609E-02  0.8211321E-01
        1   -1    0    0  501    0  0.00000000000E+00  0.00000000000E+00  0.23643060782E+04  0.23643060782E+04  0.50400001928E-02 0.  1.
       -1   -1    0    0    0  501  0.00000000000E+00  0.00000000000E+00 -0.10267661696E+04  0.10267661696E+04  0.50400001928E-02 0. -1.
    10030    2    1    2    0    0  0.00000000000E+00  0.00000000000E+00  0.13375399086E+04  0.33910722479E+04  0.31161447308E+04 0.  0.
        1    1    3    3  502    0  0.67418796910E+03 -0.35178147972E+03  0.21486423381E+04  0.22792418749E+04  0.50400001928E-02 0.  1.
       -1    1    3    3    0  502 -0.67418796910E+03  0.35178147972E+03 -0.81110242951E+03  0.11118303730E+04  0.50400001928E-02 0. -1.
</event>
<event>
 5   0  0.5328368E-06  0.3114794E+04  0.7818609E-02  0.8211690E-01
        2   -1    0    0  501    0  0.00000000000E+00  0.00000000000E+00  0.17481343401E+04  0.17481343401E+04  0.25500000920E-02 0. -1.
       -2   -1    0    0    0  501  0.00000000000E+00  0.00000000000E+00 -0.13874706291E+04  0.13874706291E+04  0.25500000920E-02 0.  1.
    10030    2    1    2    0    0  0.00000000000E+00  0.00000000000E+00  0.36066371101E+03  0.31356049692E+04  0.31147937669E+04 0.  0.
        1    1    3    3  502    0 -0.98009691562E+03 -0.49769950067E+03 -0.93030297102E+03  0.14400549902E+04  0.50400001928E-02 0.  1.
       -1    1    3    3    0  502  0.98009691562E+03  0.49769950067E+03  0.12909666820E+04  0.16955499789E+04  0.50400001928E-02 0. -1.
</event>
<event>
 5   0  0.5328368E-06  0.3096657E+04  0.7818609E-02  0.8216656E-01
       -2   -1    0    0    0  501  0.00000000000E+00  0.00000000000E+00  0.10479922743E+04  0.10479922743E+04  0.25500000920E-02 0.  1.
        2   -1    0    0  501    0  0.00000000000E+00  0.00000000000E+00 -0.22875367412E+04  0.22875367412E+04  0.25500000920E-02 0. -1.
    10030    2    1    2    0    0  0.00000000000E+00  0.00000000000E+00 -0.12395444668E+04  0.33355290155E+04  0.30966567986E+04 0.  0.
        1    1    3    3  502    0  0.22209277729E+02  0.14382106360E+04 -0.25259171517E+01  0.14383843248E+04  0.50400001928E-02 0.  1.
       -1    1    3    3    0  502 -0.22209277729E+02 -0.14382106360E+04 -0.12370185497E+04  0.18971446908E+04  0.50400001928E-02 0. -1.
</event>
<event>
 5   0  0.4927533E-06  0.2937973E+04  0.7818609E-02  0.8261668E-01
        2   -1    0    0  501    0  0.00000000000E+00  0.00000000000E+00  0.18332452596E+04  0.18332452596E+04  0.25500000920E-02 0. -1.
       -2   -1    0    0    0  501  0.00000000000E+00  0.00000000000E+00 -0.11771043604E+04  0.11771043604E+04  0.25500000920E-02 0.  1.
    10030    2    1    2    0    0  0.00000000000E+00  0.00000000000E+00  0.65614089921E+03  0.30103496200E+04  0.29379727628E+04 0.  0.
        5    1    3    3  502    0 -0.95541749374E+03 -0.86251485756E+03 -0.39728457974E+03  0.13470751999E+04  0.46999998093E+01 0.  1.
       -5    1    3    3    0  502  0.95541749374E+03  0.86251485756E+03  0.10534254789E+04  0.16632744201E+04  0.46999998093E+01 0. -1.
</event>
<event>
 5   0  0.5001658E-06  0.3178684E+04  0.7818609E-02  0.8194469E-01
        2   -1    0    0  501    0  0.00000000000E+00  0.00000000000E+00  0.15817090934E+04  0.15817090934E+04  0.25500000920E-02 0. -1.
       -2   -1    0    0    0  501  0.00000000000E+00  0.00000000000E+00 -0.15970119560E+04  0.15970119560E+04  0.25500000920E-02 0.  1.
    10030    2    1    2    0    0  0.00000000000E+00  0.00000000000E+00 -0.15302862648E+02  0.31787210494E+04  0.31786842140E+04 0.  0.
        3    1    3    3  502    0  0.14824226536E+04 -0.55858557925E+03 -0.13576829223E+03  0.15899772994E+04  0.10100000352E+00 0.  1.
       -3    1    3    3    0  502 -0.14824226536E+04  0.55858557925E+03  0.12046542959E+03  0.15887437500E+04  0.10100000352E+00 0. -1.
</event>
<event>
 5   0  0.1843709E-06  0.3109039E+04  0.7818609E-02  0.8213262E-01
        1   -1    0    0  501    0  0.00000000000E+00  0.00000000000E+00  0.17279550092E+04  0.17279550092E+04  0.50400001928E-02 0. -1.
       -1   -1    0    0    0  501  0.00000000000E+00  0.00000000000E+00 -0.13984916020E+04  0.13984916020E+04  0.50400001928E-02 0.  1.
    10030    2    1    2    0    0  0.00000000000E+00  0.00000000000E+00  0.32946340722E+03  0.31264466112E+04  0.31090388026E+04 0.  0.
        4    1    3    3  502    0  0.13266017098E+04 -0.61269206493E+03 -0.36858225078E+03  0.15070229432E+04  0.12699999809E+01 0. -1.
       -4    1    3    3    0  502 -0.13266017098E+04  0.61269206493E+03  0.69804565800E+03  0.16194236680E+04  0.12699999809E+01 0.  1.
</event>
<event>
 5   0  0.1885307E-06  0.2648273E+04  0.7818609E-02  0.8351986E-01
        1   -1    0    0  501    0  0.00000000000E+00  0.00000000000E+00  0.88165817162E+03  0.88165817163E+03  0.50400001928E-02 0.  1.
       -1   -1    0    0    0  501  0.00000000000E+00  0.00000000000E+00 -0.19886813199E+04  0.19886813199E+04  0.50400001928E-02 0. -1.
    10030    2    1    2    0    0  0.00000000000E+00  0.00000000000E+00 -0.11070231483E+04  0.28703394916E+04  0.26482727477E+04 0.  0.
        3    1    3    3  502    0 -0.12400455244E+04 -0.39036386089E+03 -0.82607491668E+03  0.15402910844E+04  0.10100000352E+00 0.  1.
       -3    1    3    3    0  502  0.12400455244E+04  0.39036386089E+03 -0.28094823164E+03  0.13300484072E+04  0.10100000352E+00 0. -1.
</event>
<event>
 5   0  0.1836401E-06  0.2586031E+04  0.7818609E-02  0.8372962E-01
        1   -1    0    0  501    0  0.00000000000E+00  0.00000000000E+00  0.15176396611E+04  0.15176396611E+04  0.50400001928E-02 0. -1.
       -1   -1    0    0    0  501  0.00000000000E+00  0.00000000000E+00 -0.11016380290E+04  0.11016380290E+04  0.50400001928E-02 0.  1.
    10030    2    1    2    0    0  0.00000000000E+00  0.00000000000E+00  0.41600163218E+03  0.26192776901E+04  0.25860313726E+04 0.  0.
        2    1    3    3  502    0 -0.61734883135E+03 -0.24622387938E+03  0.13313782438E+04  0.14880570576E+04  0.25500000920E-02 0. -1.
       -2    1    3    3    0  502  0.61734883135E+03  0.24622387938E+03 -0.91537661166E+03  0.11312206326E+04  0.25500000920E-02 0.  1.
</event>
<event>
 5   0  0.1840431E-06  0.2477429E+04  0.7818609E-02  0.8411071E-01
       -1   -1    0    0    0  501  0.00000000000E+00  0.00000000000E+00  0.57962924734E+03  0.57962924736E+03  0.50400001928E-02 0. -1.
        1   -1    0    0  501    0  0.00000000000E+00  0.00000000000E+00 -0.26472334468E+04  0.26472334468E+04  0.50400001928E-02 0.  1.
    10030    2    1    2    0    0  0.00000000000E+00  0.00000000000E+00 -0.20676041994E+04  0.32268626941E+04  0.24774292566E+04 0.  0.
        1    1    3    3  502    0  0.10908478279E+04  0.23888389708E+03 -0.33553404182E+03  0.11660178357E+04  0.50400001928E-02 0. -1.
       -1    1    3    3    0  502 -0.10908478279E+04 -0.23888389708E+03 -0.17320701576E+04  0.20608448585E+04  0.50400001928E-02 0.  1.
</event>
<event>
 5   0  0.5328368E-06  0.3073464E+04  0.7818609E-02  0.8223058E-01
       -2   -1    0    0    0  501  0.00000000000E+00  0.00000000000E+00  0.10433412919E+04  0.10433412919E+04  0.25500000920E-02 0.  1.
        2   -1    0    0  501    0  0.00000000000E+00  0.00000000000E+00 -0.22634447802E+04  0.22634447802E+04  0.25500000920E-02 0. -1.
    10030    2    1    2    0    0  0.00000000000E+00  0.00000000000E+00 -0.12201034883E+04  0.33067860722E+04  0.30734641050E+04 0.  0.
        1    1    3    3  502    0 -0.14317221910E+04 -0.25364470998E+03 -0.11451843513E+04  0.18508406926E+04  0.50400001928E-02 0. -1.
       -1    1    3    3    0  502  0.14317221910E+04  0.25364470998E+03 -0.74919137006E+02  0.14559453795E+04  0.50400001928E-02 0.  1.
</event>
<event>
 5   0  0.1885307E-06  0.2645548E+04  0.7818609E-02  0.8352892E-01
        1   -1    0    0  501    0  0.00000000000E+00  0.00000000000E+00  0.64261457204E+03  0.64261457206E+03  0.50400001928E-02 0.  1.
       -1   -1    0    0    0  501  0.00000000000E+00  0.00000000000E+00 -0.27228304196E+04  0.27228304196E+04  0.50400001928E-02 0. -1.
    10030    2    1    2    0    0  0.00000000000E+00  0.00000000000E+00 -0.20802158476E+04  0.33654449917E+04  0.26455475840E+04 0.  0.
        3    1    3    3  502    0  0.43273032115E+03  0.71366414229E+03  0.26538276479E+03  0.87578539659E+03  0.10100000352E+00 0.  1.
       -3    1    3    3    0  502 -0.43273032115E+03 -0.71366414229E+03 -0.23455986124E+04  0.24896595951E+04  0.10100000352E+00 0. -1.
</event>
<event>
 5   0  0.5114870E-06  0.3104681E+04  0.7818609E-02  0.8214455E-01
        2   -1    0    0  501    0  0.00000000000E+00  0.00000000000E+00  0.96331687890E+03  0.96331687891E+03  0.25500000920E-02 0. -1.
       -2   -1    0    0    0  501  0.00000000000E+00  0.00000000000E+00 -0.25015243010E+04  0.25015243010E+04  0.25500000920E-02 0.  1.
    10030    2    1    2    0    0  0.00000000000E+00  0.00000000000E+00 -0.15382074220E+04  0.34648411799E+04  0.31046807128E+04 0.  0.
        2    1    3    3  502    0 -0.53541334658E+03  0.86178417113E+03  0.54210611339E+03  0.11503123261E+04  0.25500000920E-02 0. -1.
       -2    1    3    3    0  502  0.53541334658E+03 -0.86178417113E+03 -0.20803135354E+04  0.23145288538E+04  0.25500000920E-02 0.  1.
</event>
<event>
 5   0  0.1853742E-06  0.2889868E+04  0.7818609E-02  0.8275898E-01
        1   -1    0    0  501    0  0.00000000000E+00  0.00000000000E+00  0.24898540164E+04  0.24898540164E+04  0.50400001928E-02 0. -1.
       -1   -1    0    0    0  501  0.00000000000E+00  0.00000000000E+00 -0.83853672563E+03  0.83853672564E+03  0.50400001928E-02 0.  1.
    10030    2    1    2    0    0  0.00000000000E+00  0.00000000000E+00  0.16513172908E+04  0.33283907421E+04  0.28898678408E+04 0.  0.
        5    1    3    3  502    0  0.89969462956E+03 -0.74622510368E+02  0.21250357561E+04  0.23088564269E+04  0.46999998093E+01 0. -1.
       -5    1    3    3    0  502 -0.89969462956E+03  0.74622510368E+02 -0.47371846525E+03  0.10195343152E+04  0.46999998093E+01 0.  1.
</event>
<event>
 5   0  0.4900679E-06  0.2911557E+04  0.7818609E-02  0.8269447E-01
       -2   -1    0    0    0  501  0.00000000000E+00  0.00000000000E+00  0.11671681254E+04  0.11671681254E+04  0.25500000920E-02 0. -1.
        2   -1    0    0  501    0  0.00000000000E+00  0.00000000000E+00 -0.18157545776E+04  0.18157545777E+04  0.25500000920E-02 0.  1.
    10030    2    1    2    0    0  0.00000000000E+00  0.00000000000E+00 -0.64858645221E+03  0.29829227031E+04  0.29115568802E+04 0.  0.
        4    1    3    3  502    0  0.33936368461E+03 -0.13033215575E+04  0.24195150552E+03  0.13683409431E+04  0.12699999809E+01 0. -1.
       -4    1    3    3    0  502 -0.33936368461E+03  0.13033215575E+04 -0.89053795773E+03  0.16145817600E+04  0.12699999809E+01 0.  1.
</event>
<event>
 5   0  0.5328368E-06  0.3132752E+04  0.7818609E-02  0.8206806E-01
       -2   -1    0    0    0  501  0.00000000000E+00  0.00000000000E+00  0.14905906436E+04  0.14905906436E+04  0.25500000920E-02 0.  1.
        2   -1    0    0  501    0  0.00000000000E+00  0.00000000000E+00 -0.16460144584E+04  0.16460144584E+04  0.25500000920E-02 0. -1.
    10030    2    1    2    0    0  0.00000000000E+00  0.00000000000E+00 -0.15542381484E+03  0.31366051021E+04  0.31327519857E+04 0.  0.
        1    1    3    3  502    0 -0.14425213428E+04  0.45923628912E+03 -0.48041047196E+03  0.15882569109E+04  0.50400001928E-02 0. -1.
       -1    1    3    3    0  502  0.14425213428E+04 -0.45923628912E+03  0.32498665712E+03  0.15483481911E+04  0.50400001928E-02 0.  1.
</event>
<event>
 5   0  0.5328368E-06  0.3065354E+04  0.7818609E-02  0.8225311E-01
        2   -1    0    0  501    0  0.00000000000E+00  0.00000000000E+00  0.17352505388E+04  0.17352505388E+04  0.25500000920E-02 0. -1.
       -2   -1    0    0    0  501  0.00000000000E+00  0.00000000000E+00 -0.13537517279E+04  0.13537517279E+04  0.25500000920E-02 0.  1.
    10030    2    1    2    0    0  0.00000000000E+00  0.00000000000E+00  0.38149881086E+03  0.30890022667E+04  0.30653537578E+04 0.  0.
        1    1    3    3  502    0  0.44878382509E+03  0.76889590077E+03  0.14479682287E+04  0.16997705196E+04  0.50400001928E-02 0. -1.
       -1    1    3    3    0  502 -0.44878382509E+03 -0.76889590077E+03 -0.10664694178E+04  0.13892317471E+04  0.50400001928E-02 0.  1.
</event>
<event>
 5   0  0.1843709E-06  0.3247672E+04  0.7818609E-02  0.8176339E-01
       -1   -1    0    0    0  501  0.00000000000E+00  0.00000000000E+00  0.10190521499E+04  0.10190521500E+04  0.50400001928E-02 0.  1.
        1   -1    0    0  501    0  0.00000000000E+00  0.00000000000E+00 -0.25875449242E+04  0.25875449242E+04  0.50400001928E-02 0. -1.
    10030    2    1    2    0    0  0.00000000000E+00  0.00000000000E+00 -0.15684927743E+04  0.36065970742E+04  0.32476719158E+04 0.  0.
        4    1    3    3  502    0  0.73505463572E+03  0.43476485338E+03  0.74952117778E+03  0.11362699521E+04  0.12699999809E+01 0.  1.
       -4    1    3    3    0  502 -0.73505463572E+03 -0.43476485338E+03 -0.23180139520E+04  0.24703271221E+04  0.12699999809E+01 0. -1.
</event>
<event>
 5   0  0.4900679E-06  0.3210957E+04  0.7818609E-02  0.8185929E-01
        2   -1    0    0  501    0  0.00000000000E+00  0.00000000000E+00  0.14044018254E+04  0.14044018254E+04  0.25500000920E-02 0. -1.
       -2   -1    0    0    0  501  0.00000000000E+00  0.00000000000E+00 -0.18353443503E+04  0.18353443503E+04  0.25500000920E-02 0.  1.
    10030    2    1    2    0    0  0.00000000000E+00  0.00000000000E+00 -0.43094252494E+03  0.32397461756E+04  0.32109568391E+04 0.  0.
        4    1    3    3  502    0 -0.51012438614E+03  0.75949168487E+03  0.11156393161E+04  0.14428122557E+04  0.12699999809E+01 0. -1.
       -4    1    3    3    0  502  0.51012438614E+03 -0.75949168487E+03 -0.15465818410E+04  0.17969339199E+04  0.12699999809E+01 0.  1.
</event>
<event>
 5   0  0.4900679E-06  0.3081634E+04  0.7818609E-02  0.8220796E-01
       -2   -1    0    0    0  501  0.00000000000E+00  0.00000000000E+00  0.17241623907E+04  0.17241623907E+04  0.25500000920E-02 0. -1.
        2   -1    0    0  501    0  0.00000000000E+00  0.00000000000E+00 -0.13769687082E+04  0.13769687082E+04  0.25500000920E-02 0.  1.
    10030    2    1    2    0    0  0.00000000000E+00  0.00000000000E+00  0.34719368258E+03  0.31011310989E+04  0.30816344104E+04 0.  0.
        4    1    3    3  502    0 -0.99260850332E+03 -0.28390618692E+03 -0.97742351011E+03  0.14217006347E+04  0.12699999809E+01 0.  1.
       -4    1    3    3    0  502  0.99260850332E+03  0.28390618692E+03  0.13246171927E+04  0.16794304641E+04  0.12699999809E+01 0. -1.
</event>
<event>
 5   0  0.1836401E-06  0.3059060E+04  0.7818609E-02  0.8227064E-01
       -1   -1    0    0    0  501  0.00000000000E+00  0.00000000000E+00  0.79017358243E+03  0.79017358244E+03  0.50400001928E-02 0. -1.
        1   -1    0    0  501    0  0.00000000000E+00  0.00000000000E+00 -0.29606938809E+04  0.29606938809E+04  0.50400001928E-02 0.  1.
    10030    2    1    2    0    0  0.00000000000E+00  0.00000000000E+00 -0.21705202985E+04  0.37508674634E+04  0.30590600454E+04 0.  0.
        2    1    3    3  502    0  0.71715613311E+03  0.99846811589E+03 -0.22011314481E+04  0.25211567087E+04  0.25500000920E-02 0.  1.
       -2    1    3    3    0  502 -0.71715613311E+03 -0.99846811589E+03  0.30611149646E+02  0.12297107547E+04  0.25500000920E-02 0. -1.
</event>
<event>
 5   0  0.5328368E-06  0.3108128E+04  0.7818609E-02  0.8213511E-01
        2   -1    0    0  501    0  0.00000000000E+00  0.00000000000E+00  0.19544139428E+04  0.19544139428E+04  0.25500000920E-02 0. -1.
       -2   -1    0    0    0  501  0.00000000000E+00  0.00000000000E+00 -0.12357234298E+04  0.12357234298E+04  0.25500000920E-02 0.  1.
    10030    2    1    2    0    0  0.00000000000E+00  0.00000000000E+00  0.71869051297E+03  0.31901373726E+04  0.31081281187E+04 0.  0.
        1    1    3    3  502    0  0.63421314430E+03 -0.33628438647E+03 -0.10553555368E+04  0.12763576340E+04  0.50400001928E-02 0.  1.
       -1    1    3    3    0  502 -0.63421314430E+03  0.33628438647E+03  0.17740460497E+04  0.19137797385E+04  0.50400001928E-02 0. -1.
</event>
<event>
 5   0  0.1853742E-06  0.3069018E+04  0.7818609E-02  0.8224293E-01
       -1   -1    0    0    0  501  0.00000000000E+00  0.00000000000E+00  0.13666035120E+04  0.13666035120E+04  0.50400001928E-02 0.  1.
        1   -1    0    0  501    0  0.00000000000E+00  0.00000000000E+00 -0.17230434215E+04  0.17230434215E+04  0.50400001928E-02 0. -1.
    10030    2    1    2    0    0  0.00000000000E+00  0.00000000000E+00 -0.35643990952E+03  0.30896469336E+04  0.30690175570E+04 0.  0.
        5    1    3    3  502    0  0.14444178235E+04 -0.48875964898E+03 -0.35103119000E+03  0.15647599910E+04  0.46999998093E+01 0.  1.
       -5    1    3    3    0  502 -0.14444178235E+04  0.48875964898E+03 -0.54087195195E+01  0.15248869425E+04  0.46999998093E+01 0. -1.
</event>
<event>
 5   0  0.1853742E-06  0.3226343E+04  0.7818609E-02  0.8181894E-01
       -1   -1    0    0    0  501  0.00000000000E+00  0.00000000000E+00  0.14171115395E+04  0.14171115395E+04  0.50400001928E-02 0.  1.
        1   -1    0    0  501    0  0.00000000000E+00  0.00000000000E+00 -0.18363571426E+04  0.18363571426E+04  0.50400001928E-02 0. -1.
    10030    2    1    2    0    0  0.00000000000E+00  0.00000000000E+00 -0.41924560313E+03  0.32534686821E+04  0.32263433776E+04 0.  0.
        5    1    3    3  502    0 -0.77728046498E+03  0.11509404461E+04  0.61793018010E+03  0.15200949408E+04  0.46999998093E+01 0.  1.
       -5    1    3    3    0  502  0.77728046498E+03 -0.11509404461E+04 -0.10371757832E+04  0.17333737413E+04  0.46999998093E+01 0. -1.
</event>
<event>
 5   0  0.1853742E-06  0.3065487E+04  0.7818609E-02  0.8225274E-01
        1   -1    0    0  501    0  0.00000000000E+00  0.00000000000E+00  0.12752098225E+04  0.12752098225E+04  0.50400001928E-02 0.  1.
       -1   -1    0    0    0  501  0.00000000000E+00  0.00000000000E+00 -0.18422873767E+04  0.18422873767E+04  0.50400001928E-02 0. -1.
    10030    2    1    2    0    0  0.00000000000E+00  0.00000000000E+00 -0.56707755421E+03  0.31174971992E+04  0.30654872100E+04 0.  0.
        5    1    3    3  502    0 -0.14938993704E+04 -0.33925341713E+01  0.65110186319E+02  0.14953288148E+04  0.46999998093E+01 0.  1.
       -5    1    3    3    0  502  0.14938993704E+04  0.33925341713E+01 -0.63218774053E+03  0.16221683844E+04  0.46999998093E+01 0. -1.
</event>
<event>
 5   0  0.1836401E-06  0.2903232E+04  0.7818609E-02  0.8271917E-01
        1   -1    0    0  501    0  0.00000000000E+00  0.00000000000E+00  0.14643110387E+04  0.14643110387E+04  0.50400001928E-02 0. -1.
       -1   -1    0    0    0  501  0.00000000000E+00  0.00000000000E+00 -0.14390307143E+04  0.14390307143E+04  0.50400001928E-02 0.  1.
    10030    2    1    2    0    0  0.00000000000E+00  0.00000000000E+00  0.25280324431E+02  0.29033417530E+04  0.29032316890E+04 0.  0.
        2    1    3    3  502    0  0.49826557872E+03  0.11554297746E+04 -0.71119803297E+03  0.14453681860E+04  0.25500000920E-02 0.  1.
       -2    1    3    3    0  502 -0.49826557872E+03 -0.11554297746E+04  0.73647835740E+03  0.14579735670E+04  0.25500000920E-02 0. -1.
</event>
<event>
 5   0  0.5001658E-06  0.3099086E+04  0.7818609E-02  0.8215989E-01
       -2   -1    0    0    0  501  0.00000000000E+00  0.00000000000E+00  0.16529064258E+04  0.16529064258E+04  0.25500000920E-02 0. -1.
        2   -1    0    0  501    0  0.00000000000E+00  0.00000000000E+00 -0.14526437224E+04  0.14526437224E+04  0.25500000920E-02 0.  1.
    10030    2    1    2    0    0  0.00000000000E+00  0.00000000000E+00  0.20026270340E+03  0.31055501482E+04  0.30990864093E+04 0.  0.
        3    1    3    3  502    0 -0.85999446063E+03  0.12022717408E+04 -0.36563514759E+03  0.15227399261E+04  0.10100000352E+00 0.  1.
       -3    1    3    3    0  502  0.85999446063E+03 -0.12022717408E+04  0.56589785099E+03  0.15828102221E+04  0.10100000352E+00 0. -1.
</event>
<event>
 5   0  0.4927533E-06  0.3116977E+04  0.7818609E-02  0.8211094E-01
       -2   -1    0    0    0  501  0.00000000000E+00  0.00000000000E+00  0.25604539274E+04  0.25604539274E+04  0.25500000920E-02 0. -1.
        2   -1    0    0  501    0  0.00000000000E+00  0.00000000000E+00 -0.94861584960E+03  0.94861584961E+03  0.25500000920E-02 0.  1.
    10030    2    1    2    0    0  0.00000000000E+00  0.00000000000E+00  0.16118380778E+04  0.35090697770E+04  0.31169774961E+04 0.  0.
        5    1    3    3  502    0  0.15333568997E+04  0.26119633585E+03  0.69643214778E+03  0.17042437426E+04  0.46999998093E+01 0.  1.
       -5    1    3    3    0  502 -0.15333568997E+04 -0.26119633585E+03  0.91540593003E+03  0.18048260344E+04  0.46999998093E+01 0. -1.
</event>
<event>
 5   0  0.5114870E-06  0.3101054E+04  0.7818609E-02  0.8215449E-01
        2   -1    0    0  501    0  0.00000000000E+00  0.00000000000E+00  0.11970702037E+04  0.11970702037E+04  0.25500000920E-02 0.  1.
       -2   -1    0    0    0  501  0.00000000000E+00  0.00000000000E+00 -0.20083479958E+04  0.20083479958E+04  0.25500000920E-02 0. -1.
    10030    2    1    2    0    0  0.00000000000E+00  0.00000000000E+00 -0.81127779206E+03  0.32054181995E+04  0.31010537205E+04 0.  0.
        2    1    3    3  502    0  0.55047286141E+03  0.14270278125E+04 -0.14270677564E+03  0.15361620919E+04  0.25500000920E-02 0.  1.
       -2    1    3    3    0  502 -0.55047286141E+03 -0.14270278125E+04 -0.66857101642E+03  0.16692561076E+04  0.25500000920E-02 0. -1.
</event>
<event>
 5   0  0.1843709E-06  0.3065576E+04  0.7818609E-02  0.8225249E-01
        1   -1    0    0  501    0  0.00000000000E+00  0.00000000000E+00  0.91866365298E+03  0.91866365299E+03  0.50400001928E-02 0. -1.
       -1   -1    0    0    0  501  0.00000000000E+00  0.00000000000E+00 -0.25574532987E+04  0.25574532987E+04  0.50400001928E-02 0.  1.
    10030    2    1    2    0    0  0.00000000000E+00  0.00000000000E+00 -0.16387896457E+04  0.34761169517E+04  0.30655762197E+04 0.  0.
        4    1    3    3  502    0  0.42703796854E+03  0.10338112547E+04 -0.20077461526E+04  0.22982979274E+04  0.12699999809E+01 0.  1.
       -4    1    3    3    0  502 -0.42703796854E+03 -0.10338112547E+04  0.36895650694E+03  0.11778190242E+04  0.12699999809E+01 0. -1.
</event>
<event>
 5   0  0.5328368E-06  0.3097687E+04  0.7818609E-02  0.8216373E-01
        2   -1    0    0  501    0  0.00000000000E+00  0.00000000000E+00  0.25671699119E+04  0.25671699119E+04  0.25500000920E-02 0. -1.
       -2   -1    0    0    0  501  0.00000000000E+00  0.00000000000E+00 -0.93445970946E+03  0.93445970946E+03  0.25500000920E-02 0.  1.
    10030    2    1    2    0    0  0.00000000000E+00  0.00000000000E+00  0.16327102024E+04  0.35016296213E+04  0.30976874277E+04 0.  0.
        1    1    3    3  502    0 -0.48595920907E+03  0.10696762201E+04 -0.32448424328E+03  0.12188739036E+04  0.50400001928E-02 0.  1.
       -1    1    3    3    0  502  0.48595920907E+03 -0.10696762201E+04  0.19571944457E+04  0.22827557178E+04  0.50400001928E-02 0. -1.
</event>
<event>
 5   0  0.1836401E-06  0.2989999E+04  0.7818609E-02  0.8246592E-01
        1   -1    0    0  501    0  0.00000000000E+00  0.00000000000E+00  0.63501730122E+03  0.63501730124E+03  0.50400001928E-02 0.  1.
       -1   -1    0    0    0  501  0.00000000000E+00  0.00000000000E+00 -0.35196263625E+04  0.35196263625E+04  0.50400001928E-02 0. -1.
    10030    2    1    2    0    0  0.00000000000E+00  0.00000000000E+00 -0.28846090613E+04  0.41546436638E+04  0.29899990864E+04 0.  0.
        2    1    3    3  502    0 -0.13914056604E+04  0.35887652324E+03 -0.20155887837E+04  0.24753586035E+04  0.25500000920E-02 0.  1.
       -2    1    3    3    0  502  0.13914056604E+04 -0.35887652324E+03 -0.86902027756E+03  0.16792850603E+04  0.25500000920E-02 0. -1.
</event>
<event>
 5   0  0.1840431E-06  0.3165406E+04  0.7818609E-02  0.8198014E-01
       -1   -1    0    0    0  501  0.00000000000E+00  0.00000000000E+00  0.12814484661E+04  0.12814484661E+04  0.50400001928E-02 0. -1.
        1   -1    0    0  501    0  0.00000000000E+00  0.00000000000E+00 -0.19547790682E+04  0.19547790682E+04  0.50400001928E-02 0.  1.
    10030    2    1    2    0    0  0.00000000000E+00  0.00000000000E+00 -0.67333060208E+03  0.32362275343E+04  0.31654059067E+04 0.  0.
        1    1    3    3  502    0  0.33514967909E+03  0.11612250629E+04  0.70804832662E+03  0.14007502942E+04  0.50400001928E-02 0. -1.
       -1    1    3    3    0  502 -0.33514967909E+03 -0.11612250629E+04 -0.13813789287E+04  0.18354772400E+04  0.50400001928E-02 0.  1.
</event>
<event>
 5   0  0.1885307E-06  0.3020030E+04  0.7818609E-02  0.8238034E-01
        1   -1    0    0  501    0  0.00000000000E+00  0.00000000000E+00  0.17731140925E+04  0.17731140925E+04  0.50400001928E-02 0. -1.
       -1   -1    0    0    0  501  0.00000000000E+00  0.00000000000E+00 -0.12859554084E+04  0.12859554084E+04  0.50400001928E-02 0.  1.
    10030    2    1    2    0    0  0.00000000000E+00  0.00000000000E+00  0.48715868414E+03  0.30590695009E+04  0.30200302363E+04 0.  0.
        3    1    3    3  502    0 -0.37536533382E+03 -0.13159240630E+04  0.89026020927E+03  0.16325190731E+04  0.10100000352E+00 0. -1.
       -3    1    3    3    0  502  0.37536533382E+03  0.13159240630E+04 -0.40310152513E+03  0.14265504279E+04  0.10100000352E+00 0.  1.
</event>
<event>
 5   0  0.1836401E-06  0.3145921E+04  0.7818609E-02  0.8203247E-01
        1   -1    0    0  501    0  0.00000000000E+00  0.00000000000E+00  0.21384446826E+04  0.21384446826E+04  0.50400001928E-02 0. -1.
       -1   -1    0    0    0  501  0.00000000000E+00  0.00000000000E+00 -0.11570114746E+04  0.11570114746E+04  0.50400001928E-02 0.  1.
    10030    2    1    2    0    0  0.00000000000E+00  0.00000000000E+00  0.98143320794E+03  0.32954561572E+04  0.31459211914E+04 0.  0.
        2    1    3    3  502    0  0.10519780242E+04 -0.93057520317E+03 -0.25116829895E+03  0.14267843168E+04  0.25500000920E-02 0. -1.
       -2    1    3    3    0  502 -0.10519780242E+04  0.93057520317E+03  0.12326015069E+04  0.18686718404E+04  0.25500000920E-02 0.  1.
</event>
<event>
 5   0  0.1885307E-06  0.3097671E+04  0.7818609E-02  0.8216377E-01
       -1   -1    0    0    0  501  0.00000000000E+00  0.00000000000E+00  0.14093629983E+04  0.14093629983E+04  0.50400001928E-02 0. -1.
        1   -1    0    0  501    0  0.00000000000E+00  0.00000000000E+00 -0.17021109396E+04  0.17021109396E+04  0.50400001928E-02 0.  1.
    10030    2    1    2    0    0  0.00000000000E+00  0.00000000000E+00 -0.29274794130E+03  0.31114739380E+04  0.30976714980E+04 0.  0.
        3    1    3    3  502    0  0.35842711031E+03 -0.11003899932E+04 -0.11803117691E+04  0.16530166403E+04  0.10100000352E+00 0.  1.
       -3    1    3    3    0  502 -0.35842711031E+03  0.11003899932E+04  0.88756382781E+03  0.14584572977E+04  0.10100000352E+00 0. -1.
</event>
<event>
 5   0  0.1840431E-06  0.3118181E+04  0.7818609E-02  0.8210766E-01
        1   -1    0    0  501    0  0.00000000000E+00  0.00000000000E+00  0.19544369432E+04  0.19544369432E+04  0.50400001928E-02 0. -1.
       -1   -1    0    0    0  501  0.00000000000E+00  0.00000000000E+00 -0.12437153323E+04  0.12437153323E+04  0.50400001928E-02 0.  1.
    10030    2    1    2    0    0  0.00000000000E+00  0.00000000000E+00  0.71072161096E+03  0.31981522755E+04  0.31181810033E+04 0.  0.
        1    1    3    3  502    0  0.84730340437E+03  0.12837516053E+04  0.61649206243E+03  0.16571070292E+04  0.50400001928E-02 0. -1.
       -1    1    3    3    0  502 -0.84730340437E+03 -0.12837516053E+04  0.94229548536E+02  0.15410452463E+04  0.50400001928E-02 0.  1.
</event>
<event>
 5   0  0.1836401E-06  0.3141463E+04  0.7818609E-02  0.8204450E-01
       -1   -1    0    0    0  501  0.00000000000E+00  0.00000000000E+00  0.22005483955E+04  0.22005483955E+04  0.50400001928E-02 0.  1.
        1   -1    0    0  501    0  0.00000000000E+00  0.00000000000E+00 -0.11211740165E+04  0.11211740165E+04  0.50400001928E-02 0. -1.
    10030    2    1    2    0    0  0.00000000000E+00  0.00000000000E+00  0.10793743790E+04  0.33217224120E+04  0.31414631515E+04 0.  0.
        2    1    3    3  502    0 -0.54967756061E+03  0.11903606608E+04 -0.37486687205E+03  0.13636821826E+04  0.25500000920E-02 0. -1.
       -2    1    3    3    0  502  0.54967756061E+03 -0.11903606608E+04  0.14542412511E+04  0.19580402294E+04  0.25500000920E-02 0.  1.
</event>
<event>
 5   0  0.5114870E-06  0.2508589E+04  0.7818609E-02  0.8399932E-01
        2   -1    0    0  501    0  0.00000000000E+00  0.00000000000E+00  0.15989051194E+04  0.15989051194E+04  0.25500000920E-02 0. -1.
       -2   -1    0    0    0  501  0.00000000000E+00  0.00000000000E+00 -0.98395742371E+03  0.98395742372E+03  0.25500000920E-02 0.  1.
    10030    2    1    2    0    0  0.00000000000E+00  0.00000000000E+00  0.61494769565E+03  0.25828625431E+04  0.25085888958E+04 0.  0.
        2    1    3    3  502    0  0.34078134764E+03 -0.11000581542E+04 -0.20422637859E+03  0.11696017627E+04  0.25500000920E-02 0.  1.
       -2    1    3    3    0  502 -0.34078134764E+03  0.11000581542E+04  0.81917407424E+03  0.14132607804E+04  0.25500000920E-02 0. -1.
</event>
<event>
 5   0  0.1836401E-06  0.3099538E+04  0.7818609E-02  0.8215865E-01
       -1   -1    0    0    0  501  0.00000000000E+00  0.00000000000E+00  0.95896598369E+03  0.95896598371E+03  0.50400001928E-02 0. -1.
        1   -1    0    0  501    0  0.00000000000E+00  0.00000000000E+00 -0.25045556752E+04  0.25045556752E+04  0.50400001928E-02 0.  1.
    10030    2    1    2    0    0  0.00000000000E+00  0.00000000000E+00 -0.15455896915E+04  0.34635216589E+04  0.30995378344E+04 0.  0.
        2    1    3    3  502    0 -0.13061911362E+04  0.69722583326E+03 -0.26130334199E+03  0.15035087573E+04  0.25500000920E-02 0. -1.
       -2    1    3    3    0  502  0.13061911362E+04 -0.69722583326E+03 -0.12842863495E+04  0.19600129016E+04  0.25500000920E-02 0.  1.
</event>
<event>
 5   0  0.1853742E-06  0.3079260E+04  0.7818609E-02  0.8221453E-01
       -1   -1    0    0    0  501  0.00000000000E+00  0.00000000000E+00  0.10853286879E+04  0.10853286879E+04  0.50400001928E-02 0.  1.
        1   -1    0    0  501    0  0.00000000000E+00  0.00000000000E+00 -0.21840945694E+04  0.21840945694E+04  0.50400001928E-02 0. -1.
    10030    2    1    2    0    0  0.00000000000E+00  0.00000000000E+00 -0.10987658815E+04  0.32694232573E+04  0.30792599717E+04 0.  0.
        5    1    3    3  502    0  0.61221272419E+03  0.87981124377E+03 -0.17228834643E+04  0.20290938287E+04  0.46999998093E+01 0. -1.
       -5    1    3    3    0  502 -0.61221272419E+03 -0.87981124377E+03  0.62411758280E+03  0.12403294286E+04  0.46999998093E+01 0.  1.
</event>
<event>
 5   0  0.5001658E-06  0.3032087E+04  0.7818609E-02  0.8234627E-01
        2   -1    0    0  501    0  0.00000000000E+00  0.00000000000E+00  0.26863159785E+04  0.26863159785E+04  0.25500000920E-02 0.  1.
       -2   -1    0    0    0  501  0.00000000000E+00  0.00000000000E+00 -0.85559095507E+03  0.85559095508E+03  0.25500000920E-02 0. -1.
    10030    2    1    2    0    0  0.00000000000E+00  0.00000000000E+00  0.18307250234E+04  0.35419069336E+04  0.30320868416E+04 0.  0.
        3    1    3    3  502    0  0.48043016697E+03  0.44532322348E+03 -0.68173181356E+03  0.94545449099E+03  0.10100000352E+00 0. -1.
       -3    1    3    3    0  502 -0.48043016697E+03 -0.44532322348E+03  0.25124568370E+04  0.25964524426E+04  0.10100000352E+00 0.  1.
</event>
<event>
 5   0  0.5001658E-06  0.3067723E+04  0.7818609E-02  0.8224652E-01
        2   -1    0    0  501    0  0.00000000000E+00  0.00000000000E+00  0.16810687818E+04  0.16810687818E+04  0.25500000920E-02 0. -1.
       -2   -1    0    0    0  501  0.00000000000E+00  0.00000000000E+00 -0.13995451834E+04  0.13995451834E+04  0.25500000920E-02 0.  1.
    10030    2    1    2    0    0  0.00000000000E+00  0.00000000000E+00  0.28152359844E+03  0.30806139652E+04  0.30677234012E+04 0.  0.
        3    1    3    3  502    0 -0.87241747609E+03  0.12579330138E+04  0.44316644743E+02  0.15314932892E+04  0.10100000352E+00 0. -1.
       -3    1    3    3    0  502  0.87241747609E+03 -0.12579330138E+04  0.23720695369E+03  0.15491206760E+04  0.10100000352E+00 0.  1.
</event>
<event>
 5   0  0.4900679E-06  0.3097092E+04  0.7818609E-02  0.8216536E-01
       -2   -1    0    0    0  501  0.00000000000E+00  0.00000000000E+00  0.12981255683E+04  0.12981255683E+04  0.25500000920E-02 0.  1.
        2   -1    0    0  501    0  0.00000000000E+00  0.00000000000E+00 -0.18472746056E+04  0.18472746056E+04  0.25500000920E-02 0. -1.
    10030    2    1    2    0    0  0.00000000000E+00  0.00000000000E+00 -0.54914903733E+03  0.31454001739E+04  0.30970917953E+04 0.  0.
        4    1    3    3  502    0  0.74289269884E+03  0.94384404642E+03  0.71804542677E+03  0.13994005837E+04  0.12699999809E+01 0.  1.
       -4    1    3    3    0  502 -0.74289269884E+03 -0.94384404642E+03 -0.12671944641E+04  0.17459995901E+04  0.12699999809E+01 0. -1.
</event>
<event>
 5   0  0.5001658E-06  0.3048748E+04  0.7818609E-02  0.8229946E-01
       -2   -1    0    0    0  501  0.00000000000E+00  0.00000000000E+00  0.14494267201E+04  0.14494267201E+04  0.25500000920E-02 0.  1.
        2   -1    0    0  501    0  0.00000000000E+00  0.00000000000E+00 -0.16031965032E+04  0.16031965032E+04  0.25500000920E-02 0. -1.
    10030    2    1    2    0    0  0.00000000000E+00  0.00000000000E+00 -0.15376978311E+03  0.30526232232E+04  0.30487478408E+04 0.  0.
        3    1    3    3  502    0 -0.63028856442E+03  0.69179643660E+03 -0.12816890591E+04  0.15870012094E+04  0.10100000352E+00 0. -1.
       -3    1    3    3    0  502  0.63028856442E+03 -0.69179643660E+03  0.11279192760E+04  0.14656220139E+04  0.10100000352E+00 0.  1.
</event>
<event>
 5   0  0.5328368E-06  0.3091663E+04  0.7818609E-02  0.8218030E-01
        2   -1    0    0  501    0  0.00000000000E+00  0.00000000000E+00  0.22372567745E+04  0.22372567745E+04  0.25500000920E-02 0.  1.
       -2   -1    0    0    0  501  0.00000000000E+00  0.00000000000E+00 -0.10680918303E+04  0.10680918303E+04  0.25500000920E-02 0. -1.
    10030    2    1    2    0    0  0.00000000000E+00  0.00000000000E+00  0.11691649442E+04  0.33053486048E+04  0.30916634248E+04 0.  0.
        1    1    3    3  502    0 -0.51829508055E+03 -0.12363294461E+03 -0.96680874714E+03  0.11039175916E+04  0.50400001928E-02 0. -1.
       -1    1    3    3    0  502  0.51829508055E+03  0.12363294461E+03  0.21359736913E+04  0.22014310131E+04  0.50400001928E-02 0.  1.
</event>
<event>
 5   0  0.4927533E-06  0.3099347E+04  0.7818609E-02  0.8215917E-01
       -2   -1    0    0    0  501  0.00000000000E+00  0.00000000000E+00  0.13854529294E+04  0.13854529294E+04  0.25500000920E-02 0.  1.
        2   -1    0    0  501    0  0.00000000000E+00  0.00000000000E+00 -0.17333594474E+04  0.17333594474E+04  0.25500000920E-02 0. -1.
    10030    2    1    2    0    0  0.00000000000E+00  0.00000000000E+00 -0.34790651800E+03  0.31188123767E+04  0.30993469789E+04 0.  0.
        5    1    3    3  502    0 -0.29472487339E+03  0.40673022231E+03 -0.16491664915E+04  0.17239676422E+04  0.46999998093E+01 0. -1.
       -5    1    3    3    0  502  0.29472487339E+03 -0.40673022231E+03  0.13012599735E+04  0.13948447345E+04  0.46999998093E+01 0.  1.
</event>
<event>
 5   0  0.4927533E-06  0.3073768E+04  0.7818609E-02  0.8222974E-01
        2   -1    0    0  501    0  0.00000000000E+00  0.00000000000E+00  0.17224897160E+04  0.17224897160E+04  0.25500000920E-02 0. -1.
       -2   -1    0    0    0  501  0.00000000000E+00  0.00000000000E+00 -0.13712781837E+04  0.13712781837E+04  0.25500000920E-02 0.  1.
    10030    2    1    2    0    0  0.00000000000E+00  0.00000000000E+00  0.35121153232E+03  0.30937678996E+04  0.30737680909E+04 0.  0.
        5    1    3    3  502    0  0.39454705562E+03 -0.10501041680E+04 -0.88175533748E+03  0.14268499248E+04  0.46999998093E+01 0. -1.
       -5    1    3    3    0  502 -0.39454705562E+03  0.10501041680E+04  0.12329668698E+04  0.16669179748E+04  0.46999998093E+01 0.  1.
</event>
<event>
 5   0  0.1853742E-06  0.3065458E+04  0.7818609E-02  0.8225282E-01
        1   -1    0    0  501    0  0.00000000000E+00  0.00000000000E+00  0.13218224506E+04  0.13218224507E+04  0.50400001928E-02 0. -1.
       -1   -1    0    0    0  501  0.00000000000E+00  0.00000000000E+00 -0.17772868873E+04  0.17772868873E+04  0.50400001928E-02 0.  1.
    10030    2    1    2    0    0  0.00000000000E+00  0.00000000000E+00 -0.45546443668E+03  0.30991093380E+04  0.30654576878E+04 0.  0.
        5    1    3    3  502    0 -0.92842736137E+03  0.11170965818E+04  0.26687613436E+03  0.14768639407E+04  0.46999998093E+01 0. -1.
       -5    1    3    3    0  502  0.92842736137E+03 -0.11170965818E+04 -0.72234057103E+03  0.16222453973E+04  0.46999998093E+01 0.  1.
</event>
<event>
 5   0  0.1840431E-06  0.3097185E+04  0.7818609E-02  0.8216511E-01
        1   -1    0    0  501    0  0.00000000000E+00  0.00000000000E+00  0.19567806071E+04  0.19567806071E+04  0.50400001928E-02 0. -1.
       -1   -1    0    0    0  501  0.00000000000E+00  0.00000000000E+00 -0.12255529083E+04  0.12255529083E+04  0.50400001928E-02 0.  1.
    10030    2    1    2    0    0  0.00000000000E+00  0.00000000000E+00  0.73122769884E+03  0.31823335154E+04  0.30971846338E+04 0.  0.
        1    1    3    3  502    0 -0.90792471578E+03  0.46334151007E+03 -0.83225254262E+03  0.13159243668E+04  0.50400001928E-02 0.  1.
       -1    1    3    3    0  502  0.90792471578E+03 -0.46334151007E+03  0.15634802415E+04  0.18664091486E+04  0.50400001928E-02 0. -1.
</event>
<event>
 5   0  0.1885307E-06  0.2858687E+04  0.7818609E-02  0.8285277E-01
       -1   -1    0    0    0  501  0.00000000000E+00  0.00000000000E+00  0.12531165077E+04  0.12531165077E+04  0.50400001928E-02 0.  1.
        1   -1    0    0  501    0  0.00000000000E+00  0.00000000000E+00 -0.16303531182E+04  0.16303531182E+04  0.50400001928E-02 0. -1.
    10030    2    1    2    0    0  0.00000000000E+00  0.00000000000E+00 -0.37723661046E+03  0.28834696259E+04  0.28586866956E+04 0.  0.
        3    1    3    3  502    0  0.42475640498E+03  0.29520148951E+03  0.11553973409E+04  0.12659008447E+04  0.10100000352E+00 0.  1.
       -3    1    3    3    0  502 -0.42475640498E+03 -0.29520148951E+03 -0.15326339514E+04  0.16175687813E+04  0.10100000352E+00 0. -1.
</event>
<event>
 5   0  0.1840431E-06  0.3084440E+04  0.7818609E-02  0.8220021E-01
        1   -1    0    0  501    0  0.00000000000E+00  0.00000000000E+00  0.16159333222E+04  0.16159333222E+04  0.50400001928E-02 0. -1.
       -1   -1    0    0    0  501  0.00000000000E+00  0.00000000000E+00 -0.14718693764E+04  0.14718693764E+04  0.50400001928E-02 0.  1.
    10030    2    1    2    0    0  0.00000000000E+00  0.00000000000E+00  0.14406394579E+03  0.30878026986E+04  0.30844401575E+04 0.  0.
        1    1    3    3  502    0 -0.26750947892E+03  0.14078159726E+04 -0.49862071371E+03  0.15172770842E+04  0.50400001928E-02 0.  1.
       -1    1    3    3    0  502  0.26750947892E+03 -0.14078159726E+04  0.64268465951E+03  0.15705256145E+04  0.50400001928E-02 0. -1.
</event>
<event>
 5   0  0.1843709E-06  0.3105061E+04  0.7818609E-02  0.8214350E-01
        1   -1    0    0  501    0  0.00000000000E+00  0.00000000000E+00  0.19219451563E+04  0.19219451563E+04  0.50400001928E-02 0. -1.
       -1   -1    0    0    0  501  0.00000000000E+00  0.00000000000E+00 -0.12541207576E+04  0.12541207576E+04  0.50400001928E-02 0.  1.
    10030    2    1    2    0    0  0.00000000000E+00  0.00000000000E+00  0.66782439875E+03  0.31760659139E+04  0.31050612332E+04 0.  0.
        4    1    3    3  502    0  0.91046690757E+03 -0.70289047105E+03  0.14005155865E+04  0.18123053068E+04  0.12699999809E+01 0. -1.
       -4    1    3    3    0  502 -0.91046690757E+03  0.70289047105E+03 -0.73269118775E+03  0.13637606071E+04  0.12699999809E+01 0.  1.
</event>
<event>
 5   0  0.4900679E-06  0.2280389E+04  0.7818609E-02  0.8485694E-01
        2   -1    0    0  501    0  0.00000000000E+00  0.00000000000E+00  0.14022384263E+04  0.14022384263E+04  0.25500000920E-02 0. -1.
       -2   -1    0    0    0  501  0.00000000000E+00  0.00000000000E+00 -0.92711988943E+03  0.92711988943E+03  0.25500000920E-02 0.  1.
    10030    2    1    2    0    0  0.00000000000E+00  0.00000000000E+00  0.47511853692E+03  0.23293583158E+04  0.22803886816E+04 0.  0.
        4    1    3    3  502    0 -0.95068265682E+03  0.35185400857E+01  0.88054597173E+03  0.12958289684E+04  0.12699999809E+01 0. -1.
       -4    1    3    3    0  502  0.95068265682E+03 -0.35185400857E+01 -0.40542743481E+03  0.10335293474E+04  0.12699999809E+01 0.  1.
</event>
<event>
 5   0  0.4927533E-06  0.3049341E+04  0.7818609E-02  0.8229780E-01
       -2   -1    0    0    0  501  0.00000000000E+00  0.00000000000E+00  0.28561016933E+04  0.28561016933E+04  0.25500000920E-02 0.  1.
        2   -1    0    0  501    0  0.00000000000E+00  0.00000000000E+00 -0.81391355503E+03  0.81391355504E+03  0.25500000920E-02 0. -1.
    10030    2    1    2    0    0  0.00000000000E+00  0.00000000000E+00  0.20421881383E+04  0.36700152484E+04  0.30493408355E+04 0.  0.
        5    1    3    3  502    0  0.94427765454E+03  0.14652930797E+03  0.24509662344E+04  0.26306631671E+04  0.46999998093E+01 0.  1.
       -5    1    3    3    0  502 -0.94427765454E+03 -0.14652930797E+03 -0.40877809605E+03  0.10393520812E+04  0.46999998093E+01 0. -1.
</event>
<event>
 5   0  0.1840431E-06  0.3137002E+04  0.7818609E-02  0.8205656E-01
        1   -1    0    0  501    0  0.00000000000E+00  0.00000000000E+00  0.16114282698E+04  0.16114282698E+04  0.50400001928E-02 0.  1.
       -1   -1    0    0    0  501  0.00000000000E+00  0.00000000000E+00 -0.15267173656E+04  0.15267173656E+04  0.50400001928E-02 0. -1.
    10030    2    1    2    0    0  0.00000000000E+00  0.00000000000E+00  0.84710904162E+02  0.31381456354E+04  0.31370020866E+04 0.  0.
        1    1    3    3  502    0 -0.11411039366E+04 -0.32491914333E+03  0.10686460395E+04  0.15967764407E+04  0.50400001928E-02 0.  1.
       -1    1    3    3    0  502  0.11411039366E+04  0.32491914333E+03 -0.98393513529E+03  0.15413691947E+04  0.50400001928E-02 0. -1.
</event>
<event>
 5   0  0.5001658E-06  0.3296670E+04  0.7818609E-02  0.8163743E-01
       -2   -1    0    0    0  501  0.00000000000E+00  0.00000000000E+00  0.11760402935E+04  0.11760402936E+04  0.25500000920E-02 0.  1.
        2   -1    0    0  501    0  0.00000000000E+00  0.00000000000E+00 -0.23103019240E+04  0.23103019240E+04  0.25500000920E-02 0. -1.
    10030    2    1    2    0    0  0.00000000000E+00  0.00000000000E+00 -0.11342616304E+04  0.34863422175E+04  0.32966699276E+04 0.  0.
        3    1    3    3  502    0  0.78855039237E+03 -0.12102476860E+04  0.27259218149E+03  0.14699720032E+04  0.10100000352E+00 0.  1.
       -3    1    3    3    0  502 -0.78855039237E+03  0.12102476860E+04 -0.14068538119E+04  0.20163702143E+04  0.10100000352E+00 0. -1.
</event>
<event>
 5   0  0.5328368E-06  0.3104820E+04  0.7818609E-02  0.8214416E-01
       -2   -1    0    0    0  501  0.00000000000E+00  0.00000000000E+00  0.16127016200E+04  0.16127016200E+04  0.25500000920E-02 0.  1.
        2   -1    0    0  501    0  0.00000000000E+00  0.00000000000E+00 -0.14943720448E+04  0.14943720448E+04  0.25500000920E-02 0. -1.
    10030    2    1    2    0    0  0.00000000000E+00  0.00000000000E+00  0.11832957520E+03  0.31070736648E+04  0.31048196196E+04 0.  0.
        1    1    3    3  502    0  0.83022270967E+03  0.12303248286E+04 -0.39614605390E+03  0.15361968063E+04  0.50400001928E-02 0. -1.
       -1    1    3    3    0  502 -0.83022270967E+03 -0.12303248286E+04  0.51447562909E+03  0.15708768585E+04  0.50400001928E-02 0.  1.
</event>
<event>
 5   0  0.5114870E-06  0.3043652E+04  0.7818609E-02  0.8231374E-01
        2   -1    0    0  501    0  0.00000000000E+00  0.00000000000E+00  0.15603643939E+04  0.15603643939E+04  0.25500000920E-02 0. -1.
       -2   -1    0    0    0  501  0.00000000000E+00  0.00000000000E+00 -0.14842395074E+04  0.14842395074E+04  0.25500000920E-02 0.  1.
    10030    2    1    2    0    0  0.00000000000E+00  0.00000000000E+00  0.76124886497E+02  0.30446039014E+04  0.30436520691E+04 0.  0.
        2    1    3    3  502    0 -0.11214753355E+04 -0.61622689179E+03  0.86203842200E+03  0.15429039994E+04  0.25500000920E-02 0. -1.
       -2    1    3    3    0  502  0.11214753355E+04  0.61622689179E+03 -0.78591353550E+03  0.15016999020E+04  0.25500000920E-02 0.  1.
</event>
<event>
 5   0  0.1836401E-06  0.3119807E+04  0.7818609E-02  0.8210323E-01
       -1   -1    0    0    0  501  0.00000000000E+00  0.00000000000E+00  0.13546007680E+04  0.13546007680E+04  0.50400001928E-02 0.  1.
        1   -1    0    0  501    0  0.00000000000E+00  0.00000000000E+00 -0.17963213341E+04  0.17963213341E+04  0.50400001928E-02 0. -1.
    10030    2    1    2    0    0  0.00000000000E+00  0.00000000000E+00 -0.44172056606E+03  0.31509221021E+04  0.31198065701E+04 0.  0.
        2    1    3    3  502    0 -0.10277929959E+04  0.31280753472E+03 -0.13631092248E+04  0.17355903188E+04  0.25500000920E-02 0. -1.
       -2    1    3    3    0  502  0.10277929959E+04 -0.31280753472E+03  0.92138865871E+03  0.14153317832E+04  0.25500000920E-02 0.  1.
</event>
<event>
 5   0  0.1843709E-06  0.3063496E+04  0.7818609E-02  0.8225828E-01
        1   -1    0    0  501    0  0.00000000000E+00  0.00000000000E+00  0.17799831855E+04  0.17799831855E+04  0.50400001928E-02 0. -1.
       -1   -1    0    0    0  501  0.00000000000E+00  0.00000000000E+00 -0.13181315993E+04  0.13181315994E+04  0.50400001928E-02 0.  1.
    10030    2    1    2    0    0  0.00000000000E+00  0.00000000000E+00  0.46185158611E+03  0.30981147848E+04  0.30634960963E+04 0.  0.
        4    1    3    3  502    0  0.32031810465E+03 -0.24839699361E+03 -0.12629075327E+04  0.13263641293E+04  0.12699999809E+01 0.  1.
       -4    1    3    3    0  502 -0.32031810465E+03  0.24839699361E+03  0.17247591188E+04  0.17717506555E+04  0.12699999809E+01 0. -1.
</event>
<event>
 5   0  0.4927533E-06  0.3096139E+04  0.7818609E-02  0.8216798E-01
       -2   -1    0    0    0  501  0.00000000000E+00  0.00000000000E+00  0.17479879666E+04  0.17479879666E+04  0.25500000920E-02 0. -1.
        2   -1    0    0  501    0  0.00000000000E+00  0.00000000000E+00 -0.13710159323E+04  0.13710159323E+04  0.25500000920E-02 0.  1.
    10030    2    1    2    0    0  0.00000000000E+00  0.00000000000E+00  0.37697203426E+03  0.31190038989E+04  0.30961391130E+04 0.  0.
        5    1    3    3  502    0 -0.98726811524E+02  0.98687287013E+03 -0.10089180987E+04  0.14147801472E+04  0.46999998093E+01 0.  1.
       -5    1    3    3    0  502  0.98726811524E+02 -0.98687287013E+03  0.13858901330E+04  0.17042237517E+04  0.46999998093E+01 0. -1.
</event>
<event>
 5   0  0.1836401E-06  0.3145546E+04  0.7818609E-02  0.8203348E-01
        1   -1    0    0  501    0  0.00000000000E+00  0.00000000000E+00  0.18593520266E+04  0.18593520266E+04  0.50400001928E-02 0. -1.
       -1   -1    0    0    0  501  0.00000000000E+00  0.00000000000E+00 -0.13303635722E+04  0.13303635722E+04  0.50400001928E-02 0.  1.
    10030    2    1    2    0    0  0.00000000000E+00  0.00000000000E+00  0.52898845437E+03  0.31897155988E+04  0.31455455514E+04 0.  0.
        2    1    3    3  502    0  0.31330854346E+03  0.31740162232E+01 -0.12983949675E+04  0.13356653059E+04  0.25500000920E-02 0.  1.
       -2    1    3    3    0  502 -0.31330854346E+03 -0.31740162232E+01  0.18273834219E+04  0.18540502928E+04  0.25500000920E-02 0. -1.
</event>
<event>
 5   0  0.1853742E-06  0.3049078E+04  0.7818609E-02  0.8229853E-01
       -1   -1    0    0    0  501  0.00000000000E+00  0.00000000000E+00  0.14685938961E+04  0.14685938961E+04  0.50400001928E-02 0.  1.
        1   -1    0    0  501    0  0.00000000000E+00  0.00000000000E+00 -0.15826156922E+04  0.15826156922E+04  0.50400001928E-02 0. -1.
    10030    2    1    2    0    0  0.00000000000E+00  0.00000000000E+00 -0.11402179605E+03  0.30512095883E+04  0.30490783824E+04 0.  0.
        5    1    3    3  502    0  0.13860696684E+04  0.28256584544E+03  0.51186254510E+03  0.15043463490E+04  0.46999998093E+01 0.  1.
       -5    1    3    3    0  502 -0.13860696684E+04 -0.28256584544E+03 -0.62588434115E+03  0.15468632393E+04  0.46999998093E+01 0. -1.
</event>
<event>
 5   0  0.1843709E-06  0.3168259E+04  0.7818609E-02  0.8197251E-01
       -1   -1    0    0    0  501  0.00000000000E+00  0.00000000000E+00  0.10999021459E+04  0.10999021459E+04  0.50400001928E-02 0. -1.
        1   -1    0    0  501    0  0.00000000000E+00  0.00000000000E+00 -0.22815353555E+04  0.22815353555E+04  0.50400001928E-02 0.  1.
    10030    2    1    2    0    0  0.00000000000E+00  0.00000000000E+00 -0.11816332096E+04  0.33814375014E+04  0.31682585964E+04 0.  0.
        4    1    3    3  502    0 -0.15782007288E+04  0.10824174365E+03 -0.50132861693E+03  0.16594474413E+04  0.12699999809E+01 0. -1.
       -4    1    3    3    0  502  0.15782007288E+04 -0.10824174365E+03 -0.68030459264E+03  0.17219900601E+04  0.12699999809E+01 0.  1.
</event>
<event>
 5   0  0.1885307E-06  0.3024726E+04  0.7818609E-02  0.8236705E-01
        1   -1    0    0  501    0  0.00000000000E+00  0.00000000000E+00  0.23470876460E+04  0.23470876460E+04  0.50400001928E-02 0.  1.
       -1   -1    0    0    0  501  0.00000000000E+00  0.00000000000E+00 -0.97450238954E+03  0.97450238955E+03  0.50400001928E-02 0. -1.
    10030    2    1    2    0    0  0.00000000000E+00  0.00000000000E+00  0.13725852565E+04  0.33215900355E+04  0.30247264468E+04 0.  0.
        3    1    3    3  502    0  0.63326581433E+03  0.97423911757E+03  0.17493265298E+04  0.21000739910E+04  0.10100000352E+00 0.  1.
       -3    1    3    3    0  502 -0.63326581433E+03 -0.97423911757E+03 -0.37674127332E+03  0.12215160445E+04  0.10100000352E+00 0. -1.
</event>
<event>
 5   0  0.1853742E-06  0.3112637E+04  0.7818609E-02  0.8212278E-01
       -1   -1    0    0    0  501  0.00000000000E+00  0.00000000000E+00  0.11552882838E+04  0.11552882838E+04  0.50400001928E-02 0. -1.
        1   -1    0    0  501    0  0.00000000000E+00  0.00000000000E+00 -0.20965570156E+04  0.20965570156E+04  0.50400001928E-02 0.  1.
    10030    2    1    2    0    0  0.00000000000E+00  0.00000000000E+00 -0.94126873177E+03  0.32518452993E+04  0.31126373103E+04 0.  0.
        5    1    3    3  502    0  0.30244796070E+03 -0.12814018567E+04 -0.13375913247E+04  0.18768692360E+04  0.46999998093E+01 0.  1.
       -5    1    3    3    0  502 -0.30244796070E+03  0.12814018567E+04  0.39632259288E+03  0.13749760634E+04  0.46999998093E+01 0. -1.
</event>
<event>
 5   0  0.1840431E-06  0.3119848E+04  0.7818609E-02  0.8210312E-01
       -1   -1    0    0    0  501  0.00000000000E+00  0.00000000000E+00  0.10407340010E+04  0.10407340010E+04  0.50400001928E-02 0. -1.
        1   -1    0    0  501    0  0.00000000000E+00  0.00000000000E+00 -0.23381220288E+04  0.23381220288E+04  0.50400001928E-02 0.  1.
    10030    2    1    2    0    0  0.00000000000E+00  0.00000000000E+00 -0.12973880278E+04  0.33788560298E+04  0.31198481335E+04 0.  0.
        1    1    3    3  502    0 -0.14773884164E+04 -0.41739641169E+03 -0.94817736337E+03  0.18044214058E+04  0.50400001928E-02 0. -1.
       -1    1    3    3    0  502  0.14773884164E+04  0.41739641169E+03 -0.34921066440E+03  0.15744346241E+04  0.50400001928E-02 0.  1.
</event>
<event>
 5   0  0.5328368E-06  0.3072903E+04  0.7818609E-02  0.8223214E-01
       -2   -1    0    0    0  501  0.00000000000E+00  0.00000000000E+00  0.10117061655E+04  0.10117061655E+04  0.25500000920E-02 0.  1.
        2   -1    0    0  501    0  0.00000000000E+00  0.00000000000E+00 -0.23333683061E+04  0.23333683061E+04  0.25500000920E-02 0. -1.
    10030    2    1    2    0    0  0.00000000000E+00  0.00000000000E+00 -0.13216621407E+04  0.33450744716E+04  0.30729029282E+04 0.  0.
        1    1    3    3  502    0  0.56183247839E+03 -0.14290398380E+04 -0.71917392414E+03  0.16955889023E+04  0.50400001928E-02 0. -1.
       -1    1    3    3    0  502 -0.56183247839E+03  0.14290398380E+04 -0.60248821653E+03  0.16494855693E+04  0.50400001928E-02 0.  1.
</event>
<event>
 5   0  0.1840431E-06  0.3137878E+04  0.7818609E-02  0.8205419E-01
       -1   -1    0    0    0  501  0.00000000000E+00  0.00000000000E+00  0.14499947107E+04  0.14499947107E+04  0.50400001928E-02 0. -1.
        1   -1    0    0  501    0  0.00000000000E+00  0.00000000000E+00 -0.16976398660E+04  0.16976398660E+04  0.50400001928E-02 0.  1.
    10030    2    1    2    0    0  0.00000000000E+00  0.00000000000E+00 -0.24764515527E+03  0.31476345768E+04  0.31378775161E+04 0.  0.
        1    1    3    3  502    0  0.25940527353E+03  0.15278733662E+04  0.12164366860E+03  0.15545048411E+04  0.50400001928E-02 0.  1.
       -1    1    3    3    0  502 -0.25940527353E+03 -0.15278733662E+04 -0.36928882387E+03  0.15931297356E+04  0.50400001928E-02 0. -1.
</event>
<event>
 5   0  0.4900679E-06  0.3249895E+04  0.7818609E-02  0.8175763E-01
        2   -1    0    0  501    0  0.00000000000E+00  0.00000000000E+00  0.26775866423E+04  0.26775866423E+04  0.25500000920E-02 0. -1.
       -2   -1    0    0    0  501  0.00000000000E+00  0.00000000000E+00 -0.98613239069E+03  0.98613239069E+03  0.25500000920E-02 0.  1.
    10030    2    1    2    0    0  0.00000000000E+00  0.00000000000E+00  0.16914542516E+04  0.36637190330E+04  0.32498953318E+04 0.  0.
        4    1    3    3  502    0 -0.90557079413E+03 -0.10661800305E+04  0.17778459497E+04  0.22621971962E+04  0.12699999809E+01 0. -1.
       -4    1    3    3    0  502  0.90557079413E+03  0.10661800305E+04 -0.86391698095E+02  0.14015218368E+04  0.12699999809E+01 0.  1.
</event>
<event>
 5   0  0.4927533E-06  0.3159249E+04  0.7818609E-02  0.8199663E-01
        2   -1    0    0  501    0  0.00000000000E+00  0.00000000000E+00  0.15780971299E+04  0.15780971299E+04  0.25500000920E-02 0. -1.
       -2   -1    0    0    0  501  0.00000000000E+00  0.00000000000E+00 -0.15811537088E+04  0.15811537088E+04  0.25500000920E-02 0.  1.
    10030    2    1    2    0    0  0.00000000000E+00  0.00000000000E+00 -0.30565789109E+01  0.31592508387E+04  0.31592493601E+04 0.  0.
        5    1    3    3  502    0  0.25355168691E+03 -0.14548610401E+04  0.55908140530E+03  0.15790830288E+04  0.46999998093E+01 0. -1.
       -5    1    3    3    0  502 -0.25355168691E+03  0.14548610401E+04 -0.56213798421E+03  0.15801678099E+04  0.46999998093E+01 0.  1.
</event>
<event>
 5   0  0.1836401E-06  0.3074467E+04  0.7818609E-02  0.8222780E-01
       -1   -1    0    0    0  501  0.00000000000E+00  0.00000000000E+00  0.68003937874E+03  0.68003937876E+03  0.50400001928E-02 0.  1.
        1   -1    0    0  501    0  0.00000000000E+00  0.00000000000E+00 -0.34749273389E+04  0.34749273389E+04  0.50400001928E-02 0. -1.
    10030    2    1    2    0    0  0.00000000000E+00  0.00000000000E+00 -0.27948879602E+04  0.41549667177E+04  0.30744673872E+04 0.  0.
        2    1    3    3  502    0  0.10833564066E+04 -0.10900532243E+04 -0.14444596854E+04  0.21091090343E+04  0.25500000920E-02 0.  1.
       -2    1    3    3    0  502 -0.10833564066E+04  0.10900532243E+04 -0.13504282748E+04  0.20458576834E+04  0.25500000920E-02 0. -1.
</event>
<event>
 5   0  0.1840431E-06  0.3080304E+04  0.7818609E-02  0.8221164E-01
       -1   -1    0    0    0  501  0.00000000000E+00  0.00000000000E+00  0.17327250347E+04  0.17327250347E+04  0.50400001928E-02 0.  1.
        1   -1    0    0  501    0  0.00000000000E+00  0.00000000000E+00 -0.13689813620E+04  0.13689813620E+04  0.50400001928E-02 0. -1.
    10030    2    1    2    0    0  0.00000000000E+00  0.00000000000E+00  0.36374367268E+03  0.31017063967E+04  0.30803040616E+04 0.  0.
        1    1    3    3  502    0 -0.12247461182E+04 -0.11069242651E+03 -0.75183158879E+03  0.14413558219E+04  0.50400001928E-02 0. -1.
       -1    1    3    3    0  502  0.12247461182E+04  0.11069242651E+03  0.11155752615E+04  0.16603505748E+04  0.50400001928E-02 0.  1.
</event>
<event>
 5   0  0.5114870E-06  0.3104174E+04  0.7818609E-02  0.8214593E-01
       -2   -1    0    0    0  501  0.00000000000E+00  0.00000000000E+00  0.10983867174E+04  0.10983867174E+04  0.25500000920E-02 0. -1.
        2   -1    0    0  501    0  0.00000000000E+00  0.00000000000E+00 -0.21931931646E+04  0.21931931646E+04  0.25500000920E-02 0.  1.
    10030    2    1    2    0    0  0.00000000000E+00  0.00000000000E+00 -0.10948064473E+04  0.32915798820E+04  0.31041741193E+04 0.  0.
        2    1    3    3  502    0 -0.89563020786E+03 -0.33605271168E+03 -0.18434406427E+04  0.20768626092E+04  0.25500000920E-02 0.  1.
       -2    1    3    3    0  502  0.89563020786E+03  0.33605271168E+03  0.74863419545E+03  0.12147172728E+04  0.25500000920E-02 0. -1.
</event>
<event>
 5   0  0.1885307E-06  0.3061962E+04  0.7818609E-02  0.8226255E-01
       -1   -1    0    0    0  501  0.00000000000E+00  0.00000000000E+00  0.10592366569E+04  0.10592366569E+04  0.50400001928E-02 0. -1.
        1   -1    0    0  501    0  0.00000000000E+00  0.00000000000E+00 -0.22128223784E+04  0.22128223784E+04  0.50400001928E-02 0.  1.
    10030    2    1    2    0    0  0.00000000000E+00  0.00000000000E+00 -0.11535857215E+04  0.32720590353E+04  0.30619618406E+04 0.  0.
        3    1    3    3  502    0  0.12668796375E+04  0.66406733022E+03  0.64920726896E+01  0.14303886158E+04  0.10100000352E+00 0.  1.
       -3    1    3    3    0  502 -0.12668796375E+04 -0.66406733022E+03 -0.11600777942E+04  0.18416704194E+04  0.10100000352E+00 0. -1.
</event>
<event>
 5   0  0.1885307E-06  0.3133862E+04  0.7818609E-02  0.8206506E-01
       -1   -1    0    0    0  501  0.00000000000E+00  0.00000000000E+00  0.13271983156E+04  0.13271983157E+04  0.50400001928E-02 0. -1.
        1   -1    0    0  501    0  0.00000000000E+00  0.00000000000E+00 -0.18499670747E+04  0.18499670747E+04  0.50400001928E-02 0.  1.
    10030    2    1    2    0    0  0.00000000000E+00  0.00000000000E+00 -0.52276875901E+03  0.31771653903E+04  0.31338622723E+04 0.  0.
        3    1    3    3  502    0  0.89892671597E+03 -0.62801882108E+03 -0.13961342637E+04  0.17752937145E+04  0.10100000352E+00 0. -1.
       -3    1    3    3    0  502 -0.89892671597E+03  0.62801882108E+03  0.87336550471E+03  0.14018716758E+04  0.10100000352E+00 0.  1.
</event>
<event>
 5   0  0.5114870E-06  0.3146038E+04  0.7818609E-02  0.8203216E-01
       -2   -1    0    0    0  501  0.00000000000E+00  0.00000000000E+00  0.22653195378E+04  0.22653195378E+04  0.25500000920E-02 0.  1.
        2   -1    0    0  501    0  0.00000000000E+00  0.00000000000E+00 -0.10922911287E+04  0.10922911287E+04  0.25500000920E-02 0. -1.
    10030    2    1    2    0    0  0.00000000000E+00  0.00000000000E+00  0.11730284090E+04  0.33576106665E+04  0.31460377841E+04 0.  0.
        2    1    3    3  502    0 -0.35158768085E+03  0.10972252036E+04  0.17294550701E+04  0.20781077654E+04  0.25500000920E-02 0.  1.
       -2    1    3    3    0  502  0.35158768085E+03 -0.10972252036E+04 -0.55642666110E+03  0.12795029011E+04  0.25500000920E-02 0. -1.
</event>
<event>
 5   0  0.1853742E-06  0.2977989E+04  0.7818609E-02  0.8250044E-01
       -1   -1    0    0    0  501  0.00000000000E+00  0.00000000000E+00  0.15563383682E+04  0.15563383682E+04  0.50400001928E-02 0.  1.
        1   -1    0    0  501    0  0.00000000000E+00  0.00000000000E+00 -0.14245649504E+04  0.14245649504E+04  0.50400001928E-02 0. -1.
    10030    2    1    2    0    0  0.00000000000E+00  0.00000000000E+00  0.13177341781E+03  0.29809033187E+04  0.29779893152E+04 0.  0.
        5    1    3    3  502    0 -0.39943342843E+03  0.23024483203E+03 -0.13513105534E+04  0.14278032246E+04  0.46999998093E+01 0. -1.
       -5    1    3    3    0  502  0.39943342843E+03 -0.23024483203E+03  0.14830839712E+04  0.15531000941E+04  0.46999998093E+01 0.  1.
</event>
<event>
 5   0  0.5001658E-06  0.3209424E+04  0.7818609E-02  0.8186333E-01
       -2   -1    0    0    0  501  0.00000000000E+00  0.00000000000E+00  0.13901469898E+04  0.13901469898E+04  0.25500000920E-02 0.  1.
        2   -1    0    0  501    0  0.00000000000E+00  0.00000000000E+00 -0.18523945416E+04  0.18523945416E+04  0.25500000920E-02 0. -1.
    10030    2    1    2    0    0  0.00000000000E+00  0.00000000000E+00 -0.46224755175E+03  0.32425415314E+04  0.32094240580E+04 0.  0.
        3    1    3    3  502    0 -0.10016364843E+04 -0.10339859082E+04 -0.94745206129E+03  0.17233885005E+04  0.10100000352E+00 0. -1.
       -3    1    3    3    0  502  0.10016364843E+04  0.10339859082E+04  0.48520450954E+03  0.15191530309E+04  0.10100000352E+00 0.  1.
</event>
<event>
 5   0  0.5001658E-06  0.3088773E+04  0.7818609E-02  0.8218826E-01
        2   -1    0    0  501    0  0.00000000000E+00  0.00000000000E+00  0.12179220028E+04  0.12179220028E+04  0.25500000920E-02 0. -1.
       -2   -1    0    0    0  501  0.00000000000E+00  0.00000000000E+00 -0.19583596405E+04  0.19583596405E+04  0.25500000920E-02 0.  1.
    10030    2    1    2    0    0  0.00000000000E+00  0.00000000000E+00 -0.74043763769E+03  0.31762816432E+04  0.30887727631E+04 0.  0.
        3    1    3    3  502    0  0.13600390815E+04 -0.23239395804E+03  0.34328010002E+03  0.14218138036E+04  0.10100000352E+00 0. -1.
       -3    1    3    3    0  502 -0.13600390815E+04  0.23239395804E+03 -0.10837177377E+04  0.17544678396E+04  0.10100000352E+00 0.  1.
</event>
<event>
 5   0  0.5114870E-06  0.3122948E+04  0.7818609E-02  0.8209468E-01
        2   -1    0    0  501    0  0.00000000000E+00  0.00000000000E+00  0.16856813267E+04  0.16856813267E+04  0.25500000920E-02 0. -1.
       -2   -1    0    0    0  501  0.00000000000E+00  0.00000000000E+00 -0.14464185272E+04  0.14464185272E+04  0.25500000920E-02 0.  1.
    10030    2    1    2    0    0  0.00000000000E+00  0.00000000000E+00  0.23926279947E+03  0.31320998540E+04  0.31229477754E+04 0.  0.
        2    1    3    3  502    0 -0.10965420146E+04 -0.25673520322E+03 -0.96514981840E+03  0.14831829038E+04  0.25500000920E-02 0.  1.
       -2    1    3    3    0  502  0.10965420146E+04  0.25673520322E+03  0.12044126179E+04  0.16489169501E+04  0.25500000920E-02 0. -1.
</event>
<event>
 5   0  0.1843709E-06  0.3116323E+04  0.7818609E-02  0.8211272E-01
        1   -1    0    0  501    0  0.00000000000E+00  0.00000000000E+00  0.84526205995E+03  0.84526205996E+03  0.50400001928E-02 0. -1.
       -1   -1    0    0    0  501  0.00000000000E+00  0.00000000000E+00 -0.28723257174E+04  0.28723257174E+04  0.50400001928E-02 0.  1.
    10030    2    1    2    0    0  0.00000000000E+00  0.00000000000E+00 -0.20270636574E+04  0.37175877773E+04  0.31163234445E+04 0.  0.
        4    1    3    3  502    0  0.16585070585E+03  0.15484027419E+04 -0.10767557755E+04  0.18932675776E+04  0.12699999809E+01 0.  1.
       -4    1    3    3    0  502 -0.16585070585E+03 -0.15484027419E+04 -0.95030788195E+03  0.18243201997E+04  0.12699999809E+01 0. -1.
</event>
<event>
 5   0  0.5328368E-06  0.3100456E+04  0.7818609E-02  0.8215613E-01
        2   -1    0    0  501    0  0.00000000000E+00  0.00000000000E+00  0.11613119841E+04  0.11613119841E+04  0.25500000920E-02 0.  1.
       -2   -1    0    0    0  501  0.00000000000E+00  0.00000000000E+00 -0.20693895319E+04  0.20693895319E+04  0.25500000920E-02 0. -1.
    10030    2    1    2    0    0  0.00000000000E+00  0.00000000000E+00 -0.90807754772E+03  0.32307015160E+04  0.31004560072E+04 0.  0.
        1    1    3    3  502    0  0.12251883875E+04  0.89335925686E+03 -0.11795344723E+03  0.15208847302E+04  0.50400001928E-02 0. -1.
       -1    1    3    3    0  502 -0.12251883875E+04 -0.89335925686E+03 -0.79012410049E+03  0.17098167858E+04  0.50400001928E-02 0.  1.
</event>
<event>
 5   0  0.5114870E-06  0.3042257E+04  0.7818609E-02  0.8231766E-01
       -2   -1    0    0    0  501  0.00000000000E+00  0.00000000000E+00  0.13387412642E+04  0.13387412642E+04  0.25500000920E-02 0. -1.
        2   -1    0    0  501    0  0.00000000000E+00  0.00000000000E+00 -0.17283634661E+04  0.17283634661E+04  0.25500000920E-02 0.  1.
    10030    2    1    2    0    0  0.00000000000E+00  0.00000000000E+00 -0.38962220192E+03  0.30671047302E+04  0.30422567226E+04 0.  0.
        2    1    3    3  502    0 -0.15124462314E+04 -0.36850563317E+02 -0.35415238301E+03  0.15537938980E+04  0.25500000920E-02 0.  1.
       -2    1    3    3    0  502  0.15124462314E+04  0.36850563317E+02 -0.35469818910E+02  0.15133108323E+04  0.25500000920E-02 0. -1.
</event>
<event>
 5   0  0.5328368E-06  0.3147216E+04  0.7818609E-02  0.8202898E-01
        2   -1    0    0  501    0  0.00000000000E+00  0.00000000000E+00  0.19403656791E+04  0.19403656791E+04  0.25500000920E-02 0. -1.
       -2   -1    0    0    0  501  0.00000000000E+00  0.00000000000E+00 -0.12761730865E+04  0.12761730865E+04  0.25500000920E-02 0.  1.
    10030    2    1    2    0    0  0.00000000000E+00  0.00000000000E+00  0.66419259265E+03  0.32165387656E+04  0.31472162033E+04 0.  0.
        1    1    3    3  502    0 -0.47820526104E+03  0.42565018052E+03  0.18012517043E+04  0.19116396235E+04  0.50400001928E-02 0. -1.
       -1    1    3    3    0  502  0.47820526104E+03 -0.42565018052E+03 -0.11370591116E+04  0.13048991422E+04  0.50400001928E-02 0.  1.
</event>
<event>
 5   0  0.5001658E-06  0.3089504E+04  0.7818609E-02  0.8218624E-01
        2   -1    0    0  501    0  0.00000000000E+00  0.00000000000E+00  0.19763953859E+04  0.19763953859E+04  0.25500000920E-02 0. -1.
       -2   -1    0    0    0  501  0.00000000000E+00  0.00000000000E+00 -0.12073788481E+04  0.12073788481E+04  0.25500000920E-02 0.  1.
    10030    2    1    2    0    0  0.00000000000E+00  0.00000000000E+00  0.76901653787E+03  0.31837742340E+04  0.30895035099E+04 0.  0.
        3    1    3    3  502    0  0.13417070258E+02 -0.31855331635E+03 -0.11731020745E+04  0.12156581430E+04  0.10100000352E+00 0.  1.
       -3    1    3    3    0  502 -0.13417070258E+02  0.31855331635E+03  0.19421186124E+04  0.19681160910E+04  0.10100000352E+00 0. -1.
</event>
<event>
 5   0  0.1836401E-06  0.3054088E+04  0.7818609E-02  0.8228452E-01
       -1   -1    0    0    0  501  0.00000000000E+00  0.00000000000E+00  0.11329389365E+04  0.11329389365E+04  0.50400001928E-02 0. -1.
        1   -1    0    0  501    0  0.00000000000E+00  0.00000000000E+00 -0.20582432478E+04  0.20582432478E+04  0.50400001928E-02 0.  1.
    10030    2    1    2    0    0  0.00000000000E+00  0.00000000000E+00 -0.92530431129E+03  0.31911821842E+04  0.30540883524E+04 0.  0.
        2    1    3    3  502    0  0.71141040225E+03  0.91790871366E+03  0.57342367838E+03  0.12951740740E+04  0.25500000920E-02 0. -1.
       -2    1    3    3    0  502 -0.71141040225E+03 -0.91790871366E+03 -0.14987279897E+04  0.18960081102E+04  0.25500000920E-02 0.  1.
</event>
<event>
 5   0  0.5001658E-06  0.3084705E+04  0.7818609E-02  0.8219948E-01
        2   -1    0    0  501    0  0.00000000000E+00  0.00000000000E+00  0.12679049246E+04  0.12679049246E+04  0.25500000920E-02 0. -1.
       -2   -1    0    0    0  501  0.00000000000E+00  0.00000000000E+00 -0.18762067363E+04  0.18762067363E+04  0.25500000920E-02 0.  1.
    10030    2    1    2    0    0  0.00000000000E+00  0.00000000000E+00 -0.60830181173E+03  0.31441116609E+04  0.30847053412E+04 0.  0.
        3    1    3    3  502    0  0.15295615138E+03 -0.77875710852E+03  0.10438133545E+04  0.13112606711E+04  0.10100000352E+00 0. -1.
       -3    1    3    3    0  502 -0.15295615138E+03  0.77875710852E+03 -0.16521151662E+04  0.18328509898E+04  0.10100000352E+00 0.  1.
</event>
<event>
 5   0  0.4900679E-06  0.3127814E+04  0.7818609E-02  0.8208146E-01
       -2   -1    0    0    0  501  0.00000000000E+00  0.00000000000E+00  0.13237647030E+04  0.13237647030E+04  0.25500000920E-02 0. -1.
        2   -1    0    0  501    0  0.00000000000E+00  0.00000000000E+00 -0.18476132290E+04  0.18476132290E+04  0.25500000920E-02 0.  1.
    10030    2    1    2    0    0  0.00000000000E+00  0.00000000000E+00 -0.52384852597E+03  0.31713779320E+04  0.31278140465E+04 0.  0.
        4    1    3    3  502    0  0.29689723478E+03 -0.10332216046E+03  0.12913987637E+04  0.13291109121E+04  0.12699999809E+01 0. -1.
       -4    1    3    3    0  502 -0.29689723478E+03  0.10332216046E+03 -0.18152472897E+04  0.18422670199E+04  0.12699999809E+01 0.  1.
</event>
<event>
 5   0  0.1840431E-06  0.3093319E+04  0.7818609E-02  0.8217574E-01
       -1   -1    0    0    0  501  0.00000000000E+00  0.00000000000E+00  0.10751172898E+04  0.10751172898E+04  0.50400001928E-02 0.  1.
        1   -1    0    0  501    0  0.00000000000E+00  0.00000000000E+00 -0.22250181550E+04  0.22250181550E+04  0.50400001928E-02 0. -1.
    10030    2    1    2    0    0  0.00000000000E+00  0.00000000000E+00 -0.11499008652E+04  0.33001354448E+04  0.30933189221E+04 0.  0.
        1    1    3    3  502    0 -0.77250788140E+03 -0.11693428212E+04  0.12302694096E+03  0.14068641330E+04  0.50400001928E-02 0.  1.
       -1    1    3    3    0  502  0.77250788140E+03  0.11693428212E+04 -0.12729278062E+04  0.18932713118E+04  0.50400001928E-02 0. -1.
</event>
<event>
 5   0  0.1836401E-06  0.2223495E+04  0.7818609E-02  0.8508712E-01
       -1   -1    0    0    0  501  0.00000000000E+00  0.00000000000E+00  0.12339013237E+04  0.12339013237E+04  0.50400001928E-02 0. -1.
        1   -1    0    0  501    0  0.00000000000E+00  0.00000000000E+00 -0.10016862348E+04  0.10016862348E+04  0.50400001928E-02 0.  1.
    10030    2    1    2    0    0  0.00000000000E+00  0.00000000000E+00  0.23221508889E+03  0.22355875586E+04  0.22234945209E+04 0.  0.
        2    1    3    3  502    0  0.34608888694E+03  0.32162437104E+03 -0.89572668219E+03  0.10126924720E+04  0.25500000920E-02 0.  1.
       -2    1    3    3    0  502 -0.34608888694E+03 -0.32162437104E+03  0.11279417711E+04  0.12228950865E+04  0.25500000920E-02 0. -1.
</event>
<event>
 5   0  0.1853742E-06  0.3041337E+04  0.7818609E-02  0.8232024E-01
        1   -1    0    0  501    0  0.00000000000E+00  0.00000000000E+00  0.18374165468E+04  0.18374165469E+04  0.50400001928E-02 0. -1.
       -1   -1    0    0    0  501  0.00000000000E+00  0.00000000000E+00 -0.12585242255E+04  0.12585242255E+04  0.50400001928E-02 0.  1.
    10030    2    1    2    0    0  0.00000000000E+00  0.00000000000E+00  0.57889232131E+03  0.30959407724E+04  0.30413373615E+04 0.  0.
        5    1    3    3  502    0  0.69290134220E+03 -0.95700562255E+00 -0.10884804766E+04  0.12903197371E+04  0.46999998093E+01 0.  1.
       -5    1    3    3    0  502 -0.69290134220E+03  0.95700562255E+00  0.16673727979E+04  0.18056210353E+04  0.46999998093E+01 0. -1.
</event>
<event>
 5   0  0.1885307E-06  0.3114226E+04  0.7818609E-02  0.8211845E-01
        1   -1    0    0  501    0  0.00000000000E+00  0.00000000000E+00  0.23814623834E+04  0.23814623834E+04  0.50400001928E-02 0. -1.
       -1   -1    0    0    0  501  0.00000000000E+00  0.00000000000E+00 -0.10181141273E+04  0.10181141273E+04  0.50400001928E-02 0.  1.
    10030    2    1    2    0    0  0.00000000000E+00  0.00000000000E+00  0.13633482561E+04  0.33995765108E+04  0.31142257441E+04 0.  0.
        3    1    3    3  502    0 -0.57017978510E+03 -0.10424595635E+04  0.17802521496E+04  0.21403561982E+04  0.10100000352E+00 0. -1.
       -3    1    3    3    0  502  0.57017978510E+03  0.10424595635E+04 -0.41690389347E+03  0.12592203126E+04  0.10100000352E+00 0.  1.
</event>
<event>
 5   0  0.4900679E-06  0.3090699E+04  0.7818609E-02  0.8218295E-01
        2   -1    0    0  501    0  0.00000000000E+00  0.00000000000E+00  0.19191551105E+04  0.19191551105E+04  0.25500000920E-02 0.  1.
       -2   -1    0    0    0  501  0.00000000000E+00  0.00000000000E+00 -0.12443525866E+04  0.12443525866E+04  0.25500000920E-02 0. -1.
    10030    2    1    2    0    0  0.00000000000E+00  0.00000000000E+00  0.67480252388E+03  0.31635076971E+04  0.30906993550E+04 0.  0.
        4    1    3    3  502    0  0.42063389790E+02 -0.88341566544E+03  0.16344996832E+04  0.18584357384E+04  0.12699999809E+01 0.  1.
       -4    1    3    3    0  502 -0.42063389790E+02  0.88341566544E+03 -0.95969715930E+03  0.13050719586E+04  0.12699999809E+01 0. -1.
</event>
<event>
 5   0  0.1840431E-06  0.3047763E+04  0.7818609E-02  0.8230222E-01
        1   -1    0    0  501    0  0.00000000000E+00  0.00000000000E+00  0.17359421805E+04  0.17359421805E+04  0.50400001928E-02 0.  1.
       -1   -1    0    0    0  501  0.00000000000E+00  0.00000000000E+00 -0.13377258344E+04  0.13377258344E+04  0.50400001928E-02 0. -1.
    10030    2    1    2    0    0  0.00000000000E+00  0.00000000000E+00  0.39821634611E+03  0.30736680149E+04  0.30477629186E+04 0.  0.
        1    1    3    3  502    0  0.64284797886E+03 -0.10916762426E+04 -0.65496912230E+03  0.14261819988E+04  0.50400001928E-02 0. -1.
       -1    1    3    3    0  502 -0.64284797886E+03  0.10916762426E+04  0.10531854684E+04  0.16474860161E+04  0.50400001928E-02 0.  1.
</event>
<event>
 5   0  0.4927533E-06  0.2744942E+04  0.7818609E-02  0.8320568E-01
       -2   -1    0    0    0  501  0.00000000000E+00  0.00000000000E+00  0.18721282879E+04  0.18721282879E+04  0.25500000920E-02 0. -1.
        2   -1    0    0  501    0  0.00000000000E+00  0.00000000000E+00 -0.10061687726E+04  0.10061687726E+04  0.25500000920E-02 0.  1.
    10030    2    1    2    0    0  0.00000000000E+00  0.00000000000E+00  0.86595951531E+03  0.28782970605E+04  0.27449422738E+04 0.  0.
        5    1    3    3  502    0  0.87574068797E+03  0.20209944136E+03  0.15206221616E+04  0.17663747578E+04  0.46999998093E+01 0. -1.
       -5    1    3    3    0  502 -0.87574068797E+03 -0.20209944136E+03 -0.65466264630E+03  0.11119223027E+04  0.46999998093E+01 0.  1.
</event>
<event>
 5   0  0.4927533E-06  0.2311871E+04  0.7818609E-02  0.8473255E-01
       -2   -1    0    0    0  501  0.00000000000E+00  0.00000000000E+00  0.75320124264E+03  0.75320124265E+03  0.25500000920E-02 0.  1.
        2   -1    0    0  501    0  0.00000000000E+00  0.00000000000E+00 -0.17740103718E+04  0.17740103718E+04  0.25500000920E-02 0. -1.
    10030    2    1    2    0    0  0.00000000000E+00  0.00000000000E+00 -0.10208091292E+04  0.25272116145E+04  0.23118709450E+04 0.  0.
        5    1    3    3  502    0  0.11218946845E+04 -0.12645481863E+03 -0.78155365187E+03  0.13731302579E+04  0.46999998093E+01 0. -1.
       -5    1    3    3    0  502 -0.11218946845E+04  0.12645481863E+03 -0.23925547731E+03  0.11540813566E+04  0.46999998093E+01 0.  1.
</event>
<event>
 5   0  0.4927533E-06  0.3175587E+04  0.7818609E-02  0.8195294E-01
        2   -1    0    0  501    0  0.00000000000E+00  0.00000000000E+00  0.35183297057E+04  0.35183297057E+04  0.25500000920E-02 0.  1.
       -2   -1    0    0    0  501  0.00000000000E+00  0.00000000000E+00 -0.71655831259E+03  0.71655831259E+03  0.25500000920E-02 0. -1.
    10030    2    1    2    0    0  0.00000000000E+00  0.00000000000E+00  0.28017713931E+04  0.42348880183E+04  0.31755871249E+04 0.  0.
        5    1    3    3  502    0 -0.93106442834E+02 -0.15779566013E+04  0.12010695690E+04  0.19852470992E+04  0.46999998093E+01 0. -1.
       -5    1    3    3    0  502  0.93106442834E+02  0.15779566013E+04  0.16007018241E+04  0.22496409191E+04  0.46999998093E+01 0.  1.
</event>
<event>
 5   0  0.5114870E-06  0.3091604E+04  0.7818609E-02  0.8218046E-01
       -2   -1    0    0    0  501  0.00000000000E+00  0.00000000000E+00  0.18410273450E+04  0.18410273450E+04  0.25500000920E-02 0. -1.
        2   -1    0    0  501    0  0.00000000000E+00  0.00000000000E+00 -0.12979187421E+04  0.12979187422E+04  0.25500000920E-02 0.  1.
    10030    2    1    2    0    0  0.00000000000E+00  0.00000000000E+00  0.54310860284E+03  0.31389460871E+04  0.30916040470E+04 0.  0.
        2    1    3    3  502    0 -0.30712072079E+03 -0.17938006297E+03 -0.12558098996E+04  0.13052045234E+04  0.25500000920E-02 0.  1.
       -2    1    3    3    0  502  0.30712072079E+03  0.17938006297E+03  0.17989185024E+04  0.18337415637E+04  0.25500000920E-02 0. -1.
</event>
<event>
 5   0  0.1843709E-06  0.3217948E+04  0.7818609E-02  0.8184093E-01
       -1   -1    0    0    0  501  0.00000000000E+00  0.00000000000E+00  0.12397731974E+04  0.12397731975E+04  0.50400001928E-02 0. -1.
        1   -1    0    0  501    0  0.00000000000E+00  0.00000000000E+00 -0.20881211417E+04  0.20881211418E+04  0.50400001928E-02 0.  1.
    10030    2    1    2    0    0  0.00000000000E+00  0.00000000000E+00 -0.84834794431E+03  0.33278943392E+04  0.32179475599E+04 0.  0.
        4    1    3    3  502    0  0.16039430830E+04  0.52761967091E+02 -0.30455984505E+03  0.16334550961E+04  0.12699999809E+01 0.  1.
       -4    1    3    3    0  502 -0.16039430830E+04 -0.52761967091E+02 -0.54378809925E+03  0.16944392431E+04  0.12699999809E+01 0. -1.
</event>
<event>
 5   0  0.5328368E-06  0.3111916E+04  0.7818609E-02  0.8212475E-01
       -2   -1    0    0    0  501  0.00000000000E+00  0.00000000000E+00  0.26412351533E+04  0.26412351533E+04  0.25500000920E-02 0. -1.
        2   -1    0    0  501    0  0.00000000000E+00  0.00000000000E+00 -0.91661849967E+03  0.91661849968E+03  0.25500000920E-02 0.  1.
    10030    2    1    2    0    0  0.00000000000E+00  0.00000000000E+00  0.17246166536E+04  0.35578536529E+04  0.31119158109E+04 0.  0.
        1    1    3    3  502    0 -0.50928132773E+03  0.33995147964E+03 -0.77307867027E+03  0.98619729757E+03  0.50400001928E-02 0.  1.
       -1    1    3    3    0  502  0.50928132773E+03 -0.33995147964E+03  0.24976953239E+04  0.25716563554E+04  0.50400001928E-02 0. -1.
</event>
<event>
 5   0  0.4927533E-06  0.3070088E+04  0.7818609E-02  0.8223995E-01
        2   -1    0    0  501    0  0.00000000000E+00  0.00000000000E+00  0.16578934185E+04  0.16578934185E+04  0.25500000920E-02 0.  1.
       -2   -1    0    0    0  501  0.00000000000E+00  0.00000000000E+00 -0.14212977551E+04  0.14212977551E+04  0.25500000920E-02 0. -1.
    10030    2    1    2    0    0  0.00000000000E+00  0.00000000000E+00  0.23659566339E+03  0.30791911735E+04  0.30700880729E+04 0.  0.
        5    1    3    3  502    0 -0.27714275132E+03 -0.23347448774E+03 -0.13777750311E+04  0.14246419085E+04  0.46999998093E+01 0. -1.
       -5    1    3    3    0  502  0.27714275132E+03  0.23347448774E+03  0.16143706945E+04  0.16545492650E+04  0.46999998093E+01 0.  1.
</event>
<event>
 5   0  0.4900679E-06  0.3081128E+04  0.7818609E-02  0.8220936E-01
        2   -1    0    0  501    0  0.00000000000E+00  0.00000000000E+00  0.17984347533E+04  0.17984347533E+04  0.25500000920E-02 0. -1.
       -2   -1    0    0    0  501  0.00000000000E+00  0.00000000000E+00 -0.13196681540E+04  0.13196681540E+04  0.25500000920E-02 0.  1.
    10030    2    1    2    0    0  0.00000000000E+00  0.00000000000E+00  0.47876659929E+03  0.31181029074E+04  0.30811277618E+04 0.  0.
        4    1    3    3  502    0  0.62167282134E+03  0.47948396264E+03 -0.11020246312E+04  0.13530860534E+04  0.12699999809E+01 0.  1.
       -4    1    3    3    0  502 -0.62167282134E+03 -0.47948396264E+03  0.15807912305E+04  0.17650168539E+04  0.12699999809E+01 0. -1.
</event>
<event>
 5   0  0.5001658E-06  0.2924286E+04  0.7818609E-02  0.8265688E-01
       -2   -1    0    0    0  501  0.00000000000E+00  0.00000000000E+00  0.99493886651E+03  0.99493886652E+03  0.25500000920E-02 0.  1.
        2   -1    0    0  501    0  0.00000000000E+00  0.00000000000E+00 -0.21487364717E+04  0.21487364717E+04  0.25500000920E-02 0. -1.
    10030    2    1    2    0    0  0.00000000000E+00  0.00000000000E+00 -0.11537976052E+04  0.31436753382E+04  0.29242855056E+04 0.  0.
        3    1    3    3  502    0 -0.35458681760E+03 -0.95432440567E+03 -0.17051073235E+04  0.19859148716E+04  0.10100000352E+00 0. -1.
       -3    1    3    3    0  502  0.35458681760E+03  0.95432440567E+03  0.55130971826E+03  0.11577604666E+04  0.10100000352E+00 0.  1.
</event>
<event>
 5   0  0.4927533E-06  0.3071560E+04  0.7818609E-02  0.8223587E-01
        2   -1    0    0  501    0  0.00000000000E+00  0.00000000000E+00  0.14996024921E+04  0.14996024921E+04  0.25500000920E-02 0.  1.
       -2   -1    0    0    0  501  0.00000000000E+00  0.00000000000E+00 -0.15728302907E+04  0.15728302907E+04  0.25500000920E-02 0. -1.
    10030    2    1    2    0    0  0.00000000000E+00  0.00000000000E+00 -0.73227798605E+02  0.30724327828E+04  0.30715600099E+04 0.  0.
        5    1    3    3  502    0  0.28102077351E+03  0.71606896433E+03  0.12930006838E+04  0.15045266017E+04  0.46999998093E+01 0.  1.
       -5    1    3    3    0  502 -0.28102077351E+03 -0.71606896433E+03 -0.13662284824E+04  0.15679061812E+04  0.46999998093E+01 0. -1.
</event>
<event>
 5   0  0.1843709E-06  0.3086311E+04  0.7818609E-02  0.8219505E-01
       -1   -1    0    0    0  501  0.00000000000E+00  0.00000000000E+00  0.10193445443E+04  0.10193445443E+04  0.50400001928E-02 0.  1.
        1   -1    0    0  501    0  0.00000000000E+00  0.00000000000E+00 -0.23361375207E+04  0.23361375207E+04  0.50400001928E-02 0. -1.
    10030    2    1    2    0    0  0.00000000000E+00  0.00000000000E+00 -0.13167929764E+04  0.33554820650E+04  0.30863110903E+04 0.  0.
        4    1    3    3  502    0  0.97787652309E+03  0.10152755705E+04  0.24301866388E+02  0.14098294833E+04  0.12699999809E+01 0. -1.
       -4    1    3    3    0  502 -0.97787652309E+03 -0.10152755705E+04 -0.13410948428E+04  0.19456525817E+04  0.12699999809E+01 0.  1.
</event>
<event>
 5   0  0.1885307E-06  0.3121656E+04  0.7818609E-02  0.8209820E-01
       -1   -1    0    0    0  501  0.00000000000E+00  0.00000000000E+00  0.86700663466E+03  0.86700663467E+03  0.50400001928E-02 0.  1.
        1   -1    0    0  501    0  0.00000000000E+00  0.00000000000E+00 -0.28098793825E+04  0.28098793825E+04  0.50400001928E-02 0. -1.
    10030    2    1    2    0    0  0.00000000000E+00  0.00000000000E+00 -0.19428727479E+04  0.36768860172E+04  0.31216560139E+04 0.  0.
        3    1    3    3  502    0  0.14599528457E+04 -0.25532059165E+03 -0.15479079875E+04  0.21430515776E+04  0.10100000352E+00 0.  1.
       -3    1    3    3    0  502 -0.14599528457E+04  0.25532059165E+03 -0.39496476036E+03  0.15338344396E+04  0.10100000352E+00 0. -1.
</event>
<event>
 5   0  0.1853742E-06  0.3099419E+04  0.7818609E-02  0.8215897E-01
        1   -1    0    0  501    0  0.00000000000E+00  0.00000000000E+00  0.21057490471E+04  0.21057490471E+04  0.50400001928E-02 0.  1.
       -1   -1    0    0    0  501  0.00000000000E+00  0.00000000000E+00 -0.11404967067E+04  0.11404967067E+04  0.50400001928E-02 0. -1.
    10030    2    1    2    0    0  0.00000000000E+00  0.00000000000E+00  0.96525234037E+03  0.32462457539E+04  0.30994192059E+04 0.  0.
        5    1    3    3  502    0  0.53288156053E+03  0.11868477286E+04 -0.39928832685E+03  0.13608907181E+04  0.46999998093E+01 0. -1.
       -5    1    3    3    0  502 -0.53288156053E+03 -0.11868477286E+04  0.13645406672E+04  0.18853550358E+04  0.46999998093E+01 0.  1.
</event>
<event>
 5   0  0.5328368E-06  0.3076077E+04  0.7818609E-02  0.8222334E-01
       -2   -1    0    0    0  501  0.00000000000E+00  0.00000000000E+00  0.16295277380E+04  0.16295277380E+04  0.25500000920E-02 0.  1.
        2   -1    0    0  501    0  0.00000000000E+00  0.00000000000E+00 -0.14516857318E+04  0.14516857318E+04  0.25500000920E-02 0. -1.
    10030    2    1    2    0    0  0.00000000000E+00  0.00000000000E+00  0.17784200623E+03  0.30812134698E+04  0.30760768305E+04 0.  0.
        1    1    3    3  502    0  0.22249140361E+03  0.13946607718E+04 -0.52117823998E+03  0.15053929224E+04  0.50400001928E-02 0. -1.
       -1    1    3    3    0  502 -0.22249140361E+03 -0.13946607718E+04  0.69902024620E+03  0.15758205474E+04  0.50400001928E-02 0.  1.
</event>
<event>
 5   0  0.4927533E-06  0.3062706E+04  0.7818609E-02  0.8226048E-01
        2   -1    0    0  501    0  0.00000000000E+00  0.00000000000E+00  0.19934487623E+04  0.19934487623E+04  0.25500000920E-02 0.  1.
       -2   -1    0    0    0  501  0.00000000000E+00  0.00000000000E+00 -0.11763742041E+04  0.11763742041E+04  0.25500000920E-02 0. -1.
    10030    2    1    2    0    0  0.00000000000E+00  0.00000000000E+00  0.81707455823E+03  0.31698229664E+04  0.30627057980E+04 0.  0.
        5    1    3    3  502    0  0.51543089678E+03  0.50414938439E+03 -0.98970700774E+03  0.12244907767E+04  0.46999998093E+01 0. -1.
       -5    1    3    3    0  502 -0.51543089678E+03 -0.50414938439E+03  0.18067815660E+04  0.19453321897E+04  0.46999998093E+01 0.  1.
</event>
<event>
 5   0  0.1853742E-06  0.3100774E+04  0.7818609E-02  0.8215525E-01
       -1   -1    0    0    0  501  0.00000000000E+00  0.00000000000E+00  0.15675672736E+04  0.15675672736E+04  0.50400001928E-02 0.  1.
        1   -1    0    0  501    0  0.00000000000E+00  0.00000000000E+00 -0.15333951942E+04  0.15333951942E+04  0.50400001928E-02 0. -1.
    10030    2    1    2    0    0  0.00000000000E+00  0.00000000000E+00  0.34172079443E+02  0.31009624679E+04  0.31007741769E+04 0.  0.
        5    1    3    3  502    0 -0.12319013577E+04 -0.20096415744E+03  0.93676707085E+03  0.15606159626E+04  0.46999998093E+01 0.  1.
       -5    1    3    3    0  502  0.12319013577E+04  0.20096415744E+03 -0.90259499140E+03  0.15403465052E+04  0.46999998093E+01 0. -1.
</event>
<event>
 5   0  0.1840431E-06  0.3106433E+04  0.7818609E-02  0.8213975E-01
       -1   -1    0    0    0  501  0.00000000000E+00  0.00000000000E+00  0.17204859496E+04  0.17204859496E+04  0.50400001928E-02 0.  1.
        1   -1    0    0  501    0  0.00000000000E+00  0.00000000000E+00 -0.14022094160E+04  0.14022094160E+04  0.50400001928E-02 0. -1.
    10030    2    1    2    0    0  0.00000000000E+00  0.00000000000E+00  0.31827653364E+03  0.31226953657E+04  0.31064330662E+04 0.  0.
        1    1    3    3  502    0  0.56029800462E+03  0.64154395897E+03  0.14647714562E+04  0.16944225931E+04  0.50400001928E-02 0.  1.
       -1    1    3    3    0  502 -0.56029800462E+03 -0.64154395897E+03 -0.11464949225E+04  0.14282727725E+04  0.50400001928E-02 0. -1.
</event>
<event>
 5   0  0.4900679E-06  0.3143198E+04  0.7818609E-02  0.8203982E-01
       -2   -1    0    0    0  501  0.00000000000E+00  0.00000000000E+00  0.17617937855E+04  0.17617937855E+04  0.25500000920E-02 0. -1.
        2   -1    0    0  501    0  0.00000000000E+00  0.00000000000E+00 -0.14019365889E+04  0.14019365889E+04  0.25500000920E-02 0.  1.
    10030    2    1    2    0    0  0.00000000000E+00  0.00000000000E+00  0.35985719655E+03  0.31637303744E+04  0.31431978430E+04 0.  0.
        4    1    3    3  502    0  0.21232840568E+03 -0.14915503012E+03 -0.13802261159E+04  0.14044060377E+04  0.12699999809E+01 0.  1.
       -4    1    3    3    0  502 -0.21232840568E+03  0.14915503012E+03  0.17400833124E+04  0.17593243368E+04  0.12699999809E+01 0. -1.
</event>
<event>
 5   0  0.1840431E-06  0.3111993E+04  0.7818609E-02  0.8212454E-01
       -1   -1    0    0    0  501  0.00000000000E+00  0.00000000000E+00  0.13537508629E+04  0.13537508630E+04  0.50400001928E-02 0. -1.
        1   -1    0    0  501    0  0.00000000000E+00  0.00000000000E+00 -0.17884569232E+04  0.17884569232E+04  0.50400001928E-02 0.  1.
    10030    2    1    2    0    0  0.00000000000E+00  0.00000000000E+00 -0.43470606025E+03  0.31422077862E+04  0.31119929969E+04 0.  0.
        1    1    3    3  502    0  0.32423792432E+03 -0.35103488077E+03  0.12778245245E+04  0.13642548276E+04  0.50400001928E-02 0. -1.
       -1    1    3    3    0  502 -0.32423792432E+03  0.35103488077E+03 -0.17125305848E+04  0.17779529586E+04  0.50400001928E-02 0.  1.
</event>
<event>
 5   0  0.4900679E-06  0.3119775E+04  0.7818609E-02  0.8210332E-01
       -2   -1    0    0    0  501  0.00000000000E+00  0.00000000000E+00  0.12962317048E+04  0.12962317048E+04  0.25500000920E-02 0. -1.
        2   -1    0    0  501    0  0.00000000000E+00  0.00000000000E+00 -0.18771718298E+04  0.18771718298E+04  0.25500000920E-02 0.  1.
    10030    2    1    2    0    0  0.00000000000E+00  0.00000000000E+00 -0.58094012499E+03  0.31734035345E+04  0.31197754029E+04 0.  0.
        4    1    3    3  502    0  0.56451957775E+03 -0.10734527374E+03 -0.17655855180E+04  0.18567442462E+04  0.12699999809E+01 0.  1.
       -4    1    3    3    0  502 -0.56451957775E+03  0.10734527374E+03  0.11846453930E+04  0.13166592883E+04  0.12699999809E+01 0. -1.
</event>
<event>
 5   0  0.5328368E-06  0.2254527E+04  0.7818609E-02  0.8496069E-01
       -2   -1    0    0    0  501  0.00000000000E+00  0.00000000000E+00  0.84513886413E+03  0.84513886414E+03  0.25500000920E-02 0. -1.
        2   -1    0    0  501    0  0.00000000000E+00  0.00000000000E+00 -0.15035675271E+04  0.15035675271E+04  0.25500000920E-02 0.  1.
    10030    2    1    2    0    0  0.00000000000E+00  0.00000000000E+00 -0.65842866297E+03  0.23487063912E+04  0.22545273137E+04 0.  0.
        1    1    3    3  502    0  0.50988840526E+03 -0.93382764964E+03  0.58771880137E+02  0.10655864108E+04  0.50400001928E-02 0. -1.
       -1    1    3    3    0  502 -0.50988840526E+03  0.93382764964E+03 -0.71720054311E+03  0.12831199804E+04  0.50400001928E-02 0.  1.
</event>
<event>
 5   0  0.1836401E-06  0.3102159E+04  0.7818609E-02  0.8215146E-01
        1   -1    0    0  501    0  0.00000000000E+00  0.00000000000E+00  0.15647435393E+04  0.15647435394E+04  0.50400001928E-02 0. -1.
       -1   -1    0    0    0  501  0.00000000000E+00  0.00000000000E+00 -0.15375347944E+04  0.15375347944E+04  0.50400001928E-02 0.  1.
    10030    2    1    2    0    0  0.00000000000E+00  0.00000000000E+00  0.27208744955E+02  0.31022783338E+04  0.31021590134E+04 0.  0.
        2    1    3    3  502    0 -0.74249989457E+03  0.23961007781E+03 -0.13270174251E+04  0.15393811514E+04  0.25500000920E-02 0.  1.
       -2    1    3    3    0  502  0.74249989457E+03 -0.23961007781E+03  0.13542261701E+04  0.15628971823E+04  0.25500000920E-02 0. -1.
</event>
<event>
 5   0  0.1840431E-06  0.3123412E+04  0.7818609E-02  0.8209342E-01
       -1   -1    0    0    0  501  0.00000000000E+00  0.00000000000E+00  0.10177052337E+04  0.10177052337E+04  0.50400001928E-02 0.  1.
        1   -1    0    0  501    0  0.00000000000E+00  0.00000000000E+00 -0.23964950342E+04  0.23964950343E+04  0.50400001928E-02 0. -1.
    10030    2    1    2    0    0  0.00000000000E+00  0.00000000000E+00 -0.13787898006E+04  0.34142002679E+04  0.31234119414E+04 0.  0.
        1    1    3    3  502    0  0.11301353551E+04 -0.46480262914E+03 -0.17523903352E+04  0.21363799502E+04  0.50400001928E-02 0. -1.
       -1    1    3    3    0  502 -0.11301353551E+04  0.46480262914E+03  0.37360053461E+03  0.12778203177E+04  0.50400001928E-02 0.  1.
</event>
<event>
 5   0  0.4900679E-06  0.3103672E+04  0.7818609E-02  0.8214731E-01
        2   -1    0    0  501    0  0.00000000000E+00  0.00000000000E+00  0.17936526010E+04  0.17936526010E+04  0.25500000920E-02 0.  1.
       -2   -1    0    0    0  501  0.00000000000E+00  0.00000000000E+00 -0.13426209321E+04  0.13426209321E+04  0.25500000920E-02 0. -1.
    10030    2    1    2    0    0  0.00000000000E+00  0.00000000000E+00  0.45103166884E+03  0.31362735331E+04  0.31036723584E+04 0.  0.
        4    1    3    3  502    0  0.60460155814E+03  0.32616786791E+03 -0.11805980812E+04  0.13659216539E+04  0.12699999809E+01 0. -1.
       -4    1    3    3    0  502 -0.60460155814E+03 -0.32616786791E+03  0.16316297501E+04  0.17703518793E+04  0.12699999809E+01 0.  1.
</event>
<event>
 5   0  0.1843709E-06  0.3183161E+04  0.7818609E-02  0.8193278E-01
        1   -1    0    0  501    0  0.00000000000E+00  0.00000000000E+00  0.21431920329E+04  0.21431920329E+04  0.50400001928E-02 0. -1.
       -1   -1    0    0    0  501  0.00000000000E+00  0.00000000000E+00 -0.11819419500E+04  0.11819419500E+04  0.50400001928E-02 0.  1.
    10030    2    1    2    0    0  0.00000000000E+00  0.00000000000E+00  0.96125008299E+03  0.33251339829E+04  0.31831610519E+04 0.  0.
        4    1    3    3  502    0 -0.15559961706E+04 -0.88142786560E+02  0.81787714273E+03  0.17600618930E+04  0.12699999809E+01 0. -1.
       -4    1    3    3    0  502  0.15559961706E+04  0.88142786560E+02  0.14337294026E+03  0.15650720899E+04  0.12699999809E+01 0.  1.
</event>
<event>
 5   0  0.4900679E-06  0.3105235E+04  0.7818609E-02  0.8214303E-01
        2   -1    0    0  501    0  0.00000000000E+00  0.00000000000E+00  0.17549881938E+04  0.17549881938E+04  0.25500000920E-02 0. -1.
       -2   -1    0    0    0  501  0.00000000000E+00  0.00000000000E+00 -0.13735823459E+04  0.13735823459E+04  0.25500000920E-02 0.  1.
    10030    2    1    2    0    0  0.00000000000E+00  0.00000000000E+00  0.38140584796E+03  0.31285705397E+04  0.31052348061E+04 0.  0.
        4    1    3    3  502    0  0.79040056180E+03  0.17427848823E+03  0.15256177275E+04  0.17270255073E+04  0.12699999809E+01 0. -1.
       -4    1    3    3    0  502 -0.79040056180E+03 -0.17427848823E+03 -0.11442118795E+04  0.14015450324E+04  0.12699999809E+01 0.  1.
</event>
<event>
 5   0  0.1836401E-06  0.3068831E+04  0.7818609E-02  0.8224344E-01
       -1   -1    0    0    0  501  0.00000000000E+00  0.00000000000E+00  0.18140988572E+04  0.18140988572E+04  0.50400001928E-02 0.  1.
        1   -1    0    0  501    0  0.00000000000E+00  0.00000000000E+00 -0.12978512581E+04  0.12978512581E+04  0.50400001928E-02 0. -1.
    10030    2    1    2    0    0  0.00000000000E+00  0.00000000000E+00  0.51624759908E+03  0.31119501153E+04  0.30688307116E+04 0.  0.
        2    1    3    3  502    0  0.24852727901E+03 -0.50922095028E+02  0.17926850475E+04  0.18105464777E+04  0.25500000920E-02 0.  1.
       -2    1    3    3    0  502 -0.24852727901E+03  0.50922095028E+02 -0.12764374485E+04  0.13014036376E+04  0.25500000920E-02 0. -1.
</event>
<event>
 5   0  0.5328368E-06  0.3105273E+04  0.7818609E-02  0.8214292E-01
       -2   -1    0    0    0  501  0.00000000000E+00  0.00000000000E+00  0.15016065586E+04  0.15016065586E+04  0.25500000920E-02 0. -1.
        2   -1    0    0  501    0  0.00000000000E+00  0.00000000000E+00 -0.16054002804E+04  0.16054002804E+04  0.25500000920E-02 0.  1.
    10030    2    1    2    0    0  0.00000000000E+00  0.00000000000E+00 -0.10379372186E+03  0.31070068390E+04  0.31052726710E+04 0.  0.
        1    1    3    3  502    0  0.98740923659E+03  0.18349187546E+02  0.11468397787E+04  0.15134580177E+04  0.50400001928E-02 0. -1.
       -1    1    3    3    0  502 -0.98740923659E+03 -0.18349187546E+02 -0.12506335006E+04  0.15935488213E+04  0.50400001928E-02 0.  1.
</event>
<event>
 5   0  0.1885307E-06  0.3192350E+04  0.7818609E-02  0.8190840E-01
        1   -1    0    0  501    0  0.00000000000E+00  0.00000000000E+00  0.12951021260E+04  0.12951021260E+04  0.50400001928E-02 0.  1.
       -1   -1    0    0    0  501  0.00000000000E+00  0.00000000000E+00 -0.19672386356E+04  0.19672386356E+04  0.50400001928E-02 0. -1.
    10030    2    1    2    0    0  0.00000000000E+00  0.00000000000E+00 -0.67213650957E+03  0.32623407616E+04  0.31923501934E+04 0.  0.
        3    1    3    3  502    0  0.10620467595E+04  0.86534693838E+03 -0.11731774075E+04  0.18036390667E+04  0.10100000352E+00 0. -1.
       -3    1    3    3    0  502 -0.10620467595E+04 -0.86534693838E+03  0.50104089795E+03  0.14587016949E+04  0.10100000352E+00 0.  1.
</event>
<event>
 5   0  0.1840431E-06  0.3175373E+04  0.7818609E-02  0.8195352E-01
        1   -1    0    0  501    0  0.00000000000E+00  0.00000000000E+00  0.19547135821E+04  0.19547135821E+04  0.50400001928E-02 0.  1.
       -1   -1    0    0    0  501  0.00000000000E+00  0.00000000000E+00 -0.12895741792E+04  0.12895741792E+04  0.50400001928E-02 0. -1.
    10030    2    1    2    0    0  0.00000000000E+00  0.00000000000E+00  0.66513940296E+03  0.32442877613E+04  0.31753728368E+04 0.  0.
        1    1    3    3  502    0  0.46985038165E+03 -0.15861853717E+03 -0.12084174418E+04  0.13062128216E+04  0.50400001928E-02 0. -1.
       -1    1    3    3    0  502 -0.46985038165E+03  0.15861853717E+03  0.18735568448E+04  0.19380749398E+04  0.50400001928E-02 0.  1.
</event>
<event>
 5   0  0.1885307E-06  0.3127549E+04  0.7818609E-02  0.8208218E-01
       -1   -1    0    0    0  501  0.00000000000E+00  0.00000000000E+00  0.11501846112E+04  0.11501846112E+04  0.50400001928E-02 0.  1.
        1   -1    0    0  501    0  0.00000000000E+00  0.00000000000E+00 -0.21260848560E+04  0.21260848560E+04  0.50400001928E-02 0. -1.
    10030    2    1    2    0    0  0.00000000000E+00  0.00000000000E+00 -0.97590024482E+03  0.32762694672E+04  0.31275486142E+04 0.  0.
        3    1    3    3  502    0 -0.83061988748E+03  0.34681478618E+03 -0.18274983456E+04  0.20371450873E+04  0.10100000352E+00 0. -1.
       -3    1    3    3    0  502  0.83061988748E+03 -0.34681478618E+03  0.85159810081E+03  0.12391243799E+04  0.10100000352E+00 0.  1.
</event>
<event>
 5   0  0.5001658E-06  0.3097172E+04  0.7818609E-02  0.8216514E-01
       -2   -1    0    0    0  501  0.00000000000E+00  0.00000000000E+00  0.19633796292E+04  0.19633796292E+04  0.25500000920E-02 0. -1.
        2   -1    0    0  501    0  0.00000000000E+00  0.00000000000E+00 -0.12214240389E+04  0.12214240389E+04  0.25500000920E-02 0.  1.
    10030    2    1    2    0    0  0.00000000000E+00  0.00000000000E+00  0.74195559030E+03  0.31848036681E+04  0.30971723081E+04 0.  0.
        3    1    3    3  502    0 -0.10399965956E+04  0.51513154450E+03 -0.68329469730E+03  0.13467906595E+04  0.10100000352E+00 0.  1.
       -3    1    3    3    0  502  0.10399965956E+04 -0.51513154450E+03  0.14252502876E+04  0.18380130085E+04  0.10100000352E+00 0. -1.
</event>
<event>
 5   0  0.5114870E-06  0.2870431E+04  0.7818609E-02  0.8281730E-01
       -2   -1    0    0    0  501  0.00000000000E+00  0.00000000000E+00  0.77355589656E+03  0.77355589656E+03  0.25500000920E-02 0.  1.
        2   -1    0    0  501    0  0.00000000000E+00  0.00000000000E+00 -0.26628246525E+04  0.26628246525E+04  0.25500000920E-02 0. -1.
    10030    2    1    2    0    0  0.00000000000E+00  0.00000000000E+00 -0.18892687559E+04  0.34363805490E+04  0.28704311254E+04 0.  0.
        2    1    3    3  502    0  0.30744650037E+03 -0.83218256711E+03 -0.22952536157E+04  0.24607397945E+04  0.25500000920E-02 0. -1.
       -2    1    3    3    0  502 -0.30744650037E+03  0.83218256711E+03  0.40598485980E+03  0.97564075457E+03  0.25500000920E-02 0.  1.
</event>
<event>
 5   0  0.1843709E-06  0.2933156E+04  0.7818609E-02  0.8263080E-01
        1   -1    0    0  501    0  0.00000000000E+00  0.00000000000E+00  0.19249007369E+04  0.19249007369E+04  0.50400001928E-02 0.  1.
       -1   -1    0    0    0  501  0.00000000000E+00  0.00000000000E+00 -0.11173829779E+04  0.11173829779E+04  0.50400001928E-02 0. -1.
    10030    2    1    2    0    0  0.00000000000E+00  0.00000000000E+00  0.80751775900E+03  0.30422837148E+04  0.29331561960E+04 0.  0.
        4    1    3    3  502    0  0.49331121138E+03 -0.34121720365E+03  0.17918569290E+04  0.18895867269E+04  0.12699999809E+01 0.  1.
       -4    1    3    3    0  502 -0.49331121138E+03  0.34121720365E+03 -0.98433917004E+03  0.11526969879E+04  0.12699999809E+01 0. -1.
</event>
<event>
 5   0  0.5328368E-06  0.2891947E+04  0.7818609E-02  0.8275277E-01
       -2   -1    0    0    0  501  0.00000000000E+00  0.00000000000E+00  0.75462693096E+03  0.75462693097E+03  0.25500000920E-02 0.  1.
        2   -1    0    0  501    0  0.00000000000E+00  0.00000000000E+00 -0.27706928780E+04  0.27706928780E+04  0.25500000920E-02 0. -1.
    10030    2    1    2    0    0  0.00000000000E+00  0.00000000000E+00 -0.20160659471E+04  0.35253198090E+04  0.28919470695E+04 0.  0.
        1    1    3    3  502    0 -0.11992072664E+04  0.38579156021E+03 -0.18733655656E+04  0.22575277934E+04  0.50400001928E-02 0. -1.
       -1    1    3    3    0  502  0.11992072664E+04 -0.38579156021E+03 -0.14270038147E+03  0.12677920156E+04  0.50400001928E-02 0.  1.
</event>
<event>
 5   0  0.4927533E-06  0.3109013E+04  0.7818609E-02  0.8213269E-01
        2   -1    0    0  501    0  0.00000000000E+00  0.00000000000E+00  0.15486023208E+04  0.15486023208E+04  0.25500000920E-02 0. -1.
       -2   -1    0    0    0  501  0.00000000000E+00  0.00000000000E+00 -0.15604333906E+04  0.15604333906E+04  0.25500000920E-02 0.  1.
    10030    2    1    2    0    0  0.00000000000E+00  0.00000000000E+00 -0.11831069801E+02  0.31090357113E+04  0.31090132004E+04 0.  0.
        5    1    3    3  502    0 -0.11645981884E+04  0.85766230366E+03 -0.57565215219E+03  0.15566859214E+04  0.46999998093E+01 0.  1.
       -5    1    3    3    0  502  0.11645981884E+04 -0.85766230366E+03  0.56382108239E+03  0.15523497900E+04  0.46999998093E+01 0. -1.
</event>
<event>
 5   0  0.1843709E-06  0.3107356E+04  0.7818609E-02  0.8213722E-01
       -1   -1    0    0    0  501  0.00000000000E+00  0.00000000000E+00  0.11320155112E+04  0.11320155112E+04  0.50400001928E-02 0. -1.
        1   -1    0    0  501    0  0.00000000000E+00  0.00000000000E+00 -0.21324050403E+04  0.21324050403E+04  0.50400001928E-02 0.  1.
    10030    2    1    2    0    0  0.00000000000E+00  0.00000000000E+00 -0.10003895291E+04  0.32644205515E+04  0.31073561636E+04 0.  0.
        4    1    3    3  502    0 -0.11426173411E+04  0.10521305074E+04 -0.53895088710E+03  0.16440871827E+04  0.12699999809E+01 0. -1.
       -4    1    3    3    0  502  0.11426173411E+04 -0.10521305074E+04 -0.46143864199E+03  0.16203333688E+04  0.12699999809E+01 0.  1.
</event>
<event>
 5   0  0.5328368E-06  0.3089377E+04  0.7818609E-02  0.8218659E-01
       -2   -1    0    0    0  501  0.00000000000E+00  0.00000000000E+00  0.11252591754E+04  0.11252591754E+04  0.25500000920E-02 0.  1.
        2   -1    0    0  501    0  0.00000000000E+00  0.00000000000E+00 -0.21204561229E+04  0.21204561229E+04  0.25500000920E-02 0. -1.
    10030    2    1    2    0    0  0.00000000000E+00  0.00000000000E+00 -0.99519694757E+03  0.32457152983E+04  0.30893770947E+04 0.  0.
        1    1    3    3  502    0  0.14080763368E+04  0.23997017892E+03  0.12020560463E+03  0.14334273768E+04  0.50400001928E-02 0.  1.
       -1    1    3    3    0  502 -0.14080763368E+04 -0.23997017892E+03 -0.11154025522E+04  0.18122879215E+04  0.50400001928E-02 0. -1.
</event>
<event>
 5   0  0.1840431E-06  0.2347864E+04  0.7818609E-02  0.8459285E-01
        1   -1    0    0  501    0  0.00000000000E+00  0.00000000000E+00  0.10987765716E+04  0.10987765716E+04  0.50400001928E-02 0. -1.
       -1   -1    0    0    0  501  0.00000000000E+00  0.00000000000E+00 -0.12542277615E+04  0.12542277615E+04  0.50400001928E-02 0.  1.
    10030    2    1    2    0    0  0.00000000000E+00  0.00000000000E+00 -0.15545118984E+03  0.23530043331E+04  0.23478637778E+04 0.  0.
        1    1    3    3  502    0  0.16076363260E+03 -0.56029218084E+03  0.94349701040E+03  0.11090351131E+04  0.50400001928E-02 0. -1.
       -1    1    3    3    0  502 -0.16076363260E+03  0.56029218084E+03 -0.10989482002E+04  0.12439692200E+04  0.50400001928E-02 0.  1.
</event>
<event>
 5   0  0.5328368E-06  0.3153225E+04  0.7818609E-02  0.8201281E-01
       -2   -1    0    0    0  501  0.00000000000E+00  0.00000000000E+00  0.12353253294E+04  0.12353253294E+04  0.25500000920E-02 0. -1.
        2   -1    0    0  501    0  0.00000000000E+00  0.00000000000E+00 -0.20121883406E+04  0.20121883406E+04  0.25500000920E-02 0.  1.
    10030    2    1    2    0    0  0.00000000000E+00  0.00000000000E+00 -0.77686301120E+03  0.32475136700E+04  0.31532251583E+04 0.  0.
        1    1    3    3  502    0 -0.12266948662E+03 -0.55327568857E+03  0.11268012774E+04  0.12612862122E+04  0.50400001928E-02 0. -1.
       -1    1    3    3    0  502  0.12266948662E+03  0.55327568857E+03 -0.19036642886E+04  0.19862274578E+04  0.50400001928E-02 0.  1.
</event>
<event>
 5   0  0.1843709E-06  0.3037226E+04  0.7818609E-02  0.8233180E-01
        1   -1    0    0  501    0  0.00000000000E+00  0.00000000000E+00  0.27078064429E+04  0.27078064429E+04  0.50400001928E-02 0.  1.
       -1   -1    0    0    0  501  0.00000000000E+00  0.00000000000E+00 -0.85168029318E+03  0.85168029319E+03  0.50400001928E-02 0. -1.
    10030    2    1    2    0    0  0.00000000000E+00  0.00000000000E+00  0.18561261498E+04  0.35594867361E+04  0.30372259615E+04 0.  0.
        4    1    3    3  502    0  0.90778542797E+03  0.26830931317E+03 -0.46361323646E+03  0.10540413259E+04  0.12699999809E+01 0. -1.
       -4    1    3    3    0  502 -0.90778542797E+03 -0.26830931317E+03  0.23197393862E+04  0.25054454102E+04  0.12699999809E+01 0.  1.
</event>
<event>
 5   0  0.5114870E-06  0.3119220E+04  0.7818609E-02  0.8210483E-01
       -2   -1    0    0    0  501  0.00000000000E+00  0.00000000000E+00  0.12179332102E+04  0.12179332102E+04  0.25500000920E-02 0. -1.
        2   -1    0    0  501    0  0.00000000000E+00  0.00000000000E+00 -0.19971406712E+04  0.19971406712E+04  0.25500000920E-02 0.  1.
    10030    2    1    2    0    0  0.00000000000E+00  0.00000000000E+00 -0.77920746102E+03  0.32150738814E+04  0.31192203826E+04 0.  0.
        2    1    3    3  502    0  0.50727248772E+03  0.89453654871E+03  0.81897403235E+03  0.13146252239E+04  0.25500000920E-02 0. -1.
       -2    1    3    3    0  502 -0.50727248772E+03 -0.89453654871E+03 -0.15981814934E+04  0.19004486574E+04  0.25500000920E-02 0.  1.
</event>
<event>
 5   0  0.5114870E-06  0.3036289E+04  0.7818609E-02  0.8233444E-01
       -2   -1    0    0    0  501  0.00000000000E+00  0.00000000000E+00  0.16836437592E+04  0.16836437592E+04  0.25500000920E-02 0.  1.
        2   -1    0    0  501    0  0.00000000000E+00  0.00000000000E+00 -0.13689136362E+04  0.13689136362E+04  0.25500000920E-02 0. -1.
    10030    2    1    2    0    0  0.00000000000E+00  0.00000000000E+00  0.31473012292E+03  0.30525573954E+04  0.30362891170E+04 0.  0.
        2    1    3    3  502    0 -0.14866357142E+04  0.29821150471E+03  0.23358055800E+03  0.15341368014E+04  0.25500000920E-02 0.  1.
       -2    1    3    3    0  502  0.14866357142E+04 -0.29821150471E+03  0.81149564923E+02  0.15184205940E+04  0.25500000920E-02 0. -1.
</event>
<event>
 5   0  0.1843709E-06  0.3211284E+04  0.7818609E-02  0.8185843E-01
       -1   -1    0    0    0  501  0.00000000000E+00  0.00000000000E+00  0.94677954792E+03  0.94677954794E+03  0.50400001928E-02 0.  1.
        1   -1    0    0  501    0  0.00000000000E+00  0.00000000000E+00 -0.27230066556E+04  0.27230066556E+04  0.50400001928E-02 0. -1.
    10030    2    1    2    0    0  0.00000000000E+00  0.00000000000E+00 -0.17762271077E+04  0.36697862036E+04  0.32112844847E+04 0.  0.
        4    1    3    3  502    0  0.79253716591E+03 -0.68079821251E+03  0.50517832836E+03  0.11605206253E+04  0.12699999809E+01 0.  1.
       -4    1    3    3    0  502 -0.79253716591E+03  0.68079821251E+03 -0.22814054361E+04  0.25092655782E+04  0.12699999809E+01 0. -1.
</event>
<event>
 5   0  0.1853742E-06  0.3085288E+04  0.7818609E-02  0.8219787E-01
       -1   -1    0    0    0  501  0.00000000000E+00  0.00000000000E+00  0.13141567713E+04  0.13141567713E+04  0.50400001928E-02 0.  1.
        1   -1    0    0  501    0  0.00000000000E+00  0.00000000000E+00 -0.18108574604E+04  0.18108574604E+04  0.50400001928E-02 0. -1.
    10030    2    1    2    0    0  0.00000000000E+00  0.00000000000E+00 -0.49670068906E+03  0.31250142317E+04  0.30852880537E+04 0.  0.
        5    1    3    3  502    0  0.71484159433E+03  0.11812882081E+04  0.44846724616E+03  0.14517524915E+04  0.46999998093E+01 0.  1.
       -5    1    3    3    0  502 -0.71484159433E+03 -0.11812882081E+04 -0.94516793522E+03  0.16732617403E+04  0.46999998093E+01 0. -1.
</event>
<event>
 5   0  0.1836401E-06  0.3104142E+04  0.7818609E-02  0.8214602E-01
        1   -1    0    0  501    0  0.00000000000E+00  0.00000000000E+00  0.14770752661E+04  0.14770752661E+04  0.50400001928E-02 0. -1.
       -1   -1    0    0    0  501  0.00000000000E+00  0.00000000000E+00 -0.16308749542E+04  0.16308749542E+04  0.50400001928E-02 0.  1.
    10030    2    1    2    0    0  0.00000000000E+00  0.00000000000E+00 -0.15379968812E+03  0.31079502203E+04  0.31041424303E+04 0.  0.
        2    1    3    3  502    0  0.10233815248E+04  0.65041727520E+03 -0.10468878590E+04  0.16019758320E+04  0.25500000920E-02 0.  1.
       -2    1    3    3    0  502 -0.10233815248E+04 -0.65041727520E+03  0.89308817087E+03  0.15059743883E+04  0.25500000920E-02 0. -1.
</event>
<event>
 5   0  0.5001658E-06  0.3089345E+04  0.7818609E-02  0.8218668E-01
        2   -1    0    0  501    0  0.00000000000E+00  0.00000000000E+00  0.21256429849E+04  0.21256429849E+04  0.25500000920E-02 0.  1.
       -2   -1    0    0    0  501  0.00000000000E+00  0.00000000000E+00 -0.11224898305E+04  0.11224898305E+04  0.25500000920E-02 0. -1.
    10030    2    1    2    0    0  0.00000000000E+00  0.00000000000E+00  0.10031531544E+04  0.32481328154E+04  0.30893446773E+04 0.  0.
        3    1    3    3  502    0 -0.36986607635E+03 -0.14997175966E+04  0.50964153571E+03  0.16265571890E+04  0.10100000352E+00 0. -1.
       -3    1    3    3    0  502  0.36986607635E+03  0.14997175966E+04  0.49351161870E+03  0.16215756264E+04  0.10100000352E+00 0.  1.
</event>
<event>
 5   0  0.1836401E-06  0.3166720E+04  0.7818609E-02  0.8197662E-01
        1   -1    0    0  501    0  0.00000000000E+00  0.00000000000E+00  0.13412632106E+04  0.13412632107E+04  0.50400001928E-02 0. -1.
       -1   -1    0    0    0  501  0.00000000000E+00  0.00000000000E+00 -0.18691551037E+04  0.18691551038E+04  0.50400001928E-02 0.  1.
    10030    2    1    2    0    0  0.00000000000E+00  0.00000000000E+00 -0.52789189311E+03  0.32104183144E+04  0.31667200544E+04 0.  0.
        2    1    3    3  502    0 -0.49672628846E+03  0.14954236357E+04 -0.42100343793E+03  0.16310342580E+04  0.25500000920E-02 0. -1.
       -2    1    3    3    0  502  0.49672628846E+03 -0.14954236357E+04 -0.10688845518E+03  0.15793840564E+04  0.25500000920E-02 0.  1.
</event>
<event>
 5   0  0.1840431E-06  0.3102220E+04  0.7818609E-02  0.8215129E-01
        1   -1    0    0  501    0  0.00000000000E+00  0.00000000000E+00  0.23101788264E+04  0.23101788264E+04  0.50400001928E-02 0.  1.
       -1   -1    0    0    0  501  0.00000000000E+00  0.00000000000E+00 -0.10414525062E+04  0.10414525062E+04  0.50400001928E-02 0. -1.
    10030    2    1    2    0    0  0.00000000000E+00  0.00000000000E+00  0.12687263202E+04  0.33516313326E+04  0.31022195464E+04 0.  0.
        1    1    3    3  502    0  0.10258097540E+04 -0.98443335664E+03 -0.35611438623E+02  0.14222035226E+04  0.50400001928E-02 0. -1.
       -1    1    3    3    0  502 -0.10258097540E+04  0.98443335664E+03  0.13043377588E+04  0.19294278101E+04  0.50400001928E-02 0.  1.
</event>
<event>
 5   0  0.5328368E-06  0.3130880E+04  0.7818609E-02  0.8207314E-01
       -2   -1    0    0    0  501  0.00000000000E+00  0.00000000000E+00  0.10198800237E+04  0.10198800237E+04  0.25500000920E-02 0.  1.
        2   -1    0    0  501    0  0.00000000000E+00  0.00000000000E+00 -0.24028342660E+04  0.24028342660E+04  0.25500000920E-02 0. -1.
    10030    2    1    2    0    0  0.00000000000E+00  0.00000000000E+00 -0.13829542424E+04  0.34227142897E+04  0.31308801753E+04 0.  0.
        1    1    3    3  502    0 -0.60843729625E+03  0.27455459460E+03 -0.22394532520E+04  0.23368198554E+04  0.50400001928E-02 0. -1.
       -1    1    3    3    0  502  0.60843729625E+03 -0.27455459460E+03  0.85649900961E+03  0.10858944343E+04  0.50400001928E-02 0.  1.
</event>
<event>
 5   0  0.1649875E-06  0.3062948E+04  0.7818609E-02  0.8225981E-01
       -3   -1    0    0    0  501  0.00000000000E+00  0.00000000000E+00  0.17204485965E+04  0.17204485995E+04  0.10100000352E+00 0.  1.
        3   -1    0    0  501    0  0.00000000000E+00  0.00000000000E+00 -0.13632563803E+04  0.13632563840E+04  0.10100000352E+00 0. -1.
    10030    2    1    2    0    0  0.00000000000E+00  0.00000000000E+00  0.35719221625E+03  0.30837049835E+04  0.30629479502E+04 0.  0.
        3    1    3    3  502    0  0.30966051283E+02 -0.56327991029E+03 -0.12548396165E+04  0.13758145322E+04  0.10100000352E+00 0. -1.
       -3    1    3    3    0  502 -0.30966051283E+02  0.56327991029E+03  0.16120318327E+04  0.17078904513E+04  0.10100000352E+00 0.  1.
</event>
<event>
 5   0  0.1853742E-06  0.3115889E+04  0.7818609E-02  0.8211391E-01
        1   -1    0    0  501    0  0.00000000000E+00  0.00000000000E+00  0.14998413158E+04  0.14998413158E+04  0.50400001928E-02 0.  1.
       -1   -1    0    0    0  501  0.00000000000E+00  0.00000000000E+00 -0.16182989664E+04  0.16182989664E+04  0.50400001928E-02 0. -1.
    10030    2    1    2    0    0  0.00000000000E+00  0.00000000000E+00 -0.11845765059E+03  0.31181402822E+04  0.31158893762E+04 0.  0.
        5    1    3    3  502    0 -0.19279018182E+03  0.52828887600E+03  0.13947186639E+04  0.15038349086E+04  0.46999998093E+01 0.  1.
       -5    1    3    3    0  502  0.19279018182E+03 -0.52828887600E+03 -0.15131763145E+04  0.16143053737E+04  0.46999998093E+01 0. -1.
</event>
<event>
 5   0  0.5114870E-06  0.3100977E+04  0.7818609E-02  0.8215470E-01
       -2   -1    0    0    0  501  0.00000000000E+00  0.00000000000E+00  0.85104502873E+03  0.85104502873E+03  0.25500000920E-02 0.  1.
        2   -1    0    0  501    0  0.00000000000E+00  0.00000000000E+00 -0.28247799456E+04  0.28247799456E+04  0.25500000920E-02 0. -1.
    10030    2    1    2    0    0  0.00000000000E+00  0.00000000000E+00 -0.19737349169E+04  0.36758249743E+04  0.31009772201E+04 0.  0.
        2    1    3    3  502    0 -0.24110051309E+03 -0.23215799385E+03  0.80771092053E+03  0.87431328634E+03  0.25500000920E-02 0.  1.
       -2    1    3    3    0  502  0.24110051309E+03  0.23215799385E+03 -0.27814458374E+04  0.28015116880E+04  0.25500000920E-02 0. -1.
</event>
<event>
 5   0  0.5114870E-06  0.3111225E+04  0.7818609E-02  0.8212664E-01
        2   -1    0    0  501    0  0.00000000000E+00  0.00000000000E+00  0.28314852241E+04  0.28314852241E+04  0.25500000920E-02 0.  1.
       -2   -1    0    0    0  501  0.00000000000E+00  0.00000000000E+00 -0.85465061480E+03  0.85465061481E+03  0.25500000920E-02 0. -1.
    10030    2    1    2    0    0  0.00000000000E+00  0.00000000000E+00  0.19768346093E+04  0.36861358389E+04  0.31112252169E+04 0.  0.
        2    1    3    3  502    0  0.14705608930E+04  0.16587822629E+03  0.42037989952E+03  0.15384356295E+04  0.25500000920E-02 0. -1.
       -2    1    3    3    0  502 -0.14705608930E+04 -0.16587822629E+03  0.15564547098E+04  0.21477002095E+04  0.25500000920E-02 0.  1.
</event>
<event>
 5   0  0.1885307E-06  0.3078872E+04  0.7818609E-02  0.8221560E-01
       -1   -1    0    0    0  501  0.00000000000E+00  0.00000000000E+00  0.19196993090E+04  0.19196993090E+04  0.50400001928E-02 0.  1.
        1   -1    0    0  501    0  0.00000000000E+00  0.00000000000E+00 -0.12344974312E+04  0.12344974313E+04  0.50400001928E-02 0. -1.
    10030    2    1    2    0    0  0.00000000000E+00  0.00000000000E+00  0.68520187778E+03  0.31541967403E+04  0.30788724337E+04 0.  0.
        3    1    3    3  502    0  0.64784705528E+03  0.95927587476E+03  0.13822929332E+04  0.18029558437E+04  0.10100000352E+00 0.  1.
       -3    1    3    3    0  502 -0.64784705528E+03 -0.95927587476E+03 -0.69709105539E+03  0.13512408966E+04  0.10100000352E+00 0. -1.
</event>
<event>
 5   0  0.4927533E-06  0.3119030E+04  0.7818609E-02  0.8210535E-01
        2   -1    0    0  501    0  0.00000000000E+00  0.00000000000E+00  0.18901336262E+04  0.18901336262E+04  0.25500000920E-02 0. -1.
       -2   -1    0    0    0  501  0.00000000000E+00  0.00000000000E+00 -0.12867273387E+04  0.12867273387E+04  0.25500000920E-02 0.  1.
    10030    2    1    2    0    0  0.00000000000E+00  0.00000000000E+00  0.60340628746E+03  0.31768609649E+04  0.31190297278E+04 0.  0.
        5    1    3    3  502    0 -0.99913265021E+03  0.46055308820E+03  0.14274975413E+04  0.18022615016E+04  0.46999998093E+01 0. -1.
       -5    1    3    3    0  502  0.99913265021E+03 -0.46055308820E+03 -0.82409125389E+03  0.13745994633E+04  0.46999998093E+01 0.  1.
</event>
<event>
 5   0  0.1843709E-06  0.3093809E+04  0.7818609E-02  0.8217439E-01
        1   -1    0    0  501    0  0.00000000000E+00  0.00000000000E+00  0.15464596645E+04  0.15464596645E+04  0.50400001928E-02 0.  1.
       -1   -1    0    0    0  501  0.00000000000E+00  0.00000000000E+00 -0.15473495514E+04  0.15473495514E+04  0.50400001928E-02 0. -1.
    10030    2    1    2    0    0  0.00000000000E+00  0.00000000000E+00 -0.88988695857E+00  0.30938092159E+04  0.30938090879E+04 0.  0.
        4    1    3    3  502    0  0.70663475846E+03  0.12996634157E+03 -0.13703676708E+04  0.15472986453E+04  0.12699999809E+01 0. -1.
       -4    1    3    3    0  502 -0.70663475846E+03 -0.12996634157E+03  0.13694777838E+04  0.15465105706E+04  0.12699999809E+01 0.  1.
</event>
<event>
 5   0  0.5114870E-06  0.3076553E+04  0.7818609E-02  0.8222202E-01
       -2   -1    0    0    0  501  0.00000000000E+00  0.00000000000E+00  0.19804837303E+04  0.19804837303E+04  0.25500000920E-02 0. -1.
        2   -1    0    0  501    0  0.00000000000E+00  0.00000000000E+00 -0.11948066968E+04  0.11948066968E+04  0.25500000920E-02 0.  1.
    10030    2    1    2    0    0  0.00000000000E+00  0.00000000000E+00  0.78567703351E+03  0.31752904272E+04  0.30765534118E+04 0.  0.
        2    1    3    3  502    0 -0.88528439871E+02 -0.24569945231E+03 -0.11717584527E+04  0.12005096322E+04  0.25500000920E-02 0.  1.
       -2    1    3    3    0  502  0.88528439871E+02  0.24569945231E+03  0.19574354862E+04  0.19747807950E+04  0.25500000920E-02 0. -1.
</event>
<event>
 5   0  0.1853742E-06  0.2929086E+04  0.7818609E-02  0.8264276E-01
       -1   -1    0    0    0  501  0.00000000000E+00  0.00000000000E+00  0.14859081116E+04  0.14859081117E+04  0.50400001928E-02 0.  1.
        1   -1    0    0  501    0  0.00000000000E+00  0.00000000000E+00 -0.14434853047E+04  0.14434853047E+04  0.50400001928E-02 0. -1.
    10030    2    1    2    0    0  0.00000000000E+00  0.00000000000E+00  0.42422806971E+02  0.29293934163E+04  0.29290862215E+04 0.  0.
        5    1    3    3  502    0 -0.87629604093E+03  0.72024162434E+03 -0.90528830509E+03  0.14512793508E+04  0.46999998093E+01 0. -1.
       -5    1    3    3    0  502  0.87629604093E+03 -0.72024162434E+03  0.94771111206E+03  0.14781140655E+04  0.46999998093E+01 0.  1.
</event>
<event>
 5   0  0.1649875E-06  0.3281091E+04  0.7818609E-02  0.8167723E-01
        3   -1    0    0  501    0  0.00000000000E+00  0.00000000000E+00  0.16333936994E+04  0.16333937025E+04  0.10100000352E+00 0. -1.
       -3   -1    0    0    0  501  0.00000000000E+00  0.00000000000E+00 -0.16477290873E+04  0.16477290904E+04  0.10100000352E+00 0.  1.
    10030    2    1    2    0    0  0.00000000000E+00  0.00000000000E+00 -0.14335387906E+02  0.32811227929E+04  0.32810914767E+04 0.  0.
        3    1    3    3  502    0 -0.95383498540E+03  0.55456802797E+02  0.13264543001E+04  0.16347347359E+04  0.10100000352E+00 0. -1.
       -3    1    3    3    0  502  0.95383498540E+03 -0.55456802797E+02 -0.13407896880E+04  0.16463880569E+04  0.10100000352E+00 0.  1.
</event>
<event>
 5   0  0.1836401E-06  0.2865375E+04  0.7818609E-02  0.8283255E-01
       -1   -1    0    0    0  501  0.00000000000E+00  0.00000000000E+00  0.85716669917E+03  0.85716669918E+03  0.50400001928E-02 0. -1.
        1   -1    0    0  501    0  0.00000000000E+00  0.00000000000E+00 -0.23946253648E+04  0.23946253648E+04  0.50400001928E-02 0.  1.
    10030    2    1    2    0    0  0.00000000000E+00  0.00000000000E+00 -0.15374586656E+04  0.32517920640E+04  0.28653747536E+04 0.  0.
        2    1    3    3  502    0  0.97197740449E+02 -0.13464657851E+04 -0.13131956112E+04  0.18833215935E+04  0.25500000920E-02 0.  1.
       -2    1    3    3    0  502 -0.97197740449E+02  0.13464657851E+04 -0.22426305440E+03  0.13684704705E+04  0.25500000920E-02 0. -1.
</event>
<event>
 5   0  0.1853742E-06  0.3159772E+04  0.7818609E-02  0.8199523E-01
       -1   -1    0    0    0  501  0.00000000000E+00  0.00000000000E+00  0.10920443869E+04  0.10920443869E+04  0.50400001928E-02 0.  1.
        1   -1    0    0  501    0  0.00000000000E+00  0.00000000000E+00 -0.22856585160E+04  0.22856585161E+04  0.50400001928E-02 0. -1.
    10030    2    1    2    0    0  0.00000000000E+00  0.00000000000E+00 -0.11936141291E+04  0.33777029030E+04  0.31597724937E+04 0.  0.
        5    1    3    3  502    0 -0.16219097257E+03  0.44312557737E+02 -0.22760600177E+04  0.22822665945E+04  0.46999998093E+01 0. -1.
       -5    1    3    3    0  502  0.16219097257E+03 -0.44312557737E+02  0.10824458885E+04  0.10954363085E+04  0.46999998093E+01 0.  1.
</event>
<event>
 5   0  0.5114870E-06  0.3131963E+04  0.7818609E-02  0.8207020E-01
        2   -1    0    0  501    0  0.00000000000E+00  0.00000000000E+00  0.19435793878E+04  0.19435793878E+04  0.25500000920E-02 0. -1.
       -2   -1    0    0    0  501  0.00000000000E+00  0.00000000000E+00 -0.12617431554E+04  0.12617431554E+04  0.25500000920E-02 0.  1.
    10030    2    1    2    0    0  0.00000000000E+00  0.00000000000E+00  0.68183623238E+03  0.32053225431E+04  0.31319629560E+04 0.  0.
        2    1    3    3  502    0 -0.61191034263E+03  0.28903357637E+03  0.17862011495E+04  0.19101018879E+04  0.25500000920E-02 0. -1.
       -2    1    3    3    0  502  0.61191034263E+03 -0.28903357637E+03 -0.11043649171E+04  0.12952206553E+04  0.25500000920E-02 0.  1.
</event>
<event>
 5   0  0.5114870E-06  0.3092870E+04  0.7818609E-02  0.8217697E-01
        2   -1    0    0  501    0  0.00000000000E+00  0.00000000000E+00  0.84775525593E+03  0.84775525593E+03  0.25500000920E-02 0.  1.
       -2   -1    0    0    0  501  0.00000000000E+00  0.00000000000E+00 -0.28209339408E+04  0.28209339408E+04  0.25500000920E-02 0. -1.
    10030    2    1    2    0    0  0.00000000000E+00  0.00000000000E+00 -0.19731786849E+04  0.36686891967E+04  0.30928702365E+04 0.  0.
        2    1    3    3  502    0 -0.57602807323E+03 -0.44267931640E+03  0.63274250006E+03  0.96339835463E+03  0.25500000920E-02 0.  1.
       -2    1    3    3    0  502  0.57602807323E+03  0.44267931640E+03 -0.26059211849E+04  0.27052908421E+04  0.25500000920E-02 0. -1.
</event>
<event>
 5   0  0.1843709E-06  0.3204736E+04  0.7818609E-02  0.8187567E-01
       -1   -1    0    0    0  501  0.00000000000E+00  0.00000000000E+00  0.17101798118E+04  0.17101798118E+04  0.50400001928E-02 0. -1.
        1   -1    0    0  501    0  0.00000000000E+00  0.00000000000E+00 -0.15013530660E+04  0.15013530660E+04  0.50400001928E-02 0.  1.
    10030    2    1    2    0    0  0.00000000000E+00  0.00000000000E+00  0.20882674581E+03  0.32115328778E+04  0.32047363098E+04 0.  0.
        4    1    3    3  502    0  0.10151173998E+04  0.97704509735E+03 -0.66042319707E+03  0.15560336982E+04  0.12699999809E+01 0.  1.
       -4    1    3    3    0  502 -0.10151173998E+04 -0.97704509735E+03  0.86924994288E+03  0.16554991796E+04  0.12699999809E+01 0. -1.
</event>
<event>
 5   0  0.4900679E-06  0.3122816E+04  0.7818609E-02  0.8209504E-01
        2   -1    0    0  501    0  0.00000000000E+00  0.00000000000E+00  0.12787896795E+04  0.12787896795E+04  0.25500000920E-02 0. -1.
       -2   -1    0    0    0  501  0.00000000000E+00  0.00000000000E+00 -0.19064865876E+04  0.19064865876E+04  0.25500000920E-02 0.  1.
    10030    2    1    2    0    0  0.00000000000E+00  0.00000000000E+00 -0.62769690816E+03  0.31852762671E+04  0.31228162753E+04 0.  0.
        4    1    3    3  502    0 -0.79426869362E+03 -0.95359428459E+03 -0.12803171632E+04  0.17830923892E+04  0.12699999809E+01 0.  1.
       -4    1    3    3    0  502  0.79426869362E+03  0.95359428459E+03  0.65262025503E+03  0.14021838779E+04  0.12699999809E+01 0. -1.
</event>
<event>
 5   0  0.1649875E-06  0.3148514E+04  0.7818609E-02  0.8202548E-01
       -3   -1    0    0    0  501  0.00000000000E+00  0.00000000000E+00  0.16243597019E+04  0.16243597050E+04  0.10100000352E+00 0.  1.
        3   -1    0    0  501    0  0.00000000000E+00  0.00000000000E+00 -0.15256998049E+04  0.15256998082E+04  0.10100000352E+00 0. -1.
    10030    2    1    2    0    0  0.00000000000E+00  0.00000000000E+00  0.98659896989E+02  0.31500595133E+04  0.31485141197E+04 0.  0.
        3    1    3    3  502    0  0.84894281264E+03 -0.61502456296E+03  0.12243535810E+04  0.16118315091E+04  0.10100000352E+00 0.  1.
       -3    1    3    3    0  502 -0.84894281264E+03  0.61502456296E+03 -0.11256936841E+04  0.15382280041E+04  0.10100000352E+00 0. -1.
</event>
<event>
 5   0  0.1853742E-06  0.2632356E+04  0.7818609E-02  0.8357293E-01
        1   -1    0    0  501    0  0.00000000000E+00  0.00000000000E+00  0.18946901727E+04  0.18946901727E+04  0.50400001928E-02 0. -1.
       -1   -1    0    0    0  501  0.00000000000E+00  0.00000000000E+00 -0.91430515629E+03  0.91430515630E+03  0.50400001928E-02 0.  1.
    10030    2    1    2    0    0  0.00000000000E+00  0.00000000000E+00  0.98038501644E+03  0.28089953290E+04  0.26323563547E+04 0.  0.
        5    1    3    3  502    0  0.52311751748E+03  0.42268146055E+03  0.16974776424E+04  0.18258597949E+04  0.46999998093E+01 0. -1.
       -5    1    3    3    0  502 -0.52311751748E+03 -0.42268146055E+03 -0.71709262599E+03  0.98313553411E+03  0.46999998093E+01 0.  1.
</event>
<event>
 5   0  0.5114870E-06  0.2953791E+04  0.7818609E-02  0.8257051E-01
       -2   -1    0    0    0  501  0.00000000000E+00  0.00000000000E+00  0.10208768137E+04  0.10208768138E+04  0.25500000920E-02 0.  1.
        2   -1    0    0  501    0  0.00000000000E+00  0.00000000000E+00 -0.21366144206E+04  0.21366144206E+04  0.25500000920E-02 0. -1.
    10030    2    1    2    0    0  0.00000000000E+00  0.00000000000E+00 -0.11157376068E+04  0.31574912343E+04  0.29537908673E+04 0.  0.
        2    1    3    3  502    0  0.14414460698E+04 -0.31523701637E+03 -0.48959755505E+03  0.15546211482E+04  0.25500000920E-02 0.  1.
       -2    1    3    3    0  502 -0.14414460698E+04  0.31523701637E+03 -0.62614005177E+03  0.16028700861E+04  0.25500000920E-02 0. -1.
</event>
<event>
 5   0  0.1840431E-06  0.3004008E+04  0.7818609E-02  0.8242587E-01
       -1   -1    0    0    0  501  0.00000000000E+00  0.00000000000E+00  0.23618649881E+04  0.23618649881E+04  0.50400001928E-02 0. -1.
        1   -1    0    0  501    0  0.00000000000E+00  0.00000000000E+00 -0.95518389722E+03  0.95518389724E+03  0.50400001928E-02 0.  1.
    10030    2    1    2    0    0  0.00000000000E+00  0.00000000000E+00  0.14066810909E+04  0.33170488854E+04  0.30040075926E+04 0.  0.
        1    1    3    3  502    0 -0.66776173380E+03 -0.19720513863E+03  0.21728997109E+04  0.22817293340E+04  0.50400001928E-02 0. -1.
       -1    1    3    3    0  502  0.66776173380E+03  0.19720513863E+03 -0.76621862001E+03  0.10353195514E+04  0.50400001928E-02 0.  1.
</event>
<event>
 5   0  0.5114870E-06  0.2650336E+04  0.7818609E-02  0.8351301E-01
        2   -1    0    0  501    0  0.00000000000E+00  0.00000000000E+00  0.14478513968E+04  0.14478513968E+04  0.25500000920E-02 0.  1.
       -2   -1    0    0    0  501  0.00000000000E+00  0.00000000000E+00 -0.12128803293E+04  0.12128803293E+04  0.25500000920E-02 0. -1.
    10030    2    1    2    0    0  0.00000000000E+00  0.00000000000E+00  0.23497106748E+03  0.26607317260E+04  0.26503361891E+04 0.  0.
        2    1    3    3  502    0 -0.49930989807E+03  0.12832652687E+03 -0.11080781004E+04  0.12221354869E+04  0.25500000920E-02 0. -1.
       -2    1    3    3    0  502  0.49930989807E+03 -0.12832652687E+03  0.13430491679E+04  0.14385962391E+04  0.25500000920E-02 0.  1.
</event>
<event>
 5   0  0.5114870E-06  0.3113287E+04  0.7818609E-02  0.8212101E-01
       -2   -1    0    0    0  501  0.00000000000E+00  0.00000000000E+00  0.10896665707E+04  0.10896665707E+04  0.25500000920E-02 0. -1.
        2   -1    0    0  501    0  0.00000000000E+00  0.00000000000E+00 -0.22237432257E+04  0.22237432257E+04  0.25500000920E-02 0.  1.
    10030    2    1    2    0    0  0.00000000000E+00  0.00000000000E+00 -0.11340766550E+04  0.33134097964E+04  0.31132867872E+04 0.  0.
        2    1    3    3  502    0 -0.15469951446E+04  0.17205705570E+03 -0.54738377904E+03  0.16499777603E+04  0.25500000920E-02 0. -1.
       -2    1    3    3    0  502  0.15469951446E+04 -0.17205705570E+03 -0.58669287594E+03  0.16634320361E+04  0.25500000920E-02 0.  1.
</event>
<event>
 5   0  0.1885307E-06  0.3016031E+04  0.7818609E-02  0.8239168E-01
       -1   -1    0    0    0  501  0.00000000000E+00  0.00000000000E+00  0.18895731371E+04  0.18895731371E+04  0.50400001928E-02 0.  1.
        1   -1    0    0  501    0  0.00000000000E+00  0.00000000000E+00 -0.12035050611E+04  0.12035050611E+04  0.50400001928E-02 0. -1.
    10030    2    1    2    0    0  0.00000000000E+00  0.00000000000E+00  0.68606807608E+03  0.30930781982E+04  0.30160310567E+04 0.  0.
        3    1    3    3  502    0 -0.66047707454E+03 -0.61974965122E+03  0.15795681810E+04  0.18208116994E+04  0.10100000352E+00 0.  1.
       -3    1    3    3    0  502  0.66047707454E+03  0.61974965122E+03 -0.89350010492E+03  0.12722664988E+04  0.10100000352E+00 0. -1.
</event>
<event>
 5   0  0.1840431E-06  0.3078526E+04  0.7818609E-02  0.8221656E-01
       -1   -1    0    0    0  501  0.00000000000E+00  0.00000000000E+00  0.11558010377E+04  0.11558010377E+04  0.50400001928E-02 0.  1.
        1   -1    0    0  501    0  0.00000000000E+00  0.00000000000E+00 -0.20499461327E+04  0.20499461327E+04  0.50400001928E-02 0. -1.
    10030    2    1    2    0    0  0.00000000000E+00  0.00000000000E+00 -0.89414509500E+03  0.32057471705E+04  0.30785255351E+04 0.  0.
        1    1    3    3  502    0  0.11539461462E+04  0.71080604868E+03  0.31280467456E+03  0.13909290822E+04  0.50400001928E-02 0.  1.
       -1    1    3    3    0  502 -0.11539461462E+04 -0.71080604868E+03 -0.12069497696E+04  0.18148180883E+04  0.50400001928E-02 0. -1.
</event>
<event>
 5   0  0.1885307E-06  0.3118606E+04  0.7818609E-02  0.8210650E-01
       -1   -1    0    0    0  501  0.00000000000E+00  0.00000000000E+00  0.13235286802E+04  0.13235286802E+04  0.50400001928E-02 0.  1.
        1   -1    0    0  501    0  0.00000000000E+00  0.00000000000E+00 -0.18370788499E+04  0.18370788499E+04  0.50400001928E-02 0. -1.
    10030    2    1    2    0    0  0.00000000000E+00  0.00000000000E+00 -0.51355016964E+03  0.31606075301E+04  0.31186064489E+04 0.  0.
        3    1    3    3  502    0  0.21158381691E+03  0.17902005163E+03 -0.18119152901E+04  0.18329901580E+04  0.10100000352E+00 0. -1.
       -3    1    3    3    0  502 -0.21158381691E+03 -0.17902005163E+03  0.12983651205E+04  0.13276173721E+04  0.10100000352E+00 0.  1.
</event>
<event>
 5   0  0.1843709E-06  0.3107586E+04  0.7818609E-02  0.8213659E-01
        1   -1    0    0  501    0  0.00000000000E+00  0.00000000000E+00  0.15110472318E+04  0.15110472318E+04  0.50400001928E-02 0.  1.
       -1   -1    0    0    0  501  0.00000000000E+00  0.00000000000E+00 -0.15977475118E+04  0.15977475118E+04  0.50400001928E-02 0. -1.
    10030    2    1    2    0    0  0.00000000000E+00  0.00000000000E+00 -0.86700280061E+02  0.31087947436E+04  0.31075855289E+04 0.  0.
        4    1    3    3  502    0 -0.64003235542E+03 -0.67744019559E+03  0.12003969648E+04  0.15197108675E+04  0.12699999809E+01 0.  1.
       -4    1    3    3    0  502  0.64003235542E+03  0.67744019559E+03 -0.12870972449E+04  0.15890838761E+04  0.12699999809E+01 0. -1.
</event>
<event>
 5   0  0.1843709E-06  0.3136792E+04  0.7818609E-02  0.8205712E-01
        1   -1    0    0  501    0  0.00000000000E+00  0.00000000000E+00  0.16474084931E+04  0.16474084931E+04  0.50400001928E-02 0. -1.
       -1   -1    0    0    0  501  0.00000000000E+00  0.00000000000E+00 -0.14931735235E+04  0.14931735235E+04  0.50400001928E-02 0.  1.
    10030    2    1    2    0    0  0.00000000000E+00  0.00000000000E+00  0.15423496956E+03  0.31405820166E+04  0.31367924664E+04 0.  0.
        4    1    3    3  502    0  0.50399463097E+03 -0.14850765893E+04  0.57041643406E+02  0.15693050774E+04  0.12699999809E+01 0. -1.
       -4    1    3    3    0  502 -0.50399463097E+03  0.14850765893E+04  0.97193326158E+02  0.15712769392E+04  0.12699999809E+01 0.  1.
</event>
<event>
 5   0  0.5328368E-06  0.3013871E+04  0.7818609E-02  0.8239781E-01
        2   -1    0    0  501    0  0.00000000000E+00  0.00000000000E+00  0.19328392651E+04  0.19328392651E+04  0.25500000920E-02 0.  1.
       -2   -1    0    0    0  501  0.00000000000E+00  0.00000000000E+00 -0.11748800623E+04  0.11748800623E+04  0.25500000920E-02 0. -1.
    10030    2    1    2    0    0  0.00000000000E+00  0.00000000000E+00  0.75795920279E+03  0.31077193273E+04  0.30138708108E+04 0.  0.
        1    1    3    3  502    0  0.12444016066E+04  0.83651526682E+03  0.53386052359E+03  0.15916344457E+04  0.50400001928E-02 0. -1.
       -1    1    3    3    0  502 -0.12444016066E+04 -0.83651526682E+03  0.22409867919E+03  0.15160848816E+04  0.50400001928E-02 0.  1.
</event>
<event>
 5   0  0.5001658E-06  0.3115016E+04  0.7818609E-02  0.8211629E-01
        2   -1    0    0  501    0  0.00000000000E+00  0.00000000000E+00  0.26802366402E+04  0.26802366402E+04  0.25500000920E-02 0. -1.
       -2   -1    0    0    0  501  0.00000000000E+00  0.00000000000E+00 -0.90508094491E+03  0.90508094491E+03  0.25500000920E-02 0.  1.
    10030    2    1    2    0    0  0.00000000000E+00  0.00000000000E+00  0.17751556953E+04  0.35853175851E+04  0.31150159620E+04 0.  0.
        3    1    3    3  502    0  0.72527301873E+03  0.38451550158E+03  0.24110313282E+04  0.25469482128E+04  0.10100000352E+00 0. -1.
       -3    1    3    3    0  502 -0.72527301873E+03 -0.38451550158E+03 -0.63587563294E+03  0.10383693723E+04  0.10100000352E+00 0.  1.
</event>
<event>
 5   0  0.1649875E-06  0.3064841E+04  0.7818609E-02  0.8225454E-01
       -3   -1    0    0    0  501  0.00000000000E+00  0.00000000000E+00  0.92586857176E+03  0.92586857726E+03  0.10100000352E+00 0. -1.
        3   -1    0    0  501    0  0.00000000000E+00  0.00000000000E+00 -0.25363348004E+04  0.25363348025E+04  0.10100000352E+00 0.  1.
    10030    2    1    2    0    0  0.00000000000E+00  0.00000000000E+00 -0.16104662287E+04  0.34622033797E+04  0.30648410675E+04 0.  0.
        3    1    3    3  502    0 -0.88156678653E+02 -0.30051224623E+03 -0.24997988000E+04  0.25193398463E+04  0.10100000352E+00 0.  1.
       -3    1    3    3    0  502  0.88156678653E+02  0.30051224623E+03  0.88933257133E+03  0.94286353347E+03  0.10100000352E+00 0. -1.
</event>
<event>
 5   0  0.5114870E-06  0.3119640E+04  0.7818609E-02  0.8210368E-01
       -2   -1    0    0    0  501  0.00000000000E+00  0.00000000000E+00  0.10212844762E+04  0.10212844762E+04  0.25500000920E-02 0.  1.
        2   -1    0    0  501    0  0.00000000000E+00  0.00000000000E+00 -0.23823318232E+04  0.23823318232E+04  0.25500000920E-02 0. -1.
    10030    2    1    2    0    0  0.00000000000E+00  0.00000000000E+00 -0.13610473470E+04  0.34036162993E+04  0.31196400485E+04 0.  0.
        2    1    3    3  502    0  0.13413453623E+04  0.72828845976E+03 -0.10313992742E+04  0.18421172396E+04  0.25500000920E-02 0. -1.
       -2    1    3    3    0  502 -0.13413453623E+04 -0.72828845976E+03 -0.32964807276E+03  0.15614990597E+04  0.25500000920E-02 0.  1.
</event>
<event>
 5   0  0.4900679E-06  0.2911682E+04  0.7818609E-02  0.8269410E-01
        2   -1    0    0  501    0  0.00000000000E+00  0.00000000000E+00  0.15308448639E+04  0.15308448639E+04  0.25500000920E-02 0.  1.
       -2   -1    0    0    0  501  0.00000000000E+00  0.00000000000E+00 -0.13845120407E+04  0.13845120407E+04  0.25500000920E-02 0. -1.
    10030    2    1    2    0    0  0.00000000000E+00  0.00000000000E+00  0.14633282326E+03  0.29153569046E+04  0.29116820888E+04 0.  0.
        4    1    3    3  502    0 -0.27448103690E+03 -0.11116487812E+04  0.97339440671E+03  0.15028643107E+04  0.12699999809E+01 0.  1.
       -4    1    3    3    0  502  0.27448103690E+03  0.11116487812E+04 -0.82706158345E+03  0.14124925940E+04  0.12699999809E+01 0. -1.
</event>
<event>
 5   0  0.1843709E-06  0.2892075E+04  0.7818609E-02  0.8275239E-01
        1   -1    0    0  501    0  0.00000000000E+00  0.00000000000E+00  0.13578459547E+04  0.13578459547E+04  0.50400001928E-02 0.  1.
       -1   -1    0    0    0  501  0.00000000000E+00  0.00000000000E+00 -0.15399567660E+04  0.15399567660E+04  0.50400001928E-02 0. -1.
    10030    2    1    2    0    0  0.00000000000E+00  0.00000000000E+00 -0.18211081122E+03  0.28978027207E+04  0.28920747329E+04 0.  0.
        4    1    3    3  502    0  0.72070881445E+03  0.95339095674E+03 -0.90669895010E+03  0.15001600283E+04  0.12699999809E+01 0. -1.
       -4    1    3    3    0  502 -0.72070881445E+03 -0.95339095674E+03  0.72458813887E+03  0.13976426924E+04  0.12699999809E+01 0.  1.
</event>
<event>
 5   0  0.4927533E-06  0.3146838E+04  0.7818609E-02  0.8203000E-01
        2   -1    0    0  501    0  0.00000000000E+00  0.00000000000E+00  0.20908512915E+04  0.20908512915E+04  0.25500000920E-02 0.  1.
       -2   -1    0    0    0  501  0.00000000000E+00  0.00000000000E+00 -0.11840376843E+04  0.11840376843E+04  0.25500000920E-02 0. -1.
    10030    2    1    2    0    0  0.00000000000E+00  0.00000000000E+00  0.90681360715E+03  0.32748889758E+04  0.31468376008E+04 0.  0.
        5    1    3    3  502    0  0.44426718624E+03 -0.13743581589E+04  0.11028111292E+04  0.18172639210E+04  0.46999998093E+01 0.  1.
       -5    1    3    3    0  502 -0.44426718624E+03  0.13743581589E+04 -0.19599752205E+03  0.14576250548E+04  0.46999998093E+01 0. -1.
</event>
<event>
 5   0  0.5001658E-06  0.3138830E+04  0.7818609E-02  0.8205162E-01
        2   -1    0    0  501    0  0.00000000000E+00  0.00000000000E+00  0.23018272853E+04  0.23018272853E+04  0.25500000920E-02 0.  1.
       -2   -1    0    0    0  501  0.00000000000E+00  0.00000000000E+00 -0.10700468837E+04  0.10700468837E+04  0.25500000920E-02 0. -1.
    10030    2    1    2    0    0  0.00000000000E+00  0.00000000000E+00  0.12317804016E+04  0.33718741690E+04  0.31388297905E+04 0.  0.
        3    1    3    3  502    0 -0.64739625520E+03 -0.68532205289E+02  0.21499357198E+04  0.22463397303E+04  0.10100000352E+00 0.  1.
       -3    1    3    3    0  502  0.64739625520E+03  0.68532205289E+02 -0.91815531816E+03  0.11255344388E+04  0.10100000352E+00 0. -1.
</event>
<event>
 5   0  0.1843709E-06  0.3088757E+04  0.7818609E-02  0.8218830E-01
       -1   -1    0    0    0  501  0.00000000000E+00  0.00000000000E+00  0.24443580859E+04  0.24443580859E+04  0.50400001928E-02 0.  1.
        1   -1    0    0  501    0  0.00000000000E+00  0.00000000000E+00 -0.97575902845E+03  0.97575902847E+03  0.50400001928E-02 0. -1.
    10030    2    1    2    0    0  0.00000000000E+00  0.00000000000E+00  0.14685990574E+04  0.34201171144E+04  0.30887566891E+04 0.  0.
        4    1    3    3  502    0  0.12392742717E+04  0.91367352447E+03  0.86764664630E+03  0.17673178394E+04  0.12699999809E+01 0. -1.
       -4    1    3    3    0  502 -0.12392742717E+04 -0.91367352447E+03  0.60095241114E+03  0.16527992749E+04  0.12699999809E+01 0.  1.
</event>
<event>
 5   0  0.1885307E-06  0.2787127E+04  0.7818609E-02  0.8307276E-01
       -1   -1    0    0    0  501  0.00000000000E+00  0.00000000000E+00  0.99339906251E+03  0.99339906253E+03  0.50400001928E-02 0. -1.
        1   -1    0    0  501    0  0.00000000000E+00  0.00000000000E+00 -0.19549236873E+04  0.19549236873E+04  0.50400001928E-02 0.  1.
    10030    2    1    2    0    0  0.00000000000E+00  0.00000000000E+00 -0.96152462477E+03  0.29483227498E+04  0.27871270931E+04 0.  0.
        3    1    3    3  502    0  0.12294738454E+04 -0.37630018065E+02 -0.11736224523E+04  0.17001210620E+04  0.10100000352E+00 0.  1.
       -3    1    3    3    0  502 -0.12294738454E+04  0.37630018065E+02  0.21209782751E+03  0.12482016878E+04  0.10100000352E+00 0. -1.
</event>
<event>
 5   0  0.4900679E-06  0.3161549E+04  0.7818609E-02  0.8199046E-01
        2   -1    0    0  501    0  0.00000000000E+00  0.00000000000E+00  0.26038691741E+04  0.26038691741E+04  0.25500000920E-02 0. -1.
       -2   -1    0    0    0  501  0.00000000000E+00  0.00000000000E+00 -0.95966749236E+03  0.95966749236E+03  0.25500000920E-02 0.  1.
    10030    2    1    2    0    0  0.00000000000E+00  0.00000000000E+00  0.16442016817E+04  0.35635366664E+04  0.31615493674E+04 0.  0.
        4    1    3    3  502    0  0.13361214539E+04 -0.84475174595E+03  0.82725820630E+03  0.17841479212E+04  0.12699999809E+01 0. -1.
       -4    1    3    3    0  502 -0.13361214539E+04  0.84475174595E+03  0.81694347540E+03  0.17793887452E+04  0.12699999809E+01 0.  1.
</event>
<event>
 5   0  0.5001658E-06  0.3164487E+04  0.7818609E-02  0.8198260E-01
        2   -1    0    0  501    0  0.00000000000E+00  0.00000000000E+00  0.14909162178E+04  0.14909162178E+04  0.25500000920E-02 0.  1.
       -2   -1    0    0    0  501  0.00000000000E+00  0.00000000000E+00 -0.16791647041E+04  0.16791647041E+04  0.25500000920E-02 0. -1.
    10030    2    1    2    0    0  0.00000000000E+00  0.00000000000E+00 -0.18824848629E+03  0.31700809220E+04  0.31644866186E+04 0.  0.
        3    1    3    3  502    0 -0.11642864166E+04 -0.10279227549E+04 -0.39682697367E+03  0.16030158163E+04  0.10100000352E+00 0. -1.
       -3    1    3    3    0  502  0.11642864166E+04  0.10279227549E+04  0.20857848739E+03  0.15670651057E+04  0.10100000352E+00 0.  1.
</event>
<event>
 5   0  0.5114870E-06  0.3099552E+04  0.7818609E-02  0.8215861E-01
       -2   -1    0    0    0  501  0.00000000000E+00  0.00000000000E+00  0.22551874041E+04  0.22551874041E+04  0.25500000920E-02 0. -1.
        2   -1    0    0  501    0  0.00000000000E+00  0.00000000000E+00 -0.10650136768E+04  0.10650136768E+04  0.25500000920E-02 0.  1.
    10030    2    1    2    0    0  0.00000000000E+00  0.00000000000E+00  0.11901737273E+04  0.33202010809E+04  0.30995518573E+04 0.  0.
        2    1    3    3  502    0  0.75990107425E+02  0.86573199317E+03  0.19696082366E+04  0.21528174530E+04  0.25500000920E-02 0. -1.
       -2    1    3    3    0  502 -0.75990107425E+02 -0.86573199317E+03 -0.77943450923E+03  0.11673836279E+04  0.25500000920E-02 0.  1.
</event>
<event>
 5   0  0.5114870E-06  0.3164139E+04  0.7818609E-02  0.8198353E-01
       -2   -1    0    0    0  501  0.00000000000E+00  0.00000000000E+00  0.13232434976E+04  0.13232434977E+04  0.25500000920E-02 0.  1.
        2   -1    0    0  501    0  0.00000000000E+00  0.00000000000E+00 -0.18915213357E+04  0.18915213357E+04  0.25500000920E-02 0. -1.
    10030    2    1    2    0    0  0.00000000000E+00  0.00000000000E+00 -0.56827783810E+03  0.32147648334E+04  0.31641386241E+04 0.  0.
        2    1    3    3  502    0 -0.11469350730E+04  0.49179929429E+03  0.70384817991E+03  0.14327347514E+04  0.25500000920E-02 0.  1.
       -2    1    3    3    0  502  0.11469350730E+04 -0.49179929429E+03 -0.12721260180E+04  0.17820300820E+04  0.25500000920E-02 0. -1.
</event>
<event>
 5   0  0.4900679E-06  0.3102106E+04  0.7818609E-02  0.8215160E-01
       -2   -1    0    0    0  501  0.00000000000E+00  0.00000000000E+00  0.12727294080E+04  0.12727294080E+04  0.25500000920E-02 0. -1.
        2   -1    0    0  501    0  0.00000000000E+00  0.00000000000E+00 -0.18902409832E+04  0.18902409832E+04  0.25500000920E-02 0.  1.
    10030    2    1    2    0    0  0.00000000000E+00  0.00000000000E+00 -0.61751157522E+03  0.31629703912E+04  0.31021059218E+04 0.  0.
        4    1    3    3  502    0  0.26428192557E+03 -0.83425688609E+03 -0.16144807696E+04  0.18364038925E+04  0.12699999809E+01 0.  1.
       -4    1    3    3    0  502 -0.26428192557E+03  0.83425688609E+03  0.99696919434E+03  0.13265664987E+04  0.12699999809E+01 0. -1.
</event>
<event>
 5   0  0.4927533E-06  0.3072137E+04  0.7818609E-02  0.8223427E-01
       -2   -1    0    0    0  501  0.00000000000E+00  0.00000000000E+00  0.11256693414E+04  0.11256693414E+04  0.25500000920E-02 0. -1.
        2   -1    0    0  501    0  0.00000000000E+00  0.00000000000E+00 -0.20960918543E+04  0.20960918543E+04  0.25500000920E-02 0.  1.
    10030    2    1    2    0    0  0.00000000000E+00  0.00000000000E+00 -0.97042251294E+03  0.32217611957E+04  0.30721369352E+04 0.  0.
        5    1    3    3  502    0  0.37505041824E+03 -0.14117775834E+04  0.13011814183E+02  0.14608114726E+04  0.46999998093E+01 0. -1.
       -5    1    3    3    0  502 -0.37505041824E+03  0.14117775834E+04 -0.98343432712E+03  0.17609497230E+04  0.46999998093E+01 0.  1.
</event>
<event>
 5   0  0.4927533E-06  0.3096730E+04  0.7818609E-02  0.8216636E-01
       -2   -1    0    0    0  501  0.00000000000E+00  0.00000000000E+00  0.14202667847E+04  0.14202667847E+04  0.25500000920E-02 0.  1.
        2   -1    0    0  501    0  0.00000000000E+00  0.00000000000E+00 -0.16880165542E+04  0.16880165542E+04  0.25500000920E-02 0. -1.
    10030    2    1    2    0    0  0.00000000000E+00  0.00000000000E+00 -0.26774976943E+03  0.31082833389E+04  0.30967297874E+04 0.  0.
        5    1    3    3  502    0  0.80727340921E+03 -0.77550838017E+03 -0.12075893011E+04  0.16466322040E+04  0.46999998093E+01 0. -1.
       -5    1    3    3    0  502 -0.80727340921E+03  0.77550838017E+03  0.93983953170E+03  0.14616511349E+04  0.46999998093E+01 0.  1.
</event>
<event>
 5   0  0.5001658E-06  0.3116906E+04  0.7818609E-02  0.8211113E-01
        2   -1    0    0  501    0  0.00000000000E+00  0.00000000000E+00  0.18346319754E+04  0.18346319754E+04  0.25500000920E-02 0.  1.
       -2   -1    0    0    0  501  0.00000000000E+00  0.00000000000E+00 -0.13238490382E+04  0.13238490382E+04  0.25500000920E-02 0. -1.
    10030    2    1    2    0    0  0.00000000000E+00  0.00000000000E+00  0.51078293722E+03  0.31584810136E+04  0.31169060146E+04 0.  0.
        3    1    3    3  502    0 -0.13500928623E+04  0.18847061189E+03  0.10207833587E+04  0.17030180809E+04  0.10100000352E+00 0. -1.
       -3    1    3    3    0  502  0.13500928623E+04 -0.18847061189E+03 -0.51000042145E+03  0.14554629327E+04  0.10100000352E+00 0.  1.
</event>
<event>
 5   0  0.1840431E-06  0.3131278E+04  0.7818609E-02  0.8207206E-01
        1   -1    0    0  501    0  0.00000000000E+00  0.00000000000E+00  0.77017504085E+03  0.77017504086E+03  0.50400001928E-02 0. -1.
       -1   -1    0    0    0  501  0.00000000000E+00  0.00000000000E+00 -0.31826866323E+04  0.31826866323E+04  0.50400001928E-02 0.  1.
    10030    2    1    2    0    0  0.00000000000E+00  0.00000000000E+00 -0.24125115915E+04  0.39528616732E+04  0.31312782100E+04 0.  0.
        1    1    3    3  502    0 -0.12842714490E+04  0.58359208045E+03 -0.20636456955E+04  0.24997132691E+04  0.50400001928E-02 0.  1.
       -1    1    3    3    0  502  0.12842714490E+04 -0.58359208045E+03 -0.34886589600E+03  0.14531484041E+04  0.50400001928E-02 0. -1.
</event>
<event>
 5   0  0.1840431E-06  0.3106047E+04  0.7818609E-02  0.8214080E-01
        1   -1    0    0  501    0  0.00000000000E+00  0.00000000000E+00  0.22149890592E+04  0.22149890592E+04  0.50400001928E-02 0.  1.
       -1   -1    0    0    0  501  0.00000000000E+00  0.00000000000E+00 -0.10888911605E+04  0.10888911605E+04  0.50400001928E-02 0. -1.
    10030    2    1    2    0    0  0.00000000000E+00  0.00000000000E+00  0.11260978987E+04  0.33038802197E+04  0.31060470101E+04 0.  0.
        1    1    3    3  502    0 -0.87260395314E+03 -0.68293681515E+03  0.17204923416E+04  0.20464442944E+04  0.50400001928E-02 0.  1.
       -1    1    3    3    0  502  0.87260395314E+03  0.68293681515E+03 -0.59439444291E+03  0.12574359253E+04  0.50400001928E-02 0. -1.
</event>
<event>
 5   0  0.5114870E-06  0.3129327E+04  0.7818609E-02  0.8207735E-01
        2   -1    0    0  501    0  0.00000000000E+00  0.00000000000E+00  0.18246166123E+04  0.18246166123E+04  0.25500000920E-02 0.  1.
       -2   -1    0    0    0  501  0.00000000000E+00  0.00000000000E+00 -0.13417458828E+04  0.13417458828E+04  0.25500000920E-02 0. -1.
    10030    2    1    2    0    0  0.00000000000E+00  0.00000000000E+00  0.48287072954E+03  0.31663624951E+04  0.31293269738E+04 0.  0.
        2    1    3    3  502    0  0.95770802605E+03  0.12373102197E+04  0.24703113087E+03  0.15840346027E+04  0.25500000920E-02 0.  1.
       -2    1    3    3    0  502 -0.95770802605E+03 -0.12373102197E+04  0.23583959867E+03  0.15823278924E+04  0.25500000920E-02 0. -1.
</event>
<event>
 5   0  0.4900679E-06  0.3098521E+04  0.7818609E-02  0.8216144E-01
        2   -1    0    0  501    0  0.00000000000E+00  0.00000000000E+00  0.19508194921E+04  0.19508194921E+04  0.25500000920E-02 0. -1.
       -2   -1    0    0    0  501  0.00000000000E+00  0.00000000000E+00 -0.12303587751E+04  0.12303587751E+04  0.25500000920E-02 0.  1.
    10030    2    1    2    0    0  0.00000000000E+00  0.00000000000E+00  0.72046071702E+03  0.31811782672E+04  0.30985208605E+04 0.  0.
        4    1    3    3  502    0  0.42304099354E+03 -0.14896681455E+04  0.40762903931E+03  0.16013238000E+04  0.12699999809E+01 0.  1.
       -4    1    3    3    0  502 -0.42304099354E+03  0.14896681455E+04  0.31283167770E+03  0.15798544672E+04  0.12699999809E+01 0. -1.
</event>
<event>
 5   0  0.1853742E-06  0.3081352E+04  0.7818609E-02  0.8220874E-01
        1   -1    0    0  501    0  0.00000000000E+00  0.00000000000E+00  0.79270675507E+03  0.79270675509E+03  0.50400001928E-02 0. -1.
       -1   -1    0    0    0  501  0.00000000000E+00  0.00000000000E+00 -0.29944025425E+04  0.29944025425E+04  0.50400001928E-02 0.  1.
    10030    2    1    2    0    0  0.00000000000E+00  0.00000000000E+00 -0.22016957874E+04  0.37871092976E+04  0.30813523803E+04 0.  0.
        5    1    3    3  502    0  0.96855853719E+03 -0.61631507248E+03 -0.23636608281E+04  0.26277108876E+04  0.46999998093E+01 0.  1.
       -5    1    3    3    0  502 -0.96855853719E+03  0.61631507248E+03  0.16196504074E+03  0.11593984099E+04  0.46999998093E+01 0. -1.
</event>
<event>
 5   0  0.5328368E-06  0.3167309E+04  0.7818609E-02  0.8197505E-01
       -2   -1    0    0    0  501  0.00000000000E+00  0.00000000000E+00  0.11574965486E+04  0.11574965486E+04  0.25500000920E-02 0.  1.
        2   -1    0    0  501    0  0.00000000000E+00  0.00000000000E+00 -0.21667112464E+04  0.21667112464E+04  0.25500000920E-02 0. -1.
    10030    2    1    2    0    0  0.00000000000E+00  0.00000000000E+00 -0.10092146977E+04  0.33242077950E+04  0.31673085038E+04 0.  0.
        1    1    3    3  502    0 -0.39798615622E+03  0.15292085015E+04 -0.39408571921E+03  0.16285500224E+04  0.50400001928E-02 0. -1.
       -1    1    3    3    0  502  0.39798615622E+03 -0.15292085015E+04 -0.61512897854E+03  0.16956577726E+04  0.50400001928E-02 0.  1.
</event>
<event>
 5   0  0.1853742E-06  0.3123290E+04  0.7818609E-02  0.8209375E-01
        1   -1    0    0  501    0  0.00000000000E+00  0.00000000000E+00  0.13244145377E+04  0.13244145377E+04  0.50400001928E-02 0.  1.
       -1   -1    0    0    0  501  0.00000000000E+00  0.00000000000E+00 -0.18413686854E+04  0.18413686854E+04  0.50400001928E-02 0. -1.
    10030    2    1    2    0    0  0.00000000000E+00  0.00000000000E+00 -0.51695414764E+03  0.31657832231E+04  0.31232902243E+04 0.  0.
        5    1    3    3  502    0  0.77288379255E+03 -0.11579079090E+04  0.45868946139E+03  0.14657824513E+04  0.46999998093E+01 0. -1.
       -5    1    3    3    0  502 -0.77288379255E+03  0.11579079090E+04 -0.97564360903E+03  0.17000007719E+04  0.46999998093E+01 0.  1.
</event>
<event>
 5   0  0.1843709E-06  0.3178148E+04  0.7818609E-02  0.8194612E-01
       -1   -1    0    0    0  501  0.00000000000E+00  0.00000000000E+00  0.13526962664E+04  0.13526962664E+04  0.50400001928E-02 0.  1.
        1   -1    0    0  501    0  0.00000000000E+00  0.00000000000E+00 -0.18667582799E+04  0.18667582799E+04  0.50400001928E-02 0. -1.
    10030    2    1    2    0    0  0.00000000000E+00  0.00000000000E+00 -0.51406201353E+03  0.32194545464E+04  0.31781484897E+04 0.  0.
        4    1    3    3  502    0  0.54220249974E+03  0.41789548156E+03  0.11956698168E+04  0.13777692506E+04  0.12699999809E+01 0.  1.
       -4    1    3    3    0  502 -0.54220249974E+03 -0.41789548156E+03 -0.17097318303E+04  0.18416852958E+04  0.12699999809E+01 0. -1.
</event>
<event>
 5   0  0.1840431E-06  0.3143962E+04  0.7818609E-02  0.8203775E-01
        1   -1    0    0  501    0  0.00000000000E+00  0.00000000000E+00  0.23592676670E+04  0.23592676670E+04  0.50400001928E-02 0. -1.
       -1   -1    0    0    0  501  0.00000000000E+00  0.00000000000E+00 -0.10474117383E+04  0.10474117383E+04  0.50400001928E-02 0.  1.
    10030    2    1    2    0    0  0.00000000000E+00  0.00000000000E+00  0.13118559287E+04  0.34066794053E+04  0.31439622442E+04 0.  0.
        1    1    3    3  502    0  0.37113908902E+03  0.86863388611E+03 -0.70559555712E+03  0.11790394997E+04  0.50400001928E-02 0.  1.
       -1    1    3    3    0  502 -0.37113908902E+03 -0.86863388611E+03  0.20174514858E+04  0.22276399056E+04  0.50400001928E-02 0. -1.
</event>
<event>
 5   0  0.1840431E-06  0.3121609E+04  0.7818609E-02  0.8209832E-01
       -1   -1    0    0    0  501  0.00000000000E+00  0.00000000000E+00  0.94213104169E+03  0.94213104170E+03  0.50400001928E-02 0. -1.
        1   -1    0    0  501    0  0.00000000000E+00  0.00000000000E+00 -0.25857447428E+04  0.25857447428E+04  0.50400001928E-02 0.  1.
    10030    2    1    2    0    0  0.00000000000E+00  0.00000000000E+00 -0.16436137011E+04  0.35278757845E+04  0.31216088083E+04 0.  0.
        1    1    3    3  502    0  0.72067555979E+03  0.13413966354E+04 -0.12090238491E+04  0.19443396986E+04  0.50400001928E-02 0. -1.
       -1    1    3    3    0  502 -0.72067555979E+03 -0.13413966354E+04 -0.43458985204E+03  0.15835360859E+04  0.50400001928E-02 0.  1.
</event>
<event>
 5   0  0.1840431E-06  0.3119699E+04  0.7818609E-02  0.8210352E-01
       -1   -1    0    0    0  501  0.00000000000E+00  0.00000000000E+00  0.13957818397E+04  0.13957818397E+04  0.50400001928E-02 0. -1.
        1   -1    0    0  501    0  0.00000000000E+00  0.00000000000E+00 -0.17432023482E+04  0.17432023482E+04  0.50400001928E-02 0.  1.
    10030    2    1    2    0    0  0.00000000000E+00  0.00000000000E+00 -0.34742050844E+03  0.31389841879E+04  0.31196988191E+04 0.  0.
        1    1    3    3  502    0  0.21705461199E+03 -0.77509212668E+03  0.11706818104E+04  0.14206957488E+04  0.50400001928E-02 0. -1.
       -1    1    3    3    0  502 -0.21705461199E+03  0.77509212668E+03 -0.15181023188E+04  0.17182884391E+04  0.50400001928E-02 0.  1.
</event>
<event>
 5   0  0.1836401E-06  0.3089581E+04  0.7818609E-02  0.8218603E-01
       -1   -1    0    0    0  501  0.00000000000E+00  0.00000000000E+00  0.15801178741E+04  0.15801178741E+04  0.50400001928E-02 0. -1.
        1   -1    0    0  501    0  0.00000000000E+00  0.00000000000E+00 -0.15102524898E+04  0.15102524898E+04  0.50400001928E-02 0.  1.
    10030    2    1    2    0    0  0.00000000000E+00  0.00000000000E+00  0.69865384277E+02  0.30903703640E+04  0.30895805240E+04 0.  0.
        2    1    3    3  502    0  0.53404991132E+03  0.13990781687E+04  0.41417065213E+03  0.15537587841E+04  0.25500000920E-02 0.  1.
       -2    1    3    3    0  502 -0.53404991132E+03 -0.13990781687E+04 -0.34430526785E+03  0.15366115799E+04  0.25500000920E-02 0. -1.
</event>
<event>
 5   0  0.1853742E-06  0.3134758E+04  0.7818609E-02  0.8206263E-01
        1   -1    0    0  501    0  0.00000000000E+00  0.00000000000E+00  0.19393338876E+04  0.19393338876E+04  0.50400001928E-02 0. -1.
       -1   -1    0    0    0  501  0.00000000000E+00  0.00000000000E+00 -0.12667629490E+04  0.12667629490E+04  0.50400001928E-02 0.  1.
    10030    2    1    2    0    0  0.00000000000E+00  0.00000000000E+00  0.67257093863E+03  0.32060968366E+04  0.31347576075E+04 0.  0.
        5    1    3    3  502    0  0.50339154598E+02 -0.14640325913E+04  0.90640169385E+03  0.17226466787E+04  0.46999998093E+01 0. -1.
       -5    1    3    3    0  502 -0.50339154598E+02  0.14640325913E+04 -0.23383075522E+03  0.14834501579E+04  0.46999998093E+01 0.  1.
</event>
<event>
 5   0  0.5001658E-06  0.3091809E+04  0.7818609E-02  0.8217989E-01
       -2   -1    0    0    0  501  0.00000000000E+00  0.00000000000E+00  0.90251118507E+03  0.90251118507E+03  0.25500000920E-02 0.  1.
        2   -1    0    0  501    0  0.00000000000E+00  0.00000000000E+00 -0.26479684743E+04  0.26479684743E+04  0.25500000920E-02 0. -1.
    10030    2    1    2    0    0  0.00000000000E+00  0.00000000000E+00 -0.17454572893E+04  0.35504796594E+04  0.30918092864E+04 0.  0.
        3    1    3    3  502    0  0.56643836818E+03  0.13973386347E+04 -0.12645390363E+04  0.19678583967E+04  0.10100000352E+00 0. -1.
       -3    1    3    3    0  502 -0.56643836818E+03 -0.13973386347E+04 -0.48091825297E+03  0.15826212627E+04  0.10100000352E+00 0.  1.
</event>
<event>
 5   0  0.1885307E-06  0.3158131E+04  0.7818609E-02  0.8199963E-01
       -1   -1    0    0    0  501  0.00000000000E+00  0.00000000000E+00  0.18575375009E+04  0.18575375009E+04  0.50400001928E-02 0.  1.
        1   -1    0    0  501    0  0.00000000000E+00  0.00000000000E+00 -0.13423406544E+04  0.13423406544E+04  0.50400001928E-02 0. -1.
    10030    2    1    2    0    0  0.00000000000E+00  0.00000000000E+00  0.51519684646E+03  0.31998781553E+04  0.31581311591E+04 0.  0.
        3    1    3    3  502    0 -0.63893508181E+03 -0.38715295425E+02 -0.12049896922E+04  0.13644548660E+04  0.10100000352E+00 0. -1.
       -3    1    3    3    0  502  0.63893508181E+03  0.38715295425E+02  0.17201865387E+04  0.18354232893E+04  0.10100000352E+00 0.  1.
</event>
<event>
 5   0  0.1836401E-06  0.3096949E+04  0.7818609E-02  0.8216576E-01
        1   -1    0    0  501    0  0.00000000000E+00  0.00000000000E+00  0.17613162090E+04  0.17613162090E+04  0.50400001928E-02 0. -1.
       -1   -1    0    0    0  501  0.00000000000E+00  0.00000000000E+00 -0.13613527874E+04  0.13613527874E+04  0.50400001928E-02 0.  1.
    10030    2    1    2    0    0  0.00000000000E+00  0.00000000000E+00  0.39996342162E+03  0.31226689964E+04  0.30969486470E+04 0.  0.
        2    1    3    3  502    0 -0.21226693349E+03  0.84174995581E+03 -0.10929203753E+04  0.13957346402E+04  0.25500000920E-02 0.  1.
       -2    1    3    3    0  502  0.21226693349E+03 -0.84174995581E+03  0.14928837969E+04  0.17269343561E+04  0.25500000920E-02 0. -1.
</event>
<event>
 5   0  0.4927533E-06  0.3070115E+04  0.7818609E-02  0.8223988E-01
       -2   -1    0    0    0  501  0.00000000000E+00  0.00000000000E+00  0.21626358846E+04  0.21626358846E+04  0.25500000920E-02 0. -1.
        2   -1    0    0  501    0  0.00000000000E+00  0.00000000000E+00 -0.10895971688E+04  0.10895971688E+04  0.25500000920E-02 0.  1.
    10030    2    1    2    0    0  0.00000000000E+00  0.00000000000E+00  0.10730387157E+04  0.32522330534E+04  0.30701152663E+04 0.  0.
        5    1    3    3  502    0  0.44039590426E+03  0.52769091003E+03 -0.91748056778E+03  0.11463851583E+04  0.46999998093E+01 0.  1.
       -5    1    3    3    0  502 -0.44039590426E+03 -0.52769091003E+03  0.19905192835E+04  0.21058478951E+04  0.46999998093E+01 0. -1.
</event>
<event>
 5   0  0.5001658E-06  0.3093805E+04  0.7818609E-02  0.8217440E-01
        2   -1    0    0  501    0  0.00000000000E+00  0.00000000000E+00  0.24398573402E+04  0.24398573402E+04  0.25500000920E-02 0. -1.
       -2   -1    0    0    0  501  0.00000000000E+00  0.00000000000E+00 -0.98075720013E+03  0.98075720013E+03  0.25500000920E-02 0.  1.
    10030    2    1    2    0    0  0.00000000000E+00  0.00000000000E+00  0.14591001400E+04  0.34206145403E+04  0.30938051998E+04 0.  0.
        3    1    3    3  502    0 -0.15384824592E+04 -0.15011921594E+03  0.79443094653E+03  0.17379829100E+04  0.10100000352E+00 0. -1.
       -3    1    3    3    0  502  0.15384824592E+04  0.15011921594E+03  0.66466919350E+03  0.16826316303E+04  0.10100000352E+00 0.  1.
</event>
<event>
 5   0  0.1840431E-06  0.3109998E+04  0.7818609E-02  0.8212999E-01
        1   -1    0    0  501    0  0.00000000000E+00  0.00000000000E+00  0.16812835748E+04  0.16812835748E+04  0.50400001928E-02 0.  1.
       -1   -1    0    0    0  501  0.00000000000E+00  0.00000000000E+00 -0.14382002223E+04  0.14382002223E+04  0.50400001928E-02 0. -1.
    10030    2    1    2    0    0  0.00000000000E+00  0.00000000000E+00  0.24308335254E+03  0.31194837971E+04  0.31099983350E+04 0.  0.
        1    1    3    3  502    0 -0.10264754173E+04 -0.83577517697E+03 -0.69694372377E+03  0.14959620593E+04  0.50400001928E-02 0. -1.
       -1    1    3    3    0  502  0.10264754173E+04  0.83577517697E+03  0.94002707631E+03  0.16235217378E+04  0.50400001928E-02 0.  1.
</event>
<event>
 5   0  0.4900679E-06  0.3081551E+04  0.7818609E-02  0.8220819E-01
       -2   -1    0    0    0  501  0.00000000000E+00  0.00000000000E+00  0.89240442777E+03  0.89240442777E+03  0.25500000920E-02 0. -1.
        2   -1    0    0  501    0  0.00000000000E+00  0.00000000000E+00 -0.26602163559E+04  0.26602163559E+04  0.25500000920E-02 0.  1.
    10030    2    1    2    0    0  0.00000000000E+00  0.00000000000E+00 -0.17678119281E+04  0.35526207837E+04  0.30815508140E+04 0.  0.
        4    1    3    3  502    0  0.95360382611E+03  0.81402323996E+03  0.14853409738E+03  0.12625601306E+04  0.12699999809E+01 0. -1.
       -4    1    3    3    0  502 -0.95360382611E+03 -0.81402323996E+03 -0.19163460255E+04  0.22900606531E+04  0.12699999809E+01 0.  1.
</event>
<event>
 5   0  0.5328368E-06  0.3020794E+04  0.7818609E-02  0.8237818E-01
       -2   -1    0    0    0  501  0.00000000000E+00  0.00000000000E+00  0.13203352047E+04  0.13203352047E+04  0.25500000920E-02 0. -1.
        2   -1    0    0  501    0  0.00000000000E+00  0.00000000000E+00 -0.17278181729E+04  0.17278181729E+04  0.25500000920E-02 0.  1.
    10030    2    1    2    0    0  0.00000000000E+00  0.00000000000E+00 -0.40748296818E+03  0.30481533777E+04  0.30207940420E+04 0.  0.
        1    1    3    3  502    0  0.11751451898E+04  0.67097659598E+03  0.47324729753E+03  0.14335755349E+04  0.50400001928E-02 0. -1.
       -1    1    3    3    0  502 -0.11751451898E+04 -0.67097659598E+03 -0.88073026571E+03  0.16145778428E+04  0.50400001928E-02 0.  1.
</event>
<event>
 5   0  0.5001658E-06  0.3108427E+04  0.7818609E-02  0.8213429E-01
        2   -1    0    0  501    0  0.00000000000E+00  0.00000000000E+00  0.25756367522E+04  0.25756367522E+04  0.25500000920E-02 0. -1.
       -2   -1    0    0    0  501  0.00000000000E+00  0.00000000000E+00 -0.93785720288E+03  0.93785720289E+03  0.25500000920E-02 0.  1.
    10030    2    1    2    0    0  0.00000000000E+00  0.00000000000E+00  0.16377795493E+04  0.35134939551E+04  0.31084269205E+04 0.  0.
        3    1    3    3  502    0  0.12207309571E+04  0.49401641366E+03  0.17518894804E+04  0.21916553215E+04  0.10100000352E+00 0. -1.
       -3    1    3    3    0  502 -0.12207309571E+04 -0.49401641366E+03 -0.11410993114E+03  0.13218386335E+04  0.10100000352E+00 0.  1.
</event>
<event>
 5   0  0.1853742E-06  0.3098338E+04  0.7818609E-02  0.8216194E-01
        1   -1    0    0  501    0  0.00000000000E+00  0.00000000000E+00  0.28527388153E+04  0.28527388153E+04  0.50400001928E-02 0.  1.
       -1   -1    0    0    0  501  0.00000000000E+00  0.00000000000E+00 -0.84127050704E+03  0.84127050705E+03  0.50400001928E-02 0. -1.
    10030    2    1    2    0    0  0.00000000000E+00  0.00000000000E+00  0.20114683082E+04  0.36940093223E+04  0.30983382834E+04 0.  0.
        5    1    3    3  502    0 -0.49230139826E+03 -0.10842308998E+04  0.21872014918E+04  0.24903392875E+04  0.46999998093E+01 0.  1.
       -5    1    3    3    0  502  0.49230139826E+03  0.10842308998E+04 -0.17573318362E+03  0.12036700348E+04  0.46999998093E+01 0. -1.
</event>
<event>
 5   0  0.1836401E-06  0.3132401E+04  0.7818609E-02  0.8206902E-01
        1   -1    0    0  501    0  0.00000000000E+00  0.00000000000E+00  0.15884405043E+04  0.15884405043E+04  0.50400001928E-02 0.  1.
       -1   -1    0    0    0  501  0.00000000000E+00  0.00000000000E+00 -0.15442718479E+04  0.15442718479E+04  0.50400001928E-02 0. -1.
    10030    2    1    2    0    0  0.00000000000E+00  0.00000000000E+00  0.44168656408E+02  0.31327123522E+04  0.31324009659E+04 0.  0.
        2    1    3    3  502    0 -0.25548927860E+03 -0.79178850870E+03  0.13491601467E+04  0.15850668489E+04  0.25500000920E-02 0.  1.
       -2    1    3    3    0  502  0.25548927860E+03  0.79178850870E+03 -0.13049914903E+04  0.15476455033E+04  0.25500000920E-02 0. -1.
</event>
<event>
 5   0  0.1885307E-06  0.3109695E+04  0.7818609E-02  0.8213082E-01
        1   -1    0    0  501    0  0.00000000000E+00  0.00000000000E+00  0.16187101476E+04  0.16187101476E+04  0.50400001928E-02 0. -1.
       -1   -1    0    0    0  501  0.00000000000E+00  0.00000000000E+00 -0.14935046954E+04  0.14935046954E+04  0.50400001928E-02 0.  1.
    10030    2    1    2    0    0  0.00000000000E+00  0.00000000000E+00  0.12520545217E+03  0.31122148430E+04  0.31096952944E+04 0.  0.
        3    1    3    3  502    0  0.11292125782E+04 -0.43335391122E+03  0.10404483674E+04  0.15954464813E+04  0.10100000352E+00 0. -1.
       -3    1    3    3    0  502 -0.11292125782E+04  0.43335391122E+03 -0.91524291524E+03  0.15167683617E+04  0.10100000352E+00 0.  1.
</event>
<event>
 5   0  0.5114870E-06  0.3089139E+04  0.7818609E-02  0.8218725E-01
       -2   -1    0    0    0  501  0.00000000000E+00  0.00000000000E+00  0.11309895779E+04  0.11309895779E+04  0.25500000920E-02 0. -1.
        2   -1    0    0  501    0  0.00000000000E+00  0.00000000000E+00 -0.21093871690E+04  0.21093871690E+04  0.25500000920E-02 0.  1.
    10030    2    1    2    0    0  0.00000000000E+00  0.00000000000E+00 -0.97839759107E+03  0.32403767469E+04  0.30891389764E+04 0.  0.
        2    1    3    3  502    0  0.95254677520E+03  0.54096710741E+03  0.65301191136E+03  0.12753098943E+04  0.25500000920E-02 0. -1.
       -2    1    3    3    0  502 -0.95254677520E+03 -0.54096710741E+03 -0.16314095024E+04  0.19650668525E+04  0.25500000920E-02 0.  1.
</event>
<event>
 5   0  0.4900679E-06  0.3093627E+04  0.7818609E-02  0.8217489E-01
        2   -1    0    0  501    0  0.00000000000E+00  0.00000000000E+00  0.24556944563E+04  0.24556944563E+04  0.25500000920E-02 0.  1.
       -2   -1    0    0    0  501  0.00000000000E+00  0.00000000000E+00 -0.97431960738E+03  0.97431960739E+03  0.25500000920E-02 0. -1.
    10030    2    1    2    0    0  0.00000000000E+00  0.00000000000E+00  0.14813748489E+04  0.34300140637E+04  0.30936265182E+04 0.  0.
        4    1    3    3  502    0 -0.12161147258E+04 -0.69527567238E+03  0.13398778118E+02  0.14009012910E+04  0.12699999809E+01 0. -1.
       -4    1    3    3    0  502  0.12161147258E+04  0.69527567238E+03  0.14679760708E+04  0.20291127727E+04  0.12699999809E+01 0.  1.
</event>
<event>
 5   0  0.1836401E-06  0.3116350E+04  0.7818609E-02  0.8211265E-01
       -1   -1    0    0    0  501  0.00000000000E+00  0.00000000000E+00  0.15377076471E+04  0.15377076471E+04  0.50400001928E-02 0. -1.
        1   -1    0    0  501    0  0.00000000000E+00  0.00000000000E+00 -0.15789144709E+04  0.15789144710E+04  0.50400001928E-02 0.  1.
    10030    2    1    2    0    0  0.00000000000E+00  0.00000000000E+00 -0.41206823833E+02  0.31166221181E+04  0.31163496955E+04 0.  0.
        2    1    3    3  502    0 -0.86985855640E+03 -0.17632515456E+03  0.12601975709E+04  0.15413767826E+04  0.25500000920E-02 0. -1.
       -2    1    3    3    0  502  0.86985855640E+03  0.17632515456E+03 -0.13014043947E+04  0.15752453355E+04  0.25500000920E-02 0.  1.
</event>
<event>
 5   0  0.1853742E-06  0.3132229E+04  0.7818609E-02  0.8206948E-01
        1   -1    0    0  501    0  0.00000000000E+00  0.00000000000E+00  0.15486853541E+04  0.15486853541E+04  0.50400001928E-02 0. -1.
       -1   -1    0    0    0  501  0.00000000000E+00  0.00000000000E+00 -0.15837396927E+04  0.15837396927E+04  0.50400001928E-02 0.  1.
    10030    2    1    2    0    0  0.00000000000E+00  0.00000000000E+00 -0.35054338607E+02  0.31324250468E+04  0.31322288976E+04 0.  0.
        5    1    3    3  502    0  0.12556210755E+04 -0.92721541399E+03 -0.14551825964E+03  0.15676448460E+04  0.46999998093E+01 0. -1.
       -5    1    3    3    0  502 -0.12556210755E+04  0.92721541399E+03  0.11046392103E+03  0.15647802009E+04  0.46999998093E+01 0.  1.
</event>
<event>
 5   0  0.1836401E-06  0.3119794E+04  0.7818609E-02  0.8210327E-01
        1   -1    0    0  501    0  0.00000000000E+00  0.00000000000E+00  0.20668792951E+04  0.20668792951E+04  0.50400001928E-02 0.  1.
       -1   -1    0    0    0  501  0.00000000000E+00  0.00000000000E+00 -0.11772714499E+04  0.11772714500E+04  0.50400001928E-02 0. -1.
    10030    2    1    2    0    0  0.00000000000E+00  0.00000000000E+00  0.88960784514E+03  0.32441507450E+04  0.31197935730E+04 0.  0.
        2    1    3    3  502    0 -0.11307296363E+04 -0.86447910734E+03  0.11085286480E+04  0.18040813177E+04  0.25500000920E-02 0.  1.
       -2    1    3    3    0  502  0.11307296363E+04  0.86447910734E+03 -0.21892080289E+03  0.14400694273E+04  0.25500000920E-02 0. -1.
</event>
<event>
 5   0  0.5114870E-06  0.3122121E+04  0.7818609E-02  0.8209693E-01
        2   -1    0    0  501    0  0.00000000000E+00  0.00000000000E+00  0.25861838910E+04  0.25861838910E+04  0.25500000920E-02 0.  1.
       -2   -1    0    0    0  501  0.00000000000E+00  0.00000000000E+00 -0.94227991760E+03  0.94227991761E+03  0.25500000920E-02 0. -1.
    10030    2    1    2    0    0  0.00000000000E+00  0.00000000000E+00  0.16439039734E+04  0.35284638086E+04  0.31221205254E+04 0.  0.
        2    1    3    3  502    0 -0.48467113950E+03  0.14747578288E+04  0.10079719502E+04  0.18508982197E+04  0.25500000920E-02 0. -1.
       -2    1    3    3    0  502  0.48467113950E+03 -0.14747578288E+04  0.63593202322E+03  0.16775655890E+04  0.25500000920E-02 0.  1.
</event>
<event>
 5   0  0.5001658E-06  0.3170032E+04  0.7818609E-02  0.8196777E-01
       -2   -1    0    0    0  501  0.00000000000E+00  0.00000000000E+00  0.19803633565E+04  0.19803633565E+04  0.25500000920E-02 0.  1.
        2   -1    0    0  501    0  0.00000000000E+00  0.00000000000E+00 -0.12685936968E+04  0.12685936968E+04  0.25500000920E-02 0. -1.
    10030    2    1    2    0    0  0.00000000000E+00  0.00000000000E+00  0.71176965969E+03  0.32489570534E+04  0.31700324740E+04 0.  0.
        3    1    3    3  502    0  0.14675625962E+04 -0.21179722527E+03  0.92989895871E+03  0.17502314481E+04  0.10100000352E+00 0.  1.
       -3    1    3    3    0  502 -0.14675625962E+04  0.21179722527E+03 -0.21812929902E+03  0.14987256052E+04  0.10100000352E+00 0. -1.
</event>
<event>
 5   0  0.5114870E-06  0.2664012E+04  0.7818609E-02  0.8346777E-01
        2   -1    0    0  501    0  0.00000000000E+00  0.00000000000E+00  0.19682754088E+04  0.19682754088E+04  0.25500000920E-02 0. -1.
       -2   -1    0    0    0  501  0.00000000000E+00  0.00000000000E+00 -0.90141835111E+03  0.90141835111E+03  0.25500000920E-02 0.  1.
    10030    2    1    2    0    0  0.00000000000E+00  0.00000000000E+00  0.10668570577E+04  0.28696937599E+04  0.26640116918E+04 0.  0.
        2    1    3    3  502    0  0.89294646903E+03 -0.38921589935E+03 -0.44522938450E+03  0.10710142939E+04  0.25500000920E-02 0.  1.
       -2    1    3    3    0  502 -0.89294646903E+03  0.38921589935E+03  0.15120864422E+04  0.17986794660E+04  0.25500000920E-02 0. -1.
</event>
<event>
 5   0  0.1885307E-06  0.3218966E+04  0.7818609E-02  0.8183826E-01
        1   -1    0    0  501    0  0.00000000000E+00  0.00000000000E+00  0.23905918690E+04  0.23905918690E+04  0.50400001928E-02 0. -1.
       -1   -1    0    0    0  501  0.00000000000E+00  0.00000000000E+00 -0.10835959496E+04  0.10835959496E+04  0.50400001928E-02 0.  1.
    10030    2    1    2    0    0  0.00000000000E+00  0.00000000000E+00  0.13069959194E+04  0.34741878186E+04  0.32189660864E+04 0.  0.
        3    1    3    3  502    0 -0.73558281086E+03 -0.11348649916E+04 -0.28829040348E+03  0.13827913753E+04  0.10100000352E+00 0.  1.
       -3    1    3    3    0  502  0.73558281086E+03  0.11348649916E+04  0.15952863229E+04  0.20913964433E+04  0.10100000352E+00 0. -1.
</event>
<event>
 5   0  0.1853742E-06  0.3034750E+04  0.7818609E-02  0.8233877E-01
       -1   -1    0    0    0  501  0.00000000000E+00  0.00000000000E+00  0.16648789417E+04  0.16648789417E+04  0.50400001928E-02 0. -1.
        1   -1    0    0  501    0  0.00000000000E+00  0.00000000000E+00 -0.13829397980E+04  0.13829397980E+04  0.50400001928E-02 0.  1.
    10030    2    1    2    0    0  0.00000000000E+00  0.00000000000E+00  0.28193914372E+03  0.30478187397E+04  0.30347503010E+04 0.  0.
        5    1    3    3  502    0  0.49488637365E+03  0.12989689746E+04 -0.47006833380E+03  0.14673851738E+04  0.46999998093E+01 0.  1.
       -5    1    3    3    0  502 -0.49488637365E+03 -0.12989689746E+04  0.75200747752E+03  0.15804335659E+04  0.46999998093E+01 0. -1.
</event>
<event>
 5   0  0.4927533E-06  0.2271053E+04  0.7818609E-02  0.8489423E-01
        2   -1    0    0  501    0  0.00000000000E+00  0.00000000000E+00  0.14241441332E+04  0.14241441332E+04  0.25500000920E-02 0.  1.
       -2   -1    0    0    0  501  0.00000000000E+00  0.00000000000E+00 -0.90540035767E+03  0.90540035768E+03  0.25500000920E-02 0. -1.
    10030    2    1    2    0    0  0.00000000000E+00  0.00000000000E+00  0.51874377556E+03  0.23295444909E+04  0.22710531545E+04 0.  0.
        5    1    3    3  502    0  0.52266024794E+03  0.99213694750E+03  0.76197575089E+02  0.11239829259E+04  0.46999998093E+01 0. -1.
       -5    1    3    3    0  502 -0.52266024794E+03 -0.99213694750E+03  0.44254620048E+03  0.12055615650E+04  0.46999998093E+01 0.  1.
</event>
<event>
 5   0  0.1853742E-06  0.3171946E+04  0.7818609E-02  0.8196266E-01
       -1   -1    0    0    0  501  0.00000000000E+00  0.00000000000E+00  0.94651191779E+03  0.94651191780E+03  0.50400001928E-02 0. -1.
        1   -1    0    0  501    0  0.00000000000E+00  0.00000000000E+00 -0.26574529337E+04  0.26574529337E+04  0.50400001928E-02 0.  1.
    10030    2    1    2    0    0  0.00000000000E+00  0.00000000000E+00 -0.17109410159E+04  0.36039648515E+04  0.31719463254E+04 0.  0.
        5    1    3    3  502    0 -0.57607238393E+03  0.45419520198E+03  0.74214769825E+03  0.10435314892E+04  0.46999998093E+01 0. -1.
       -5    1    3    3    0  502  0.57607238393E+03 -0.45419520198E+03 -0.24530887141E+04  0.25604333622E+04  0.46999998093E+01 0.  1.
</event>
<event>
 5   0  0.1836401E-06  0.3061446E+04  0.7818609E-02  0.8226399E-01
       -1   -1    0    0    0  501  0.00000000000E+00  0.00000000000E+00  0.14322291734E+04  0.14322291734E+04  0.50400001928E-02 0.  1.
        1   -1    0    0  501    0  0.00000000000E+00  0.00000000000E+00 -0.16359900867E+04  0.16359900867E+04  0.50400001928E-02 0. -1.
    10030    2    1    2    0    0  0.00000000000E+00  0.00000000000E+00 -0.20376091333E+03  0.30682192601E+04  0.30614458868E+04 0.  0.
        2    1    3    3  502    0  0.85751870754E+03  0.43811087800E+03  0.10906400576E+04  0.14549141591E+04  0.25500000920E-02 0.  1.
       -2    1    3    3    0  502 -0.85751870754E+03 -0.43811087800E+03 -0.12944009709E+04  0.16133051009E+04  0.25500000920E-02 0. -1.
</event>
<event>
 5   0  0.4927533E-06  0.3119083E+04  0.7818609E-02  0.8210520E-01
        2   -1    0    0  501    0  0.00000000000E+00  0.00000000000E+00  0.21863782251E+04  0.21863782251E+04  0.25500000920E-02 0.  1.
       -2   -1    0    0    0  501  0.00000000000E+00  0.00000000000E+00 -0.11124196865E+04  0.11124196865E+04  0.25500000920E-02 0. -1.
    10030    2    1    2    0    0  0.00000000000E+00  0.00000000000E+00  0.10739585387E+04  0.32987979116E+04  0.31190833138E+04 0.  0.
        5    1    3    3  502    0  0.45987993076E+03  0.14077329669E+04  0.10539655418E+04  0.18177093029E+04  0.46999998093E+01 0.  1.
       -5    1    3    3    0  502 -0.45987993076E+03 -0.14077329669E+04  0.19992996881E+02  0.14810886086E+04  0.46999998093E+01 0. -1.
</event>
<event>
 5   0  0.1840431E-06  0.3077046E+04  0.7818609E-02  0.8222066E-01
        1   -1    0    0  501    0  0.00000000000E+00  0.00000000000E+00  0.13363824215E+04  0.13363824215E+04  0.50400001928E-02 0. -1.
       -1   -1    0    0    0  501  0.00000000000E+00  0.00000000000E+00 -0.17712389088E+04  0.17712389088E+04  0.50400001928E-02 0.  1.
    10030    2    1    2    0    0  0.00000000000E+00  0.00000000000E+00 -0.43485648729E+03  0.31076213304E+04  0.30770456884E+04 0.  0.
        1    1    3    3  502    0 -0.13900171705E+04 -0.26329894948E+03  0.39321063945E+03  0.14683625840E+04  0.50400001928E-02 0.  1.
       -1    1    3    3    0  502  0.13900171705E+04  0.26329894948E+03 -0.82806712674E+03  0.16392587464E+04  0.50400001928E-02 0. -1.
</event>
<event>
 5   0  0.5001658E-06  0.3091056E+04  0.7818609E-02  0.8218197E-01
       -2   -1    0    0    0  501  0.00000000000E+00  0.00000000000E+00  0.16609314785E+04  0.16609314785E+04  0.25500000920E-02 0. -1.
        2   -1    0    0  501    0  0.00000000000E+00  0.00000000000E+00 -0.14381430456E+04  0.14381430456E+04  0.25500000920E-02 0.  1.
    10030    2    1    2    0    0  0.00000000000E+00  0.00000000000E+00  0.22278843284E+03  0.30990745241E+04  0.30910561658E+04 0.  0.
        3    1    3    3  502    0 -0.10160330100E+04  0.93896704069E+03  0.80214794967E+03  0.15991946486E+04  0.10100000352E+00 0. -1.
       -3    1    3    3    0  502  0.10160330100E+04 -0.93896704069E+03 -0.57935951683E+03  0.14998798755E+04  0.10100000352E+00 0.  1.
</event>
<event>
 5   0  0.5328368E-06  0.3250548E+04  0.7818609E-02  0.8175594E-01
       -2   -1    0    0    0  501  0.00000000000E+00  0.00000000000E+00  0.15374519339E+04  0.15374519339E+04  0.25500000920E-02 0.  1.
        2   -1    0    0  501    0  0.00000000000E+00  0.00000000000E+00 -0.17181128861E+04  0.17181128861E+04  0.25500000920E-02 0. -1.
    10030    2    1    2    0    0  0.00000000000E+00  0.00000000000E+00 -0.18066095220E+03  0.32555648199E+04  0.32505482487E+04 0.  0.
        1    1    3    3  502    0 -0.92338723856E+03  0.18446273793E+03 -0.14170807054E+04  0.17014077171E+04  0.50400001928E-02 0. -1.
       -1    1    3    3    0  502  0.92338723856E+03 -0.18446273793E+03  0.12364197532E+04  0.15541571028E+04  0.50400001928E-02 0.  1.
</event>
<event>
 5   0  0.5001658E-06  0.3214567E+04  0.7818609E-02  0.8184981E-01
        2   -1    0    0  501    0  0.00000000000E+00  0.00000000000E+00  0.17841909107E+04  0.17841909107E+04  0.25500000920E-02 0. -1.
       -2   -1    0    0    0  501  0.00000000000E+00  0.00000000000E+00 -0.14479173823E+04  0.14479173824E+04  0.25500000920E-02 0.  1.
    10030    2    1    2    0    0  0.00000000000E+00  0.00000000000E+00  0.33627352840E+03  0.32321082931E+04  0.32145674876E+04 0.  0.
        3    1    3    3  502    0  0.96034206664E+03  0.64704171252E+03 -0.95259394158E+03  0.14994515966E+04  0.10100000352E+00 0.  1.
       -3    1    3    3    0  502 -0.96034206664E+03 -0.64704171252E+03  0.12888674700E+04  0.17326566965E+04  0.10100000352E+00 0. -1.
</event>
<event>
 5   0  0.1836401E-06  0.3084746E+04  0.7818609E-02  0.8219937E-01
        1   -1    0    0  501    0  0.00000000000E+00  0.00000000000E+00  0.17155493421E+04  0.17155493421E+04  0.50400001928E-02 0. -1.
       -1   -1    0    0    0  501  0.00000000000E+00  0.00000000000E+00 -0.13866780167E+04  0.13866780167E+04  0.50400001928E-02 0.  1.
    10030    2    1    2    0    0  0.00000000000E+00  0.00000000000E+00  0.32887132540E+03  0.31022273587E+04  0.30847460571E+04 0.  0.
        2    1    3    3  502    0 -0.10808139238E+04  0.37747348379E+03 -0.87499288077E+03  0.14409224512E+04  0.25500000920E-02 0.  1.
       -2    1    3    3    0  502  0.10808139238E+04 -0.37747348379E+03  0.12038642062E+04  0.16613049075E+04  0.25500000920E-02 0. -1.
</event>
<event>
 5   0  0.4900679E-06  0.3084808E+04  0.7818609E-02  0.8219920E-01
       -2   -1    0    0    0  501  0.00000000000E+00  0.00000000000E+00  0.12305100481E+04  0.12305100481E+04  0.25500000920E-02 0.  1.
        2   -1    0    0  501    0  0.00000000000E+00  0.00000000000E+00 -0.19333530725E+04  0.19333530725E+04  0.25500000920E-02 0. -1.
    10030    2    1    2    0    0  0.00000000000E+00  0.00000000000E+00 -0.70284302437E+03  0.31638631207E+04  0.30848081836E+04 0.  0.
        4    1    3    3  502    0  0.76473125216E+03 -0.70978782521E+03  0.81364587854E+03  0.13231152155E+04  0.12699999809E+01 0.  1.
       -4    1    3    3    0  502 -0.76473125216E+03  0.70978782521E+03 -0.15164889029E+04  0.18407479052E+04  0.12699999809E+01 0. -1.
</event>
<event>
 5   0  0.1853742E-06  0.3144592E+04  0.7818609E-02  0.8203606E-01
        1   -1    0    0  501    0  0.00000000000E+00  0.00000000000E+00  0.18130724231E+04  0.18130724231E+04  0.50400001928E-02 0. -1.
       -1   -1    0    0    0  501  0.00000000000E+00  0.00000000000E+00 -0.13634945995E+04  0.13634945995E+04  0.50400001928E-02 0.  1.
    10030    2    1    2    0    0  0.00000000000E+00  0.00000000000E+00  0.44957782360E+03  0.31765670227E+04  0.31445918384E+04 0.  0.
        5    1    3    3  502    0 -0.93514111018E+03  0.12628290228E+04  0.27887142870E+03  0.15959377809E+04  0.46999998093E+01 0. -1.
       -5    1    3    3    0  502  0.93514111018E+03 -0.12628290228E+04  0.17070639490E+03  0.15806292418E+04  0.46999998093E+01 0.  1.
</event>
<event>
 5   0  0.1836401E-06  0.3013544E+04  0.7818609E-02  0.8239874E-01
        1   -1    0    0  501    0  0.00000000000E+00  0.00000000000E+00  0.18689641607E+04  0.18689641607E+04  0.50400001928E-02 0.  1.
       -1   -1    0    0    0  501  0.00000000000E+00  0.00000000000E+00 -0.12147704334E+04  0.12147704334E+04  0.50400001928E-02 0. -1.
    10030    2    1    2    0    0  0.00000000000E+00  0.00000000000E+00  0.65419372725E+03  0.30837345941E+04  0.30135443608E+04 0.  0.
        2    1    3    3  502    0  0.19303377702E+03  0.14702659144E+04  0.53629954094E+02  0.14838531161E+04  0.25500000920E-02 0.  1.
       -2    1    3    3    0  502 -0.19303377702E+03 -0.14702659144E+04  0.60056377315E+03  0.15998814780E+04  0.25500000920E-02 0. -1.
</event>
<event>
 5   0  0.1836401E-06  0.3093664E+04  0.7818609E-02  0.8217479E-01
       -1   -1    0    0    0  501  0.00000000000E+00  0.00000000000E+00  0.10409386163E+04  0.10409386163E+04  0.50400001928E-02 0.  1.
        1   -1    0    0  501    0  0.00000000000E+00  0.00000000000E+00 -0.22985888229E+04  0.22985888229E+04  0.50400001928E-02 0. -1.
    10030    2    1    2    0    0  0.00000000000E+00  0.00000000000E+00 -0.12576502066E+04  0.33395274393E+04  0.30936644090E+04 0.  0.
        2    1    3    3  502    0  0.82220525308E+03  0.55599129181E+03 -0.19095106491E+04  0.21520638266E+04  0.25500000920E-02 0. -1.
       -2    1    3    3    0  502 -0.82220525308E+03 -0.55599129181E+03  0.65186044252E+03  0.11874636126E+04  0.25500000920E-02 0.  1.
</event>
<event>
 5   0  0.1885307E-06  0.3121538E+04  0.7818609E-02  0.8209852E-01
        1   -1    0    0  501    0  0.00000000000E+00  0.00000000000E+00  0.18404827541E+04  0.18404827541E+04  0.50400001928E-02 0. -1.
       -1   -1    0    0    0  501  0.00000000000E+00  0.00000000000E+00 -0.13235658586E+04  0.13235658586E+04  0.50400001928E-02 0.  1.
    10030    2    1    2    0    0  0.00000000000E+00  0.00000000000E+00  0.51691689546E+03  0.31640486127E+04  0.31215381699E+04 0.  0.
        3    1    3    3  502    0 -0.13724636160E+04  0.66984956503E+03  0.58478267931E+03  0.16353365431E+04  0.10100000352E+00 0. -1.
       -3    1    3    3    0  502  0.13724636160E+04 -0.66984956503E+03 -0.67865783845E+02  0.15287120696E+04  0.10100000352E+00 0.  1.
</event>
<event>
 5   0  0.1853742E-06  0.3099023E+04  0.7818609E-02  0.8216006E-01
        1   -1    0    0  501    0  0.00000000000E+00  0.00000000000E+00  0.12420198812E+04  0.12420198812E+04  0.50400001928E-02 0.  1.
       -1   -1    0    0    0  501  0.00000000000E+00  0.00000000000E+00 -0.19331295728E+04  0.19331295728E+04  0.50400001928E-02 0. -1.
    10030    2    1    2    0    0  0.00000000000E+00  0.00000000000E+00 -0.69110969165E+03  0.31751494540E+04  0.30990226604E+04 0.  0.
        5    1    3    3  502    0 -0.30582587022E+03  0.37313954198E+03 -0.18542071478E+04  0.19159511522E+04  0.46999998093E+01 0. -1.
       -5    1    3    3    0  502  0.30582587022E+03 -0.37313954198E+03  0.11630974562E+04  0.12591983018E+04  0.46999998093E+01 0.  1.
</event>
<event>
 5   0  0.4927533E-06  0.3076844E+04  0.7818609E-02  0.8222122E-01
       -2   -1    0    0    0  501  0.00000000000E+00  0.00000000000E+00  0.99526624485E+03  0.99526624485E+03  0.25500000920E-02 0.  1.
        2   -1    0    0  501    0  0.00000000000E+00  0.00000000000E+00 -0.23779984202E+04  0.23779984202E+04  0.25500000920E-02 0. -1.
    10030    2    1    2    0    0  0.00000000000E+00  0.00000000000E+00 -0.13827321754E+04  0.33732646651E+04  0.30768435501E+04 0.  0.
        5    1    3    3  502    0  0.14900339857E+04 -0.13208551579E+02 -0.11107695910E+04  0.18585496815E+04  0.46999998093E+01 0. -1.
       -5    1    3    3    0  502 -0.14900339857E+04  0.13208551579E+02 -0.27196258439E+03  0.15147149836E+04  0.46999998093E+01 0.  1.
</event>
<event>
 5   0  0.1885307E-06  0.2917138E+04  0.7818609E-02  0.8267796E-01
       -1   -1    0    0    0  501  0.00000000000E+00  0.00000000000E+00  0.28066003423E+04  0.28066003423E+04  0.50400001928E-02 0.  1.
        1   -1    0    0  501    0  0.00000000000E+00  0.00000000000E+00 -0.75800751134E+03  0.75800751136E+03  0.50400001928E-02 0. -1.
    10030    2    1    2    0    0  0.00000000000E+00  0.00000000000E+00  0.20485928310E+04  0.35646078537E+04  0.29171384203E+04 0.  0.
        3    1    3    3  502    0 -0.61560685530E+03 -0.89415421582E+03 -0.16605235943E+03  0.10982062458E+04  0.10100000352E+00 0. -1.
       -3    1    3    3    0  502  0.61560685530E+03  0.89415421582E+03  0.22146451904E+04  0.24664016079E+04  0.10100000352E+00 0.  1.
</event>
<event>
 5   0  0.1853742E-06  0.3073048E+04  0.7818609E-02  0.8223174E-01
       -1   -1    0    0    0  501  0.00000000000E+00  0.00000000000E+00  0.11704146121E+04  0.11704146121E+04  0.50400001928E-02 0.  1.
        1   -1    0    0  501    0  0.00000000000E+00  0.00000000000E+00 -0.20171539347E+04  0.20171539347E+04  0.50400001928E-02 0. -1.
    10030    2    1    2    0    0  0.00000000000E+00  0.00000000000E+00 -0.84673932265E+03  0.31875685468E+04  0.30730482847E+04 0.  0.
        5    1    3    3  502    0 -0.10357440468E+04  0.58805882962E+03 -0.14302688621E+04  0.18612549598E+04  0.46999998093E+01 0. -1.
       -5    1    3    3    0  502  0.10357440468E+04 -0.58805882962E+03  0.58352953943E+03  0.13263135870E+04  0.46999998093E+01 0.  1.
</event>
<event>
 5   0  0.1843709E-06  0.2983368E+04  0.7818609E-02  0.8248496E-01
        1   -1    0    0  501    0  0.00000000000E+00  0.00000000000E+00  0.14479857972E+04  0.14479857972E+04  0.50400001928E-02 0. -1.
       -1   -1    0    0    0  501  0.00000000000E+00  0.00000000000E+00 -0.15367013227E+04  0.15367013228E+04  0.50400001928E-02 0.  1.
    10030    2    1    2    0    0  0.00000000000E+00  0.00000000000E+00 -0.88715525551E+02  0.29846871200E+04  0.29833683580E+04 0.  0.
        4    1    3    3  502    0  0.56224869447E+03 -0.12423723255E+04 -0.64919715893E+03  0.15103215398E+04  0.12699999809E+01 0.  1.
       -4    1    3    3    0  502 -0.56224869447E+03  0.12423723255E+04  0.56048163338E+03  0.14743655801E+04  0.12699999809E+01 0. -1.
</event>
<event>
 5   0  0.1836401E-06  0.3126866E+04  0.7818609E-02  0.8208403E-01
       -1   -1    0    0    0  501  0.00000000000E+00  0.00000000000E+00  0.16433703783E+04  0.16433703783E+04  0.50400001928E-02 0. -1.
        1   -1    0    0  501    0  0.00000000000E+00  0.00000000000E+00 -0.14873842086E+04  0.14873842086E+04  0.50400001928E-02 0.  1.
    10030    2    1    2    0    0  0.00000000000E+00  0.00000000000E+00  0.15598616968E+03  0.31307545869E+04  0.31268662584E+04 0.  0.
        2    1    3    3  502    0  0.23472890585E+02 -0.13742171236E+04 -0.66811775371E+03  0.15282031973E+04  0.25500000920E-02 0. -1.
       -2    1    3    3    0  502 -0.23472890585E+02  0.13742171236E+04  0.82410392340E+03  0.16025513895E+04  0.25500000920E-02 0.  1.
</event>
<event>
 5   0  0.5114870E-06  0.3152906E+04  0.7818609E-02  0.8201367E-01
       -2   -1    0    0    0  501  0.00000000000E+00  0.00000000000E+00  0.15694458486E+04  0.15694458486E+04  0.25500000920E-02 0.  1.
        2   -1    0    0  501    0  0.00000000000E+00  0.00000000000E+00 -0.15834909632E+04  0.15834909632E+04  0.25500000920E-02 0. -1.
    10030    2    1    2    0    0  0.00000000000E+00  0.00000000000E+00 -0.14045114651E+02  0.31529368118E+04  0.31529055289E+04 0.  0.
        2    1    3    3  502    0  0.72162440017E+03  0.53519459974E+02 -0.14076067700E+04  0.15827074671E+04  0.25500000920E-02 0. -1.
       -2    1    3    3    0  502 -0.72162440017E+03 -0.53519459974E+02  0.13935616554E+04  0.15702293447E+04  0.25500000920E-02 0.  1.
</event>
<event>
 5   0  0.5001658E-06  0.3124459E+04  0.7818609E-02  0.8209057E-01
       -2   -1    0    0    0  501  0.00000000000E+00  0.00000000000E+00  0.10414319850E+04  0.10414319850E+04  0.25500000920E-02 0. -1.
        2   -1    0    0  501    0  0.00000000000E+00  0.00000000000E+00 -0.23434662663E+04  0.23434662663E+04  0.25500000920E-02 0.  1.
    10030    2    1    2    0    0  0.00000000000E+00  0.00000000000E+00 -0.13020342813E+04  0.33848982513E+04  0.31244588175E+04 0.  0.
        3    1    3    3  502    0 -0.26813247011E+03  0.84570671949E+03 -0.20440642405E+04  0.22282983432E+04  0.10100000352E+00 0.  1.
       -3    1    3    3    0  502  0.26813247011E+03 -0.84570671949E+03  0.74202995920E+03  0.11565999081E+04  0.10100000352E+00 0. -1.
</event>
<event>
 5   0  0.4900679E-06  0.3116547E+04  0.7818609E-02  0.8211211E-01
       -2   -1    0    0    0  501  0.00000000000E+00  0.00000000000E+00  0.14771388986E+04  0.14771388986E+04  0.25500000920E-02 0. -1.
        2   -1    0    0  501    0  0.00000000000E+00  0.00000000000E+00 -0.16438644456E+04  0.16438644456E+04  0.25500000920E-02 0.  1.
    10030    2    1    2    0    0  0.00000000000E+00  0.00000000000E+00 -0.16672554699E+03  0.31210033442E+04  0.31165468818E+04 0.  0.
        4    1    3    3  502    0 -0.65444172626E+03  0.33228436777E+03 -0.14599219777E+04  0.16340381477E+04  0.12699999809E+01 0.  1.
       -4    1    3    3    0  502  0.65444172626E+03 -0.33228436777E+03  0.12931964308E+04  0.14869651965E+04  0.12699999809E+01 0. -1.
</event>
<event>
 5   0  0.1853742E-06  0.3159758E+04  0.7818609E-02  0.8199527E-01
       -1   -1    0    0    0  501  0.00000000000E+00  0.00000000000E+00  0.11819985102E+04  0.11819985102E+04  0.50400001928E-02 0.  1.
        1   -1    0    0  501    0  0.00000000000E+00  0.00000000000E+00 -0.21116924502E+04  0.21116924502E+04  0.50400001928E-02 0. -1.
    10030    2    1    2    0    0  0.00000000000E+00  0.00000000000E+00 -0.92969394006E+03  0.32936909604E+04  0.31597577946E+04 0.  0.
        5    1    3    3  502    0  0.83893070149E+03  0.81705177829E+03  0.64058331516E+03  0.13348211131E+04  0.46999998093E+01 0.  1.
       -5    1    3    3    0  502 -0.83893070149E+03 -0.81705177829E+03 -0.15702772552E+04  0.19588698473E+04  0.46999998093E+01 0. -1.
</event>
<event>
 5   0  0.5328368E-06  0.3107258E+04  0.7818609E-02  0.8213749E-01
       -2   -1    0    0    0  501  0.00000000000E+00  0.00000000000E+00  0.13542000532E+04  0.13542000532E+04  0.25500000920E-02 0. -1.
        2   -1    0    0  501    0  0.00000000000E+00  0.00000000000E+00 -0.17824277365E+04  0.17824277365E+04  0.25500000920E-02 0.  1.
    10030    2    1    2    0    0  0.00000000000E+00  0.00000000000E+00 -0.42822768325E+03  0.31366277897E+04  0.31072584287E+04 0.  0.
        1    1    3    3  502    0 -0.67462575244E+02  0.42067791723E+03  0.12940770362E+04  0.13624083400E+04  0.50400001928E-02 0. -1.
       -1    1    3    3    0  502  0.67462575244E+02 -0.42067791723E+03 -0.17223047195E+04  0.17742194498E+04  0.50400001928E-02 0.  1.
</event>
<event>
 5   0  0.4927533E-06  0.2766937E+04  0.7818609E-02  0.8313607E-01
        2   -1    0    0  501    0  0.00000000000E+00  0.00000000000E+00  0.15658706284E+04  0.15658706284E+04  0.25500000920E-02 0. -1.
       -2   -1    0    0    0  501  0.00000000000E+00  0.00000000000E+00 -0.12223140095E+04  0.12223140095E+04  0.25500000920E-02 0.  1.
    10030    2    1    2    0    0  0.00000000000E+00  0.00000000000E+00  0.34355661885E+03  0.27881846379E+04  0.27669373727E+04 0.  0.
        5    1    3    3  502    0 -0.28646540142E+02 -0.13550538114E+04  0.45134714397E+03  0.14285404406E+04  0.46999998093E+01 0.  1.
       -5    1    3    3    0  502  0.28646540142E+02  0.13550538114E+04 -0.10779052512E+03  0.13596441973E+04  0.46999998093E+01 0. -1.
</event>
<event>
 5   0  0.1843709E-06  0.3035368E+04  0.7818609E-02  0.8233703E-01
       -1   -1    0    0    0  501  0.00000000000E+00  0.00000000000E+00  0.12404744747E+04  0.12404744747E+04  0.50400001928E-02 0. -1.
        1   -1    0    0  501    0  0.00000000000E+00  0.00000000000E+00 -0.18568413664E+04  0.18568413664E+04  0.50400001928E-02 0.  1.
    10030    2    1    2    0    0  0.00000000000E+00  0.00000000000E+00 -0.61636689164E+03  0.30973158411E+04  0.30353677330E+04 0.  0.
        4    1    3    3  502    0  0.76401783638E+03  0.32122185408E+03  0.98916346073E+03  0.12904854508E+04  0.12699999809E+01 0. -1.
       -4    1    3    3    0  502 -0.76401783638E+03 -0.32122185408E+03 -0.16055303524E+04  0.18068303903E+04  0.12699999809E+01 0.  1.
</event>
<event>
 5   0  0.1836401E-06  0.3077123E+04  0.7818609E-02  0.8222044E-01
        1   -1    0    0  501    0  0.00000000000E+00  0.00000000000E+00  0.22826313979E+04  0.22826313979E+04  0.50400001928E-02 0. -1.
       -1   -1    0    0    0  501  0.00000000000E+00  0.00000000000E+00 -0.10370363652E+04  0.10370363652E+04  0.50400001928E-02 0.  1.
    10030    2    1    2    0    0  0.00000000000E+00  0.00000000000E+00  0.12455950327E+04  0.33196677631E+04  0.30771231811E+04 0.  0.
        2    1    3    3  502    0  0.61655207260E+03 -0.95105304116E+03 -0.49966124985E+03  0.12386685230E+04  0.25500000920E-02 0.  1.
       -2    1    3    3    0  502 -0.61655207260E+03  0.95105304116E+03  0.17452562826E+04  0.20809992401E+04  0.25500000920E-02 0. -1.
</event>
<event>
 5   0  0.1836401E-06  0.3240427E+04  0.7818609E-02  0.8178221E-01
        1   -1    0    0  501    0  0.00000000000E+00  0.00000000000E+00  0.14334485724E+04  0.14334485724E+04  0.50400001928E-02 0.  1.
       -1   -1    0    0    0  501  0.00000000000E+00  0.00000000000E+00 -0.18313119631E+04  0.18313119631E+04  0.50400001928E-02 0. -1.
    10030    2    1    2    0    0  0.00000000000E+00  0.00000000000E+00 -0.39786339064E+03  0.32647605355E+04  0.32404268356E+04 0.  0.
        2    1    3    3  502    0 -0.18973095550E+03  0.86590965192E+03  0.11674584077E+04  0.14658637366E+04  0.25500000920E-02 0.  1.
       -2    1    3    3    0  502  0.18973095550E+03 -0.86590965192E+03 -0.15653217983E+04  0.17988967989E+04  0.25500000920E-02 0. -1.
</event>
<event>
 5   0  0.1853742E-06  0.3153711E+04  0.7818609E-02  0.8201150E-01
       -1   -1    0    0    0  501  0.00000000000E+00  0.00000000000E+00  0.27257809748E+04  0.27257809748E+04  0.50400001928E-02 0. -1.
        1   -1    0    0  501    0  0.00000000000E+00  0.00000000000E+00 -0.91220596320E+03  0.91220596321E+03  0.50400001928E-02 0.  1.
    10030    2    1    2    0    0  0.00000000000E+00  0.00000000000E+00  0.18135750116E+04  0.36379869380E+04  0.31537112484E+04 0.  0.
        5    1    3    3  502    0  0.13580994531E+04 -0.61385495352E+03  0.15008410515E+04  0.21151354520E+04  0.46999998093E+01 0. -1.
       -5    1    3    3    0  502 -0.13580994531E+04  0.61385495352E+03  0.31273396006E+03  0.15228514860E+04  0.46999998093E+01 0.  1.
</event>
<event>
 5   0  0.1836401E-06  0.3110193E+04  0.7818609E-02  0.8212946E-01
        1   -1    0    0  501    0  0.00000000000E+00  0.00000000000E+00  0.10735344611E+04  0.10735344611E+04  0.50400001928E-02 0. -1.
       -1   -1    0    0    0  501  0.00000000000E+00  0.00000000000E+00 -0.22526760121E+04  0.22526760121E+04  0.50400001928E-02 0.  1.
    10030    2    1    2    0    0  0.00000000000E+00  0.00000000000E+00 -0.11791415511E+04  0.33262104732E+04  0.31101931314E+04 0.  0.
        2    1    3    3  502    0 -0.82065654829E+03 -0.74350115837E+03  0.57807299670E+03  0.12491755410E+04  0.25500000920E-02 0. -1.
       -2    1    3    3    0  502  0.82065654829E+03  0.74350115837E+03 -0.17572145478E+04  0.20770349322E+04  0.25500000920E-02 0.  1.
</event>
<event>
 5   0  0.5114870E-06  0.3035381E+04  0.7818609E-02  0.8233699E-01
       -2   -1    0    0    0  501  0.00000000000E+00  0.00000000000E+00  0.21009759713E+04  0.21009759713E+04  0.25500000920E-02 0.  1.
        2   -1    0    0  501    0  0.00000000000E+00  0.00000000000E+00 -0.10963398698E+04  0.10963398698E+04  0.25500000920E-02 0. -1.
    10030    2    1    2    0    0  0.00000000000E+00  0.00000000000E+00  0.10046361015E+04  0.31973158411E+04  0.30353805184E+04 0.  0.
        2    1    3    3  502    0  0.12530792624E+04  0.55750365064E+03 -0.18225019667E+03  0.13835581276E+04  0.25500000920E-02 0. -1.
       -2    1    3    3    0  502 -0.12530792624E+04 -0.55750365064E+03  0.11868862982E+04  0.18137577135E+04  0.25500000920E-02 0.  1.
</event>
<event>
 5   0  0.5114870E-06  0.3114694E+04  0.7818609E-02  0.8211717E-01
       -2   -1    0    0    0  501  0.00000000000E+00  0.00000000000E+00  0.11635440839E+04  0.11635440839E+04  0.25500000920E-02 0. -1.
        2   -1    0    0  501    0  0.00000000000E+00  0.00000000000E+00 -0.20844328815E+04  0.20844328815E+04  0.25500000920E-02 0.  1.
    10030    2    1    2    0    0  0.00000000000E+00  0.00000000000E+00 -0.92088879761E+03  0.32479769654E+04  0.31146939160E+04 0.  0.
        2    1    3    3  502    0 -0.11841956916E+04 -0.74826661082E+03 -0.11700847926E+04  0.18251906143E+04  0.25500000920E-02 0.  1.
       -2    1    3    3    0  502  0.11841956916E+04  0.74826661082E+03  0.24919599498E+03  0.14227863510E+04  0.25500000920E-02 0. -1.
</event>
<event>
 5   0  0.5001658E-06  0.3127805E+04  0.7818609E-02  0.8208148E-01
       -2   -1    0    0    0  501  0.00000000000E+00  0.00000000000E+00  0.12449346822E+04  0.12449346822E+04  0.25500000920E-02 0.  1.
        2   -1    0    0  501    0  0.00000000000E+00  0.00000000000E+00 -0.19645939094E+04  0.19645939094E+04  0.25500000920E-02 0. -1.
    10030    2    1    2    0    0  0.00000000000E+00  0.00000000000E+00 -0.71965922721E+03  0.32095285915E+04  0.31278050413E+04 0.  0.
        3    1    3    3  502    0  0.14182123381E+04 -0.24695126587E+03  0.26726807830E+03  0.14641527924E+04  0.10100000352E+00 0.  1.
       -3    1    3    3    0  502 -0.14182123381E+04  0.24695126587E+03 -0.98692730551E+03  0.17453757991E+04  0.10100000352E+00 0. -1.
</event>
<event>
 5   0  0.1840431E-06  0.3123917E+04  0.7818609E-02  0.8209205E-01
       -1   -1    0    0    0  501  0.00000000000E+00  0.00000000000E+00  0.13174314432E+04  0.13174314432E+04  0.50400001928E-02 0.  1.
        1   -1    0    0  501    0  0.00000000000E+00  0.00000000000E+00 -0.18518720190E+04  0.18518720190E+04  0.50400001928E-02 0. -1.
    10030    2    1    2    0    0  0.00000000000E+00  0.00000000000E+00 -0.53444057574E+03  0.31693034622E+04  0.31239170454E+04 0.  0.
        1    1    3    3  502    0  0.43110729863E+02  0.12571085723E+04 -0.12067055862E+04  0.17430774135E+04  0.50400001928E-02 0. -1.
       -1    1    3    3    0  502 -0.43110729863E+02 -0.12571085723E+04  0.67226501050E+03  0.14262260487E+04  0.50400001928E-02 0.  1.
</event>
<event>
 5   0  0.1836401E-06  0.3067867E+04  0.7818609E-02  0.8224612E-01
       -1   -1    0    0    0  501  0.00000000000E+00  0.00000000000E+00  0.25752793298E+04  0.25752793298E+04  0.50400001928E-02 0.  1.
        1   -1    0    0  501    0  0.00000000000E+00  0.00000000000E+00 -0.91366873215E+03  0.91366873217E+03  0.50400001928E-02 0. -1.
    10030    2    1    2    0    0  0.00000000000E+00  0.00000000000E+00  0.16616105977E+04  0.34889480620E+04  0.30678671420E+04 0.  0.
        2    1    3    3  502    0  0.11449554557E+04  0.78011341776E+03  0.82069510276E+02  0.13878888085E+04  0.25500000920E-02 0. -1.
       -2    1    3    3    0  502 -0.11449554557E+04 -0.78011341776E+03  0.15795410874E+04  0.21010592535E+04  0.25500000920E-02 0.  1.
</event>
<event>
 5   0  0.1836401E-06  0.2218565E+04  0.7818609E-02  0.8510740E-01
       -1   -1    0    0    0  501  0.00000000000E+00  0.00000000000E+00  0.11374700784E+04  0.11374700784E+04  0.50400001928E-02 0.  1.
        1   -1    0    0  501    0  0.00000000000E+00  0.00000000000E+00 -0.10817938868E+04  0.10817938868E+04  0.50400001928E-02 0. -1.
    10030    2    1    2    0    0  0.00000000000E+00  0.00000000000E+00  0.55676191636E+02  0.22192639653E+04  0.22185654620E+04 0.  0.
        2    1    3    3  502    0 -0.17037637839E+03  0.30997305071E+03 -0.10238714367E+04  0.10832470269E+04  0.25500000920E-02 0. -1.
       -2    1    3    3    0  502  0.17037637839E+03 -0.30997305071E+03  0.10795476283E+04  0.11360169384E+04  0.25500000920E-02 0.  1.
</event>
<event>
 5   0  0.5001658E-06  0.3069214E+04  0.7818609E-02  0.8224238E-01
        2   -1    0    0  501    0  0.00000000000E+00  0.00000000000E+00  0.23546431490E+04  0.23546431490E+04  0.25500000920E-02 0. -1.
       -2   -1    0    0    0  501  0.00000000000E+00  0.00000000000E+00 -0.10001593390E+04  0.10001593390E+04  0.25500000920E-02 0.  1.
    10030    2    1    2    0    0  0.00000000000E+00  0.00000000000E+00  0.13544838100E+04  0.33548024880E+04  0.30692137987E+04 0.  0.
        3    1    3    3  502    0  0.50167768643E+03 -0.19505248801E+03  0.22480769535E+04  0.23116176096E+04  0.10100000352E+00 0. -1.
       -3    1    3    3    0  502 -0.50167768643E+03  0.19505248801E+03 -0.89359314351E+03  0.10431848784E+04  0.10100000352E+00 0.  1.
</event>
<event>
 5   0  0.5114870E-06  0.3058573E+04  0.7818609E-02  0.8227200E-01
        2   -1    0    0  501    0  0.00000000000E+00  0.00000000000E+00  0.17668359244E+04  0.17668359244E+04  0.25500000920E-02 0. -1.
       -2   -1    0    0    0  501  0.00000000000E+00  0.00000000000E+00 -0.13236751059E+04  0.13236751059E+04  0.25500000920E-02 0.  1.
    10030    2    1    2    0    0  0.00000000000E+00  0.00000000000E+00  0.44316081844E+03  0.30905110303E+04  0.30585726929E+04 0.  0.
        2    1    3    3  502    0  0.14611796849E+04  0.36728668366E+03  0.48656134799E+03  0.15832521987E+04  0.25500000920E-02 0. -1.
       -2    1    3    3    0  502 -0.14611796849E+04 -0.36728668366E+03 -0.43400529550E+02  0.15072588316E+04  0.25500000920E-02 0.  1.
</event>
<event>
 5   0  0.5114870E-06  0.3117396E+04  0.7818609E-02  0.8210980E-01
       -2   -1    0    0    0  501  0.00000000000E+00  0.00000000000E+00  0.16521830400E+04  0.16521830400E+04  0.25500000920E-02 0.  1.
        2   -1    0    0  501    0  0.00000000000E+00  0.00000000000E+00 -0.14705022467E+04  0.14705022467E+04  0.25500000920E-02 0. -1.
    10030    2    1    2    0    0  0.00000000000E+00  0.00000000000E+00  0.18168079337E+03  0.31226852867E+04  0.31173956260E+04 0.  0.
        2    1    3    3  502    0 -0.73333782324E+03  0.86814662136E+03 -0.97777620947E+03  0.14991695151E+04  0.25500000920E-02 0. -1.
       -2    1    3    3    0  502  0.73333782324E+03 -0.86814662136E+03  0.11594570028E+04  0.16235157716E+04  0.25500000920E-02 0.  1.
</event>
<event>
 5   0  0.1843709E-06  0.3050073E+04  0.7818609E-02  0.8229575E-01
       -1   -1    0    0    0  501  0.00000000000E+00  0.00000000000E+00  0.14539035499E+04  0.14539035499E+04  0.50400001928E-02 0. -1.
        1   -1    0    0  501    0  0.00000000000E+00  0.00000000000E+00 -0.15996492907E+04  0.15996492907E+04  0.50400001928E-02 0.  1.
    10030    2    1    2    0    0  0.00000000000E+00  0.00000000000E+00 -0.14574574084E+03  0.30535528406E+04  0.30500726433E+04 0.  0.
        4    1    3    3  502    0 -0.12961440666E+04  0.30604964874E+03 -0.81674041596E+03  0.15622811363E+04  0.12699999809E+01 0. -1.
       -4    1    3    3    0  502  0.12961440666E+04 -0.30604964874E+03  0.67099467512E+03  0.14912717043E+04  0.12699999809E+01 0.  1.
</event>
<event>
 5   0  0.5328368E-06  0.3080343E+04  0.7818609E-02  0.8221153E-01
       -2   -1    0    0    0  501  0.00000000000E+00  0.00000000000E+00  0.15056355335E+04  0.15056355335E+04  0.25500000920E-02 0. -1.
        2   -1    0    0  501    0  0.00000000000E+00  0.00000000000E+00 -0.15754998841E+04  0.15754998841E+04  0.25500000920E-02 0.  1.
    10030    2    1    2    0    0  0.00000000000E+00  0.00000000000E+00 -0.69864350567E+02  0.30811354176E+04  0.30803432331E+04 0.  0.
        1    1    3    3  502    0  0.13706423294E+03 -0.39029040401E+03  0.14490313144E+04  0.15069190269E+04  0.50400001928E-02 0. -1.
       -1    1    3    3    0  502 -0.13706423294E+03  0.39029040401E+03 -0.15188956650E+04  0.15742163907E+04  0.50400001928E-02 0.  1.
</event>
<event>
 5   0  0.5001658E-06  0.3149470E+04  0.7818609E-02  0.8202291E-01
       -2   -1    0    0    0  501  0.00000000000E+00  0.00000000000E+00  0.18482406686E+04  0.18482406686E+04  0.25500000920E-02 0. -1.
        2   -1    0    0  501    0  0.00000000000E+00  0.00000000000E+00 -0.13417027264E+04  0.13417027264E+04  0.25500000920E-02 0.  1.
    10030    2    1    2    0    0  0.00000000000E+00  0.00000000000E+00  0.50653794223E+03  0.31899433949E+04  0.31494695071E+04 0.  0.
        3    1    3    3  502    0 -0.97031654271E+03  0.10171640348E+04 -0.46553610898E+03  0.14808310996E+04  0.10100000352E+00 0.  1.
       -3    1    3    3    0  502  0.97031654271E+03 -0.10171640348E+04  0.97207405121E+03  0.17091122953E+04  0.10100000352E+00 0. -1.
</event>
<event>
 5   0  0.1836401E-06  0.3070287E+04  0.7818609E-02  0.8223940E-01
        1   -1    0    0  501    0  0.00000000000E+00  0.00000000000E+00  0.15793062997E+04  0.15793062997E+04  0.50400001928E-02 0.  1.
       -1   -1    0    0    0  501  0.00000000000E+00  0.00000000000E+00 -0.14922153223E+04  0.14922153223E+04  0.50400001928E-02 0. -1.
    10030    2    1    2    0    0  0.00000000000E+00  0.00000000000E+00  0.87090977392E+02  0.30715216220E+04  0.30702866700E+04 0.  0.
        2    1    3    3  502    0  0.96504369933E+03  0.85345144728E+03  0.87873237952E+03  0.15594419865E+04  0.25500000920E-02 0.  1.
       -2    1    3    3    0  502 -0.96504369933E+03 -0.85345144728E+03 -0.79164140213E+03  0.15120796355E+04  0.25500000920E-02 0. -1.
</event>
<event>
 5   0  0.5001658E-06  0.3005119E+04  0.7818609E-02  0.8242271E-01
       -2   -1    0    0    0  501  0.00000000000E+00  0.00000000000E+00  0.14979910786E+04  0.14979910786E+04  0.25500000920E-02 0. -1.
        2   -1    0    0  501    0  0.00000000000E+00  0.00000000000E+00 -0.15071417236E+04  0.15071417236E+04  0.25500000920E-02 0.  1.
    10030    2    1    2    0    0  0.00000000000E+00  0.00000000000E+00 -0.91506450159E+01  0.30051328022E+04  0.30051188703E+04 0.  0.
        3    1    3    3  502    0 -0.77726773429E+03 -0.12624524332E+04 -0.24902188783E+03  0.15033107422E+04  0.10100000352E+00 0. -1.
       -3    1    3    3    0  502  0.77726773429E+03  0.12624524332E+04  0.23987124282E+03  0.15018220601E+04  0.10100000352E+00 0.  1.
</event>
<event>
 5   0  0.5114870E-06  0.3064015E+04  0.7818609E-02  0.8225684E-01
        2   -1    0    0  501    0  0.00000000000E+00  0.00000000000E+00  0.19822938216E+04  0.19822938216E+04  0.25500000920E-02 0.  1.
       -2   -1    0    0    0  501  0.00000000000E+00  0.00000000000E+00 -0.11840058797E+04  0.11840058797E+04  0.25500000920E-02 0. -1.
    10030    2    1    2    0    0  0.00000000000E+00  0.00000000000E+00  0.79828794193E+03  0.31662997013E+04  0.30640153656E+04 0.  0.
        2    1    3    3  502    0  0.46178998013E+02  0.20818784710E+03 -0.11685938838E+04  0.11878915543E+04  0.25500000920E-02 0. -1.
       -2    1    3    3    0  502 -0.46178998013E+02 -0.20818784710E+03  0.19668818258E+04  0.19784081470E+04  0.25500000920E-02 0.  1.
</event>
<event>
 5   0  0.4927533E-06  0.3127963E+04  0.7818609E-02  0.8208105E-01
        2   -1    0    0  501    0  0.00000000000E+00  0.00000000000E+00  0.16276859903E+04  0.16276859903E+04  0.25500000920E-02 0.  1.
       -2   -1    0    0    0  501  0.00000000000E+00  0.00000000000E+00 -0.15027706165E+04  0.15027706165E+04  0.25500000920E-02 0. -1.
    10030    2    1    2    0    0  0.00000000000E+00  0.00000000000E+00  0.12491537382E+03  0.31304566068E+04  0.31279633496E+04 0.  0.
        5    1    3    3  502    0  0.15299886548E+04 -0.14740572800E+03 -0.22660268750E+03  0.15536938567E+04  0.46999998093E+01 0. -1.
       -5    1    3    3    0  502 -0.15299886548E+04  0.14740572800E+03  0.35151806131E+03  0.15767627500E+04  0.46999998093E+01 0.  1.
</event>
<event>
 5   0  0.1853742E-06  0.3597037E+04  0.7818609E-02  0.8091171E-01
        1   -1    0    0  501    0  0.00000000000E+00  0.00000000000E+00  0.17649225425E+04  0.17649225425E+04  0.50400001928E-02 0. -1.
       -1   -1    0    0    0  501  0.00000000000E+00  0.00000000000E+00 -0.18327542964E+04  0.18327542964E+04  0.50400001928E-02 0.  1.
    10030    2    1    2    0    0  0.00000000000E+00  0.00000000000E+00 -0.67831753941E+02  0.35976768389E+04  0.35970373212E+04 0.  0.
        5    1    3    3  502    0  0.50884386423E+03  0.14289008614E+04  0.93267589960E+03  0.17806139878E+04  0.46999998093E+01 0. -1.
       -5    1    3    3    0  502 -0.50884386423E+03 -0.14289008614E+04 -0.10005076535E+04  0.18170628511E+04  0.46999998093E+01 0.  1.
</event>
<event>
 5   0  0.1853742E-06  0.2228598E+04  0.7818609E-02  0.8506618E-01
        1   -1    0    0  501    0  0.00000000000E+00  0.00000000000E+00  0.27135454798E+04  0.27135454798E+04  0.50400001928E-02 0. -1.
       -1   -1    0    0    0  501  0.00000000000E+00  0.00000000000E+00 -0.45757931929E+03  0.45757931932E+03  0.50400001928E-02 0.  1.
    10030    2    1    2    0    0  0.00000000000E+00  0.00000000000E+00  0.22559661606E+04  0.31711247992E+04  0.22285980289E+04 0.  0.
        5    1    3    3  502    0 -0.82379066208E+03  0.74948199714E+03  0.11790080309E+04  0.16218619996E+04  0.46999998093E+01 0. -1.
       -5    1    3    3    0  502  0.82379066208E+03 -0.74948199714E+03  0.10769581297E+04  0.15492627995E+04  0.46999998093E+01 0.  1.
</event>
<event>
 5   0  0.5328368E-06  0.3064140E+04  0.7818609E-02  0.8225649E-01
        2   -1    0    0  501    0  0.00000000000E+00  0.00000000000E+00  0.26064608895E+04  0.26064608895E+04  0.25500000920E-02 0. -1.
       -2   -1    0    0    0  501  0.00000000000E+00  0.00000000000E+00 -0.90054615249E+03  0.90054615250E+03  0.25500000920E-02 0.  1.
    10030    2    1    2    0    0  0.00000000000E+00  0.00000000000E+00  0.17059147371E+04  0.35070070420E+04  0.30641398961E+04 0.  0.
        1    1    3    3  502    0  0.40920027519E+03  0.45611487752E+03 -0.75418469583E+03  0.97174081018E+03  0.50400001928E-02 0.  1.
       -1    1    3    3    0  502 -0.40920027519E+03 -0.45611487752E+03  0.24600994329E+04  0.25352662319E+04  0.50400001928E-02 0. -1.
</event>
<event>
 5   0  0.1843709E-06  0.2554884E+04  0.7818609E-02  0.8383689E-01
       -1   -1    0    0    0  501  0.00000000000E+00  0.00000000000E+00  0.11363477456E+04  0.11363477456E+04  0.50400001928E-02 0.  1.
        1   -1    0    0  501    0  0.00000000000E+00  0.00000000000E+00 -0.14360555187E+04  0.14360555187E+04  0.50400001928E-02 0. -1.
    10030    2    1    2    0    0  0.00000000000E+00  0.00000000000E+00 -0.29970777303E+03  0.25724032643E+04  0.25548843036E+04 0.  0.
        4    1    3    3  502    0  0.11186313539E+04 -0.35551229081E+03 -0.65742543707E+03  0.13453382151E+04  0.12699999809E+01 0. -1.
       -4    1    3    3    0  502 -0.11186313539E+04  0.35551229081E+03  0.35771766404E+03  0.12270650492E+04  0.12699999809E+01 0.  1.
</event>
<event>
 5   0  0.5114870E-06  0.3137281E+04  0.7818609E-02  0.8205580E-01
       -2   -1    0    0    0  501  0.00000000000E+00  0.00000000000E+00  0.83402452422E+03  0.83402452422E+03  0.25500000920E-02 0. -1.
        2   -1    0    0  501    0  0.00000000000E+00  0.00000000000E+00 -0.29503125792E+04  0.29503125792E+04  0.25500000920E-02 0.  1.
    10030    2    1    2    0    0  0.00000000000E+00  0.00000000000E+00 -0.21162880550E+04  0.37843371035E+04  0.31372810172E+04 0.  0.
        2    1    3    3  502    0 -0.25720064694E+03 -0.13240153565E+04 -0.20242451987E+04  0.24324344722E+04  0.25500000920E-02 0.  1.
       -2    1    3    3    0  502  0.25720064694E+03  0.13240153565E+04 -0.92042856337E+02  0.13519026313E+04  0.25500000920E-02 0. -1.
</event>
<event>
 5   0  0.1840431E-06  0.3064982E+04  0.7818609E-02  0.8225414E-01
       -1   -1    0    0    0  501  0.00000000000E+00  0.00000000000E+00  0.11139000110E+04  0.11139000110E+04  0.50400001928E-02 0.  1.
        1   -1    0    0  501    0  0.00000000000E+00  0.00000000000E+00 -0.21083842619E+04  0.21083842619E+04  0.50400001928E-02 0. -1.
    10030    2    1    2    0    0  0.00000000000E+00  0.00000000000E+00 -0.99448425093E+03  0.32222842730E+04  0.30649823834E+04 0.  0.
        1    1    3    3  502    0 -0.59682261596E+03 -0.40124898792E+03  0.92547750602E+03  0.11720523023E+04  0.50400001928E-02 0.  1.
       -1    1    3    3    0  502  0.59682261596E+03  0.40124898792E+03 -0.19199617570E+04  0.20502319706E+04  0.50400001928E-02 0. -1.
</event>
<event>
 5   0  0.4900679E-06  0.3031134E+04  0.7818609E-02  0.8234896E-01
        2   -1    0    0  501    0  0.00000000000E+00  0.00000000000E+00  0.17183002729E+04  0.17183002729E+04  0.25500000920E-02 0.  1.
       -2   -1    0    0    0  501  0.00000000000E+00  0.00000000000E+00 -0.13367528384E+04  0.13367528384E+04  0.25500000920E-02 0. -1.
    10030    2    1    2    0    0  0.00000000000E+00  0.00000000000E+00  0.38154743450E+03  0.30550531112E+04  0.30311336275E+04 0.  0.
        4    1    3    3  502    0  0.11031895955E+04 -0.83889051585E+03 -0.42739860297E+03  0.14503226399E+04  0.12699999809E+01 0. -1.
       -4    1    3    3    0  502 -0.11031895955E+04  0.83889051585E+03  0.80894603747E+03  0.16047304713E+04  0.12699999809E+01 0.  1.
</event>
<event>
 5   0  0.1843709E-06  0.3100312E+04  0.7818609E-02  0.8215652E-01
       -1   -1    0    0    0  501  0.00000000000E+00  0.00000000000E+00  0.15511302453E+04  0.15511302453E+04  0.50400001928E-02 0. -1.
        1   -1    0    0  501    0  0.00000000000E+00  0.00000000000E+00 -0.15491824412E+04  0.15491824412E+04  0.50400001928E-02 0.  1.
    10030    2    1    2    0    0  0.00000000000E+00  0.00000000000E+00  0.19478040640E+01  0.31003126865E+04  0.31003120747E+04 0.  0.
        4    1    3    3  502    0 -0.63700292715E+03 -0.46100807012E+02  0.14134486456E+04  0.15510437454E+04  0.12699999809E+01 0. -1.
       -4    1    3    3    0  502  0.63700292715E+03  0.46100807012E+02 -0.14115008415E+04  0.15492689412E+04  0.12699999809E+01 0.  1.
</event>
<event>
 5   0  0.4927533E-06  0.3140811E+04  0.7818609E-02  0.8204626E-01
        2   -1    0    0  501    0  0.00000000000E+00  0.00000000000E+00  0.11586856554E+04  0.11586856554E+04  0.25500000920E-02 0. -1.
       -2   -1    0    0    0  501  0.00000000000E+00  0.00000000000E+00 -0.21284225530E+04  0.21284225530E+04  0.25500000920E-02 0.  1.
    10030    2    1    2    0    0  0.00000000000E+00  0.00000000000E+00 -0.96973689765E+03  0.32871082084E+04  0.31408105201E+04 0.  0.
        5    1    3    3  502    0 -0.11163193075E+04  0.75224474869E+03 -0.13313110952E+04  0.18932649789E+04  0.46999998093E+01 0.  1.
       -5    1    3    3    0  502  0.11163193075E+04 -0.75224474869E+03  0.36157419752E+03  0.13938432295E+04  0.46999998093E+01 0. -1.
</event>
<event>
 5   0  0.1843709E-06  0.3099132E+04  0.7818609E-02  0.8215976E-01
        1   -1    0    0  501    0  0.00000000000E+00  0.00000000000E+00  0.20420668733E+04  0.20420668733E+04  0.50400001928E-02 0. -1.
       -1   -1    0    0    0  501  0.00000000000E+00  0.00000000000E+00 -0.11758455915E+04  0.11758455915E+04  0.50400001928E-02 0.  1.
    10030    2    1    2    0    0  0.00000000000E+00  0.00000000000E+00  0.86622128175E+03  0.32179124648E+04  0.30991323499E+04 0.  0.
        4    1    3    3  502    0 -0.92932090731E+03  0.47178344109E+03  0.16237672716E+04  0.19294659181E+04  0.12699999809E+01 0. -1.
       -4    1    3    3    0  502  0.92932090731E+03 -0.47178344109E+03 -0.75754598983E+03  0.12884465467E+04  0.12699999809E+01 0.  1.
</event>
<event>
 5   0  0.1853742E-06  0.3053068E+04  0.7818609E-02  0.8228737E-01
        1   -1    0    0  501    0  0.00000000000E+00  0.00000000000E+00  0.19118881951E+04  0.19118881951E+04  0.50400001928E-02 0.  1.
       -1   -1    0    0    0  501  0.00000000000E+00  0.00000000000E+00 -0.12188502349E+04  0.12188502349E+04  0.50400001928E-02 0. -1.
    10030    2    1    2    0    0  0.00000000000E+00  0.00000000000E+00  0.69303796017E+03  0.31307384301E+04  0.30530675563E+04 0.  0.
        5    1    3    3  502    0 -0.33205972163E+03  0.52376196053E+03 -0.10838481857E+04  0.12487350519E+04  0.46999998093E+01 0. -1.
       -5    1    3    3    0  502  0.33205972163E+03 -0.52376196053E+03  0.17768861459E+04  0.18820033782E+04  0.46999998093E+01 0.  1.
</event>
<event>
 5   0  0.5328368E-06  0.3121478E+04  0.7818609E-02  0.8209868E-01
        2   -1    0    0  501    0  0.00000000000E+00  0.00000000000E+00  0.11242576134E+04  0.11242576134E+04  0.25500000920E-02 0. -1.
       -2   -1    0    0    0  501  0.00000000000E+00  0.00000000000E+00 -0.21666803882E+04  0.21666803882E+04  0.25500000920E-02 0.  1.
    10030    2    1    2    0    0  0.00000000000E+00  0.00000000000E+00 -0.10424227748E+04  0.32909380016E+04  0.31214784460E+04 0.  0.
        1    1    3    3  502    0  0.78645241174E+03  0.10640658804E+04  0.35147141073E+03  0.13690419081E+04  0.50400001928E-02 0. -1.
       -1    1    3    3    0  502 -0.78645241174E+03 -0.10640658804E+04 -0.13938941855E+04  0.19218960935E+04  0.50400001928E-02 0.  1.
</event>
<event>
 5   0  0.1853742E-06  0.2958373E+04  0.7818609E-02  0.8255719E-01
       -1   -1    0    0    0  501  0.00000000000E+00  0.00000000000E+00  0.20873518548E+04  0.20873518548E+04  0.50400001928E-02 0.  1.
        1   -1    0    0  501    0  0.00000000000E+00  0.00000000000E+00 -0.10482146587E+04  0.10482146587E+04  0.50400001928E-02 0. -1.
    10030    2    1    2    0    0  0.00000000000E+00  0.00000000000E+00  0.10391371961E+04  0.31355665135E+04  0.29583730746E+04 0.  0.
        5    1    3    3  502    0 -0.11090868280E+04 -0.51857728162E+03  0.13993296355E+04  0.18593389976E+04  0.46999998093E+01 0.  1.
       -5    1    3    3    0  502  0.11090868280E+04  0.51857728162E+03 -0.36019243939E+03  0.12762275159E+04  0.46999998093E+01 0. -1.
</event>
<event>
 5   0  0.5328368E-06  0.3066827E+04  0.7818609E-02  0.8224901E-01
        2   -1    0    0  501    0  0.00000000000E+00  0.00000000000E+00  0.25027093314E+04  0.25027093314E+04  0.25500000920E-02 0. -1.
       -2   -1    0    0    0  501  0.00000000000E+00  0.00000000000E+00 -0.93952468632E+03  0.93952468632E+03  0.25500000920E-02 0.  1.
    10030    2    1    2    0    0  0.00000000000E+00  0.00000000000E+00  0.15631846451E+04  0.34422340177E+04  0.30668271549E+04 0.  0.
        1    1    3    3  502    0  0.10921788668E+04 -0.10451321741E+04  0.49280094406E+03  0.15899712918E+04  0.50400001928E-02 0.  1.
       -1    1    3    3    0  502 -0.10921788668E+04  0.10451321741E+04  0.10703837010E+04  0.18522627259E+04  0.50400001928E-02 0. -1.
</event>
<event>
 5   0  0.1885307E-06  0.3101490E+04  0.7818609E-02  0.8215329E-01
        1   -1    0    0  501    0  0.00000000000E+00  0.00000000000E+00  0.25915542188E+04  0.25915542188E+04  0.50400001928E-02 0. -1.
       -1   -1    0    0    0  501  0.00000000000E+00  0.00000000000E+00 -0.92794135014E+03  0.92794135016E+03  0.50400001928E-02 0.  1.
    10030    2    1    2    0    0  0.00000000000E+00  0.00000000000E+00  0.16636128687E+04  0.35194955690E+04  0.31014901714E+04 0.  0.
        3    1    3    3  502    0 -0.55216739023E+03  0.14384857531E+04  0.63304173262E+03  0.16657946855E+04  0.10100000352E+00 0.  1.
       -3    1    3    3    0  502  0.55216739023E+03 -0.14384857531E+04  0.10305711360E+04  0.18537008835E+04  0.10100000352E+00 0. -1.
</event>
<event>
 5   0  0.1853742E-06  0.2329363E+04  0.7818609E-02  0.8466433E-01
       -1   -1    0    0    0  501  0.00000000000E+00  0.00000000000E+00  0.67209418761E+03  0.67209418762E+03  0.50400001928E-02 0. -1.
        1   -1    0    0  501    0  0.00000000000E+00  0.00000000000E+00 -0.20182933193E+04  0.20182933193E+04  0.50400001928E-02 0.  1.
    10030    2    1    2    0    0  0.00000000000E+00  0.00000000000E+00 -0.13461991317E+04  0.26903875069E+04  0.23293631823E+04 0.  0.
        5    1    3    3  502    0  0.14372028962E+03 -0.11525336630E+04 -0.57326317347E+03  0.12952382491E+04  0.46999998093E+01 0. -1.
       -5    1    3    3    0  502 -0.14372028962E+03  0.11525336630E+04 -0.77293595820E+03  0.13951492578E+04  0.46999998093E+01 0.  1.
</event>
<event>
 5   0  0.4900679E-06  0.2364939E+04  0.7818609E-02  0.8452748E-01
       -2   -1    0    0    0  501  0.00000000000E+00  0.00000000000E+00  0.60409715939E+03  0.60409715940E+03  0.25500000920E-02 0.  1.
        2   -1    0    0  501    0  0.00000000000E+00  0.00000000000E+00 -0.23145851618E+04  0.23145851618E+04  0.25500000920E-02 0. -1.
    10030    2    1    2    0    0  0.00000000000E+00  0.00000000000E+00 -0.17104880024E+04  0.29186823211E+04  0.23649391716E+04 0.  0.
        4    1    3    3  502    0  0.10054623968E+04  0.13581605843E+03 -0.10572750799E+03  0.10200885020E+04  0.12699999809E+01 0. -1.
       -4    1    3    3    0  502 -0.10054623968E+04 -0.13581605843E+03 -0.16047604944E+04  0.18985938192E+04  0.12699999809E+01 0.  1.
</event>
<event>
 5   0  0.5114870E-06  0.3102420E+04  0.7818609E-02  0.8215074E-01
        2   -1    0    0  501    0  0.00000000000E+00  0.00000000000E+00  0.12051426647E+04  0.12051426647E+04  0.25500000920E-02 0. -1.
       -2   -1    0    0    0  501  0.00000000000E+00  0.00000000000E+00 -0.19966534620E+04  0.19966534620E+04  0.25500000920E-02 0.  1.
    10030    2    1    2    0    0  0.00000000000E+00  0.00000000000E+00 -0.79151079734E+03  0.32017961267E+04  0.31024198773E+04 0.  0.
        2    1    3    3  502    0  0.13710023827E+04  0.18017707317E+03 -0.11212238471E+04  0.17802399350E+04  0.25500000920E-02 0.  1.
       -2    1    3    3    0  502 -0.13710023827E+04 -0.18017707317E+03  0.32971304972E+03  0.14215561917E+04  0.25500000920E-02 0. -1.
</event>
<event>
 5   0  0.1843709E-06  0.3030523E+04  0.7818609E-02  0.8235068E-01
        1   -1    0    0  501    0  0.00000000000E+00  0.00000000000E+00  0.11287102613E+04  0.11287102613E+04  0.50400001928E-02 0.  1.
       -1   -1    0    0    0  501  0.00000000000E+00  0.00000000000E+00 -0.20341959598E+04  0.20341959598E+04  0.50400001928E-02 0. -1.
    10030    2    1    2    0    0  0.00000000000E+00  0.00000000000E+00 -0.90548569845E+03  0.31629062211E+04  0.30305232904E+04 0.  0.
        4    1    3    3  502    0 -0.10696725355E+04 -0.78753767380E+03 -0.12137026494E+04  0.17993028247E+04  0.12699999809E+01 0. -1.
       -4    1    3    3    0  502  0.10696725355E+04  0.78753767380E+03  0.30821695097E+03  0.13636033964E+04  0.12699999809E+01 0.  1.
</event>
<event>
 5   0  0.4927533E-06  0.3344542E+04  0.7818609E-02  0.8151653E-01
       -2   -1    0    0    0  501  0.00000000000E+00  0.00000000000E+00  0.11882512563E+04  0.11882512563E+04  0.25500000920E-02 0. -1.
        2   -1    0    0  501    0  0.00000000000E+00  0.00000000000E+00 -0.23534499122E+04  0.23534499122E+04  0.25500000920E-02 0.  1.
    10030    2    1    2    0    0  0.00000000000E+00  0.00000000000E+00 -0.11651986559E+04  0.35417011685E+04  0.33445417113E+04 0.  0.
        5    1    3    3  502    0  0.44373699941E+03 -0.14812334679E+04 -0.12569370927E+04  0.19927037050E+04  0.46999998093E+01 0.  1.
       -5    1    3    3    0  502 -0.44373699941E+03  0.14812334679E+04  0.91738436770E+02  0.15489974634E+04  0.46999998093E+01 0. -1.
</event>
<event>
 5   0  0.1840431E-06  0.2509074E+04  0.7818609E-02  0.8399760E-01
       -1   -1    0    0    0  501  0.00000000000E+00  0.00000000000E+00  0.10167457472E+04  0.10167457473E+04  0.50400001928E-02 0. -1.
        1   -1    0    0  501    0  0.00000000000E+00  0.00000000000E+00 -0.15479411466E+04  0.15479411466E+04  0.50400001928E-02 0.  1.
    10030    2    1    2    0    0  0.00000000000E+00  0.00000000000E+00 -0.53119539937E+03  0.25646868939E+04  0.25090735962E+04 0.  0.
        1    1    3    3  502    0 -0.77250380508E+03 -0.35547298433E+03  0.67720154765E+03  0.10870718043E+04  0.50400001928E-02 0. -1.
       -1    1    3    3    0  502  0.77250380508E+03  0.35547298433E+03 -0.12083969470E+04  0.14776150896E+04  0.50400001928E-02 0.  1.
</event>
<event>
 5   0  0.4900679E-06  0.3058700E+04  0.7818609E-02  0.8227165E-01
        2   -1    0    0  501    0  0.00000000000E+00  0.00000000000E+00  0.10873788777E+04  0.10873788777E+04  0.25500000920E-02 0.  1.
       -2   -1    0    0    0  501  0.00000000000E+00  0.00000000000E+00 -0.21509625748E+04  0.21509625748E+04  0.25500000920E-02 0. -1.
    10030    2    1    2    0    0  0.00000000000E+00  0.00000000000E+00 -0.10635836971E+04  0.32383414525E+04  0.30586999006E+04 0.  0.
        4    1    3    3  502    0 -0.11994541488E+04  0.25249310896E+03  0.43650848332E+03  0.13011472991E+04  0.12699999809E+01 0.  1.
       -4    1    3    3    0  502  0.11994541488E+04 -0.25249310896E+03 -0.15000921804E+04  0.19371941534E+04  0.12699999809E+01 0. -1.
</event>
<event>
 5   0  0.1836401E-06  0.3030337E+04  0.7818609E-02  0.8235121E-01
        1   -1    0    0  501    0  0.00000000000E+00  0.00000000000E+00  0.22050171756E+04  0.22050171756E+04  0.50400001928E-02 0. -1.
       -1   -1    0    0    0  501  0.00000000000E+00  0.00000000000E+00 -0.10411418003E+04  0.10411418003E+04  0.50400001928E-02 0.  1.
    10030    2    1    2    0    0  0.00000000000E+00  0.00000000000E+00  0.11638753753E+04  0.32461589760E+04  0.30303369793E+04 0.  0.
        2    1    3    3  502    0  0.24768798609E+03  0.84893898657E+03  0.18998823018E+04  0.20956143496E+04  0.25500000920E-02 0. -1.
       -2    1    3    3    0  502 -0.24768798609E+03 -0.84893898657E+03 -0.73600692652E+03  0.11505446264E+04  0.25500000920E-02 0.  1.
</event>
<event>
 5   0  0.1836401E-06  0.3029366E+04  0.7818609E-02  0.8235395E-01
        1   -1    0    0  501    0  0.00000000000E+00  0.00000000000E+00  0.26315094628E+04  0.26315094628E+04  0.50400001928E-02 0. -1.
       -1   -1    0    0    0  501  0.00000000000E+00  0.00000000000E+00 -0.87184378047E+03  0.87184378048E+03  0.50400001928E-02 0.  1.
    10030    2    1    2    0    0  0.00000000000E+00  0.00000000000E+00  0.17596656823E+04  0.35033532433E+04  0.30293663750E+04 0.  0.
        2    1    3    3  502    0  0.85360592235E+03  0.89955793724E+03 -0.12597019680E+03  0.12464814654E+04  0.25500000920E-02 0.  1.
       -2    1    3    3    0  502 -0.85360592235E+03 -0.89955793724E+03  0.18856358791E+04  0.22568717779E+04  0.25500000920E-02 0. -1.
</event>
<event>
 5   0  0.5114870E-06  0.3099900E+04  0.7818609E-02  0.8215765E-01
       -2   -1    0    0    0  501  0.00000000000E+00  0.00000000000E+00  0.17514774539E+04  0.17514774539E+04  0.25500000920E-02 0.  1.
        2   -1    0    0  501    0  0.00000000000E+00  0.00000000000E+00 -0.13716109138E+04  0.13716109138E+04  0.25500000920E-02 0. -1.
    10030    2    1    2    0    0  0.00000000000E+00  0.00000000000E+00  0.37986654012E+03  0.31230883678E+04  0.30999003798E+04 0.  0.
        2    1    3    3  502    0  0.73237005982E+03  0.73861323245E+03  0.13476285334E+04  0.17023566241E+04  0.25500000920E-02 0.  1.
       -2    1    3    3    0  502 -0.73237005982E+03 -0.73861323245E+03 -0.96776199329E+03  0.14207317436E+04  0.25500000920E-02 0. -1.
</event>
<event>
 5   0  0.1649875E-06  0.3163965E+04  0.7818609E-02  0.8198399E-01
        3   -1    0    0  501    0  0.00000000000E+00  0.00000000000E+00  0.15901287365E+04  0.15901287397E+04  0.10100000352E+00 0.  1.
       -3   -1    0    0    0  501  0.00000000000E+00  0.00000000000E+00 -0.15738780397E+04  0.15738780430E+04  0.10100000352E+00 0. -1.
    10030    2    1    2    0    0  0.00000000000E+00  0.00000000000E+00  0.16250696787E+02  0.31640067827E+04  0.31639650497E+04 0.  0.
        2    1    3    3  502    0  0.30146241637E+03  0.13946973458E+04  0.69122178633E+03  0.15855118519E+04  0.25500000920E-02 0.  1.
       -2    1    3    3    0  502 -0.30146241637E+03 -0.13946973458E+04 -0.67497108954E+03  0.15784949308E+04  0.25500000920E-02 0. -1.
</event>
<event>
 5   0  0.1840431E-06  0.3082168E+04  0.7818609E-02  0.8220649E-01
       -1   -1    0    0    0  501  0.00000000000E+00  0.00000000000E+00  0.99648488469E+03  0.99648488471E+03  0.50400001928E-02 0. -1.
        1   -1    0    0  501    0  0.00000000000E+00  0.00000000000E+00 -0.23833171072E+04  0.23833171072E+04  0.50400001928E-02 0.  1.
    10030    2    1    2    0    0  0.00000000000E+00  0.00000000000E+00 -0.13868322225E+04  0.33798019919E+04  0.30821677260E+04 0.  0.
        1    1    3    3  502    0  0.90982984904E+03 -0.13581782002E+03  0.66238659542E+03  0.11335752451E+04  0.50400001928E-02 0. -1.
       -1    1    3    3    0  502 -0.90982984904E+03  0.13581782002E+03 -0.20492188179E+04  0.22462267468E+04  0.50400001928E-02 0.  1.
</event>
<event>
 5   0  0.1853742E-06  0.3172086E+04  0.7818609E-02  0.8196228E-01
        1   -1    0    0  501    0  0.00000000000E+00  0.00000000000E+00  0.16600487380E+04  0.16600487380E+04  0.50400001928E-02 0. -1.
       -1   -1    0    0    0  501  0.00000000000E+00  0.00000000000E+00 -0.15153363662E+04  0.15153363663E+04  0.50400001928E-02 0.  1.
    10030    2    1    2    0    0  0.00000000000E+00  0.00000000000E+00  0.14471237175E+03  0.31753851043E+04  0.31720858894E+04 0.  0.
        5    1    3    3  502    0  0.16242936512E+03 -0.14947591330E+03  0.16445895482E+04  0.16593442137E+04  0.46999998093E+01 0. -1.
       -5    1    3    3    0  502 -0.16242936512E+03  0.14947591330E+03 -0.14998771765E+04  0.15160408906E+04  0.46999998093E+01 0.  1.
</event>
<event>
 5   0  0.5114870E-06  0.2945120E+04  0.7818609E-02  0.8259578E-01
       -2   -1    0    0    0  501  0.00000000000E+00  0.00000000000E+00  0.11785303283E+04  0.11785303283E+04  0.25500000920E-02 0.  1.
        2   -1    0    0  501    0  0.00000000000E+00  0.00000000000E+00 -0.18399465701E+04  0.18399465701E+04  0.25500000920E-02 0. -1.
    10030    2    1    2    0    0  0.00000000000E+00  0.00000000000E+00 -0.66141624186E+03  0.30184768984E+04  0.29451199196E+04 0.  0.
        2    1    3    3  502    0 -0.14037421319E+03  0.49651033726E+03 -0.17442659439E+04  0.18189807909E+04  0.25500000920E-02 0. -1.
       -2    1    3    3    0  502  0.14037421319E+03 -0.49651033726E+03  0.10828497020E+04  0.11994961075E+04  0.25500000920E-02 0.  1.
</event>
<event>
 5   0  0.5114870E-06  0.3097379E+04  0.7818609E-02  0.8216458E-01
        2   -1    0    0  501    0  0.00000000000E+00  0.00000000000E+00  0.10286185111E+04  0.10286185111E+04  0.25500000920E-02 0.  1.
       -2   -1    0    0    0  501  0.00000000000E+00  0.00000000000E+00 -0.23317086468E+04  0.23317086468E+04  0.25500000920E-02 0. -1.
    10030    2    1    2    0    0  0.00000000000E+00  0.00000000000E+00 -0.13030901358E+04  0.33603271579E+04  0.30973786831E+04 0.  0.
        2    1    3    3  502    0 -0.13759109073E+02  0.14867327012E+04 -0.11217877321E+04  0.18625174238E+04  0.25500000920E-02 0. -1.
       -2    1    3    3    0  502  0.13759109073E+02 -0.14867327012E+04 -0.18130240364E+03  0.14978097341E+04  0.25500000920E-02 0.  1.
</event>
<event>
 5   0  0.1840431E-06  0.2282813E+04  0.7818609E-02  0.8484729E-01
        1   -1    0    0  501    0  0.00000000000E+00  0.00000000000E+00  0.20357699681E+04  0.20357699681E+04  0.50400001928E-02 0.  1.
       -1   -1    0    0    0  501  0.00000000000E+00  0.00000000000E+00 -0.63995867556E+03  0.63995867558E+03  0.50400001928E-02 0. -1.
    10030    2    1    2    0    0  0.00000000000E+00  0.00000000000E+00  0.13958112925E+04  0.26757286437E+04  0.22828128724E+04 0.  0.
        1    1    3    3  502    0  0.57062731077E+03  0.42905144043E+02 -0.45967832682E+03  0.73400309492E+03  0.50400001928E-02 0. -1.
       -1    1    3    3    0  502 -0.57062731077E+03 -0.42905144043E+02  0.18554896194E+04  0.19417255488E+04  0.50400001928E-02 0.  1.
</event>
<event>
 5   0  0.5001658E-06  0.3154019E+04  0.7818609E-02  0.8201067E-01
        2   -1    0    0  501    0  0.00000000000E+00  0.00000000000E+00  0.19802628108E+04  0.19802628108E+04  0.25500000920E-02 0. -1.
       -2   -1    0    0    0  501  0.00000000000E+00  0.00000000000E+00 -0.12558730685E+04  0.12558730685E+04  0.25500000920E-02 0.  1.
    10030    2    1    2    0    0  0.00000000000E+00  0.00000000000E+00  0.72438974227E+03  0.32361358793E+04  0.31540188539E+04 0.  0.
        3    1    3    3  502    0  0.80398264285E+02 -0.14386165863E+04 -0.29549092583E+03  0.14708488912E+04  0.10100000352E+00 0.  1.
       -3    1    3    3    0  502 -0.80398264285E+02  0.14386165863E+04  0.10198806681E+04  0.17652869881E+04  0.10100000352E+00 0. -1.
</event>
<event>
 5   0  0.5001658E-06  0.3205873E+04  0.7818609E-02  0.8187268E-01
        2   -1    0    0  501    0  0.00000000000E+00  0.00000000000E+00  0.12945741512E+04  0.12945741512E+04  0.25500000920E-02 0.  1.
       -2   -1    0    0    0  501  0.00000000000E+00  0.00000000000E+00 -0.19847489169E+04  0.19847489169E+04  0.25500000920E-02 0. -1.
    10030    2    1    2    0    0  0.00000000000E+00  0.00000000000E+00 -0.69017476571E+03  0.32793230680E+04  0.32058725142E+04 0.  0.
        3    1    3    3  502    0 -0.59439194413E+03  0.12399557911E+04  0.49756582685E+03  0.14623145726E+04  0.10100000352E+00 0.  1.
       -3    1    3    3    0  502  0.59439194413E+03 -0.12399557911E+04 -0.11877405926E+04  0.18170084954E+04  0.10100000352E+00 0. -1.
</event>
<event>
 5   0  0.4900679E-06  0.3126051E+04  0.7818609E-02  0.8208625E-01
        2   -1    0    0  501    0  0.00000000000E+00  0.00000000000E+00  0.11376087755E+04  0.11376087755E+04  0.25500000920E-02 0. -1.
       -2   -1    0    0    0  501  0.00000000000E+00  0.00000000000E+00 -0.21475302873E+04  0.21475302873E+04  0.25500000920E-02 0.  1.
    10030    2    1    2    0    0  0.00000000000E+00  0.00000000000E+00 -0.10099215118E+04  0.32851390628E+04  0.31260513755E+04 0.  0.
        4    1    3    3  502    0  0.78664405849E+03 -0.97166692484E+03  0.48091957108E+03  0.13394889825E+04  0.12699999809E+01 0. -1.
       -4    1    3    3    0  502 -0.78664405849E+03  0.97166692484E+03 -0.14908410829E+04  0.19456500803E+04  0.12699999809E+01 0.  1.
</event>
<event>
 5   0  0.1843709E-06  0.2929447E+04  0.7818609E-02  0.8264170E-01
        1   -1    0    0  501    0  0.00000000000E+00  0.00000000000E+00  0.16101972740E+04  0.16101972741E+04  0.50400001928E-02 0.  1.
       -1   -1    0    0    0  501  0.00000000000E+00  0.00000000000E+00 -0.13323921977E+04  0.13323921977E+04  0.50400001928E-02 0. -1.
    10030    2    1    2    0    0  0.00000000000E+00  0.00000000000E+00  0.27780507633E+03  0.29425894718E+04  0.29294465585E+04 0.  0.
        4    1    3    3  502    0 -0.17595456340E+03  0.72298905096E+03 -0.11283993835E+04  0.13516508269E+04  0.12699999809E+01 0. -1.
       -4    1    3    3    0  502  0.17595456340E+03 -0.72298905096E+03  0.14062044598E+04  0.15909386449E+04  0.12699999809E+01 0.  1.
</event>
<event>
 5   0  0.1843709E-06  0.3116983E+04  0.7818609E-02  0.8211093E-01
        1   -1    0    0  501    0  0.00000000000E+00  0.00000000000E+00  0.13220927521E+04  0.13220927521E+04  0.50400001928E-02 0. -1.
       -1   -1    0    0    0  501  0.00000000000E+00  0.00000000000E+00 -0.18371595902E+04  0.18371595902E+04  0.50400001928E-02 0.  1.
    10030    2    1    2    0    0  0.00000000000E+00  0.00000000000E+00 -0.51506683810E+03  0.31592523423E+04  0.31169827581E+04 0.  0.
        4    1    3    3  502    0  0.11964631356E+04  0.52482590036E+03  0.60365208417E+03  0.14392233017E+04  0.12699999809E+01 0. -1.
       -4    1    3    3    0  502 -0.11964631356E+04 -0.52482590036E+03 -0.11187189223E+04  0.17200290406E+04  0.12699999809E+01 0.  1.
</event>
<event>
 5   0  0.4927533E-06  0.3145537E+04  0.7818609E-02  0.8203351E-01
        2   -1    0    0  501    0  0.00000000000E+00  0.00000000000E+00  0.12114437825E+04  0.12114437825E+04  0.25500000920E-02 0.  1.
       -2   -1    0    0    0  501  0.00000000000E+00  0.00000000000E+00 -0.20418612166E+04  0.20418612166E+04  0.25500000920E-02 0. -1.
    10030    2    1    2    0    0  0.00000000000E+00  0.00000000000E+00 -0.83041743405E+03  0.32533049991E+04  0.31455365683E+04 0.  0.
        5    1    3    3  502    0  0.86232395846E+03 -0.11738089224E+04  0.19854289950E+03  0.14699902614E+04  0.46999998093E+01 0.  1.
       -5    1    3    3    0  502 -0.86232395846E+03  0.11738089224E+04 -0.10289603336E+04  0.17833147377E+04  0.46999998093E+01 0. -1.
</event>
<event>
 5   0  0.1843709E-06  0.2520826E+04  0.7818609E-02  0.8395603E-01
       -1   -1    0    0    0  501  0.00000000000E+00  0.00000000000E+00  0.10442122926E+04  0.10442122926E+04  0.50400001928E-02 0.  1.
        1   -1    0    0  501    0  0.00000000000E+00  0.00000000000E+00 -0.15213776251E+04  0.15213776251E+04  0.50400001928E-02 0. -1.
    10030    2    1    2    0    0  0.00000000000E+00  0.00000000000E+00 -0.47716533247E+03  0.25655899178E+04  0.25208262280E+04 0.  0.
        4    1    3    3  502    0  0.96430068217E+03  0.80650687312E+03 -0.33136321577E+03  0.13000508974E+04  0.12699999809E+01 0. -1.
       -4    1    3    3    0  502 -0.96430068217E+03 -0.80650687312E+03 -0.14580211669E+03  0.12655390204E+04  0.12699999809E+01 0.  1.
</event>
<event>
 5   0  0.5001658E-06  0.3075976E+04  0.7818609E-02  0.8222362E-01
        2   -1    0    0  501    0  0.00000000000E+00  0.00000000000E+00  0.15023610042E+04  0.15023610042E+04  0.25500000920E-02 0. -1.
       -2   -1    0    0    0  501  0.00000000000E+00  0.00000000000E+00 -0.15744599343E+04  0.15744599343E+04  0.25500000920E-02 0.  1.
    10030    2    1    2    0    0  0.00000000000E+00  0.00000000000E+00 -0.72098930138E+02  0.30768209385E+04  0.30759760779E+04 0.  0.
        3    1    3    3  502    0  0.11669977789E+04  0.48221092970E+03  0.84225548727E+03  0.15178292107E+04  0.10100000352E+00 0. -1.
       -3    1    3    3    0  502 -0.11669977789E+04 -0.48221092970E+03 -0.91435441741E+03  0.15589917279E+04  0.10100000352E+00 0.  1.
</event>
<event>
 5   0  0.4927533E-06  0.3083831E+04  0.7818609E-02  0.8220189E-01
       -2   -1    0    0    0  501  0.00000000000E+00  0.00000000000E+00  0.11930829384E+04  0.11930829384E+04  0.25500000920E-02 0.  1.
        2   -1    0    0  501    0  0.00000000000E+00  0.00000000000E+00 -0.19927393463E+04  0.19927393463E+04  0.25500000920E-02 0. -1.
    10030    2    1    2    0    0  0.00000000000E+00  0.00000000000E+00 -0.79965640789E+03  0.31858222847E+04  0.30838309388E+04 0.  0.
        5    1    3    3  502    0  0.63473915652E+03  0.13709299412E+04 -0.71847473134E+03  0.16728929225E+04  0.46999998093E+01 0. -1.
       -5    1    3    3    0  502 -0.63473915652E+03 -0.13709299412E+04 -0.81181676547E+02  0.15129293622E+04  0.46999998093E+01 0.  1.
</event>
<event>
 5   0  0.1843709E-06  0.3093758E+04  0.7818609E-02  0.8217453E-01
        1   -1    0    0  501    0  0.00000000000E+00  0.00000000000E+00  0.13678061341E+04  0.13678061341E+04  0.50400001928E-02 0.  1.
       -1   -1    0    0    0  501  0.00000000000E+00  0.00000000000E+00 -0.17493958662E+04  0.17493958662E+04  0.50400001928E-02 0. -1.
    10030    2    1    2    0    0  0.00000000000E+00  0.00000000000E+00 -0.38158973217E+03  0.31172020003E+04  0.30937578424E+04 0.  0.
        4    1    3    3  502    0 -0.26414298491E+03  0.53380181105E+03 -0.16292395764E+04  0.17346870323E+04  0.12699999809E+01 0. -1.
       -4    1    3    3    0  502  0.26414298491E+03 -0.53380181105E+03  0.12476498442E+04  0.13825149680E+04  0.12699999809E+01 0.  1.
</event>
<event>
 5   0  0.1885307E-06  0.3169315E+04  0.7818609E-02  0.8196968E-01
        1   -1    0    0  501    0  0.00000000000E+00  0.00000000000E+00  0.17123688364E+04  0.17123688365E+04  0.50400001928E-02 0. -1.
       -1   -1    0    0    0  501  0.00000000000E+00  0.00000000000E+00 -0.14664709805E+04  0.14664709805E+04  0.50400001928E-02 0.  1.
    10030    2    1    2    0    0  0.00000000000E+00  0.00000000000E+00  0.24589785596E+03  0.31788398169E+04  0.31693148828E+04 0.  0.
        3    1    3    3  502    0  0.87638827336E+03 -0.80350515480E+03  0.11736956668E+04  0.16706999934E+04  0.10100000352E+00 0. -1.
       -3    1    3    3    0  502 -0.87638827336E+03  0.80350515480E+03 -0.92779781082E+03  0.15081398236E+04  0.10100000352E+00 0.  1.
</event>
<event>
 5   0  0.1843709E-06  0.2951171E+04  0.7818609E-02  0.8257813E-01
       -1   -1    0    0    0  501  0.00000000000E+00  0.00000000000E+00  0.92814794434E+03  0.92814794436E+03  0.50400001928E-02 0. -1.
        1   -1    0    0  501    0  0.00000000000E+00  0.00000000000E+00 -0.23459116541E+04  0.23459116541E+04  0.50400001928E-02 0.  1.
    10030    2    1    2    0    0  0.00000000000E+00  0.00000000000E+00 -0.14177637097E+04  0.32740595984E+04  0.29511713467E+04 0.  0.
        4    1    3    3  502    0 -0.90214677479E+02 -0.50158394552E+03  0.82741148035E+03  0.97176978403E+03  0.12699999809E+01 0. -1.
       -4    1    3    3    0  502  0.90214677479E+02  0.50158394552E+03 -0.22451751901E+04  0.23022898144E+04  0.12699999809E+01 0.  1.
</event>
<event>
 5   0  0.4927533E-06  0.3061139E+04  0.7818609E-02  0.8226485E-01
       -2   -1    0    0    0  501  0.00000000000E+00  0.00000000000E+00  0.80050033863E+03  0.80050033864E+03  0.25500000920E-02 0.  1.
        2   -1    0    0  501    0  0.00000000000E+00  0.00000000000E+00 -0.29264733524E+04  0.29264733524E+04  0.25500000920E-02 0. -1.
    10030    2    1    2    0    0  0.00000000000E+00  0.00000000000E+00 -0.21259730138E+04  0.37269736911E+04  0.30611389447E+04 0.  0.
        5    1    3    3  502    0 -0.60166896212E+03 -0.62261895771E+03 -0.25996396345E+04  0.27400379971E+04  0.46999998093E+01 0. -1.
       -5    1    3    3    0  502  0.60166896212E+03  0.62261895771E+03  0.47366662067E+03  0.98693569396E+03  0.46999998093E+01 0.  1.
</event>
<event>
 5   0  0.1843709E-06  0.3110773E+04  0.7818609E-02  0.8212788E-01
        1   -1    0    0  501    0  0.00000000000E+00  0.00000000000E+00  0.19827693241E+04  0.19827693241E+04  0.50400001928E-02 0. -1.
       -1   -1    0    0    0  501  0.00000000000E+00  0.00000000000E+00 -0.12201253297E+04  0.12201253297E+04  0.50400001928E-02 0.  1.
    10030    2    1    2    0    0  0.00000000000E+00  0.00000000000E+00  0.76264399444E+03  0.32028946538E+04  0.31107729427E+04 0.  0.
        4    1    3    3  502    0  0.12315348238E+04  0.47057657921E+03 -0.46840891029E+03  0.13991171714E+04  0.12699999809E+01 0. -1.
       -4    1    3    3    0  502 -0.12315348238E+04 -0.47057657921E+03  0.12310529047E+04  0.18037774825E+04  0.12699999809E+01 0.  1.
</event>
<event>
 5   0  0.1836401E-06  0.3122497E+04  0.7818609E-02  0.8209591E-01
       -1   -1    0    0    0  501  0.00000000000E+00  0.00000000000E+00  0.10625226988E+04  0.10625226988E+04  0.50400001928E-02 0.  1.
        1   -1    0    0  501    0  0.00000000000E+00  0.00000000000E+00 -0.22940660222E+04  0.22940660222E+04  0.50400001928E-02 0. -1.
    10030    2    1    2    0    0  0.00000000000E+00  0.00000000000E+00 -0.12315433234E+04  0.33565887209E+04  0.31224972192E+04 0.  0.
        2    1    3    3  502    0 -0.64572785091E+03  0.40020060663E+03 -0.20819810486E+04  0.22162513553E+04  0.25500000920E-02 0. -1.
       -2    1    3    3    0  502  0.64572785091E+03 -0.40020060663E+03  0.85043772524E+03  0.11403373656E+04  0.25500000920E-02 0.  1.
</event>
<event>
 5   0  0.1649875E-06  0.3086263E+04  0.7818609E-02  0.8219518E-01
       -3   -1    0    0    0  501  0.00000000000E+00  0.00000000000E+00  0.23848441778E+04  0.23848441799E+04  0.10100000352E+00 0. -1.
        3   -1    0    0  501    0  0.00000000000E+00  0.00000000000E+00 -0.99849475486E+03  0.99849475996E+03  0.10100000352E+00 0.  1.
    10030    2    1    2    0    0  0.00000000000E+00  0.00000000000E+00  0.13863494229E+04  0.33833389399E+04  0.30862627334E+04 0.  0.
        2    1    3    3  502    0  0.48462921793E+03 -0.79279491699E+03 -0.65743294730E+03  0.11382474860E+04  0.25500000920E-02 0.  1.
       -2    1    3    3    0  502 -0.48462921793E+03  0.79279491699E+03  0.20437823702E+04  0.22450914538E+04  0.25500000920E-02 0. -1.
</event>
<event>
 5   0  0.5114870E-06  0.3059361E+04  0.7818609E-02  0.8226980E-01
       -2   -1    0    0    0  501  0.00000000000E+00  0.00000000000E+00  0.22681712461E+04  0.22681712461E+04  0.25500000920E-02 0. -1.
        2   -1    0    0  501    0  0.00000000000E+00  0.00000000000E+00 -0.10316336604E+04  0.10316336604E+04  0.25500000920E-02 0.  1.
    10030    2    1    2    0    0  0.00000000000E+00  0.00000000000E+00  0.12365375857E+04  0.32998049064E+04  0.30593605900E+04 0.  0.
        2    1    3    3  502    0  0.18654692380E+03  0.10544112645E+04  0.17965243626E+04  0.20914307674E+04  0.25500000920E-02 0. -1.
       -2    1    3    3    0  502 -0.18654692380E+03 -0.10544112645E+04 -0.55998677687E+03  0.12083741390E+04  0.25500000920E-02 0.  1.
</event>
<event>
 5   0  0.4900679E-06  0.2545085E+04  0.7818609E-02  0.8387098E-01
       -2   -1    0    0    0  501  0.00000000000E+00  0.00000000000E+00  0.18453502984E+04  0.18453502984E+04  0.25500000920E-02 0.  1.
        2   -1    0    0  501    0  0.00000000000E+00  0.00000000000E+00 -0.87753743693E+03  0.87753743693E+03  0.25500000920E-02 0. -1.
    10030    2    1    2    0    0  0.00000000000E+00  0.00000000000E+00  0.96781286145E+03  0.27228877353E+04  0.25450846517E+04 0.  0.
        4    1    3    3  502    0  0.70197096699E+03  0.18875456565E+03  0.16013718022E+04  0.17586315096E+04  0.12699999809E+01 0.  1.
       -4    1    3    3    0  502 -0.70197096699E+03 -0.18875456565E+03 -0.63355894078E+03  0.96425622575E+03  0.12699999809E+01 0. -1.
</event>
<event>
 5   0  0.5001658E-06  0.3158038E+04  0.7818609E-02  0.8199988E-01
        2   -1    0    0  501    0  0.00000000000E+00  0.00000000000E+00  0.28789365720E+04  0.28789365720E+04  0.25500000920E-02 0. -1.
       -2   -1    0    0    0  501  0.00000000000E+00  0.00000000000E+00 -0.86604915412E+03  0.86604915413E+03  0.25500000920E-02 0.  1.
    10030    2    1    2    0    0  0.00000000000E+00  0.00000000000E+00  0.20128874179E+04  0.37449857261E+04  0.31580377344E+04 0.  0.
        3    1    3    3  502    0 -0.12060067373E+04 -0.70628115549E+03  0.18778804466E+04  0.23408802410E+04  0.10100000352E+00 0. -1.
       -3    1    3    3    0  502  0.12060067373E+04  0.70628115549E+03  0.13500697134E+03  0.14041054852E+04  0.10100000352E+00 0.  1.
</event>
<event>
 5   0  0.1840431E-06  0.2886005E+04  0.7818609E-02  0.8277054E-01
        1   -1    0    0  501    0  0.00000000000E+00  0.00000000000E+00  0.19095274181E+04  0.19095274181E+04  0.50400001928E-02 0.  1.
       -1   -1    0    0    0  501  0.00000000000E+00  0.00000000000E+00 -0.10904565342E+04  0.10904565342E+04  0.50400001928E-02 0. -1.
    10030    2    1    2    0    0  0.00000000000E+00  0.00000000000E+00  0.81907088398E+03  0.29999839523E+04  0.28860053017E+04 0.  0.
        1    1    3    3  502    0 -0.10322632516E+03 -0.13989106371E+04  0.76150803451E+03  0.15960893244E+04  0.50400001928E-02 0.  1.
       -1    1    3    3    0  502  0.10322632516E+03  0.13989106371E+04  0.57562849465E+02  0.14038946280E+04  0.50400001928E-02 0. -1.
</event>
<event>
 5   0  0.1885307E-06  0.3112856E+04  0.7818609E-02  0.8212219E-01
        1   -1    0    0  501    0  0.00000000000E+00  0.00000000000E+00  0.12975193746E+04  0.12975193746E+04  0.50400001928E-02 0. -1.
       -1   -1    0    0    0  501  0.00000000000E+00  0.00000000000E+00 -0.18669992446E+04  0.18669992446E+04  0.50400001928E-02 0.  1.
    10030    2    1    2    0    0  0.00000000000E+00  0.00000000000E+00 -0.56947987006E+03  0.31645186192E+04  0.31128557257E+04 0.  0.
        3    1    3    3  502    0  0.13956729169E+04  0.34753029334E+03 -0.88941198797E+03  0.16910747737E+04  0.10100000352E+00 0.  1.
       -3    1    3    3    0  502 -0.13956729169E+04 -0.34753029334E+03  0.31993211791E+03  0.14734438455E+04  0.10100000352E+00 0. -1.
</event>
<event>
 5   0  0.1853742E-06  0.3143290E+04  0.7818609E-02  0.8203957E-01
       -1   -1    0    0    0  501  0.00000000000E+00  0.00000000000E+00  0.11870132970E+04  0.11870132970E+04  0.50400001928E-02 0.  1.
        1   -1    0    0  501    0  0.00000000000E+00  0.00000000000E+00 -0.20809100273E+04  0.20809100273E+04  0.50400001928E-02 0. -1.
    10030    2    1    2    0    0  0.00000000000E+00  0.00000000000E+00 -0.89389673032E+03  0.32679233243E+04  0.31432899149E+04 0.  0.
        5    1    3    3  502    0  0.46073764553E+03 -0.10543048582E+04  0.66611300913E+03  0.13294986059E+04  0.46999998093E+01 0.  1.
       -5    1    3    3    0  502 -0.46073764553E+03  0.10543048582E+04 -0.15600097395E+04  0.19384247185E+04  0.46999998093E+01 0. -1.
</event>
<event>
 5   0  0.1853742E-06  0.3098059E+04  0.7818609E-02  0.8216271E-01
        1   -1    0    0  501    0  0.00000000000E+00  0.00000000000E+00  0.14871984844E+04  0.14871984845E+04  0.50400001928E-02 0. -1.
       -1   -1    0    0    0  501  0.00000000000E+00  0.00000000000E+00 -0.16134316598E+04  0.16134316598E+04  0.50400001928E-02 0.  1.
    10030    2    1    2    0    0  0.00000000000E+00  0.00000000000E+00 -0.12623317533E+03  0.31006301442E+04  0.30980594695E+04 0.  0.
        5    1    3    3  502    0 -0.15399826524E+04  0.10122923909E+03 -0.19618216757E+03  0.15557324518E+04  0.46999998093E+01 0.  1.
       -5    1    3    3    0  502  0.15399826524E+04 -0.10122923909E+03  0.69948992246E+02  0.15448976925E+04  0.46999998093E+01 0. -1.
</event>
<event>
 5   0  0.5114870E-06  0.2697812E+04  0.7818609E-02  0.8335715E-01
        2   -1    0    0  501    0  0.00000000000E+00  0.00000000000E+00  0.11661305076E+04  0.11661305076E+04  0.25500000920E-02 0. -1.
       -2   -1    0    0    0  501  0.00000000000E+00  0.00000000000E+00 -0.15603285716E+04  0.15603285716E+04  0.25500000920E-02 0.  1.
    10030    2    1    2    0    0  0.00000000000E+00  0.00000000000E+00 -0.39419806401E+03  0.27264590792E+04  0.26978115199E+04 0.  0.
        2    1    3    3  502    0 -0.76797387940E+03  0.72579038649E+02 -0.13154185745E+04  0.15249188904E+04  0.25500000920E-02 0.  1.
       -2    1    3    3    0  502  0.76797387940E+03 -0.72579038649E+02  0.92122051045E+03  0.12015401887E+04  0.25500000920E-02 0. -1.
</event>
<event>
 5   0  0.5114870E-06  0.3090960E+04  0.7818609E-02  0.8218223E-01
        2   -1    0    0  501    0  0.00000000000E+00  0.00000000000E+00  0.12611688824E+04  0.12611688824E+04  0.25500000920E-02 0. -1.
       -2   -1    0    0    0  501  0.00000000000E+00  0.00000000000E+00 -0.18938843428E+04  0.18938843428E+04  0.25500000920E-02 0.  1.
    10030    2    1    2    0    0  0.00000000000E+00  0.00000000000E+00 -0.63271546043E+03  0.31550532252E+04  0.30909597216E+04 0.  0.
        2    1    3    3  502    0 -0.22701297280E+03  0.13733803507E+04  0.36898067244E+03  0.14400886133E+04  0.25500000920E-02 0.  1.
       -2    1    3    3    0  502  0.22701297280E+03 -0.13733803507E+04 -0.10016961329E+04  0.17149646119E+04  0.25500000920E-02 0. -1.
</event>
<event>
 5   0  0.1885307E-06  0.2933345E+04  0.7818609E-02  0.8263025E-01
        1   -1    0    0  501    0  0.00000000000E+00  0.00000000000E+00  0.16404840086E+04  0.16404840086E+04  0.50400001928E-02 0.  1.
       -1   -1    0    0    0  501  0.00000000000E+00  0.00000000000E+00 -0.13112768603E+04  0.13112768603E+04  0.50400001928E-02 0. -1.
    10030    2    1    2    0    0  0.00000000000E+00  0.00000000000E+00  0.32920714824E+03  0.29517608689E+04  0.29333453395E+04 0.  0.
        3    1    3    3  502    0 -0.85096603544E+03  0.30070878862E+03  0.13279583144E+04  0.16056283082E+04  0.10100000352E+00 0.  1.
       -3    1    3    3    0  502  0.85096603544E+03 -0.30070878862E+03 -0.99875116616E+03  0.13461325608E+04  0.10100000352E+00 0. -1.
</event>
<event>
 5   0  0.1840431E-06  0.3094816E+04  0.7818609E-02  0.8217162E-01
        1   -1    0    0  501    0  0.00000000000E+00  0.00000000000E+00  0.19704970602E+04  0.19704970602E+04  0.50400001928E-02 0. -1.
       -1   -1    0    0    0  501  0.00000000000E+00  0.00000000000E+00 -0.12151611968E+04  0.12151611968E+04  0.50400001928E-02 0.  1.
    10030    2    1    2    0    0  0.00000000000E+00  0.00000000000E+00  0.75533586336E+03  0.31856582570E+04  0.30948160307E+04 0.  0.
        1    1    3    3  502    0  0.90434023454E+03  0.34745982295E+03  0.16196974186E+04  0.18873206713E+04  0.50400001928E-02 0. -1.
       -1    1    3    3    0  502 -0.90434023454E+03 -0.34745982295E+03 -0.86436155524E+03  0.12983375858E+04  0.50400001928E-02 0.  1.
</event>
<event>
 5   0  0.5001658E-06  0.3160676E+04  0.7818609E-02  0.8199281E-01
       -2   -1    0    0    0  501  0.00000000000E+00  0.00000000000E+00  0.14512925987E+04  0.14512925987E+04  0.25500000920E-02 0. -1.
        2   -1    0    0  501    0  0.00000000000E+00  0.00000000000E+00 -0.17208573307E+04  0.17208573307E+04  0.25500000920E-02 0.  1.
    10030    2    1    2    0    0  0.00000000000E+00  0.00000000000E+00 -0.26956473197E+03  0.31721499295E+04  0.31606755655E+04 0.  0.
        3    1    3    3  502    0 -0.12424626789E+04  0.97242483531E+03 -0.44211032638E+02  0.15783783433E+04  0.10100000352E+00 0.  1.
       -3    1    3    3    0  502  0.12424626789E+04 -0.97242483531E+03 -0.22535369933E+03  0.15937715862E+04  0.10100000352E+00 0. -1.
</event>
<event>
 5   0  0.4927533E-06  0.3098564E+04  0.7818609E-02  0.8216132E-01
       -2   -1    0    0    0  501  0.00000000000E+00  0.00000000000E+00  0.14167079953E+04  0.14167079953E+04  0.25500000920E-02 0.  1.
        2   -1    0    0  501    0  0.00000000000E+00  0.00000000000E+00 -0.16942625760E+04  0.16942625760E+04  0.25500000920E-02 0. -1.
    10030    2    1    2    0    0  0.00000000000E+00  0.00000000000E+00 -0.27755458067E+03  0.31109705712E+04  0.30985644014E+04 0.  0.
        5    1    3    3  502    0  0.10973520442E+04 -0.25239405733E+03  0.92961158528E+03  0.14601657641E+04  0.46999998093E+01 0. -1.
       -5    1    3    3    0  502 -0.10973520442E+04  0.25239405733E+03 -0.12071661659E+04  0.16508048072E+04  0.46999998093E+01 0.  1.
</event>
<event>
 5   0  0.1836401E-06  0.3121560E+04  0.7818609E-02  0.8209846E-01
       -1   -1    0    0    0  501  0.00000000000E+00  0.00000000000E+00  0.11936101841E+04  0.11936101841E+04  0.50400001928E-02 0.  1.
        1   -1    0    0  501    0  0.00000000000E+00  0.00000000000E+00 -0.20408962845E+04  0.20408962845E+04  0.50400001928E-02 0. -1.
    10030    2    1    2    0    0  0.00000000000E+00  0.00000000000E+00 -0.84728610046E+03  0.32345064686E+04  0.31215602444E+04 0.  0.
        2    1    3    3  502    0 -0.39095197583E+03 -0.10677500161E+04  0.68420096021E+03  0.13270510533E+04  0.25500000920E-02 0.  1.
       -2    1    3    3    0  502  0.39095197583E+03  0.10677500161E+04 -0.15314870607E+04  0.19074554153E+04  0.25500000920E-02 0. -1.
</event>
<event>
 5   0  0.1836401E-06  0.3053672E+04  0.7818609E-02  0.8228568E-01
       -1   -1    0    0    0  501  0.00000000000E+00  0.00000000000E+00  0.12185342004E+04  0.12185342004E+04  0.50400001928E-02 0. -1.
        1   -1    0    0  501    0  0.00000000000E+00  0.00000000000E+00 -0.19131418707E+04  0.19131418707E+04  0.50400001928E-02 0.  1.
    10030    2    1    2    0    0  0.00000000000E+00  0.00000000000E+00 -0.69460767027E+03  0.31316760711E+04  0.30536724118E+04 0.  0.
        2    1    3    3  502    0  0.87918324883E+02  0.15241362654E+04 -0.32419351271E+03  0.15607121519E+04  0.25500000920E-02 0. -1.
       -2    1    3    3    0  502 -0.87918324883E+02 -0.15241362654E+04 -0.37041415756E+03  0.15709639192E+04  0.25500000920E-02 0.  1.
</event>
<event>
 5   0  0.1885307E-06  0.3136695E+04  0.7818609E-02  0.8205739E-01
        1   -1    0    0  501    0  0.00000000000E+00  0.00000000000E+00  0.16555057183E+04  0.16555057183E+04  0.50400001928E-02 0. -1.
       -1   -1    0    0    0  501  0.00000000000E+00  0.00000000000E+00 -0.14857782305E+04  0.14857782305E+04  0.50400001928E-02 0.  1.
    10030    2    1    2    0    0  0.00000000000E+00  0.00000000000E+00  0.16972748779E+03  0.31412839488E+04  0.31366953035E+04 0.  0.
        3    1    3    3  502    0 -0.10750202123E+04 -0.14531813466E+03  0.12191850590E+04  0.16319307692E+04  0.10100000352E+00 0. -1.
       -3    1    3    3    0  502  0.10750202123E+04  0.14531813466E+03 -0.10494575712E+04  0.15093531797E+04  0.10100000352E+00 0.  1.
</event>
<event>
 5   0  0.5001658E-06  0.3135130E+04  0.7818609E-02  0.8206162E-01
       -2   -1    0    0    0  501  0.00000000000E+00  0.00000000000E+00  0.10464036273E+04  0.10464036273E+04  0.25500000920E-02 0. -1.
        2   -1    0    0  501    0  0.00000000000E+00  0.00000000000E+00 -0.23482913002E+04  0.23482913002E+04  0.25500000920E-02 0.  1.
    10030    2    1    2    0    0  0.00000000000E+00  0.00000000000E+00 -0.13018876729E+04  0.33946949275E+04  0.31351303223E+04 0.  0.
        3    1    3    3  502    0 -0.93939304998E+03  0.10460549605E+04  0.99682140878E+02  0.14094774997E+04  0.10100000352E+00 0. -1.
       -3    1    3    3    0  502  0.93939304998E+03 -0.10460549605E+04 -0.14015698138E+04  0.19852174278E+04  0.10100000352E+00 0.  1.
</event>
<event>
 5   0  0.1853742E-06  0.3066492E+04  0.7818609E-02  0.8224995E-01
       -1   -1    0    0    0  501  0.00000000000E+00  0.00000000000E+00  0.34476039810E+04  0.34476039810E+04  0.50400001928E-02 0.  1.
        1   -1    0    0  501    0  0.00000000000E+00  0.00000000000E+00 -0.68187733110E+03  0.68187733112E+03  0.50400001928E-02 0. -1.
    10030    2    1    2    0    0  0.00000000000E+00  0.00000000000E+00  0.27657266499E+04  0.41294813121E+04  0.30664918075E+04 0.  0.
        5    1    3    3  502    0 -0.69393246885E+03  0.33299545263E+03  0.31685761941E+04  0.32607246787E+04  0.46999998093E+01 0.  1.
       -5    1    3    3    0  502  0.69393246885E+03 -0.33299545263E+03 -0.40284954418E+03  0.86875663338E+03  0.46999998093E+01 0. -1.
</event>
<event>
 5   0  0.1843709E-06  0.3141234E+04  0.7818609E-02  0.8204512E-01
       -1   -1    0    0    0  501  0.00000000000E+00  0.00000000000E+00  0.12002685439E+04  0.12002685439E+04  0.50400001928E-02 0. -1.
        1   -1    0    0  501    0  0.00000000000E+00  0.00000000000E+00 -0.20552386039E+04  0.20552386039E+04  0.50400001928E-02 0.  1.
    10030    2    1    2    0    0  0.00000000000E+00  0.00000000000E+00 -0.85497005996E+03  0.32555071478E+04  0.31412343093E+04 0.  0.
        4    1    3    3  502    0 -0.93221525090E+03  0.24183002130E+03 -0.17133167386E+04  0.19654421622E+04  0.12699999809E+01 0.  1.
       -4    1    3    3    0  502  0.93221525090E+03 -0.24183002130E+03  0.85834667869E+03  0.12900649855E+04  0.12699999809E+01 0. -1.
</event>
<event>
 5   0  0.5001658E-06  0.3064984E+04  0.7818609E-02  0.8225414E-01
        2   -1    0    0  501    0  0.00000000000E+00  0.00000000000E+00  0.18005158786E+04  0.18005158787E+04  0.25500000920E-02 0.  1.
       -2   -1    0    0    0  501  0.00000000000E+00  0.00000000000E+00 -0.13043662760E+04  0.13043662760E+04  0.25500000920E-02 0. -1.
    10030    2    1    2    0    0  0.00000000000E+00  0.00000000000E+00  0.49614960260E+03  0.31048821547E+04  0.30649843012E+04 0.  0.
        3    1    3    3  502    0 -0.10771112728E+04  0.21354934663E+03  0.13309899105E+04  0.17254872267E+04  0.10100000352E+00 0.  1.
       -3    1    3    3    0  502  0.10771112728E+04 -0.21354934663E+03 -0.83484030788E+03  0.13793949280E+04  0.10100000352E+00 0. -1.
</event>
<event>
 5   0  0.4927533E-06  0.2934335E+04  0.7818609E-02  0.8262734E-01
       -2   -1    0    0    0  501  0.00000000000E+00  0.00000000000E+00  0.11933000660E+04  0.11933000660E+04  0.25500000920E-02 0.  1.
        2   -1    0    0  501    0  0.00000000000E+00  0.00000000000E+00 -0.18038887110E+04  0.18038887110E+04  0.25500000920E-02 0. -1.
    10030    2    1    2    0    0  0.00000000000E+00  0.00000000000E+00 -0.61058864494E+03  0.29971887770E+04  0.29343350306E+04 0.  0.
        5    1    3    3  502    0 -0.12133661623E+04 -0.20723562206E+03 -0.11207397223E+04  0.16647172919E+04  0.46999998093E+01 0. -1.
       -5    1    3    3    0  502  0.12133661623E+04  0.20723562206E+03  0.51015107739E+03  0.13324714851E+04  0.46999998093E+01 0.  1.
</event>
<event>
 5   0  0.4927533E-06  0.3011175E+04  0.7818609E-02  0.8240547E-01
        2   -1    0    0  501    0  0.00000000000E+00  0.00000000000E+00  0.22925677802E+04  0.22925677802E+04  0.25500000920E-02 0.  1.
       -2   -1    0    0    0  501  0.00000000000E+00  0.00000000000E+00 -0.98875744135E+03  0.98875744135E+03  0.25500000920E-02 0. -1.
    10030    2    1    2    0    0  0.00000000000E+00  0.00000000000E+00  0.13038103388E+04  0.32813252215E+04  0.30111748222E+04 0.  0.
        5    1    3    3  502    0 -0.19577518141E+03  0.11659520585E+04 -0.36392943762E+03  0.12370282333E+04  0.46999998093E+01 0.  1.
       -5    1    3    3    0  502  0.19577518141E+03 -0.11659520585E+04  0.16677397764E+04  0.20442969883E+04  0.46999998093E+01 0. -1.
</event>
<event>
 5   0  0.4927533E-06  0.3158261E+04  0.7818609E-02  0.8199928E-01
       -2   -1    0    0    0  501  0.00000000000E+00  0.00000000000E+00  0.10934177811E+04  0.10934177811E+04  0.25500000920E-02 0. -1.
        2   -1    0    0  501    0  0.00000000000E+00  0.00000000000E+00 -0.22806041246E+04  0.22806041246E+04  0.25500000920E-02 0.  1.
    10030    2    1    2    0    0  0.00000000000E+00  0.00000000000E+00 -0.11871863435E+04  0.33740219057E+04  0.31582609781E+04 0.  0.
        5    1    3    3  502    0  0.14754441970E+03 -0.22476042276E+03 -0.22559649872E+04  0.22719345758E+04  0.46999998093E+01 0.  1.
       -5    1    3    3    0  502 -0.14754441970E+03  0.22476042276E+03  0.10687786437E+04  0.11020873299E+04  0.46999998093E+01 0. -1.
</event>
<event>
 5   0  0.5114870E-06  0.3114930E+04  0.7818609E-02  0.8211653E-01
        2   -1    0    0  501    0  0.00000000000E+00  0.00000000000E+00  0.11199506992E+04  0.11199506992E+04  0.25500000920E-02 0.  1.
       -2   -1    0    0    0  501  0.00000000000E+00  0.00000000000E+00 -0.21658959515E+04  0.21658959515E+04  0.25500000920E-02 0. -1.
    10030    2    1    2    0    0  0.00000000000E+00  0.00000000000E+00 -0.10459452523E+04  0.32858466507E+04  0.31149296526E+04 0.  0.
        2    1    3    3  502    0  0.12366955281E+04 -0.94459040843E+03 -0.45600858210E+03  0.16216074420E+04  0.25500000920E-02 0. -1.
       -2    1    3    3    0  502 -0.12366955281E+04  0.94459040843E+03 -0.58993667020E+03  0.16642392087E+04  0.25500000920E-02 0.  1.
</event>
<event>
 5   0  0.4900679E-06  0.3145277E+04  0.7818609E-02  0.8203421E-01
       -2   -1    0    0    0  501  0.00000000000E+00  0.00000000000E+00  0.18683898898E+04  0.18683898898E+04  0.25500000920E-02 0. -1.
        2   -1    0    0  501    0  0.00000000000E+00  0.00000000000E+00 -0.13237020623E+04  0.13237020623E+04  0.25500000920E-02 0.  1.
    10030    2    1    2    0    0  0.00000000000E+00  0.00000000000E+00  0.54468782750E+03  0.31920919520E+04  0.31452768083E+04 0.  0.
        4    1    3    3  502    0 -0.58286836228E+03  0.11598562675E+04 -0.62866977282E+03  0.14423000330E+04  0.12699999809E+01 0.  1.
       -4    1    3    3    0  502  0.58286836228E+03 -0.11598562675E+04  0.11733576003E+04  0.17497919191E+04  0.12699999809E+01 0. -1.
</event>
<event>
 5   0  0.4927533E-06  0.3085220E+04  0.7818609E-02  0.8219806E-01
       -2   -1    0    0    0  501  0.00000000000E+00  0.00000000000E+00  0.17942438441E+04  0.17942438441E+04  0.25500000920E-02 0. -1.
        2   -1    0    0  501    0  0.00000000000E+00  0.00000000000E+00 -0.13262662489E+04  0.13262662489E+04  0.25500000920E-02 0.  1.
    10030    2    1    2    0    0  0.00000000000E+00  0.00000000000E+00  0.46797759526E+03  0.31205100930E+04  0.30852196374E+04 0.  0.
        5    1    3    3  502    0  0.41785812432E+03 -0.12609607426E+04 -0.55919803037E+03  0.14413021660E+04  0.46999998093E+01 0. -1.
       -5    1    3    3    0  502 -0.41785812432E+03  0.12609607426E+04  0.10271756256E+04  0.16792079271E+04  0.46999998093E+01 0.  1.
</event>
<event>
 5   0  0.4927533E-06  0.2850931E+04  0.7818609E-02  0.8287629E-01
       -2   -1    0    0    0  501  0.00000000000E+00  0.00000000000E+00  0.89861884077E+03  0.89861884077E+03  0.25500000920E-02 0.  1.
        2   -1    0    0  501    0  0.00000000000E+00  0.00000000000E+00 -0.22611940354E+04  0.22611940354E+04  0.25500000920E-02 0. -1.
    10030    2    1    2    0    0  0.00000000000E+00  0.00000000000E+00 -0.13625751946E+04  0.31598128761E+04  0.28509307693E+04 0.  0.
        5    1    3    3  502    0 -0.12453167842E+04 -0.67781824553E+03 -0.51810104822E+03  0.15095370989E+04  0.46999998093E+01 0. -1.
       -5    1    3    3    0  502  0.12453167842E+04  0.67781824553E+03 -0.84447414638E+03  0.16502757772E+04  0.46999998093E+01 0.  1.
</event>
<event>
 5   0  0.5328368E-06  0.2922323E+04  0.7818609E-02  0.8266266E-01
       -2   -1    0    0    0  501  0.00000000000E+00  0.00000000000E+00  0.10070920230E+04  0.10070920230E+04  0.25500000920E-02 0.  1.
        2   -1    0    0  501    0  0.00000000000E+00  0.00000000000E+00 -0.21199585022E+04  0.21199585022E+04  0.25500000920E-02 0. -1.
    10030    2    1    2    0    0  0.00000000000E+00  0.00000000000E+00 -0.11128664792E+04  0.31270505252E+04  0.29223232516E+04 0.  0.
        1    1    3    3  502    0  0.35432064381E+03  0.13254174061E+04 -0.10943628948E+04  0.17549656876E+04  0.50400001928E-02 0. -1.
       -1    1    3    3    0  502 -0.35432064381E+03 -0.13254174061E+04 -0.18503584390E+02  0.13720848376E+04  0.50400001928E-02 0.  1.
</event>
<event>
 5   0  0.5328368E-06  0.3001103E+04  0.7818609E-02  0.8243416E-01
       -2   -1    0    0    0  501  0.00000000000E+00  0.00000000000E+00  0.15636963796E+04  0.15636963796E+04  0.25500000920E-02 0. -1.
        2   -1    0    0  501    0  0.00000000000E+00  0.00000000000E+00 -0.14399563319E+04  0.14399563319E+04  0.25500000920E-02 0.  1.
    10030    2    1    2    0    0  0.00000000000E+00  0.00000000000E+00  0.12374004772E+03  0.30036527114E+04  0.30011027992E+04 0.  0.
        1    1    3    3  502    0  0.89443711290E+03 -0.31936431549E+03 -0.11008585058E+04  0.14539259832E+04  0.50400001928E-02 0.  1.
       -1    1    3    3    0  502 -0.89443711290E+03  0.31936431549E+03  0.12245985535E+04  0.15497267282E+04  0.50400001928E-02 0. -1.
</event>
<event>
 5   0  0.1836401E-06  0.3188299E+04  0.7818609E-02  0.8191914E-01
       -1   -1    0    0    0  501  0.00000000000E+00  0.00000000000E+00  0.79181253044E+03  0.79181253046E+03  0.50400001928E-02 0.  1.
        1   -1    0    0  501    0  0.00000000000E+00  0.00000000000E+00 -0.32094874830E+04  0.32094874830E+04  0.50400001928E-02 0. -1.
    10030    2    1    2    0    0  0.00000000000E+00  0.00000000000E+00 -0.24176749526E+04  0.40013000135E+04  0.31882988602E+04 0.  0.
        2    1    3    3  502    0  0.48843781675E+03  0.12098462503E+04 -0.59291289781E+02  0.13060684926E+04  0.25500000920E-02 0.  1.
       -2    1    3    3    0  502 -0.48843781675E+03 -0.12098462503E+04 -0.23583836628E+04  0.26952315209E+04  0.25500000920E-02 0. -1.
</event>
<event>
 5   0  0.5001658E-06  0.3103502E+04  0.7818609E-02  0.8214777E-01
       -2   -1    0    0    0  501  0.00000000000E+00  0.00000000000E+00  0.13502689493E+04  0.13502689493E+04  0.25500000920E-02 0. -1.
        2   -1    0    0  501    0  0.00000000000E+00  0.00000000000E+00 -0.17832976783E+04  0.17832976783E+04  0.25500000920E-02 0.  1.
    10030    2    1    2    0    0  0.00000000000E+00  0.00000000000E+00 -0.43302872900E+03  0.31335666277E+04  0.31035022039E+04 0.  0.
        3    1    3    3  502    0  0.25985007166E+03 -0.91268648003E+02 -0.17584226633E+04  0.17798601908E+04  0.10100000352E+00 0.  1.
       -3    1    3    3    0  502 -0.25985007166E+03  0.91268648003E+02  0.13253939343E+04  0.13537064368E+04  0.10100000352E+00 0. -1.
</event>
<event>
 5   0  0.1843709E-06  0.2990612E+04  0.7818609E-02  0.8246417E-01
       -1   -1    0    0    0  501  0.00000000000E+00  0.00000000000E+00  0.16491993307E+04  0.16491993307E+04  0.50400001928E-02 0.  1.
        1   -1    0    0  501    0  0.00000000000E+00  0.00000000000E+00 -0.13557726556E+04  0.13557726556E+04  0.50400001928E-02 0. -1.
    10030    2    1    2    0    0  0.00000000000E+00  0.00000000000E+00  0.29342667509E+03  0.30049719863E+04  0.29906115469E+04 0.  0.
        4    1    3    3  502    0  0.30315168164E+03 -0.13812105679E+04 -0.34172182755E+03  0.14547917360E+04  0.12699999809E+01 0. -1.
       -4    1    3    3    0  502 -0.30315168164E+03  0.13812105679E+04  0.63514850263E+03  0.15501802502E+04  0.12699999809E+01 0.  1.
</event>
<event>
 5   0  0.1840431E-06  0.2912330E+04  0.7818609E-02  0.8269218E-01
        1   -1    0    0  501    0  0.00000000000E+00  0.00000000000E+00  0.86133646851E+03  0.86133646853E+03  0.50400001928E-02 0.  1.
       -1   -1    0    0    0  501  0.00000000000E+00  0.00000000000E+00 -0.24617744385E+04  0.24617744385E+04  0.50400001928E-02 0. -1.
    10030    2    1    2    0    0  0.00000000000E+00  0.00000000000E+00 -0.16004379700E+04  0.33231109071E+04  0.29123297212E+04 0.  0.
        1    1    3    3  502    0 -0.23461467236E+03  0.12454036323E+04 -0.16185522859E+04  0.20556716066E+04  0.50400001928E-02 0. -1.
       -1    1    3    3    0  502  0.23461467236E+03 -0.12454036323E+04  0.18114315874E+02  0.12674393005E+04  0.50400001928E-02 0.  1.
</event>
<event>
 5   0  0.1853742E-06  0.2985447E+04  0.7818609E-02  0.8247899E-01
       -1   -1    0    0    0  501  0.00000000000E+00  0.00000000000E+00  0.98069244125E+03  0.98069244127E+03  0.50400001928E-02 0. -1.
        1   -1    0    0  501    0  0.00000000000E+00  0.00000000000E+00 -0.22720916902E+04  0.22720916902E+04  0.50400001928E-02 0.  1.
    10030    2    1    2    0    0  0.00000000000E+00  0.00000000000E+00 -0.12913992489E+04  0.32527841314E+04  0.29854467983E+04 0.  0.
        5    1    3    3  502    0 -0.62561621714E+03  0.12357311975E+04 -0.39286967954E+02  0.13856380478E+04  0.46999998093E+01 0. -1.
       -5    1    3    3    0  502  0.62561621714E+03 -0.12357311975E+04 -0.12521122810E+04  0.18671460837E+04  0.46999998093E+01 0.  1.
</event>
<event>
 5   0  0.4900679E-06  0.3102435E+04  0.7818609E-02  0.8215070E-01
        2   -1    0    0  501    0  0.00000000000E+00  0.00000000000E+00  0.16617998421E+04  0.16617998421E+04  0.25500000920E-02 0.  1.
       -2   -1    0    0    0  501  0.00000000000E+00  0.00000000000E+00 -0.14479939482E+04  0.14479939482E+04  0.25500000920E-02 0. -1.
    10030    2    1    2    0    0  0.00000000000E+00  0.00000000000E+00  0.21380589383E+03  0.31097937903E+04  0.31024352464E+04 0.  0.
        4    1    3    3  502    0 -0.58147664497E+03 -0.14228817104E+04  0.31612523598E+03  0.15692814369E+04  0.12699999809E+01 0.  1.
       -4    1    3    3    0  502  0.58147664497E+03  0.14228817104E+04 -0.10231934215E+03  0.15405123534E+04  0.12699999809E+01 0. -1.
</event>
<event>
 5   0  0.1836401E-06  0.3074443E+04  0.7818609E-02  0.8222787E-01
        1   -1    0    0  501    0  0.00000000000E+00  0.00000000000E+00  0.18872441709E+04  0.18872441709E+04  0.50400001928E-02 0. -1.
       -1   -1    0    0    0  501  0.00000000000E+00  0.00000000000E+00 -0.12521167949E+04  0.12521167949E+04  0.50400001928E-02 0.  1.
    10030    2    1    2    0    0  0.00000000000E+00  0.00000000000E+00  0.63512737607E+03  0.31393609658E+04  0.30744431186E+04 0.  0.
        2    1    3    3  502    0 -0.58729267730E+03 -0.11538203588E+04 -0.52869145473E+03  0.13984737264E+04  0.25500000920E-02 0.  1.
       -2    1    3    3    0  502  0.58729267730E+03  0.11538203588E+04  0.11638188308E+04  0.17408872394E+04  0.25500000920E-02 0. -1.
</event>
<event>
 5   0  0.5114870E-06  0.3136791E+04  0.7818609E-02  0.8205713E-01
       -2   -1    0    0    0  501  0.00000000000E+00  0.00000000000E+00  0.16465868535E+04  0.16465868535E+04  0.25500000920E-02 0.  1.
        2   -1    0    0  501    0  0.00000000000E+00  0.00000000000E+00 -0.14939174762E+04  0.14939174762E+04  0.25500000920E-02 0. -1.
    10030    2    1    2    0    0  0.00000000000E+00  0.00000000000E+00  0.15266937733E+03  0.31405043298E+04  0.31367912756E+04 0.  0.
        2    1    3    3  502    0  0.93099544416E+03  0.27221394995E+03  0.13102756093E+04  0.16302377507E+04  0.25500000920E-02 0.  1.
       -2    1    3    3    0  502 -0.93099544416E+03 -0.27221394995E+03 -0.11576062319E+04  0.15102665791E+04  0.25500000920E-02 0. -1.
</event>
<event>
 5   0  0.5328368E-06  0.2812230E+04  0.7818609E-02  0.8299481E-01
       -2   -1    0    0    0  501  0.00000000000E+00  0.00000000000E+00  0.14676387546E+04  0.14676387546E+04  0.25500000920E-02 0. -1.
        2   -1    0    0  501    0  0.00000000000E+00  0.00000000000E+00 -0.13471707565E+04  0.13471707565E+04  0.25500000920E-02 0.  1.
    10030    2    1    2    0    0  0.00000000000E+00  0.00000000000E+00  0.12046799807E+03  0.28148095111E+04  0.28122304396E+04 0.  0.
        1    1    3    3  502    0 -0.68439814636E+03 -0.40995705451E+03  0.12191794712E+04  0.14570052136E+04  0.50400001928E-02 0. -1.
       -1    1    3    3    0  502  0.68439814636E+03  0.40995705451E+03 -0.10987114731E+04  0.13578042976E+04  0.50400001928E-02 0.  1.
</event>
<event>
 5   0  0.4927533E-06  0.3081749E+04  0.7818609E-02  0.8220765E-01
       -2   -1    0    0    0  501  0.00000000000E+00  0.00000000000E+00  0.15397191343E+04  0.15397191343E+04  0.25500000920E-02 0.  1.
        2   -1    0    0  501    0  0.00000000000E+00  0.00000000000E+00 -0.15420306864E+04  0.15420306864E+04  0.25500000920E-02 0. -1.
    10030    2    1    2    0    0  0.00000000000E+00  0.00000000000E+00 -0.23115520655E+01  0.30817498208E+04  0.30817489538E+04 0.  0.
        5    1    3    3  502    0 -0.15208744799E+04 -0.21132948506E+03 -0.12981322089E+03  0.15409714135E+04  0.46999998093E+01 0.  1.
       -5    1    3    3    0  502  0.15208744799E+04  0.21132948506E+03  0.12750166882E+03  0.15407784073E+04  0.46999998093E+01 0. -1.
</event>
<event>
 5   0  0.1836401E-06  0.3001084E+04  0.7818609E-02  0.8243421E-01
        1   -1    0    0  501    0  0.00000000000E+00  0.00000000000E+00  0.15823935933E+04  0.15823935933E+04  0.50400001928E-02 0. -1.
       -1   -1    0    0    0  501  0.00000000000E+00  0.00000000000E+00 -0.14229244986E+04  0.14229244987E+04  0.50400001928E-02 0.  1.
    10030    2    1    2    0    0  0.00000000000E+00  0.00000000000E+00  0.15946909468E+03  0.30053180920E+04  0.30010842111E+04 0.  0.
        2    1    3    3  502    0 -0.12182972495E+04 -0.18406860081E+03  0.93738730001E+03  0.15481680749E+04  0.25500000920E-02 0. -1.
       -2    1    3    3    0  502  0.12182972495E+04  0.18406860081E+03 -0.77791820533E+03  0.14571500171E+04  0.25500000920E-02 0.  1.
</event>
<event>
 5   0  0.1843709E-06  0.3066621E+04  0.7818609E-02  0.8224959E-01
        1   -1    0    0  501    0  0.00000000000E+00  0.00000000000E+00  0.18301610717E+04  0.18301610717E+04  0.50400001928E-02 0.  1.
       -1   -1    0    0    0  501  0.00000000000E+00  0.00000000000E+00 -0.12846085562E+04  0.12846085562E+04  0.50400001928E-02 0. -1.
    10030    2    1    2    0    0  0.00000000000E+00  0.00000000000E+00  0.54555251554E+03  0.31147696279E+04  0.30666206625E+04 0.  0.
        4    1    3    3  502    0 -0.95481433292E+03 -0.70705548061E+03 -0.71168958180E+03  0.13849554277E+04  0.12699999809E+01 0. -1.
       -4    1    3    3    0  502  0.95481433292E+03  0.70705548061E+03  0.12572420973E+04  0.17298142002E+04  0.12699999809E+01 0.  1.
</event>
<event>
 5   0  0.4900679E-06  0.3117120E+04  0.7818609E-02  0.8211055E-01
        2   -1    0    0  501    0  0.00000000000E+00  0.00000000000E+00  0.14006559651E+04  0.14006559651E+04  0.25500000920E-02 0.  1.
       -2   -1    0    0    0  501  0.00000000000E+00  0.00000000000E+00 -0.17342652212E+04  0.17342652212E+04  0.25500000920E-02 0. -1.
    10030    2    1    2    0    0  0.00000000000E+00  0.00000000000E+00 -0.33360925604E+03  0.31349211863E+04  0.31171197777E+04 0.  0.
        4    1    3    3  502    0 -0.10495401935E+04 -0.72609112484E+03  0.73293533575E+03  0.14717128655E+04  0.12699999809E+01 0.  1.
       -4    1    3    3    0  502  0.10495401935E+04  0.72609112484E+03 -0.10665445918E+04  0.16632083208E+04  0.12699999809E+01 0. -1.
</event>
<event>
 5   0  0.5001658E-06  0.3099986E+04  0.7818609E-02  0.8215742E-01
       -2   -1    0    0    0  501  0.00000000000E+00  0.00000000000E+00  0.93796759512E+03  0.93796759512E+03  0.25500000920E-02 0. -1.
        2   -1    0    0  501    0  0.00000000000E+00  0.00000000000E+00 -0.25613656829E+04  0.25613656829E+04  0.25500000920E-02 0.  1.
    10030    2    1    2    0    0  0.00000000000E+00  0.00000000000E+00 -0.16233980878E+04  0.34993332780E+04  0.30999858128E+04 0.  0.
        3    1    3    3  502    0  0.56390149572E+03 -0.14215439344E+04 -0.52678386771E+03  0.16174898169E+04  0.10100000352E+00 0. -1.
       -3    1    3    3    0  502 -0.56390149572E+03  0.14215439344E+04 -0.10966142201E+04  0.18818434611E+04  0.10100000352E+00 0.  1.
</event>
<event>
 5   0  0.1840431E-06  0.3078051E+04  0.7818609E-02  0.8221788E-01
       -1   -1    0    0    0  501  0.00000000000E+00  0.00000000000E+00  0.21266548359E+04  0.21266548359E+04  0.50400001928E-02 0.  1.
        1   -1    0    0  501    0  0.00000000000E+00  0.00000000000E+00 -0.11137676276E+04  0.11137676276E+04  0.50400001928E-02 0. -1.
    10030    2    1    2    0    0  0.00000000000E+00  0.00000000000E+00  0.10128872084E+04  0.32404224635E+04  0.30780508841E+04 0.  0.
        1    1    3    3  502    0 -0.53901920031E+03  0.60221236657E+03 -0.87237861565E+03  0.11892207036E+04  0.50400001928E-02 0. -1.
       -1    1    3    3    0  502  0.53901920031E+03 -0.60221236657E+03  0.18852658240E+04  0.20512017599E+04  0.50400001928E-02 0.  1.
</event>
<event>
 5   0  0.1885307E-06  0.3102168E+04  0.7818609E-02  0.8215143E-01
        1   -1    0    0  501    0  0.00000000000E+00  0.00000000000E+00  0.17998511529E+04  0.17998511529E+04  0.50400001928E-02 0. -1.
       -1   -1    0    0    0  501  0.00000000000E+00  0.00000000000E+00 -0.13367007214E+04  0.13367007214E+04  0.50400001928E-02 0.  1.
    10030    2    1    2    0    0  0.00000000000E+00  0.00000000000E+00  0.46315043148E+03  0.31365518744E+04  0.31021684897E+04 0.  0.
        3    1    3    3  502    0  0.10571387765E+04  0.20771809820E+03 -0.89666600137E+03  0.14016772557E+04  0.10100000352E+00 0.  1.
       -3    1    3    3    0  502 -0.10571387765E+04 -0.20771809820E+03  0.13598164328E+04  0.17348746186E+04  0.10100000352E+00 0. -1.
</event>
<event>
 5   0  0.1836401E-06  0.3085632E+04  0.7818609E-02  0.8219692E-01
        1   -1    0    0  501    0  0.00000000000E+00  0.00000000000E+00  0.21808089090E+04  0.21808089090E+04  0.50400001928E-02 0.  1.
       -1   -1    0    0    0  501  0.00000000000E+00  0.00000000000E+00 -0.10914669260E+04  0.10914669261E+04  0.50400001928E-02 0. -1.
    10030    2    1    2    0    0  0.00000000000E+00  0.00000000000E+00  0.10893419830E+04  0.32722758351E+04  0.30856317319E+04 0.  0.
        2    1    3    3  502    0 -0.11938649149E+04 -0.97721131194E+03  0.53932492438E+03  0.16343582096E+04  0.25500000920E-02 0. -1.
       -2    1    3    3    0  502  0.11938649149E+04  0.97721131194E+03  0.55001705861E+03  0.16379176255E+04  0.25500000920E-02 0.  1.
</event>
<event>
 5   0  0.1836401E-06  0.3087098E+04  0.7818609E-02  0.8219288E-01
       -1   -1    0    0    0  501  0.00000000000E+00  0.00000000000E+00  0.19877046590E+04  0.19877046590E+04  0.50400001928E-02 0.  1.
        1   -1    0    0  501    0  0.00000000000E+00  0.00000000000E+00 -0.11986407104E+04  0.11986407104E+04  0.50400001928E-02 0. -1.
    10030    2    1    2    0    0  0.00000000000E+00  0.00000000000E+00  0.78906394861E+03  0.31863453694E+04  0.30870981355E+04 0.  0.
        2    1    3    3  502    0 -0.78568412595E+03  0.16534483186E+03  0.17552102827E+04  0.19301299427E+04  0.25500000920E-02 0.  1.
       -2    1    3    3    0  502  0.78568412595E+03 -0.16534483186E+03 -0.96614633413E+03  0.12562154266E+04  0.25500000920E-02 0. -1.
</event>
<event>
 5   0  0.4927533E-06  0.3115346E+04  0.7818609E-02  0.8211539E-01
        2   -1    0    0  501    0  0.00000000000E+00  0.00000000000E+00  0.19044508454E+04  0.19044508454E+04  0.25500000920E-02 0. -1.
       -2   -1    0    0    0  501  0.00000000000E+00  0.00000000000E+00 -0.12740391747E+04  0.12740391747E+04  0.25500000920E-02 0.  1.
    10030    2    1    2    0    0  0.00000000000E+00  0.00000000000E+00  0.63041167074E+03  0.31784900201E+04  0.31153458770E+04 0.  0.
        5    1    3    3  502    0  0.14187928413E+03 -0.94643573317E+03  0.15691209202E+04  0.18379425673E+04  0.46999998093E+01 0.  1.
       -5    1    3    3    0  502 -0.14187928413E+03  0.94643573317E+03 -0.93870924949E+03  0.13405474529E+04  0.46999998093E+01 0. -1.
</event>
<event>
 5   0  0.1853742E-06  0.3151154E+04  0.7818609E-02  0.8201838E-01
        1   -1    0    0  501    0  0.00000000000E+00  0.00000000000E+00  0.20316846403E+04  0.20316846403E+04  0.50400001928E-02 0. -1.
       -1   -1    0    0    0  501  0.00000000000E+00  0.00000000000E+00 -0.12218641666E+04  0.12218641666E+04  0.50400001928E-02 0.  1.
    10030    2    1    2    0    0  0.00000000000E+00  0.00000000000E+00  0.80982047375E+03  0.32535488069E+04  0.31511538584E+04 0.  0.
        5    1    3    3  502    0 -0.12549939475E+04 -0.66353416415E+03 -0.30077019181E+03  0.14511279039E+04  0.46999998093E+01 0.  1.
       -5    1    3    3    0  502  0.12549939475E+04  0.66353416415E+03  0.11105906656E+04  0.18024209030E+04  0.46999998093E+01 0. -1.
</event>
<event>
 5   0  0.1885307E-06  0.3116825E+04  0.7818609E-02  0.8211136E-01
       -1   -1    0    0    0  501  0.00000000000E+00  0.00000000000E+00  0.14300764713E+04  0.14300764713E+04  0.50400001928E-02 0. -1.
        1   -1    0    0  501    0  0.00000000000E+00  0.00000000000E+00 -0.16982649975E+04  0.16982649975E+04  0.50400001928E-02 0.  1.
    10030    2    1    2    0    0  0.00000000000E+00  0.00000000000E+00 -0.26818852618E+03  0.31283414688E+04  0.31168245475E+04 0.  0.
        3    1    3    3  502    0  0.16342133093E+03 -0.93609479059E+03 -0.13738380225E+04  0.16704523072E+04  0.10100000352E+00 0.  1.
       -3    1    3    3    0  502 -0.16342133093E+03  0.93609479059E+03  0.11056494964E+04  0.14578891616E+04  0.10100000352E+00 0. -1.
</event>
<event>
 5   0  0.1853742E-06  0.3073579E+04  0.7818609E-02  0.8223027E-01
        1   -1    0    0  501    0  0.00000000000E+00  0.00000000000E+00  0.11273460297E+04  0.11273460297E+04  0.50400001928E-02 0. -1.
       -1   -1    0    0    0  501  0.00000000000E+00  0.00000000000E+00 -0.20949390799E+04  0.20949390799E+04  0.50400001928E-02 0.  1.
    10030    2    1    2    0    0  0.00000000000E+00  0.00000000000E+00 -0.96759305023E+03  0.32222851096E+04  0.30735785359E+04 0.  0.
        5    1    3    3  502    0  0.86787408791E+03  0.12681293773E+04 -0.46441947882E+03  0.16053239836E+04  0.46999998093E+01 0.  1.
       -5    1    3    3    0  502 -0.86787408791E+03 -0.12681293773E+04 -0.50317357140E+03  0.16169611260E+04  0.46999998093E+01 0. -1.
</event>
<event>
 5   0  0.1840431E-06  0.2919847E+04  0.7818609E-02  0.8266997E-01
       -1   -1    0    0    0  501  0.00000000000E+00  0.00000000000E+00  0.11496877611E+04  0.11496877611E+04  0.50400001928E-02 0. -1.
        1   -1    0    0  501    0  0.00000000000E+00  0.00000000000E+00 -0.18538739746E+04  0.18538739746E+04  0.50400001928E-02 0.  1.
    10030    2    1    2    0    0  0.00000000000E+00  0.00000000000E+00 -0.70418621348E+03  0.30035617357E+04  0.29198467215E+04 0.  0.
        1    1    3    3  502    0 -0.38879506769E+03  0.49198627331E+03  0.10041011470E+04  0.11838205992E+04  0.50400001928E-02 0. -1.
       -1    1    3    3    0  502  0.38879506769E+03 -0.49198627331E+03 -0.17082873605E+04  0.18197411365E+04  0.50400001928E-02 0.  1.
</event>
<event>
 5   0  0.5114870E-06  0.3094421E+04  0.7818609E-02  0.8217271E-01
        2   -1    0    0  501    0  0.00000000000E+00  0.00000000000E+00  0.18774916991E+04  0.18774916991E+04  0.25500000920E-02 0. -1.
       -2   -1    0    0    0  501  0.00000000000E+00  0.00000000000E+00 -0.12750309258E+04  0.12750309258E+04  0.25500000920E-02 0.  1.
    10030    2    1    2    0    0  0.00000000000E+00  0.00000000000E+00  0.60246077326E+03  0.31525226250E+04  0.30944207725E+04 0.  0.
        2    1    3    3  502    0 -0.50673961080E+03 -0.16643874902E+02 -0.11879954809E+04  0.12916637776E+04  0.25500000920E-02 0.  1.
       -2    1    3    3    0  502  0.50673961080E+03  0.16643874902E+02  0.17904562542E+04  0.18608588474E+04  0.25500000920E-02 0. -1.
</event>
<event>
 5   0  0.5328368E-06  0.3079582E+04  0.7818609E-02  0.8221364E-01
        2   -1    0    0  501    0  0.00000000000E+00  0.00000000000E+00  0.13991173306E+04  0.13991173306E+04  0.25500000920E-02 0. -1.
       -2   -1    0    0    0  501  0.00000000000E+00  0.00000000000E+00 -0.16946089817E+04  0.16946089817E+04  0.25500000920E-02 0.  1.
    10030    2    1    2    0    0  0.00000000000E+00  0.00000000000E+00 -0.29549165110E+03  0.30937263123E+04  0.30795823061E+04 0.  0.
        1    1    3    3  502    0  0.82701523855E+02 -0.15193967921E+04 -0.38452015382E+03  0.15694782262E+04  0.50400001928E-02 0.  1.
       -1    1    3    3    0  502 -0.82701523855E+02  0.15193967921E+04  0.89028502723E+02  0.15242480861E+04  0.50400001928E-02 0. -1.
</event>
<event>
 5   0  0.1649875E-06  0.3327339E+04  0.7818609E-02  0.8155974E-01
       -3   -1    0    0    0  501  0.00000000000E+00  0.00000000000E+00  0.13958290939E+04  0.13958290975E+04  0.10100000352E+00 0. -1.
        3   -1    0    0  501    0  0.00000000000E+00  0.00000000000E+00 -0.19829049908E+04  0.19829049933E+04  0.10100000352E+00 0.  1.
    10030    2    1    2    0    0  0.00000000000E+00  0.00000000000E+00 -0.58707589688E+03  0.33787340909E+04  0.33273391694E+04 0.  0.
        1    1    3    3  502    0  0.42935096296E+03 -0.70510146238E+03 -0.17602466898E+04  0.19442167396E+04  0.50400001928E-02 0.  1.
       -1    1    3    3    0  502 -0.42935096296E+03  0.70510146238E+03  0.11731707929E+04  0.14345173513E+04  0.50400001928E-02 0. -1.
</event>
<event>
 5   0  0.1836401E-06  0.3013458E+04  0.7818609E-02  0.8239898E-01
        1   -1    0    0  501    0  0.00000000000E+00  0.00000000000E+00  0.29908310172E+04  0.29908310172E+04  0.50400001928E-02 0.  1.
       -1   -1    0    0    0  501  0.00000000000E+00  0.00000000000E+00 -0.75906379247E+03  0.75906379249E+03  0.50400001928E-02 0. -1.
    10030    2    1    2    0    0  0.00000000000E+00  0.00000000000E+00  0.22317672248E+04  0.37498948097E+04  0.30134575057E+04 0.  0.
        2    1    3    3  502    0  0.84891843178E+03  0.82102729680E+03 -0.48451311337E+02  0.11819880945E+04  0.25500000920E-02 0. -1.
       -2    1    3    3    0  502 -0.84891843178E+03 -0.82102729680E+03  0.22802185361E+04  0.25679067153E+04  0.25500000920E-02 0.  1.
</event>
<event>
 5   0  0.1885307E-06  0.3075949E+04  0.7818609E-02  0.8222370E-01
       -1   -1    0    0    0  501  0.00000000000E+00  0.00000000000E+00  0.13749708137E+04  0.13749708137E+04  0.50400001928E-02 0. -1.
        1   -1    0    0  501    0  0.00000000000E+00  0.00000000000E+00 -0.17203019139E+04  0.17203019139E+04  0.50400001928E-02 0.  1.
    10030    2    1    2    0    0  0.00000000000E+00  0.00000000000E+00 -0.34533110023E+03  0.30952727276E+04  0.30759485837E+04 0.  0.
        3    1    3    3  502    0 -0.13514468647E+04  0.18753455079E+03 -0.88690422130E+03  0.16273220160E+04  0.10100000352E+00 0.  1.
       -3    1    3    3    0  502  0.13514468647E+04 -0.18753455079E+03  0.54157312107E+03  0.14679507116E+04  0.10100000352E+00 0. -1.
</event>
<event>
 5   0  0.5114870E-06  0.3114440E+04  0.7818609E-02  0.8211786E-01
       -2   -1    0    0    0  501  0.00000000000E+00  0.00000000000E+00  0.12655344120E+04  0.12655344120E+04  0.25500000920E-02 0. -1.
        2   -1    0    0  501    0  0.00000000000E+00  0.00000000000E+00 -0.19161349144E+04  0.19161349144E+04  0.25500000920E-02 0.  1.
    10030    2    1    2    0    0  0.00000000000E+00  0.00000000000E+00 -0.65060050244E+03  0.31816693264E+04  0.31144403492E+04 0.  0.
        2    1    3    3  502    0 -0.14675795294E+04  0.48969271522E+03 -0.14443031832E+03  0.15538496540E+04  0.25500000920E-02 0. -1.
       -2    1    3    3    0  502  0.14675795294E+04 -0.48969271522E+03 -0.50617018412E+03  0.16278196724E+04  0.25500000920E-02 0.  1.
</event>
<event>
 5   0  0.5328368E-06  0.3088502E+04  0.7818609E-02  0.8218900E-01
       -2   -1    0    0    0  501  0.00000000000E+00  0.00000000000E+00  0.19470971997E+04  0.19470971997E+04  0.25500000920E-02 0.  1.
        2   -1    0    0  501    0  0.00000000000E+00  0.00000000000E+00 -0.12247521069E+04  0.12247521070E+04  0.25500000920E-02 0. -1.
    10030    2    1    2    0    0  0.00000000000E+00  0.00000000000E+00  0.72234509277E+03  0.31718493067E+04  0.30885021598E+04 0.  0.
        1    1    3    3  502    0  0.38134333463E+03 -0.18487386170E+03  0.18862074970E+04  0.19332304067E+04  0.50400001928E-02 0.  1.
       -1    1    3    3    0  502 -0.38134333463E+03  0.18487386170E+03 -0.11638624042E+04  0.12386189000E+04  0.50400001928E-02 0. -1.
</event>
<event>
 5   0  0.1840431E-06  0.3001994E+04  0.7818609E-02  0.8243162E-01
       -1   -1    0    0    0  501  0.00000000000E+00  0.00000000000E+00  0.12171269158E+04  0.12171269159E+04  0.50400001928E-02 0.  1.
        1   -1    0    0  501    0  0.00000000000E+00  0.00000000000E+00 -0.18510745292E+04  0.18510745292E+04  0.50400001928E-02 0. -1.
    10030    2    1    2    0    0  0.00000000000E+00  0.00000000000E+00 -0.63394761335E+03  0.30682014450E+04  0.30019944255E+04 0.  0.
        1    1    3    3  502    0  0.77940551144E+03  0.10423251818E+04  0.44723167765E+03  0.13762016238E+04  0.50400001928E-02 0.  1.
       -1    1    3    3    0  502 -0.77940551144E+03 -0.10423251818E+04 -0.10811792910E+04  0.16919998213E+04  0.50400001928E-02 0. -1.
</event>
<event>
 5   0  0.5114870E-06  0.3093362E+04  0.7818609E-02  0.8217562E-01
       -2   -1    0    0    0  501  0.00000000000E+00  0.00000000000E+00  0.11657596219E+04  0.11657596219E+04  0.25500000920E-02 0.  1.
        2   -1    0    0  501    0  0.00000000000E+00  0.00000000000E+00 -0.20520716081E+04  0.20520716081E+04  0.25500000920E-02 0. -1.
    10030    2    1    2    0    0  0.00000000000E+00  0.00000000000E+00 -0.88631198618E+03  0.32178312300E+04  0.30933620687E+04 0.  0.
        2    1    3    3  502    0  0.39698903022E+03 -0.88846625750E+03 -0.16937142891E+04  0.19533664976E+04  0.25500000920E-02 0. -1.
       -2    1    3    3    0  502 -0.39698903022E+03  0.88846625750E+03  0.80740230291E+03  0.12644647324E+04  0.25500000920E-02 0.  1.
</event>
<event>
 5   0  0.1843709E-06  0.3166801E+04  0.7818609E-02  0.8197640E-01
        1   -1    0    0  501    0  0.00000000000E+00  0.00000000000E+00  0.14844049786E+04  0.14844049786E+04  0.50400001928E-02 0.  1.
       -1   -1    0    0    0  501  0.00000000000E+00  0.00000000000E+00 -0.16889981837E+04  0.16889981837E+04  0.50400001928E-02 0. -1.
    10030    2    1    2    0    0  0.00000000000E+00  0.00000000000E+00 -0.20459320510E+03  0.31734031624E+04  0.31668011070E+04 0.  0.
        4    1    3    3  502    0 -0.38869237864E+03 -0.87118670226E+03 -0.13686985189E+04  0.16683480704E+04  0.12699999809E+01 0. -1.
       -4    1    3    3    0  502  0.38869237864E+03  0.87118670226E+03  0.11641053138E+04  0.15050550920E+04  0.12699999809E+01 0.  1.
</event>
<event>
 5   0  0.1885307E-06  0.3094665E+04  0.7818609E-02  0.8217204E-01
       -1   -1    0    0    0  501  0.00000000000E+00  0.00000000000E+00  0.15065302139E+04  0.15065302139E+04  0.50400001928E-02 0. -1.
        1   -1    0    0  501    0  0.00000000000E+00  0.00000000000E+00 -0.15892397544E+04  0.15892397544E+04  0.50400001928E-02 0.  1.
    10030    2    1    2    0    0  0.00000000000E+00  0.00000000000E+00 -0.82709540562E+02  0.30957699683E+04  0.30946648976E+04 0.  0.
        3    1    3    3  502    0  0.70769005035E+03 -0.13414460743E+04 -0.34795225480E+03  0.15560763347E+04  0.10100000352E+00 0. -1.
       -3    1    3    3    0  502 -0.70769005035E+03  0.13414460743E+04  0.26524271424E+03  0.15396936336E+04  0.10100000352E+00 0.  1.
</event>
<event>
 5   0  0.4927533E-06  0.3124921E+04  0.7818609E-02  0.8208932E-01
        2   -1    0    0  501    0  0.00000000000E+00  0.00000000000E+00  0.21203722904E+04  0.21203722904E+04  0.25500000920E-02 0.  1.
       -2   -1    0    0    0  501  0.00000000000E+00  0.00000000000E+00 -0.11513460812E+04  0.11513460812E+04  0.25500000920E-02 0. -1.
    10030    2    1    2    0    0  0.00000000000E+00  0.00000000000E+00  0.96902620924E+03  0.32717183716E+04  0.31249206884E+04 0.  0.
        5    1    3    3  502    0  0.39264855353E+03  0.12122512199E+04  0.14311641370E+04  0.19162407948E+04  0.46999998093E+01 0.  1.
       -5    1    3    3    0  502 -0.39264855353E+03 -0.12122512199E+04 -0.46213792775E+03  0.13554775767E+04  0.46999998093E+01 0. -1.
</event>
<event>
 5   0  0.5114870E-06  0.3146572E+04  0.7818609E-02  0.8203072E-01
       -2   -1    0    0    0  501  0.00000000000E+00  0.00000000000E+00  0.80148067859E+03  0.80148067859E+03  0.25500000920E-02 0. -1.
        2   -1    0    0  501    0  0.00000000000E+00  0.00000000000E+00 -0.30883198300E+04  0.30883198300E+04  0.25500000920E-02 0.  1.
    10030    2    1    2    0    0  0.00000000000E+00  0.00000000000E+00 -0.22868391514E+04  0.38898005086E+04  0.31465718953E+04 0.  0.
        2    1    3    3  502    0 -0.50433010165E+03 -0.88453854680E+03  0.33923602471E+03  0.10732373329E+04  0.25500000920E-02 0. -1.
       -2    1    3    3    0  502  0.50433010165E+03  0.88453854680E+03 -0.26260751761E+04  0.28165631757E+04  0.25500000920E-02 0.  1.
</event>
<event>
 5   0  0.1649875E-06  0.3039856E+04  0.7818609E-02  0.8232440E-01
        3   -1    0    0  501    0  0.00000000000E+00  0.00000000000E+00  0.24735886783E+04  0.24735886804E+04  0.10100000352E+00 0. -1.
       -3   -1    0    0    0  501  0.00000000000E+00  0.00000000000E+00 -0.93393904499E+03  0.93393905046E+03  0.10100000352E+00 0.  1.
    10030    2    1    2    0    0  0.00000000000E+00  0.00000000000E+00  0.15396496333E+04  0.34075277309E+04  0.30398559576E+04 0.  0.
        4    1    3    3  502    0 -0.97462320123E+03 -0.50103211722E+03  0.19504234159E+04  0.22372028699E+04  0.12699999809E+01 0. -1.
       -4    1    3    3    0  502  0.97462320123E+03  0.50103211722E+03 -0.41077378255E+03  0.11703248610E+04  0.12699999809E+01 0.  1.
</event>
<event>
 5   0  0.1836401E-06  0.3098586E+04  0.7818609E-02  0.8216126E-01
        1   -1    0    0  501    0  0.00000000000E+00  0.00000000000E+00  0.17538954403E+04  0.17538954403E+04  0.50400001928E-02 0. -1.
       -1   -1    0    0    0  501  0.00000000000E+00  0.00000000000E+00 -0.13685588393E+04  0.13685588393E+04  0.50400001928E-02 0.  1.
    10030    2    1    2    0    0  0.00000000000E+00  0.00000000000E+00  0.38533660106E+03  0.31224542796E+04  0.30985861989E+04 0.  0.
        2    1    3    3  502    0 -0.26191795298E+03 -0.14839613115E+04 -0.17005843995E+03  0.15164636695E+04  0.25500000920E-02 0. -1.
       -2    1    3    3    0  502  0.26191795298E+03  0.14839613115E+04  0.55539504101E+03  0.16059906101E+04  0.25500000920E-02 0.  1.
</event>
<event>
 5   0  0.1840431E-06  0.3133604E+04  0.7818609E-02  0.8206576E-01
       -1   -1    0    0    0  501  0.00000000000E+00  0.00000000000E+00  0.16784381632E+04  0.16784381632E+04  0.50400001928E-02 0. -1.
        1   -1    0    0  501    0  0.00000000000E+00  0.00000000000E+00 -0.14625907280E+04  0.14625907280E+04  0.50400001928E-02 0.  1.
    10030    2    1    2    0    0  0.00000000000E+00  0.00000000000E+00  0.21584743516E+03  0.31410288912E+04  0.31336037369E+04 0.  0.
        1    1    3    3  502    0 -0.39126615703E+03  0.13713512372E+04 -0.54259377385E+03  0.15258117265E+04  0.50400001928E-02 0.  1.
       -1    1    3    3    0  502  0.39126615703E+03 -0.13713512372E+04  0.75844120901E+03  0.16152171646E+04  0.50400001928E-02 0. -1.
</event>
<event>
 5   0  0.5114870E-06  0.3105281E+04  0.7818609E-02  0.8214290E-01
        2   -1    0    0  501    0  0.00000000000E+00  0.00000000000E+00  0.22422999557E+04  0.22422999557E+04  0.25500000920E-02 0. -1.
       -2   -1    0    0    0  501  0.00000000000E+00  0.00000000000E+00 -0.10750982901E+04  0.10750982901E+04  0.25500000920E-02 0.  1.
    10030    2    1    2    0    0  0.00000000000E+00  0.00000000000E+00  0.11672016656E+04  0.33173982458E+04  0.31052812100E+04 0.  0.
        2    1    3    3  502    0 -0.12453923942E+04 -0.30886129556E+03  0.15175586878E+04  0.19873051820E+04  0.25500000920E-02 0. -1.
       -2    1    3    3    0  502  0.12453923942E+04  0.30886129556E+03 -0.35035702218E+03  0.13300930638E+04  0.25500000920E-02 0.  1.
</event>
<event>
 5   0  0.1840431E-06  0.3099367E+04  0.7818609E-02  0.8215912E-01
       -1   -1    0    0    0  501  0.00000000000E+00  0.00000000000E+00  0.13659620478E+04  0.13659620478E+04  0.50400001928E-02 0. -1.
        1   -1    0    0  501    0  0.00000000000E+00  0.00000000000E+00 -0.17581154604E+04  0.17581154604E+04  0.50400001928E-02 0.  1.
    10030    2    1    2    0    0  0.00000000000E+00  0.00000000000E+00 -0.39215341261E+03  0.31240775081E+04  0.30993670286E+04 0.  0.
        1    1    3    3  502    0 -0.53010189709E+03 -0.12279283684E+04 -0.98507081023E+03  0.16610781440E+04  0.50400001928E-02 0.  1.
       -1    1    3    3    0  502  0.53010189709E+03  0.12279283684E+04  0.59291739762E+03  0.14629993642E+04  0.50400001928E-02 0. -1.
</event>
<event>
 5   0  0.4927533E-06  0.3108980E+04  0.7818609E-02  0.8213278E-01
       -2   -1    0    0    0  501  0.00000000000E+00  0.00000000000E+00  0.19435539173E+04  0.19435539173E+04  0.25500000920E-02 0. -1.
        2   -1    0    0  501    0  0.00000000000E+00  0.00000000000E+00 -0.12433095517E+04  0.12433095517E+04  0.25500000920E-02 0.  1.
    10030    2    1    2    0    0  0.00000000000E+00  0.00000000000E+00  0.70024436560E+03  0.31868634689E+04  0.31089799932E+04 0.  0.
        5    1    3    3  502    0  0.13364532461E+04 -0.76748551465E+03  0.14186830441E+03  0.15476724459E+04  0.46999998093E+01 0.  1.
       -5    1    3    3    0  502 -0.13364532461E+04  0.76748551465E+03  0.55837606119E+03  0.16391910230E+04  0.46999998093E+01 0. -1.
</event>
<event>
 5   0  0.1885307E-06  0.2939989E+04  0.7818609E-02  0.8261078E-01
       -1   -1    0    0    0  501  0.00000000000E+00  0.00000000000E+00  0.17575173540E+04  0.17575173540E+04  0.50400001928E-02 0. -1.
        1   -1    0    0  501    0  0.00000000000E+00  0.00000000000E+00 -0.12295090863E+04  0.12295090863E+04  0.50400001928E-02 0.  1.
    10030    2    1    2    0    0  0.00000000000E+00  0.00000000000E+00  0.52800826769E+03  0.29870264402E+04  0.29399888136E+04 0.  0.
        3    1    3    3  502    0 -0.10594069466E+04  0.82503991206E+03  0.87178029750E+03  0.16009481042E+04  0.10100000352E+00 0. -1.
       -3    1    3    3    0  502  0.10594069466E+04 -0.82503991206E+03 -0.34377202981E+03  0.13860783360E+04  0.10100000352E+00 0.  1.
</event>
<event>
 5   0  0.1853742E-06  0.3105159E+04  0.7818609E-02  0.8214324E-01
       -1   -1    0    0    0  501  0.00000000000E+00  0.00000000000E+00  0.92521754061E+03  0.92521754062E+03  0.50400001928E-02 0.  1.
        1   -1    0    0  501    0  0.00000000000E+00  0.00000000000E+00 -0.26053362542E+04  0.26053362542E+04  0.50400001928E-02 0. -1.
    10030    2    1    2    0    0  0.00000000000E+00  0.00000000000E+00 -0.16801187136E+04  0.35305537948E+04  0.31051588053E+04 0.  0.
        5    1    3    3  502    0  0.59417245895E+02  0.53109421146E+03  0.81734000023E+03  0.97655426707E+03  0.46999998093E+01 0.  1.
       -5    1    3    3    0  502 -0.59417245895E+02 -0.53109421146E+03 -0.24974587138E+04  0.25539995277E+04  0.46999998093E+01 0. -1.
</event>
<event>
 5   0  0.5114870E-06  0.3095615E+04  0.7818609E-02  0.8216942E-01
        2   -1    0    0  501    0  0.00000000000E+00  0.00000000000E+00  0.99171226163E+03  0.99171226164E+03  0.25500000920E-02 0.  1.
       -2   -1    0    0    0  501  0.00000000000E+00  0.00000000000E+00 -0.24157285829E+04  0.24157285829E+04  0.25500000920E-02 0. -1.
    10030    2    1    2    0    0  0.00000000000E+00  0.00000000000E+00 -0.14240163213E+04  0.34074408445E+04  0.30956147412E+04 0.  0.
        2    1    3    3  502    0  0.11384707012E+04  0.42997430563E+03 -0.17647554529E+04  0.21436779724E+04  0.25500000920E-02 0. -1.
       -2    1    3    3    0  502 -0.11384707012E+04 -0.42997430563E+03  0.34073913161E+03  0.12637628721E+04  0.25500000920E-02 0.  1.
</event>
<event>
 5   0  0.1840431E-06  0.3067968E+04  0.7818609E-02  0.8224584E-01
        1   -1    0    0  501    0  0.00000000000E+00  0.00000000000E+00  0.20024541178E+04  0.20024541178E+04  0.50400001928E-02 0. -1.
       -1   -1    0    0    0  501  0.00000000000E+00  0.00000000000E+00 -0.11751113189E+04  0.11751113189E+04  0.50400001928E-02 0.  1.
    10030    2    1    2    0    0  0.00000000000E+00  0.00000000000E+00  0.82734279889E+03  0.31775654367E+04  0.30679677309E+04 0.  0.
        1    1    3    3  502    0 -0.57297721220E+02  0.14810687090E+04  0.42541219161E+01  0.14821827307E+04  0.50400001928E-02 0.  1.
       -1    1    3    3    0  502  0.57297721220E+02 -0.14810687090E+04  0.82308867698E+03  0.16953827060E+04  0.50400001928E-02 0. -1.
</event>
<event>
 5   0  0.5114870E-06  0.3068998E+04  0.7818609E-02  0.8224298E-01
       -2   -1    0    0    0  501  0.00000000000E+00  0.00000000000E+00  0.13594755475E+04  0.13594755475E+04  0.25500000920E-02 0.  1.
        2   -1    0    0  501    0  0.00000000000E+00  0.00000000000E+00 -0.17320552687E+04  0.17320552687E+04  0.25500000920E-02 0. -1.
    10030    2    1    2    0    0  0.00000000000E+00  0.00000000000E+00 -0.37257972127E+03  0.30915308162E+04  0.30689977418E+04 0.  0.
        2    1    3    3  502    0  0.11010572892E+04 -0.92389742878E+03  0.35503183363E+03  0.14805273439E+04  0.25500000920E-02 0.  1.
       -2    1    3    3    0  502 -0.11010572892E+04  0.92389742878E+03 -0.72761155489E+03  0.16110034723E+04  0.25500000920E-02 0. -1.
</event>
<event>
 5   0  0.1836401E-06  0.3075805E+04  0.7818609E-02  0.8222409E-01
       -1   -1    0    0    0  501  0.00000000000E+00  0.00000000000E+00  0.16972627599E+04  0.16972627599E+04  0.50400001928E-02 0.  1.
        1   -1    0    0  501    0  0.00000000000E+00  0.00000000000E+00 -0.13935053406E+04  0.13935053406E+04  0.50400001928E-02 0. -1.
    10030    2    1    2    0    0  0.00000000000E+00  0.00000000000E+00  0.30375741928E+03  0.30907681005E+04  0.30758054037E+04 0.  0.
        2    1    3    3  502    0  0.65852261548E+03 -0.67499633392E+03 -0.10688861117E+04  0.14254085750E+04  0.25500000920E-02 0. -1.
       -2    1    3    3    0  502 -0.65852261548E+03  0.67499633392E+03  0.13726435310E+04  0.16653595255E+04  0.25500000920E-02 0.  1.
</event>
<event>
 5   0  0.1836401E-06  0.3117052E+04  0.7818609E-02  0.8211074E-01
        1   -1    0    0  501    0  0.00000000000E+00  0.00000000000E+00  0.16290802475E+04  0.16290802475E+04  0.50400001928E-02 0.  1.
       -1   -1    0    0    0  501  0.00000000000E+00  0.00000000000E+00 -0.14910275700E+04  0.14910275700E+04  0.50400001928E-02 0. -1.
    10030    2    1    2    0    0  0.00000000000E+00  0.00000000000E+00  0.13805267751E+03  0.31201078175E+04  0.31170521733E+04 0.  0.
        2    1    3    3  502    0 -0.86267666109E+03  0.12890144419E+04 -0.83551134673E+02  0.15533029470E+04  0.25500000920E-02 0. -1.
       -2    1    3    3    0  502  0.86267666109E+03 -0.12890144419E+04  0.22160381219E+03  0.15668048706E+04  0.25500000920E-02 0.  1.
</event>
<event>
 5   0  0.1843709E-06  0.2995150E+04  0.7818609E-02  0.8245117E-01
        1   -1    0    0  501    0  0.00000000000E+00  0.00000000000E+00  0.19424125821E+04  0.19424125822E+04  0.50400001928E-02 0. -1.
       -1   -1    0    0    0  501  0.00000000000E+00  0.00000000000E+00 -0.11546107451E+04  0.11546107451E+04  0.50400001928E-02 0.  1.
    10030    2    1    2    0    0  0.00000000000E+00  0.00000000000E+00  0.78780183709E+03  0.30970233272E+04  0.29951497049E+04 0.  0.
        4    1    3    3  502    0 -0.47479698797E+02 -0.55096954008E+01 -0.11538212494E+04  0.11548115721E+04  0.12699999809E+01 0.  1.
       -4    1    3    3    0  502  0.47479698797E+02  0.55096954008E+01  0.19416230865E+04  0.19422117551E+04  0.12699999809E+01 0. -1.
</event>
<event>
 5   0  0.1843709E-06  0.3093154E+04  0.7818609E-02  0.8217619E-01
        1   -1    0    0  501    0  0.00000000000E+00  0.00000000000E+00  0.21289900861E+04  0.21289900861E+04  0.50400001928E-02 0.  1.
       -1   -1    0    0    0  501  0.00000000000E+00  0.00000000000E+00 -0.11234902750E+04  0.11234902750E+04  0.50400001928E-02 0. -1.
    10030    2    1    2    0    0  0.00000000000E+00  0.00000000000E+00  0.10054998111E+04  0.32524803611E+04  0.30931535089E+04 0.  0.
        4    1    3    3  502    0  0.46223410867E+03  0.20250107573E+03  0.20399802196E+04  0.21014728088E+04  0.12699999809E+01 0.  1.
       -4    1    3    3    0  502 -0.46223410867E+03 -0.20250107573E+03 -0.10344804086E+04  0.11510075523E+04  0.12699999809E+01 0. -1.
</event>
<event>
 5   0  0.1853742E-06  0.3092577E+04  0.7818609E-02  0.8217778E-01
        1   -1    0    0  501    0  0.00000000000E+00  0.00000000000E+00  0.20147008626E+04  0.20147008627E+04  0.50400001928E-02 0. -1.
       -1   -1    0    0    0  501  0.00000000000E+00  0.00000000000E+00 -0.11867810755E+04  0.11867810755E+04  0.50400001928E-02 0.  1.
    10030    2    1    2    0    0  0.00000000000E+00  0.00000000000E+00  0.82791978718E+03  0.32014819381E+04  0.30925774729E+04 0.  0.
        5    1    3    3  502    0  0.83657548497E+03 -0.14242403453E+03  0.17520900869E+04  0.19467883578E+04  0.46999998093E+01 0. -1.
       -5    1    3    3    0  502 -0.83657548497E+03  0.14242403453E+03 -0.92417029967E+03  0.12546935803E+04  0.46999998093E+01 0.  1.
</event>
<event>
 5   0  0.1885307E-06  0.2842158E+04  0.7818609E-02  0.8290298E-01
       -1   -1    0    0    0  501  0.00000000000E+00  0.00000000000E+00  0.11449202042E+04  0.11449202042E+04  0.50400001928E-02 0.  1.
        1   -1    0    0  501    0  0.00000000000E+00  0.00000000000E+00 -0.17638488774E+04  0.17638488774E+04  0.50400001928E-02 0. -1.
    10030    2    1    2    0    0  0.00000000000E+00  0.00000000000E+00 -0.61892867319E+03  0.29087690817E+04  0.28421584875E+04 0.  0.
        3    1    3    3  502    0  0.11755295461E+04  0.19735446545E+03  0.48239239948E+03  0.12858930500E+04  0.10100000352E+00 0.  1.
       -3    1    3    3    0  502 -0.11755295461E+04 -0.19735446545E+03 -0.11013210727E+04  0.16228760317E+04  0.10100000352E+00 0. -1.
</event>
<event>
 5   0  0.4927533E-06  0.3151006E+04  0.7818609E-02  0.8201878E-01
       -2   -1    0    0    0  501  0.00000000000E+00  0.00000000000E+00  0.15435125799E+04  0.15435125799E+04  0.25500000920E-02 0. -1.
        2   -1    0    0  501    0  0.00000000000E+00  0.00000000000E+00 -0.16081564558E+04  0.16081564558E+04  0.25500000920E-02 0.  1.
    10030    2    1    2    0    0  0.00000000000E+00  0.00000000000E+00 -0.64643875911E+02  0.31516690357E+04  0.31510060108E+04 0.  0.
        5    1    3    3  502    0 -0.77783279678E+02 -0.81813646759E+03 -0.13767737036E+04  0.16034105648E+04  0.46999998093E+01 0.  1.
       -5    1    3    3    0  502  0.77783279678E+02  0.81813646759E+03  0.13121298277E+04  0.15482584710E+04  0.46999998093E+01 0. -1.
</event>
<event>
 5   0  0.1853742E-06  0.3101456E+04  0.7818609E-02  0.8215338E-01
       -1   -1    0    0    0  501  0.00000000000E+00  0.00000000000E+00  0.11908020052E+04  0.11908020053E+04  0.50400001928E-02 0.  1.
        1   -1    0    0  501    0  0.00000000000E+00  0.00000000000E+00 -0.20194439032E+04  0.20194439032E+04  0.50400001928E-02 0. -1.
    10030    2    1    2    0    0  0.00000000000E+00  0.00000000000E+00 -0.82864189794E+03  0.32102459085E+04  0.31014563350E+04 0.  0.
        5    1    3    3  502    0 -0.10083059531E+04  0.83166922949E+03  0.44944511169E+03  0.13821641005E+04  0.46999998093E+01 0.  1.
       -5    1    3    3    0  502  0.10083059531E+04 -0.83166922949E+03 -0.12780870096E+04  0.18280818079E+04  0.46999998093E+01 0. -1.
</event>
<event>
 5   0  0.5328368E-06  0.3314987E+04  0.7818609E-02  0.8159092E-01
        2   -1    0    0  501    0  0.00000000000E+00  0.00000000000E+00  0.18575547364E+04  0.18575547364E+04  0.25500000920E-02 0. -1.
       -2   -1    0    0    0  501  0.00000000000E+00  0.00000000000E+00 -0.14789794611E+04  0.14789794611E+04  0.25500000920E-02 0.  1.
    10030    2    1    2    0    0  0.00000000000E+00  0.00000000000E+00  0.37857527528E+03  0.33365341975E+04  0.33149873623E+04 0.  0.
        1    1    3    3  502    0 -0.16071823788E+04  0.36392646152E+03  0.97814629446E+01  0.16478996769E+04  0.50400001928E-02 0. -1.
       -1    1    3    3    0  502  0.16071823788E+04 -0.36392646152E+03  0.36879381233E+03  0.16886345206E+04  0.50400001928E-02 0.  1.
</event>
<event>
 5   0  0.1885307E-06  0.3079594E+04  0.7818609E-02  0.8221360E-01
       -1   -1    0    0    0  501  0.00000000000E+00  0.00000000000E+00  0.13469520679E+04  0.13469520679E+04  0.50400001928E-02 0.  1.
        1   -1    0    0  501    0  0.00000000000E+00  0.00000000000E+00 -0.17602523177E+04  0.17602523177E+04  0.50400001928E-02 0. -1.
    10030    2    1    2    0    0  0.00000000000E+00  0.00000000000E+00 -0.41330024982E+03  0.31072043856E+04  0.30795944534E+04 0.  0.
        3    1    3    3  502    0  0.14135061240E+04  0.57554763291E+03 -0.56205116021E+00  0.15261896889E+04  0.10100000352E+00 0. -1.
       -3    1    3    3    0  502 -0.14135061240E+04 -0.57554763291E+03 -0.41273819866E+03  0.15810146967E+04  0.10100000352E+00 0.  1.
</event>
<event>
 5   0  0.1843709E-06  0.3047595E+04  0.7818609E-02  0.8230269E-01
        1   -1    0    0  501    0  0.00000000000E+00  0.00000000000E+00  0.16490425757E+04  0.16490425757E+04  0.50400001928E-02 0. -1.
       -1   -1    0    0    0  501  0.00000000000E+00  0.00000000000E+00 -0.14080646726E+04  0.14080646726E+04  0.50400001928E-02 0.  1.
    10030    2    1    2    0    0  0.00000000000E+00  0.00000000000E+00  0.24097790313E+03  0.30571072483E+04  0.30475948514E+04 0.  0.
        4    1    3    3  502    0  0.55912328864E+03 -0.73487689349E+03  0.13364168080E+04  0.16243997039E+04  0.12699999809E+01 0. -1.
       -4    1    3    3    0  502 -0.55912328864E+03  0.73487689349E+03 -0.10954389049E+04  0.14327075444E+04  0.12699999809E+01 0.  1.
</event>
<event>
 5   0  0.5328368E-06  0.3069187E+04  0.7818609E-02  0.8224246E-01
        2   -1    0    0  501    0  0.00000000000E+00  0.00000000000E+00  0.10837116353E+04  0.10837116353E+04  0.25500000920E-02 0.  1.
       -2   -1    0    0    0  501  0.00000000000E+00  0.00000000000E+00 -0.21730660864E+04  0.21730660864E+04  0.25500000920E-02 0. -1.
    10030    2    1    2    0    0  0.00000000000E+00  0.00000000000E+00 -0.10893544511E+04  0.32567777217E+04  0.30691868644E+04 0.  0.
        1    1    3    3  502    0 -0.12713042013E+04  0.85946036114E+03 -0.53458165433E+03  0.16250120091E+04  0.50400001928E-02 0. -1.
       -1    1    3    3    0  502  0.12713042013E+04 -0.85946036114E+03 -0.55477279674E+03  0.16317657125E+04  0.50400001928E-02 0.  1.
</event>
<event>
 5   0  0.5001658E-06  0.3150572E+04  0.7818609E-02  0.8201994E-01
        2   -1    0    0  501    0  0.00000000000E+00  0.00000000000E+00  0.69252187203E+03  0.69252187203E+03  0.25500000920E-02 0. -1.
       -2   -1    0    0    0  501  0.00000000000E+00  0.00000000000E+00 -0.35833172646E+04  0.35833172646E+04  0.25500000920E-02 0.  1.
    10030    2    1    2    0    0  0.00000000000E+00  0.00000000000E+00 -0.28907953926E+04  0.42758391366E+04  0.31505717450E+04 0.  0.
        3    1    3    3  502    0  0.92317151082E+03  0.11136169918E+04 -0.22920075488E+04  0.27102927991E+04  0.10100000352E+00 0.  1.
       -3    1    3    3    0  502 -0.92317151082E+03 -0.11136169918E+04 -0.59878784376E+03  0.15655463375E+04  0.10100000352E+00 0. -1.
</event>
<event>
 5   0  0.5328368E-06  0.3096933E+04  0.7818609E-02  0.8216580E-01
        2   -1    0    0  501    0  0.00000000000E+00  0.00000000000E+00  0.17504494302E+04  0.17504494302E+04  0.25500000920E-02 0. -1.
       -2   -1    0    0    0  501  0.00000000000E+00  0.00000000000E+00 -0.13697900585E+04  0.13697900585E+04  0.25500000920E-02 0.  1.
    10030    2    1    2    0    0  0.00000000000E+00  0.00000000000E+00  0.38065937168E+03  0.31202394887E+04  0.30969328229E+04 0.  0.
        1    1    3    3  502    0  0.91954517827E+03  0.41395733721E+03  0.13742578205E+04  0.17045552409E+04  0.50400001928E-02 0.  1.
       -1    1    3    3    0  502 -0.91954517827E+03 -0.41395733721E+03 -0.99359844884E+03  0.14156842478E+04  0.50400001928E-02 0. -1.
</event>
<event>
 5   0  0.5001658E-06  0.3108861E+04  0.7818609E-02  0.8213310E-01
       -2   -1    0    0    0  501  0.00000000000E+00  0.00000000000E+00  0.22131661078E+04  0.22131661078E+04  0.25500000920E-02 0.  1.
        2   -1    0    0  501    0  0.00000000000E+00  0.00000000000E+00 -0.10917637256E+04  0.10917637256E+04  0.25500000920E-02 0. -1.
    10030    2    1    2    0    0  0.00000000000E+00  0.00000000000E+00  0.11214023822E+04  0.33049298334E+04  0.31088611904E+04 0.  0.
        3    1    3    3  502    0 -0.54412792044E+03 -0.17210896807E+03 -0.97636297955E+03  0.11309205846E+04  0.10100000352E+00 0. -1.
       -3    1    3    3    0  502  0.54412792044E+03  0.17210896807E+03  0.20977653617E+04  0.21740092488E+04  0.10100000352E+00 0.  1.
</event>
<event>
 5   0  0.5114870E-06  0.3105539E+04  0.7818609E-02  0.8214219E-01
       -2   -1    0    0    0  501  0.00000000000E+00  0.00000000000E+00  0.11547654676E+04  0.11547654676E+04  0.25500000920E-02 0.  1.
        2   -1    0    0  501    0  0.00000000000E+00  0.00000000000E+00 -0.20879508243E+04  0.20879508243E+04  0.25500000920E-02 0. -1.
    10030    2    1    2    0    0  0.00000000000E+00  0.00000000000E+00 -0.93318535671E+03  0.32427162919E+04  0.31055392511E+04 0.  0.
        2    1    3    3  502    0 -0.34871617689E+03 -0.19879899700E+03 -0.20328396562E+04  0.20720909925E+04  0.25500000920E-02 0. -1.
       -2    1    3    3    0  502  0.34871617689E+03  0.19879899700E+03  0.10996542995E+04  0.11706252994E+04  0.25500000920E-02 0.  1.
</event>
<event>
 5   0  0.5328368E-06  0.3135719E+04  0.7818609E-02  0.8206003E-01
       -2   -1    0    0    0  501  0.00000000000E+00  0.00000000000E+00  0.14453751296E+04  0.14453751296E+04  0.25500000920E-02 0. -1.
        2   -1    0    0  501    0  0.00000000000E+00  0.00000000000E+00 -0.17007233656E+04  0.17007233656E+04  0.25500000920E-02 0.  1.
    10030    2    1    2    0    0  0.00000000000E+00  0.00000000000E+00 -0.25534823597E+03  0.31460984952E+04  0.31357189001E+04 0.  0.
        1    1    3    3  502    0  0.28003610424E+03  0.10319850013E+04 -0.12781038125E+04  0.16664221009E+04  0.50400001928E-02 0.  1.
       -1    1    3    3    0  502 -0.28003610424E+03 -0.10319850013E+04  0.10227555766E+04  0.14796763944E+04  0.50400001928E-02 0. -1.
</event>
<event>
 5   0  0.1853742E-06  0.3054745E+04  0.7818609E-02  0.8228269E-01
       -1   -1    0    0    0  501  0.00000000000E+00  0.00000000000E+00  0.23032036763E+04  0.23032036763E+04  0.50400001928E-02 0. -1.
        1   -1    0    0  501    0  0.00000000000E+00  0.00000000000E+00 -0.10128792120E+04  0.10128792120E+04  0.50400001928E-02 0.  1.
    10030    2    1    2    0    0  0.00000000000E+00  0.00000000000E+00  0.12903244643E+04  0.33160828883E+04  0.30547452428E+04 0.  0.
        5    1    3    3  502    0  0.17008740955E+02 -0.11854332340E+04 -0.40018698098E+03  0.12512845237E+04  0.46999998093E+01 0.  1.
       -5    1    3    3    0  502 -0.17008740955E+02  0.11854332340E+04  0.16905114453E+04  0.20647983645E+04  0.46999998093E+01 0. -1.
</event>
<event>
 5   0  0.1853742E-06  0.3040658E+04  0.7818609E-02  0.8232215E-01
       -1   -1    0    0    0  501  0.00000000000E+00  0.00000000000E+00  0.14046745666E+04  0.14046745666E+04  0.50400001928E-02 0.  1.
        1   -1    0    0  501    0  0.00000000000E+00  0.00000000000E+00 -0.16455054226E+04  0.16455054226E+04  0.50400001928E-02 0. -1.
    10030    2    1    2    0    0  0.00000000000E+00  0.00000000000E+00 -0.24083085607E+03  0.30501799892E+04  0.30406575712E+04 0.  0.
        5    1    3    3  502    0  0.33559572891E+03  0.12925344156E+04  0.60857067910E+03  0.14675319656E+04  0.46999998093E+01 0.  1.
       -5    1    3    3    0  502 -0.33559572891E+03 -0.12925344156E+04 -0.84940153517E+03  0.15826480236E+04  0.46999998093E+01 0. -1.
</event>
<event>
 5   0  0.5114870E-06  0.2916574E+04  0.7818609E-02  0.8267963E-01
        2   -1    0    0  501    0  0.00000000000E+00  0.00000000000E+00  0.21571337884E+04  0.21571337884E+04  0.25500000920E-02 0.  1.
       -2   -1    0    0    0  501  0.00000000000E+00  0.00000000000E+00 -0.98584562258E+03  0.98584562259E+03  0.25500000920E-02 0. -1.
    10030    2    1    2    0    0  0.00000000000E+00  0.00000000000E+00  0.11712881659E+04  0.31429794110E+04  0.29165739508E+04 0.  0.
        2    1    3    3  502    0  0.97283162735E+03  0.10607142103E+04  0.33272313980E+03  0.14772341382E+04  0.25500000920E-02 0.  1.
       -2    1    3    3    0  502 -0.97283162735E+03 -0.10607142103E+04  0.83856502605E+03  0.16657452729E+04  0.25500000920E-02 0. -1.
</event>
<event>
 5   0  0.1885307E-06  0.3039748E+04  0.7818609E-02  0.8232471E-01
       -1   -1    0    0    0  501  0.00000000000E+00  0.00000000000E+00  0.16576764265E+04  0.16576764265E+04  0.50400001928E-02 0.  1.
        1   -1    0    0  501    0  0.00000000000E+00  0.00000000000E+00 -0.13935274820E+04  0.13935274820E+04  0.50400001928E-02 0. -1.
    10030    2    1    2    0    0  0.00000000000E+00  0.00000000000E+00  0.26414894446E+03  0.30512039085E+04  0.30397484479E+04 0.  0.
        3    1    3    3  502    0 -0.12577695731E+04  0.47058068762E+03  0.84650610784E+03  0.15874517578E+04  0.10100000352E+00 0.  1.
       -3    1    3    3    0  502  0.12577695731E+04 -0.47058068762E+03 -0.58235716338E+03  0.14637521507E+04  0.10100000352E+00 0. -1.
</event>
<event>
 5   0  0.1853742E-06  0.3236302E+04  0.7818609E-02  0.8179295E-01
        1   -1    0    0  501    0  0.00000000000E+00  0.00000000000E+00  0.13818214414E+04  0.13818214414E+04  0.50400001928E-02 0. -1.
       -1   -1    0    0    0  501  0.00000000000E+00  0.00000000000E+00 -0.18948995052E+04  0.18948995052E+04  0.50400001928E-02 0.  1.
    10030    2    1    2    0    0  0.00000000000E+00  0.00000000000E+00 -0.51307806379E+03  0.32767209467E+04  0.32363020661E+04 0.  0.
        5    1    3    3  502    0 -0.29281212688E+03 -0.64866828463E+03  0.12148419828E+04  0.14079675487E+04  0.46999998093E+01 0. -1.
       -5    1    3    3    0  502  0.29281212688E+03  0.64866828463E+03 -0.17279200465E+04  0.18687533980E+04  0.46999998093E+01 0.  1.
</event>
<event>
 5   0  0.1649875E-06  0.3067461E+04  0.7818609E-02  0.8224725E-01
       -4   -1    0    0    0  501  0.00000000000E+00  0.00000000000E+00  0.15872804833E+04  0.15872809914E+04  0.12699999809E+01 0. -1.
        4   -1    0    0  501    0  0.00000000000E+00  0.00000000000E+00 -0.14819860773E+04  0.14819866214E+04  0.12699999809E+01 0.  1.
    10030    2    1    2    0    0  0.00000000000E+00  0.00000000000E+00  0.10529440603E+03  0.30692676128E+04  0.30674609642E+04 0.  0.
        2    1    3    3  502    0 -0.13060099562E+04  0.52771720242E+03  0.65978439146E+03  0.15554622768E+04  0.25500000920E-02 0. -1.
       -2    1    3    3    0  502  0.13060099562E+04 -0.52771720242E+03 -0.55448998543E+03  0.15138053360E+04  0.25500000920E-02 0.  1.
</event>
<event>
 5   0  0.5001658E-06  0.3117500E+04  0.7818609E-02  0.8210952E-01
       -2   -1    0    0    0  501  0.00000000000E+00  0.00000000000E+00  0.11752503988E+04  0.11752503988E+04  0.25500000920E-02 0. -1.
        2   -1    0    0  501    0  0.00000000000E+00  0.00000000000E+00 -0.20673904511E+04  0.20673904511E+04  0.25500000920E-02 0.  1.
    10030    2    1    2    0    0  0.00000000000E+00  0.00000000000E+00 -0.89214005229E+03  0.32426408500E+04  0.31174999293E+04 0.  0.
        3    1    3    3  502    0 -0.73443606727E+03 -0.20779352348E+03 -0.18597163574E+04  0.20102535725E+04  0.10100000352E+00 0.  1.
       -3    1    3    3    0  502  0.73443606727E+03  0.20779352348E+03  0.96757630514E+03  0.12323872775E+04  0.10100000352E+00 0. -1.
</event>
<event>
 5   0  0.1649875E-06  0.3103852E+04  0.7818609E-02  0.8214682E-01
       -3   -1    0    0    0  501  0.00000000000E+00  0.00000000000E+00  0.12505943215E+04  0.12505943255E+04  0.10100000352E+00 0. -1.
        3   -1    0    0  501    0  0.00000000000E+00  0.00000000000E+00 -0.19258637327E+04  0.19258637353E+04  0.10100000352E+00 0.  1.
    10030    2    1    2    0    0  0.00000000000E+00  0.00000000000E+00 -0.67526941123E+03  0.31764580609E+04  0.31038519673E+04 0.  0.
        1    1    3    3  502    0 -0.12212353050E+04 -0.47886828676E+03  0.51106773771E+03  0.14078070673E+04  0.50400001928E-02 0. -1.
       -1    1    3    3    0  502  0.12212353050E+04  0.47886828676E+03 -0.11863371489E+04  0.17686509936E+04  0.50400001928E-02 0.  1.
</event>
<event>
 5   0  0.5114870E-06  0.3045047E+04  0.7818609E-02  0.8230983E-01
       -2   -1    0    0    0  501  0.00000000000E+00  0.00000000000E+00  0.16248295708E+04  0.16248295708E+04  0.25500000920E-02 0.  1.
        2   -1    0    0  501    0  0.00000000000E+00  0.00000000000E+00 -0.14266589067E+04  0.14266589067E+04  0.25500000920E-02 0. -1.
    10030    2    1    2    0    0  0.00000000000E+00  0.00000000000E+00  0.19817066411E+03  0.30514884776E+04  0.30450468497E+04 0.  0.
        2    1    3    3  502    0  0.82720823761E+03 -0.11356842848E+04 -0.48869216713E+03  0.14875726192E+04  0.25500000920E-02 0.  1.
       -2    1    3    3    0  502 -0.82720823761E+03  0.11356842848E+04  0.68686283124E+03  0.15639158584E+04  0.25500000920E-02 0. -1.
</event>
<event>
 5   0  0.1840431E-06  0.3049779E+04  0.7818609E-02  0.8229657E-01
       -1   -1    0    0    0  501  0.00000000000E+00  0.00000000000E+00  0.11668511859E+04  0.11668511859E+04  0.50400001928E-02 0. -1.
        1   -1    0    0  501    0  0.00000000000E+00  0.00000000000E+00 -0.19927893849E+04  0.19927893849E+04  0.50400001928E-02 0.  1.
    10030    2    1    2    0    0  0.00000000000E+00  0.00000000000E+00 -0.82593819896E+03  0.31596405708E+04  0.30497794392E+04 0.  0.
        1    1    3    3  502    0  0.33543038485E+03 -0.37531909178E+03 -0.19042338945E+04  0.19696407511E+04  0.50400001928E-02 0.  1.
       -1    1    3    3    0  502 -0.33543038485E+03  0.37531909178E+03  0.10782956955E+04  0.11899998196E+04  0.50400001928E-02 0. -1.
</event>
<event>
 5   0  0.5001658E-06  0.2499151E+04  0.7818609E-02  0.8403288E-01
        2   -1    0    0  501    0  0.00000000000E+00  0.00000000000E+00  0.16245185854E+04  0.16245185854E+04  0.25500000920E-02 0.  1.
       -2   -1    0    0    0  501  0.00000000000E+00  0.00000000000E+00 -0.96117002758E+03  0.96117002758E+03  0.25500000920E-02 0. -1.
    10030    2    1    2    0    0  0.00000000000E+00  0.00000000000E+00  0.66334855777E+03  0.25856886129E+04  0.24991507145E+04 0.  0.
        3    1    3    3  502    0  0.11549444590E+04 -0.47682563146E+03  0.31782507025E+03  0.12892913448E+04  0.10100000352E+00 0.  1.
       -3    1    3    3    0  502 -0.11549444590E+04  0.47682563146E+03  0.34552348752E+03  0.12963972682E+04  0.10100000352E+00 0. -1.
</event>
<event>
 5   0  0.1836401E-06  0.3122042E+04  0.7818609E-02  0.8209715E-01
        1   -1    0    0  501    0  0.00000000000E+00  0.00000000000E+00  0.20174754129E+04  0.20174754129E+04  0.50400001928E-02 0.  1.
       -1   -1    0    0    0  501  0.00000000000E+00  0.00000000000E+00 -0.12078391483E+04  0.12078391483E+04  0.50400001928E-02 0. -1.
    10030    2    1    2    0    0  0.00000000000E+00  0.00000000000E+00  0.80963626463E+03  0.32253145612E+04  0.31220415016E+04 0.  0.
        2    1    3    3  502    0 -0.83295764142E+03 -0.68289132173E+02 -0.95724194418E+03  0.12707454417E+04  0.25500000920E-02 0. -1.
       -2    1    3    3    0  502  0.83295764142E+03  0.68289132173E+02  0.17668782088E+04  0.19545691195E+04  0.25500000920E-02 0.  1.
</event>
<event>
 5   0  0.1853742E-06  0.2966487E+04  0.7818609E-02  0.8253366E-01
        1   -1    0    0  501    0  0.00000000000E+00  0.00000000000E+00  0.21108916375E+04  0.21108916375E+04  0.50400001928E-02 0. -1.
       -1   -1    0    0    0  501  0.00000000000E+00  0.00000000000E+00 -0.10422189713E+04  0.10422189714E+04  0.50400001928E-02 0.  1.
    10030    2    1    2    0    0  0.00000000000E+00  0.00000000000E+00  0.10686726662E+04  0.31531106089E+04  0.29664870208E+04 0.  0.
        5    1    3    3  502    0  0.64297079097E+03  0.13220335216E+04  0.74371934401E+03  0.16475207504E+04  0.46999998093E+01 0.  1.
       -5    1    3    3    0  502 -0.64297079097E+03 -0.13220335216E+04  0.32495332217E+03  0.15055898585E+04  0.46999998093E+01 0. -1.
</event>
<event>
 5   0  0.1853742E-06  0.2961183E+04  0.7818609E-02  0.8254903E-01
       -1   -1    0    0    0  501  0.00000000000E+00  0.00000000000E+00  0.12347440694E+04  0.12347440695E+04  0.50400001928E-02 0. -1.
        1   -1    0    0  501    0  0.00000000000E+00  0.00000000000E+00 -0.17753890090E+04  0.17753890090E+04  0.50400001928E-02 0.  1.
    10030    2    1    2    0    0  0.00000000000E+00  0.00000000000E+00 -0.54064493959E+03  0.30101330785E+04  0.29611829055E+04 0.  0.
        5    1    3    3  502    0 -0.16213124650E+03  0.23321159800E+02  0.12254975947E+04  0.12364048132E+04  0.46999998093E+01 0. -1.
       -5    1    3    3    0  502  0.16213124650E+03 -0.23321159800E+02 -0.17661425343E+04  0.17737282653E+04  0.46999998093E+01 0.  1.
</event>
<event>
 5   0  0.1836401E-06  0.3105546E+04  0.7818609E-02  0.8214217E-01
       -1   -1    0    0    0  501  0.00000000000E+00  0.00000000000E+00  0.13451166615E+04  0.13451166615E+04  0.50400001928E-02 0. -1.
        1   -1    0    0  501    0  0.00000000000E+00  0.00000000000E+00 -0.17924874513E+04  0.17924874513E+04  0.50400001928E-02 0.  1.
    10030    2    1    2    0    0  0.00000000000E+00  0.00000000000E+00 -0.44737078976E+03  0.31376041129E+04  0.31055464810E+04 0.  0.
        2    1    3    3  502    0  0.36895621403E+03 -0.13631454281E+04 -0.87595851881E+03  0.16618054858E+04  0.25500000920E-02 0.  1.
       -2    1    3    3    0  502 -0.36895621403E+03  0.13631454281E+04  0.42858772904E+03  0.14757986270E+04  0.25500000920E-02 0. -1.
</event>
<event>
 5   0  0.4900679E-06  0.3063876E+04  0.7818609E-02  0.8225722E-01
        2   -1    0    0  501    0  0.00000000000E+00  0.00000000000E+00  0.16367314095E+04  0.16367314095E+04  0.25500000920E-02 0.  1.
       -2   -1    0    0    0  501  0.00000000000E+00  0.00000000000E+00 -0.14338544772E+04  0.14338544772E+04  0.25500000920E-02 0. -1.
    10030    2    1    2    0    0  0.00000000000E+00  0.00000000000E+00  0.20287693228E+03  0.30705858867E+04  0.30638764070E+04 0.  0.
        4    1    3    3  502    0 -0.55693413194E+03  0.11282808781E+04  0.97721690787E+03  0.15931565727E+04  0.12699999809E+01 0.  1.
       -4    1    3    3    0  502  0.55693413194E+03 -0.11282808781E+04 -0.77433997559E+03  0.14774293140E+04  0.12699999809E+01 0. -1.
</event>
<event>
 5   0  0.1843709E-06  0.3107488E+04  0.7818609E-02  0.8213686E-01
        1   -1    0    0  501    0  0.00000000000E+00  0.00000000000E+00  0.33294107313E+04  0.33294107313E+04  0.50400001928E-02 0.  1.
       -1   -1    0    0    0  501  0.00000000000E+00  0.00000000000E+00 -0.72508941947E+03  0.72508941949E+03  0.50400001928E-02 0. -1.
    10030    2    1    2    0    0  0.00000000000E+00  0.00000000000E+00  0.26043213118E+04  0.40545001508E+04  0.31074880495E+04 0.  0.
        4    1    3    3  502    0 -0.12742165162E+04  0.23931678670E+03  0.18492548634E+03  0.13096179989E+04  0.12699999809E+01 0. -1.
       -4    1    3    3    0  502  0.12742165162E+04 -0.23931678670E+03  0.24193958255E+04  0.27448821519E+04  0.12699999809E+01 0.  1.
</event>
<event>
 5   0  0.1853742E-06  0.3117353E+04  0.7818609E-02  0.8210992E-01
       -1   -1    0    0    0  501  0.00000000000E+00  0.00000000000E+00  0.16156859901E+04  0.16156859901E+04  0.50400001928E-02 0.  1.
        1   -1    0    0  501    0  0.00000000000E+00  0.00000000000E+00 -0.15036783280E+04  0.15036783281E+04  0.50400001928E-02 0. -1.
    10030    2    1    2    0    0  0.00000000000E+00  0.00000000000E+00  0.11200766205E+03  0.31193643182E+04  0.31173527284E+04 0.  0.
        5    1    3    3  502    0  0.59373706699E+03  0.10971779641E+04  0.99101930053E+03  0.15932559536E+04  0.46999998093E+01 0.  1.
       -5    1    3    3    0  502 -0.59373706699E+03 -0.10971779641E+04 -0.87901163848E+03  0.15261083645E+04  0.46999998093E+01 0. -1.
</event>
<event>
 5   0  0.1836401E-06  0.3120297E+04  0.7818609E-02  0.8210189E-01
       -1   -1    0    0    0  501  0.00000000000E+00  0.00000000000E+00  0.11022161011E+04  0.11022161011E+04  0.50400001928E-02 0.  1.
        1   -1    0    0  501    0  0.00000000000E+00  0.00000000000E+00 -0.22083365267E+04  0.22083365267E+04  0.50400001928E-02 0. -1.
    10030    2    1    2    0    0  0.00000000000E+00  0.00000000000E+00 -0.11061204255E+04  0.33105526278E+04  0.31202974707E+04 0.  0.
        2    1    3    3  502    0 -0.70759594523E+03  0.10567746514E+04 -0.15118182619E+04  0.19756161425E+04  0.25500000920E-02 0. -1.
       -2    1    3    3    0  502  0.70759594523E+03 -0.10567746514E+04  0.40569783632E+03  0.13349364853E+04  0.25500000920E-02 0.  1.
</event>
<event>
 5   0  0.5328368E-06  0.2815441E+04  0.7818609E-02  0.8298490E-01
        2   -1    0    0  501    0  0.00000000000E+00  0.00000000000E+00  0.14519667751E+04  0.14519667751E+04  0.25500000920E-02 0. -1.
       -2   -1    0    0    0  501  0.00000000000E+00  0.00000000000E+00 -0.13648228180E+04  0.13648228180E+04  0.25500000920E-02 0.  1.
    10030    2    1    2    0    0  0.00000000000E+00  0.00000000000E+00  0.87143957063E+02  0.28167895931E+04  0.28154412696E+04 0.  0.
        1    1    3    3  502    0 -0.20588484751E+03 -0.13915934046E+04 -0.89566087045E+01  0.14067697022E+04  0.50400001928E-02 0.  1.
       -1    1    3    3    0  502  0.20588484751E+03  0.13915934046E+04  0.96100565767E+02  0.14100198910E+04  0.50400001928E-02 0. -1.
</event>
<event>
 5   0  0.5001658E-06  0.2989573E+04  0.7818609E-02  0.8246715E-01
       -2   -1    0    0    0  501  0.00000000000E+00  0.00000000000E+00  0.17715053386E+04  0.17715053386E+04  0.25500000920E-02 0.  1.
        2   -1    0    0  501    0  0.00000000000E+00  0.00000000000E+00 -0.12612927424E+04  0.12612927424E+04  0.25500000920E-02 0. -1.
    10030    2    1    2    0    0  0.00000000000E+00  0.00000000000E+00  0.51021259617E+03  0.30327980809E+04  0.29895730977E+04 0.  0.
        3    1    3    3  502    0  0.68072234458E+03  0.13126581538E+04  0.47720665521E+03  0.15537633479E+04  0.10100000352E+00 0.  1.
       -3    1    3    3    0  502 -0.68072234458E+03 -0.13126581538E+04  0.33005940963E+02  0.14790347331E+04  0.10100000352E+00 0. -1.
</event>
<event>
 5   0  0.5001658E-06  0.3086131E+04  0.7818609E-02  0.8219554E-01
        2   -1    0    0  501    0  0.00000000000E+00  0.00000000000E+00  0.17545299541E+04  0.17545299541E+04  0.25500000920E-02 0. -1.
       -2   -1    0    0    0  501  0.00000000000E+00  0.00000000000E+00 -0.13570877996E+04  0.13570877996E+04  0.25500000920E-02 0.  1.
    10030    2    1    2    0    0  0.00000000000E+00  0.00000000000E+00  0.39744215450E+03  0.31116177536E+04  0.30861310371E+04 0.  0.
        3    1    3    3  502    0 -0.46027185840E+03 -0.14649326588E+04  0.45236099122E+02  0.15362044764E+04  0.10100000352E+00 0.  1.
       -3    1    3    3    0  502  0.46027185840E+03  0.14649326588E+04  0.35220605538E+03  0.15754132772E+04  0.10100000352E+00 0. -1.
</event>
<event>
 5   0  0.1843709E-06  0.2381229E+04  0.7818609E-02  0.8446565E-01
        1   -1    0    0  501    0  0.00000000000E+00  0.00000000000E+00  0.71790527326E+03  0.71790527328E+03  0.50400001928E-02 0. -1.
       -1   -1    0    0    0  501  0.00000000000E+00  0.00000000000E+00 -0.19745828379E+04  0.19745828380E+04  0.50400001928E-02 0.  1.
    10030    2    1    2    0    0  0.00000000000E+00  0.00000000000E+00 -0.12566775647E+04  0.26924881112E+04  0.23812294571E+04 0.  0.
        4    1    3    3  502    0 -0.72836846002E+03  0.63972438121E+03  0.15324017482E+03  0.98145405473E+03  0.12699999809E+01 0.  1.
       -4    1    3    3    0  502  0.72836846002E+03 -0.63972438121E+03 -0.14099177395E+04  0.17110340565E+04  0.12699999809E+01 0. -1.
</event>
<event>
 5   0  0.5328368E-06  0.3091274E+04  0.7818609E-02  0.8218137E-01
        2   -1    0    0  501    0  0.00000000000E+00  0.00000000000E+00  0.18720287353E+04  0.18720287353E+04  0.25500000920E-02 0.  1.
       -2   -1    0    0    0  501  0.00000000000E+00  0.00000000000E+00 -0.12761519892E+04  0.12761519892E+04  0.25500000920E-02 0. -1.
    10030    2    1    2    0    0  0.00000000000E+00  0.00000000000E+00  0.59587674614E+03  0.31481807245E+04  0.30912736497E+04 0.  0.
        1    1    3    3  502    0 -0.58656726243E+03 -0.11778827508E+04  0.11237444915E+04  0.17303960848E+04  0.50400001928E-02 0.  1.
       -1    1    3    3    0  502  0.58656726243E+03  0.11778827508E+04 -0.52786774538E+03  0.14177846397E+04  0.50400001928E-02 0. -1.
</event>
<event>
 5   0  0.1836401E-06  0.2234596E+04  0.7818609E-02  0.8504165E-01
       -1   -1    0    0    0  501  0.00000000000E+00  0.00000000000E+00  0.89579605041E+03  0.89579605043E+03  0.50400001928E-02 0. -1.
        1   -1    0    0  501    0  0.00000000000E+00  0.00000000000E+00 -0.13935709434E+04  0.13935709434E+04  0.50400001928E-02 0.  1.
    10030    2    1    2    0    0  0.00000000000E+00  0.00000000000E+00 -0.49777489294E+03  0.22893669938E+04  0.22345964710E+04 0.  0.
        2    1    3    3  502    0 -0.10680618362E+04 -0.14784925882E+03  0.51103182186E+02  0.10794568192E+04  0.25500000920E-02 0. -1.
       -2    1    3    3    0  502  0.10680618362E+04  0.14784925882E+03 -0.54887807512E+03  0.12099101746E+04  0.25500000920E-02 0.  1.
</event>
<event>
 5   0  0.1885307E-06  0.3144235E+04  0.7818609E-02  0.8203702E-01
        1   -1    0    0  501    0  0.00000000000E+00  0.00000000000E+00  0.18750225948E+04  0.18750225948E+04  0.50400001928E-02 0.  1.
       -1   -1    0    0    0  501  0.00000000000E+00  0.00000000000E+00 -0.13181459071E+04  0.13181459072E+04  0.50400001928E-02 0. -1.
    10030    2    1    2    0    0  0.00000000000E+00  0.00000000000E+00  0.55687668767E+03  0.31931685020E+04  0.31442349525E+04 0.  0.
        3    1    3    3  502    0  0.27176468349E+01  0.10386919177E+04  0.14769166742E+04  0.18055944058E+04  0.10100000352E+00 0.  1.
       -3    1    3    3    0  502 -0.27176468349E+01 -0.10386919177E+04 -0.92003998650E+03  0.13875740962E+04  0.10100000352E+00 0. -1.
</event>
<event>
 5   0  0.1853742E-06  0.3113387E+04  0.7818609E-02  0.8212074E-01
       -1   -1    0    0    0  501  0.00000000000E+00  0.00000000000E+00  0.90686461774E+03  0.90686461776E+03  0.50400001928E-02 0. -1.
        1   -1    0    0  501    0  0.00000000000E+00  0.00000000000E+00 -0.26721674406E+04  0.26721674406E+04  0.50400001928E-02 0.  1.
    10030    2    1    2    0    0  0.00000000000E+00  0.00000000000E+00 -0.17653028229E+04  0.35790320584E+04  0.31133866478E+04 0.  0.
        5    1    3    3  502    0  0.19254916373E+03 -0.68295505616E+03 -0.24754359920E+04  0.25751326625E+04  0.46999998093E+01 0.  1.
       -5    1    3    3    0  502 -0.19254916373E+03  0.68295505616E+03  0.71013316910E+03  0.10038993959E+04  0.46999998093E+01 0. -1.
</event>
<event>
 5   0  0.5114870E-06  0.3105995E+04  0.7818609E-02  0.8214095E-01
        2   -1    0    0  501    0  0.00000000000E+00  0.00000000000E+00  0.14561704139E+04  0.14561704139E+04  0.25500000920E-02 0. -1.
       -2   -1    0    0    0  501  0.00000000000E+00  0.00000000000E+00 -0.16562632524E+04  0.16562632524E+04  0.25500000920E-02 0.  1.
    10030    2    1    2    0    0  0.00000000000E+00  0.00000000000E+00 -0.20009283847E+03  0.31124336662E+04  0.31059952001E+04 0.  0.
        2    1    3    3  502    0 -0.12915332593E+04  0.78464007537E+03 -0.45867561523E+03  0.15792724679E+04  0.25500000920E-02 0.  1.
       -2    1    3    3    0  502  0.12915332593E+04 -0.78464007537E+03  0.25858277675E+03  0.15331611984E+04  0.25500000920E-02 0. -1.
</event>
<event>
 5   0  0.5328368E-06  0.2987234E+04  0.7818609E-02  0.8247386E-01
       -2   -1    0    0    0  501  0.00000000000E+00  0.00000000000E+00  0.63755728652E+03  0.63755728652E+03  0.25500000920E-02 0. -1.
        2   -1    0    0  501    0  0.00000000000E+00  0.00000000000E+00 -0.34991231836E+04  0.34991231836E+04  0.25500000920E-02 0.  1.
    10030    2    1    2    0    0  0.00000000000E+00  0.00000000000E+00 -0.28615658971E+04  0.41366804702E+04  0.29872338256E+04 0.  0.
        1    1    3    3  502    0 -0.12532324954E+04 -0.72712639051E+03 -0.19331131176E+04  0.24158292160E+04  0.50400001928E-02 0. -1.
       -1    1    3    3    0  502  0.12532324954E+04  0.72712639051E+03 -0.92845277953E+03  0.17208512542E+04  0.50400001928E-02 0.  1.
</event>
<event>
 5   0  0.4927533E-06  0.3070256E+04  0.7818609E-02  0.8223949E-01
        2   -1    0    0  501    0  0.00000000000E+00  0.00000000000E+00  0.23476633586E+04  0.23476633586E+04  0.25500000920E-02 0.  1.
       -2   -1    0    0    0  501  0.00000000000E+00  0.00000000000E+00 -0.10038139419E+04  0.10038139419E+04  0.25500000920E-02 0. -1.
    10030    2    1    2    0    0  0.00000000000E+00  0.00000000000E+00  0.13438494167E+04  0.33514773005E+04  0.30702555009E+04 0.  0.
        5    1    3    3  502    0  0.19889317675E+03 -0.15210410687E+04  0.73623341626E+03  0.17015246580E+04  0.46999998093E+01 0.  1.
       -5    1    3    3    0  502 -0.19889317675E+03  0.15210410687E+04  0.60761600049E+03  0.16499526425E+04  0.46999998093E+01 0. -1.
</event>
<event>
 5   0  0.1836401E-06  0.2917533E+04  0.7818609E-02  0.8267680E-01
       -1   -1    0    0    0  501  0.00000000000E+00  0.00000000000E+00  0.10729555872E+04  0.10729555872E+04  0.50400001928E-02 0. -1.
        1   -1    0    0  501    0  0.00000000000E+00  0.00000000000E+00 -0.19833061796E+04  0.19833061796E+04  0.50400001928E-02 0.  1.
    10030    2    1    2    0    0  0.00000000000E+00  0.00000000000E+00 -0.91035059239E+03  0.30562617668E+04  0.29175328252E+04 0.  0.
        2    1    3    3  502    0 -0.12685172104E+04 -0.68946347246E+03 -0.67366836488E+03  0.15932121198E+04  0.25500000920E-02 0.  1.
       -2    1    3    3    0  502  0.12685172104E+04  0.68946347246E+03 -0.23668222751E+03  0.14630496470E+04  0.25500000920E-02 0. -1.
</event>
<event>
 5   0  0.4900679E-06  0.3122062E+04  0.7818609E-02  0.8209709E-01
       -2   -1    0    0    0  501  0.00000000000E+00  0.00000000000E+00  0.20058643071E+04  0.20058643071E+04  0.25500000920E-02 0.  1.
        2   -1    0    0  501    0  0.00000000000E+00  0.00000000000E+00 -0.12148467306E+04  0.12148467306E+04  0.25500000920E-02 0. -1.
    10030    2    1    2    0    0  0.00000000000E+00  0.00000000000E+00  0.79101757642E+03  0.32207110377E+04  0.31220619440E+04 0.  0.
        4    1    3    3  502    0 -0.50066053899E+03  0.41659639318E+03  0.18589970913E+04  0.19697932197E+04  0.12699999809E+01 0.  1.
       -4    1    3    3    0  502  0.50066053899E+03 -0.41659639318E+03 -0.10679795149E+04  0.12509178180E+04  0.12699999809E+01 0. -1.
</event>
<event>
 5   0  0.5328368E-06  0.3122816E+04  0.7818609E-02  0.8209504E-01
       -2   -1    0    0    0  501  0.00000000000E+00  0.00000000000E+00  0.12571226837E+04  0.12571226837E+04  0.25500000920E-02 0. -1.
        2   -1    0    0  501    0  0.00000000000E+00  0.00000000000E+00 -0.19393453470E+04  0.19393453470E+04  0.25500000920E-02 0.  1.
    10030    2    1    2    0    0  0.00000000000E+00  0.00000000000E+00 -0.68222266324E+03  0.31964680307E+04  0.31228160543E+04 0.  0.
        1    1    3    3  502    0  0.74176135287E+03 -0.49847991994E+03  0.96943857662E+03  0.13185231470E+04  0.50400001928E-02 0. -1.
       -1    1    3    3    0  502 -0.74176135287E+03  0.49847991994E+03 -0.16516612399E+04  0.18779448838E+04  0.50400001928E-02 0.  1.
</event>
<event>
 5   0  0.1840431E-06  0.3110822E+04  0.7818609E-02  0.8212774E-01
        1   -1    0    0  501    0  0.00000000000E+00  0.00000000000E+00  0.94757491271E+03  0.94757491273E+03  0.50400001928E-02 0.  1.
       -1   -1    0    0    0  501  0.00000000000E+00  0.00000000000E+00 -0.25531528161E+04  0.25531528161E+04  0.50400001928E-02 0. -1.
    10030    2    1    2    0    0  0.00000000000E+00  0.00000000000E+00 -0.16055779034E+04  0.35007277289E+04  0.31108221144E+04 0.  0.
        1    1    3    3  502    0  0.19084369060E+03  0.37492972756E+03  0.88233161132E+03  0.97749817760E+03  0.50400001928E-02 0.  1.
       -1    1    3    3    0  502 -0.19084369060E+03 -0.37492972756E+03 -0.24879095147E+04  0.25232295513E+04  0.50400001928E-02 0. -1.
</event>
<event>
 5   0  0.1853742E-06  0.3010260E+04  0.7818609E-02  0.8240807E-01
        1   -1    0    0  501    0  0.00000000000E+00  0.00000000000E+00  0.19648402548E+04  0.19648402548E+04  0.50400001928E-02 0.  1.
       -1   -1    0    0    0  501  0.00000000000E+00  0.00000000000E+00 -0.11529771644E+04  0.11529771645E+04  0.50400001928E-02 0. -1.
    10030    2    1    2    0    0  0.00000000000E+00  0.00000000000E+00  0.81186309033E+03  0.31178174192E+04  0.30102597533E+04 0.  0.
        5    1    3    3  502    0 -0.95074034464E+03  0.11147084394E+04  0.48774609487E+02  0.14659069412E+04  0.46999998093E+01 0.  1.
       -5    1    3    3    0  502  0.95074034464E+03 -0.11147084394E+04  0.76308848084E+03  0.16519104780E+04  0.46999998093E+01 0. -1.
</event>
<event>
 5   0  0.4927533E-06  0.2343149E+04  0.7818609E-02  0.8461100E-01
        2   -1    0    0  501    0  0.00000000000E+00  0.00000000000E+00  0.18651592267E+04  0.18651592267E+04  0.25500000920E-02 0.  1.
       -2   -1    0    0    0  501  0.00000000000E+00  0.00000000000E+00 -0.73590853492E+03  0.73590853493E+03  0.25500000920E-02 0. -1.
    10030    2    1    2    0    0  0.00000000000E+00  0.00000000000E+00  0.11292506918E+04  0.26010677617E+04  0.23431488164E+04 0.  0.
        5    1    3    3  502    0  0.12113974108E+03 -0.92961831654E+03 -0.21535402613E+03  0.96190669916E+03  0.46999998093E+01 0. -1.
       -5    1    3    3    0  502 -0.12113974108E+03  0.92961831654E+03  0.13446047179E+04  0.16391610625E+04  0.46999998093E+01 0.  1.
</event>
<event>
 5   0  0.4927533E-06  0.3090674E+04  0.7818609E-02  0.8218302E-01
       -2   -1    0    0    0  501  0.00000000000E+00  0.00000000000E+00  0.84209250422E+03  0.84209250423E+03  0.25500000920E-02 0. -1.
        2   -1    0    0  501    0  0.00000000000E+00  0.00000000000E+00 -0.28358724553E+04  0.28358724553E+04  0.25500000920E-02 0.  1.
    10030    2    1    2    0    0  0.00000000000E+00  0.00000000000E+00 -0.19937799511E+04  0.36779649595E+04  0.30906743197E+04 0.  0.
        5    1    3    3  502    0 -0.10146800083E+03  0.40630482629E+03  0.77326880634E+03  0.87940099153E+03  0.46999998093E+01 0. -1.
       -5    1    3    3    0  502  0.10146800083E+03 -0.40630482629E+03 -0.27670487574E+04  0.27985639680E+04  0.46999998093E+01 0.  1.
</event>
<event>
 5   0  0.4927533E-06  0.3067524E+04  0.7818609E-02  0.8224708E-01
        2   -1    0    0  501    0  0.00000000000E+00  0.00000000000E+00  0.14808230793E+04  0.14808230793E+04  0.25500000920E-02 0. -1.
       -2   -1    0    0    0  501  0.00000000000E+00  0.00000000000E+00 -0.15885934457E+04  0.15885934457E+04  0.25500000920E-02 0.  1.
    10030    2    1    2    0    0  0.00000000000E+00  0.00000000000E+00 -0.10777036640E+03  0.30694165250E+04  0.30675239774E+04 0.  0.
        5    1    3    3  502    0  0.42222801329E+03  0.46952661495E+03  0.13447153457E+04  0.14856019616E+04  0.46999998093E+01 0. -1.
       -5    1    3    3    0  502 -0.42222801329E+03 -0.46952661495E+03 -0.14524857121E+04  0.15838145634E+04  0.46999998093E+01 0.  1.
</event>
<event>
 5   0  0.4900679E-06  0.3093113E+04  0.7818609E-02  0.8217631E-01
       -2   -1    0    0    0  501  0.00000000000E+00  0.00000000000E+00  0.14504309646E+04  0.14504309646E+04  0.25500000920E-02 0. -1.
        2   -1    0    0  501    0  0.00000000000E+00  0.00000000000E+00 -0.16490521877E+04  0.16490521877E+04  0.25500000920E-02 0.  1.
    10030    2    1    2    0    0  0.00000000000E+00  0.00000000000E+00 -0.19862122304E+03  0.30994831523E+04  0.30931125781E+04 0.  0.
        4    1    3    3  502    0  0.75146999208E+03  0.13175605683E+04  0.20324127200E+03  0.15303534323E+04  0.12699999809E+01 0. -1.
       -4    1    3    3    0  502 -0.75146999208E+03 -0.13175605683E+04 -0.40186249504E+03  0.15691297200E+04  0.12699999809E+01 0.  1.
</event>
<event>
 5   0  0.4900679E-06  0.3151505E+04  0.7818609E-02  0.8201743E-01
        2   -1    0    0  501    0  0.00000000000E+00  0.00000000000E+00  0.24623097504E+04  0.24623097504E+04  0.25500000920E-02 0. -1.
       -2   -1    0    0    0  501  0.00000000000E+00  0.00000000000E+00 -0.10084013713E+04  0.10084013713E+04  0.25500000920E-02 0.  1.
    10030    2    1    2    0    0  0.00000000000E+00  0.00000000000E+00  0.14539083791E+04  0.34707111217E+04  0.31515053729E+04 0.  0.
        4    1    3    3  502    0  0.52508422507E+03  0.10211974647E+04 -0.46143434517E+03  0.12375301908E+04  0.12699999809E+01 0.  1.
       -4    1    3    3    0  502 -0.52508422507E+03 -0.10211974647E+04  0.19153427243E+04  0.22331809308E+04  0.12699999809E+01 0. -1.
</event>
<event>
 5   0  0.1853742E-06  0.2969202E+04  0.7818609E-02  0.8252581E-01
       -1   -1    0    0    0  501  0.00000000000E+00  0.00000000000E+00  0.16756870753E+04  0.16756870753E+04  0.50400001928E-02 0.  1.
        1   -1    0    0  501    0  0.00000000000E+00  0.00000000000E+00 -0.13153050508E+04  0.13153050508E+04  0.50400001928E-02 0. -1.
    10030    2    1    2    0    0  0.00000000000E+00  0.00000000000E+00  0.36038202445E+03  0.29909921261E+04  0.29692016932E+04 0.  0.
        5    1    3    3  502    0  0.88509938065E+02  0.53346983751E+03  0.15729415780E+04  0.16633073602E+04  0.46999998093E+01 0.  1.
       -5    1    3    3    0  502 -0.88509938065E+02 -0.53346983751E+03 -0.12125595535E+04  0.13276847659E+04  0.46999998093E+01 0. -1.
</event>
<event>
 5   0  0.5001658E-06  0.3227906E+04  0.7818609E-02  0.8181486E-01
        2   -1    0    0  501    0  0.00000000000E+00  0.00000000000E+00  0.21769685570E+04  0.21769685570E+04  0.25500000920E-02 0. -1.
       -2   -1    0    0    0  501  0.00000000000E+00  0.00000000000E+00 -0.11965466777E+04  0.11965466777E+04  0.25500000920E-02 0.  1.
    10030    2    1    2    0    0  0.00000000000E+00  0.00000000000E+00  0.98042187938E+03  0.33735152347E+04  0.32279061289E+04 0.  0.
        3    1    3    3  502    0 -0.17971207994E+03  0.37090627706E+03  0.21210427501E+04  0.21607152186E+04  0.10100000352E+00 0. -1.
       -3    1    3    3    0  502  0.17971207994E+03 -0.37090627706E+03 -0.11406208707E+04  0.12128000161E+04  0.10100000352E+00 0.  1.
</event>
<event>
 5   0  0.5114870E-06  0.3104896E+04  0.7818609E-02  0.8214396E-01
       -2   -1    0    0    0  501  0.00000000000E+00  0.00000000000E+00  0.12967083233E+04  0.12967083233E+04  0.25500000920E-02 0.  1.
        2   -1    0    0  501    0  0.00000000000E+00  0.00000000000E+00 -0.18586253458E+04  0.18586253458E+04  0.25500000920E-02 0. -1.
    10030    2    1    2    0    0  0.00000000000E+00  0.00000000000E+00 -0.56191702248E+03  0.31553336692E+04  0.31048961051E+04 0.  0.
        2    1    3    3  502    0  0.47912811433E+03  0.85182639557E+03 -0.15067545779E+04  0.17959625041E+04  0.25500000920E-02 0. -1.
       -2    1    3    3    0  502 -0.47912811433E+03 -0.85182639557E+03  0.94483755545E+03  0.13593711650E+04  0.25500000920E-02 0.  1.
</event>
<event>
 5   0  0.1885307E-06  0.3137865E+04  0.7818609E-02  0.8205422E-01
       -1   -1    0    0    0  501  0.00000000000E+00  0.00000000000E+00  0.11675647793E+04  0.11675647793E+04  0.50400001928E-02 0. -1.
        1   -1    0    0  501    0  0.00000000000E+00  0.00000000000E+00 -0.21082764515E+04  0.21082764515E+04  0.50400001928E-02 0.  1.
    10030    2    1    2    0    0  0.00000000000E+00  0.00000000000E+00 -0.94071167212E+03  0.32758412308E+04  0.31378650894E+04 0.  0.
        3    1    3    3  502    0 -0.12256488900E+04 -0.20064139906E+03 -0.14711956214E+04  0.19253282160E+04  0.10100000352E+00 0.  1.
       -3    1    3    3    0  502  0.12256488900E+04  0.20064139906E+03  0.53048394923E+03  0.13505130148E+04  0.10100000352E+00 0. -1.
</event>
<event>
 5   0  0.4927533E-06  0.3018998E+04  0.7818609E-02  0.8238326E-01
        2   -1    0    0  501    0  0.00000000000E+00  0.00000000000E+00  0.18540086318E+04  0.18540086318E+04  0.25500000920E-02 0.  1.
       -2   -1    0    0    0  501  0.00000000000E+00  0.00000000000E+00 -0.12290060929E+04  0.12290060929E+04  0.25500000920E-02 0. -1.
    10030    2    1    2    0    0  0.00000000000E+00  0.00000000000E+00  0.62500253898E+03  0.30830147247E+04  0.30189984463E+04 0.  0.
        5    1    3    3  502    0 -0.84752141775E+03 -0.77833395623E+03  0.13101869526E+04  0.17437626679E+04  0.46999998093E+01 0.  1.
       -5    1    3    3    0  502  0.84752141775E+03  0.77833395623E+03 -0.68518441367E+03  0.13392520568E+04  0.46999998093E+01 0. -1.
</event>
<event>
 5   0  0.5114870E-06  0.3099563E+04  0.7818609E-02  0.8215858E-01
       -2   -1    0    0    0  501  0.00000000000E+00  0.00000000000E+00  0.23797885014E+04  0.23797885014E+04  0.25500000920E-02 0.  1.
        2   -1    0    0  501    0  0.00000000000E+00  0.00000000000E+00 -0.10092591038E+04  0.10092591038E+04  0.25500000920E-02 0. -1.
    10030    2    1    2    0    0  0.00000000000E+00  0.00000000000E+00  0.13705293976E+04  0.33890476052E+04  0.30995633307E+04 0.  0.
        2    1    3    3  502    0 -0.15232731043E+04 -0.12261287060E+03  0.96707305580E+03  0.18084869813E+04  0.25500000920E-02 0.  1.
       -2    1    3    3    0  502  0.15232731043E+04  0.12261287060E+03  0.40345634181E+03  0.15805606240E+04  0.25500000920E-02 0. -1.
</event>
<event>
 5   0  0.1840431E-06  0.3192328E+04  0.7818609E-02  0.8190846E-01
        1   -1    0    0  501    0  0.00000000000E+00  0.00000000000E+00  0.10615985204E+04  0.10615985204E+04  0.50400001928E-02 0. -1.
       -1   -1    0    0    0  501  0.00000000000E+00  0.00000000000E+00 -0.23999085679E+04  0.23999085679E+04  0.50400001928E-02 0.  1.
    10030    2    1    2    0    0  0.00000000000E+00  0.00000000000E+00 -0.13383100475E+04  0.34615070883E+04  0.31923279184E+04 0.  0.
        1    1    3    3  502    0 -0.63019318702E+03 -0.73755270630E+03  0.70524522141E+03  0.11993741159E+04  0.50400001928E-02 0. -1.
       -1    1    3    3    0  502  0.63019318702E+03  0.73755270630E+03 -0.20435552689E+04  0.22621329724E+04  0.50400001928E-02 0.  1.
</event>
<event>
 5   0  0.4927533E-06  0.3054332E+04  0.7818609E-02  0.8228384E-01
       -2   -1    0    0    0  501  0.00000000000E+00  0.00000000000E+00  0.12099067699E+04  0.12099067699E+04  0.25500000920E-02 0. -1.
        2   -1    0    0  501    0  0.00000000000E+00  0.00000000000E+00 -0.19276162626E+04  0.19276162626E+04  0.25500000920E-02 0.  1.
    10030    2    1    2    0    0  0.00000000000E+00  0.00000000000E+00 -0.71770949271E+03  0.31375230325E+04  0.30543319832E+04 0.  0.
        5    1    3    3  502    0 -0.79868522708E+03 -0.11854416812E+04 -0.91112609779E+03  0.16950937814E+04  0.46999998093E+01 0.  1.
       -5    1    3    3    0  502  0.79868522708E+03  0.11854416812E+04  0.19341660508E+03  0.14424292512E+04  0.46999998093E+01 0. -1.
</event>
<event>
 5   0  0.4927533E-06  0.2831858E+04  0.7818609E-02  0.8293445E-01
        2   -1    0    0  501    0  0.00000000000E+00  0.00000000000E+00  0.14688387853E+04  0.14688387853E+04  0.25500000920E-02 0.  1.
       -2   -1    0    0    0  501  0.00000000000E+00  0.00000000000E+00 -0.13649250422E+04  0.13649250422E+04  0.25500000920E-02 0. -1.
    10030    2    1    2    0    0  0.00000000000E+00  0.00000000000E+00  0.10391374313E+03  0.28337638275E+04  0.28318579350E+04 0.  0.
        5    1    3    3  502    0  0.93859274020E+03 -0.86969912275E+03  0.65858253023E+03  0.14391267961E+04  0.46999998093E+01 0.  1.
       -5    1    3    3    0  502 -0.93859274020E+03  0.86969912275E+03 -0.55466878710E+03  0.13946370314E+04  0.46999998093E+01 0. -1.
</event>
<event>
 5   0  0.5001658E-06  0.3092535E+04  0.7818609E-02  0.8217790E-01
        2   -1    0    0  501    0  0.00000000000E+00  0.00000000000E+00  0.20187050840E+04  0.20187050840E+04  0.25500000920E-02 0.  1.
       -2   -1    0    0    0  501  0.00000000000E+00  0.00000000000E+00 -0.11843942462E+04  0.11843942462E+04  0.25500000920E-02 0. -1.
    10030    2    1    2    0    0  0.00000000000E+00  0.00000000000E+00  0.83431083780E+03  0.32030993302E+04  0.30925346796E+04 0.  0.
        3    1    3    3  502    0  0.13831463737E+04  0.62060525174E+03  0.10180690353E+03  0.15194108811E+04  0.10100000352E+00 0. -1.
       -3    1    3    3    0  502 -0.13831463737E+04 -0.62060525174E+03  0.73250393427E+03  0.16836884491E+04  0.10100000352E+00 0.  1.
</event>
<event>
 5   0  0.1836401E-06  0.3123088E+04  0.7818609E-02  0.8209430E-01
        1   -1    0    0  501    0  0.00000000000E+00  0.00000000000E+00  0.19158132154E+04  0.19158132154E+04  0.50400001928E-02 0. -1.
       -1   -1    0    0    0  501  0.00000000000E+00  0.00000000000E+00 -0.12727858464E+04  0.12727858464E+04  0.50400001928E-02 0.  1.
    10030    2    1    2    0    0  0.00000000000E+00  0.00000000000E+00  0.64302736907E+03  0.31885990618E+04  0.31230881799E+04 0.  0.
        2    1    3    3  502    0  0.12390713500E+04 -0.83674642995E+03  0.78149444477E+03  0.16870613402E+04  0.25500000920E-02 0. -1.
       -2    1    3    3    0  502 -0.12390713500E+04  0.83674642995E+03 -0.13846707569E+03  0.15015377216E+04  0.25500000920E-02 0.  1.
</event>
<event>
 5   0  0.1853742E-06  0.3107037E+04  0.7818609E-02  0.8213809E-01
        1   -1    0    0  501    0  0.00000000000E+00  0.00000000000E+00  0.13108924372E+04  0.13108924372E+04  0.50400001928E-02 0. -1.
       -1   -1    0    0    0  501  0.00000000000E+00  0.00000000000E+00 -0.18410514452E+04  0.18410514452E+04  0.50400001928E-02 0.  1.
    10030    2    1    2    0    0  0.00000000000E+00  0.00000000000E+00 -0.53015900806E+03  0.31519438824E+04  0.31070374417E+04 0.  0.
        5    1    3    3  502    0 -0.94190721297E+03 -0.11231141517E+04 -0.78712750779E+03  0.16637807545E+04  0.46999998093E+01 0.  1.
       -5    1    3    3    0  502  0.94190721297E+03  0.11231141517E+04  0.25696849973E+03  0.14881631279E+04  0.46999998093E+01 0. -1.
</event>
<event>
 5   0  0.5114870E-06  0.3111344E+04  0.7818609E-02  0.8212632E-01
       -2   -1    0    0    0  501  0.00000000000E+00  0.00000000000E+00  0.26629013449E+04  0.26629013449E+04  0.25500000920E-02 0. -1.
        2   -1    0    0  501    0  0.00000000000E+00  0.00000000000E+00 -0.90882658518E+03  0.90882658518E+03  0.25500000920E-02 0.  1.
    10030    2    1    2    0    0  0.00000000000E+00  0.00000000000E+00  0.17540747597E+04  0.35717279301E+04  0.31113441057E+04 0.  0.
        2    1    3    3  502    0 -0.10729290544E+04 -0.11217131978E+04  0.99577472834E+03  0.18441758494E+04  0.25500000920E-02 0.  1.
       -2    1    3    3    0  502  0.10729290544E+04  0.11217131978E+04  0.75830003139E+03  0.17275520807E+04  0.25500000920E-02 0. -1.
</event>
<event>
 5   0  0.5328368E-06  0.3093147E+04  0.7818609E-02  0.8217621E-01
       -2   -1    0    0    0  501  0.00000000000E+00  0.00000000000E+00  0.11520515108E+04  0.11520515108E+04  0.25500000920E-02 0.  1.
        2   -1    0    0  501    0  0.00000000000E+00  0.00000000000E+00 -0.20761997917E+04  0.20761997917E+04  0.25500000920E-02 0. -1.
    10030    2    1    2    0    0  0.00000000000E+00  0.00000000000E+00 -0.92414828084E+03  0.32282513025E+04  0.30931466870E+04 0.  0.
        1    1    3    3  502    0  0.89849839661E+03 -0.12587278921E+04 -0.44754368510E+03  0.16099660323E+04  0.50400001928E-02 0.  1.
       -1    1    3    3    0  502 -0.89849839661E+03  0.12587278921E+04 -0.47660459574E+03  0.16182852702E+04  0.50400001928E-02 0. -1.
</event>
<event>
 5   0  0.1843709E-06  0.3071965E+04  0.7818609E-02  0.8223474E-01
        1   -1    0    0  501    0  0.00000000000E+00  0.00000000000E+00  0.16369953866E+04  0.16369953866E+04  0.50400001928E-02 0. -1.
       -1   -1    0    0    0  501  0.00000000000E+00  0.00000000000E+00 -0.14412031688E+04  0.14412031688E+04  0.50400001928E-02 0.  1.
    10030    2    1    2    0    0  0.00000000000E+00  0.00000000000E+00  0.19579221776E+03  0.30781985554E+04  0.30719654546E+04 0.  0.
        4    1    3    3  502    0 -0.63750529488E+02 -0.76312134598E+02 -0.14379740451E+04  0.14414085608E+04  0.12699999809E+01 0.  1.
       -4    1    3    3    0  502  0.63750529488E+02  0.76312134598E+02  0.16337662629E+04  0.16367899946E+04  0.12699999809E+01 0. -1.
</event>
<event>
 5   0  0.1885307E-06  0.3119136E+04  0.7818609E-02  0.8210506E-01
        1   -1    0    0  501    0  0.00000000000E+00  0.00000000000E+00  0.22416410229E+04  0.22416410229E+04  0.50400001928E-02 0. -1.
       -1   -1    0    0    0  501  0.00000000000E+00  0.00000000000E+00 -0.10850317361E+04  0.10850317361E+04  0.50400001928E-02 0.  1.
    10030    2    1    2    0    0  0.00000000000E+00  0.00000000000E+00  0.11566092868E+04  0.33266727590E+04  0.31191355538E+04 0.  0.
        3    1    3    3  502    0 -0.15952519006E+03 -0.14349805782E+04  0.12071400904E+04  0.18819683191E+04  0.10100000352E+00 0. -1.
       -3    1    3    3    0  502  0.15952519006E+03  0.14349805782E+04 -0.50530803638E+02  0.14447044398E+04  0.10100000352E+00 0.  1.
</event>
<event>
 5   0  0.5114870E-06  0.3126241E+04  0.7818609E-02  0.8208573E-01
       -2   -1    0    0    0  501  0.00000000000E+00  0.00000000000E+00  0.10480494970E+04  0.10480494970E+04  0.25500000920E-02 0. -1.
        2   -1    0    0  501    0  0.00000000000E+00  0.00000000000E+00 -0.23313270228E+04  0.23313270228E+04  0.25500000920E-02 0.  1.
    10030    2    1    2    0    0  0.00000000000E+00  0.00000000000E+00 -0.12832775258E+04  0.33793765198E+04  0.31262412662E+04 0.  0.
        2    1    3    3  502    0 -0.13425205191E+02 -0.45031735422E+03  0.97634794557E+03  0.10752772975E+04  0.25500000920E-02 0. -1.
       -2    1    3    3    0  502  0.13425205191E+02  0.45031735422E+03 -0.22596254714E+04  0.23040992224E+04  0.25500000920E-02 0.  1.
</event>
<event>
 5   0  0.1885307E-06  0.3162283E+04  0.7818609E-02  0.8198850E-01
       -1   -1    0    0    0  501  0.00000000000E+00  0.00000000000E+00  0.11365508155E+04  0.11365508155E+04  0.50400001928E-02 0. -1.
        1   -1    0    0  501    0  0.00000000000E+00  0.00000000000E+00 -0.21996455543E+04  0.21996455543E+04  0.50400001928E-02 0.  1.
    10030    2    1    2    0    0  0.00000000000E+00  0.00000000000E+00 -0.10630947389E+04  0.33361963698E+04  0.31622833197E+04 0.  0.
        3    1    3    3  502    0 -0.66263427483E+03  0.20443794293E+03  0.96756075023E+03  0.11904002983E+04  0.10100000352E+00 0. -1.
       -3    1    3    3    0  502  0.66263427483E+03 -0.20443794293E+03 -0.20306554891E+04  0.21457960714E+04  0.10100000352E+00 0.  1.
</event>
<event>
 5   0  0.1840431E-06  0.3106388E+04  0.7818609E-02  0.8213987E-01
       -1   -1    0    0    0  501  0.00000000000E+00  0.00000000000E+00  0.16034217827E+04  0.16034217827E+04  0.50400001928E-02 0.  1.
        1   -1    0    0  501    0  0.00000000000E+00  0.00000000000E+00 -0.15045393562E+04  0.15045393562E+04  0.50400001928E-02 0. -1.
    10030    2    1    2    0    0  0.00000000000E+00  0.00000000000E+00  0.98882426529E+02  0.31079611389E+04  0.31063877264E+04 0.  0.
        1    1    3    3  502    0 -0.55192276482E+03  0.16144759346E+03 -0.13941087419E+04  0.15080528001E+04  0.50400001928E-02 0. -1.
       -1    1    3    3    0  502  0.55192276482E+03 -0.16144759346E+03  0.14929911684E+04  0.15999083388E+04  0.50400001928E-02 0.  1.
</event>
<event>
 5   0  0.1836401E-06  0.2951556E+04  0.7818609E-02  0.8257701E-01
        1   -1    0    0  501    0  0.00000000000E+00  0.00000000000E+00  0.12189135775E+04  0.12189135775E+04  0.50400001928E-02 0. -1.
       -1   -1    0    0    0  501  0.00000000000E+00  0.00000000000E+00 -0.17867715535E+04  0.17867715535E+04  0.50400001928E-02 0.  1.
    10030    2    1    2    0    0  0.00000000000E+00  0.00000000000E+00 -0.56785797598E+03  0.30056851310E+04  0.29515555942E+04 0.  0.
        2    1    3    3  502    0  0.65172953293E+03 -0.57715878575E+03 -0.14974444681E+04  0.17321095759E+04  0.25500000920E-02 0.  1.
       -2    1    3    3    0  502 -0.65172953293E+03  0.57715878575E+03  0.92958649211E+03  0.12735755550E+04  0.25500000920E-02 0. -1.
</event>
<event>
 5   0  0.4900679E-06  0.3109548E+04  0.7818609E-02  0.8213122E-01
        2   -1    0    0  501    0  0.00000000000E+00  0.00000000000E+00  0.27659337960E+04  0.27659337960E+04  0.25500000920E-02 0.  1.
       -2   -1    0    0    0  501  0.00000000000E+00  0.00000000000E+00 -0.87396237356E+03  0.87396237356E+03  0.25500000920E-02 0. -1.
    10030    2    1    2    0    0  0.00000000000E+00  0.00000000000E+00  0.18919714224E+04  0.36398961695E+04  0.31095479192E+04 0.  0.
        4    1    3    3  502    0  0.14227346828E+04 -0.21880510947E+03  0.16338007485E+04  0.21774655341E+04  0.12699999809E+01 0.  1.
       -4    1    3    3    0  502 -0.14227346828E+04  0.21880510947E+03  0.25817067395E+03  0.14624306354E+04  0.12699999809E+01 0. -1.
</event>
<event>
 5   0  0.1649875E-06  0.3219980E+04  0.7818609E-02  0.8183560E-01
       -4   -1    0    0    0  501  0.00000000000E+00  0.00000000000E+00  0.18583141039E+04  0.18583145378E+04  0.12699999809E+01 0. -1.
        4   -1    0    0  501    0  0.00000000000E+00  0.00000000000E+00 -0.13948483276E+04  0.13948489057E+04  0.12699999809E+01 0.  1.
    10030    2    1    2    0    0  0.00000000000E+00  0.00000000000E+00  0.46346577631E+03  0.32531634436E+04  0.32199801031E+04 0.  0.
        3    1    3    3  502    0 -0.20101505900E+03 -0.15034730163E+04 -0.31348562598E+03  0.15489065215E+04  0.10100000352E+00 0.  1.
       -3    1    3    3    0  502  0.20101505900E+03  0.15034730163E+04  0.77695140229E+03  0.17042569220E+04  0.10100000352E+00 0. -1.
</event>
<event>
 5   0  0.4900679E-06  0.3131324E+04  0.7818609E-02  0.8207194E-01
       -2   -1    0    0    0  501  0.00000000000E+00  0.00000000000E+00  0.18185383182E+04  0.18185383182E+04  0.25500000920E-02 0. -1.
        2   -1    0    0  501    0  0.00000000000E+00  0.00000000000E+00 -0.13479490269E+04  0.13479490269E+04  0.25500000920E-02 0.  1.
    10030    2    1    2    0    0  0.00000000000E+00  0.00000000000E+00  0.47058929132E+03  0.31664873451E+04  0.31313236539E+04 0.  0.
        4    1    3    3  502    0 -0.81108054576E+03  0.58157931235E+03 -0.98457243948E+03  0.14019524420E+04  0.12699999809E+01 0.  1.
       -4    1    3    3    0  502  0.81108054576E+03 -0.58157931235E+03  0.14551617308E+04  0.17645349030E+04  0.12699999809E+01 0. -1.
</event>
<event>
 5   0  0.5328368E-06  0.3138457E+04  0.7818609E-02  0.8205262E-01
        2   -1    0    0  501    0  0.00000000000E+00  0.00000000000E+00  0.13556422203E+04  0.13556422203E+04  0.25500000920E-02 0. -1.
       -2   -1    0    0    0  501  0.00000000000E+00  0.00000000000E+00 -0.18164666014E+04  0.18164666014E+04  0.25500000920E-02 0.  1.
    10030    2    1    2    0    0  0.00000000000E+00  0.00000000000E+00 -0.46082438112E+03  0.31721088216E+04  0.31384574660E+04 0.  0.
        1    1    3    3  502    0 -0.11367058832E+04  0.10629804550E+04 -0.43369329877E+03  0.16155858349E+04  0.50400001928E-02 0. -1.
       -1    1    3    3    0  502  0.11367058832E+04 -0.10629804550E+04 -0.27131082352E+02  0.15565229867E+04  0.50400001928E-02 0.  1.
</event>
<event>
 5   0  0.4927533E-06  0.3197378E+04  0.7818609E-02  0.8189510E-01
       -2   -1    0    0    0  501  0.00000000000E+00  0.00000000000E+00  0.10711068088E+04  0.10711068088E+04  0.25500000920E-02 0. -1.
        2   -1    0    0  501    0  0.00000000000E+00  0.00000000000E+00 -0.23861366783E+04  0.23861366783E+04  0.25500000920E-02 0.  1.
    10030    2    1    2    0    0  0.00000000000E+00  0.00000000000E+00 -0.13150298694E+04  0.34572434871E+04  0.31973784530E+04 0.  0.
        5    1    3    3  502    0  0.12215035088E+04  0.29276833975E+03  0.41179986906E+03  0.13218870394E+04  0.46999998093E+01 0. -1.
       -5    1    3    3    0  502 -0.12215035088E+04 -0.29276833975E+03 -0.17268297385E+04  0.21353564477E+04  0.46999998093E+01 0.  1.
</event>
<event>
 5   0  0.5001658E-06  0.3210514E+04  0.7818609E-02  0.8186046E-01
       -2   -1    0    0    0  501  0.00000000000E+00  0.00000000000E+00  0.89776517183E+03  0.89776517183E+03  0.25500000920E-02 0.  1.
        2   -1    0    0  501    0  0.00000000000E+00  0.00000000000E+00 -0.28702944487E+04  0.28702944487E+04  0.25500000920E-02 0. -1.
    10030    2    1    2    0    0  0.00000000000E+00  0.00000000000E+00 -0.19725292769E+04  0.37680596205E+04  0.32105142198E+04 0.  0.
        3    1    3    3  502    0  0.95229125056E+03 -0.96505486110E+03  0.22443939490E+02  0.13559842372E+04  0.10100000352E+00 0.  1.
       -3    1    3    3    0  502 -0.95229125056E+03  0.96505486110E+03 -0.19949732164E+04  0.24120753834E+04  0.10100000352E+00 0. -1.
</event>
<event>
 5   0  0.4900679E-06  0.2914560E+04  0.7818609E-02  0.8268558E-01
        2   -1    0    0  501    0  0.00000000000E+00  0.00000000000E+00  0.13869052246E+04  0.13869052246E+04  0.25500000920E-02 0.  1.
       -2   -1    0    0    0  501  0.00000000000E+00  0.00000000000E+00 -0.15312261797E+04  0.15312261797E+04  0.25500000920E-02 0. -1.
    10030    2    1    2    0    0  0.00000000000E+00  0.00000000000E+00 -0.14432095507E+03  0.29181314044E+04  0.29145604051E+04 0.  0.
        4    1    3    3  502    0 -0.15236277574E+03  0.34832113626E+02 -0.15228098215E+04  0.15308099350E+04  0.12699999809E+01 0. -1.
       -4    1    3    3    0  502  0.15236277574E+03 -0.34832113626E+02  0.13784888665E+04  0.13873214694E+04  0.12699999809E+01 0.  1.
</event>
<event>
 5   0  0.1885307E-06  0.3087558E+04  0.7818609E-02  0.8219161E-01
        1   -1    0    0  501    0  0.00000000000E+00  0.00000000000E+00  0.92759501070E+03  0.92759501071E+03  0.50400001928E-02 0. -1.
       -1   -1    0    0    0  501  0.00000000000E+00  0.00000000000E+00 -0.25692825746E+04  0.25692825746E+04  0.50400001928E-02 0.  1.
    10030    2    1    2    0    0  0.00000000000E+00  0.00000000000E+00 -0.16416875639E+04  0.34968775853E+04  0.30875580625E+04 0.  0.
        3    1    3    3  502    0  0.21158767384E+03  0.91705374300E+02  0.90797788336E+03  0.93680471085E+03  0.10100000352E+00 0. -1.
       -3    1    3    3    0  502 -0.21158767384E+03 -0.91705374300E+02 -0.25496654473E+04  0.25600728745E+04  0.10100000352E+00 0.  1.
</event>
<event>
 5   0  0.1836401E-06  0.3012389E+04  0.7818609E-02  0.8240202E-01
       -1   -1    0    0    0  501  0.00000000000E+00  0.00000000000E+00  0.10077854095E+04  0.10077854095E+04  0.50400001928E-02 0. -1.
        1   -1    0    0  501    0  0.00000000000E+00  0.00000000000E+00 -0.22510969019E+04  0.22510969019E+04  0.50400001928E-02 0.  1.
    10030    2    1    2    0    0  0.00000000000E+00  0.00000000000E+00 -0.12433114924E+04  0.32588823115E+04  0.30123894922E+04 0.  0.
        2    1    3    3  502    0  0.55217897617E+03 -0.20861535355E+02  0.89417012245E+03  0.10511313111E+04  0.25500000920E-02 0. -1.
       -2    1    3    3    0  502 -0.55217897617E+03  0.20861535355E+02 -0.21374816149E+04  0.22077510003E+04  0.25500000920E-02 0.  1.
</event>
<event>
 5   0  0.1853742E-06  0.3055253E+04  0.7818609E-02  0.8228127E-01
        1   -1    0    0  501    0  0.00000000000E+00  0.00000000000E+00  0.21537616280E+04  0.21537616280E+04  0.50400001928E-02 0.  1.
       -1   -1    0    0    0  501  0.00000000000E+00  0.00000000000E+00 -0.10835192540E+04  0.10835192540E+04  0.50400001928E-02 0. -1.
    10030    2    1    2    0    0  0.00000000000E+00  0.00000000000E+00  0.10702423740E+04  0.32372808819E+04  0.30552526523E+04 0.  0.
        5    1    3    3  502    0 -0.10308884056E+04  0.99490657423E+02 -0.65472058822E+03  0.12252797372E+04  0.46999998093E+01 0. -1.
       -5    1    3    3    0  502  0.10308884056E+04 -0.99490657423E+02  0.17249629622E+04  0.20120011448E+04  0.46999998093E+01 0.  1.
</event>
<event>
 5   0  0.4900679E-06  0.3118022E+04  0.7818609E-02  0.8210809E-01
        2   -1    0    0  501    0  0.00000000000E+00  0.00000000000E+00  0.19205067422E+04  0.19205067422E+04  0.25500000920E-02 0.  1.
       -2   -1    0    0    0  501  0.00000000000E+00  0.00000000000E+00 -0.12655592626E+04  0.12655592626E+04  0.25500000920E-02 0. -1.
    10030    2    1    2    0    0  0.00000000000E+00  0.00000000000E+00  0.65494747954E+03  0.31860660048E+04  0.31180218706E+04 0.  0.
        4    1    3    3  502    0  0.81752932972E+03 -0.81446302569E+03 -0.74364290124E+03  0.13728476254E+04  0.12699999809E+01 0. -1.
       -4    1    3    3    0  502 -0.81752932972E+03  0.81446302569E+03  0.13985903808E+04  0.18132183794E+04  0.12699999809E+01 0.  1.
</event>
<event>
 5   0  0.1840431E-06  0.3092694E+04  0.7818609E-02  0.8217746E-01
       -1   -1    0    0    0  501  0.00000000000E+00  0.00000000000E+00  0.26910551266E+04  0.26910551267E+04  0.50400001928E-02 0.  1.
        1   -1    0    0  501    0  0.00000000000E+00  0.00000000000E+00 -0.88856926637E+03  0.88856926638E+03  0.50400001928E-02 0. -1.
    10030    2    1    2    0    0  0.00000000000E+00  0.00000000000E+00  0.18024858603E+04  0.35796243930E+04  0.30926938935E+04 0.  0.
        1    1    3    3  502    0 -0.23254645587E+03  0.44950433542E+03  0.25924829493E+04  0.26414200431E+04  0.50400001928E-02 0.  1.
       -1    1    3    3    0  502  0.23254645587E+03 -0.44950433542E+03 -0.78999708897E+03  0.93820434997E+03  0.50400001928E-02 0. -1.
</event>
<event>
 5   0  0.1853742E-06  0.2764115E+04  0.7818609E-02  0.8314496E-01
        1   -1    0    0  501    0  0.00000000000E+00  0.00000000000E+00  0.71574010838E+03  0.71574010840E+03  0.50400001928E-02 0. -1.
       -1   -1    0    0    0  501  0.00000000000E+00  0.00000000000E+00 -0.26686831829E+04  0.26686831829E+04  0.50400001928E-02 0.  1.
    10030    2    1    2    0    0  0.00000000000E+00  0.00000000000E+00 -0.19529430746E+04  0.33844232913E+04  0.27641154756E+04 0.  0.
        5    1    3    3  502    0  0.10496824858E+04 -0.37850508574E+03 -0.19749229427E+04  0.22683567048E+04  0.46999998093E+01 0.  1.
       -5    1    3    3    0  502 -0.10496824858E+04  0.37850508574E+03  0.21979868143E+02  0.11160665865E+04  0.46999998093E+01 0. -1.
</event>
<event>
 5   0  0.1840431E-06  0.2946820E+04  0.7818609E-02  0.8259082E-01
       -1   -1    0    0    0  501  0.00000000000E+00  0.00000000000E+00  0.10301211279E+04  0.10301211279E+04  0.50400001928E-02 0. -1.
        1   -1    0    0  501    0  0.00000000000E+00  0.00000000000E+00 -0.21074580493E+04  0.21074580493E+04  0.50400001928E-02 0.  1.
    10030    2    1    2    0    0  0.00000000000E+00  0.00000000000E+00 -0.10773369214E+04  0.31375791773E+04  0.29468200236E+04 0.  0.
        1    1    3    3  502    0  0.16702104035E+03 -0.36717168516E+03 -0.20475229987E+04  0.20868784116E+04  0.50400001928E-02 0.  1.
       -1    1    3    3    0  502 -0.16702104035E+03  0.36717168516E+03  0.97018607735E+03  0.10507007657E+04  0.50400001928E-02 0. -1.
</event>
<event>
 5   0  0.1836401E-06  0.3106991E+04  0.7818609E-02  0.8213822E-01
        1   -1    0    0  501    0  0.00000000000E+00  0.00000000000E+00  0.74944206708E+03  0.74944206710E+03  0.50400001928E-02 0.  1.
       -1   -1    0    0    0  501  0.00000000000E+00  0.00000000000E+00 -0.32201924083E+04  0.32201924083E+04  0.50400001928E-02 0. -1.
    10030    2    1    2    0    0  0.00000000000E+00  0.00000000000E+00 -0.24707503412E+04  0.39696344754E+04  0.31069906050E+04 0.  0.
        2    1    3    3  502    0 -0.13395439126E+04  0.39827382407E+03 -0.36850596005E+03  0.14452669564E+04  0.25500000920E-02 0.  1.
       -2    1    3    3    0  502  0.13395439126E+04 -0.39827382407E+03 -0.21022443812E+04  0.25243675190E+04  0.25500000920E-02 0. -1.
</event>
<event>
 5   0  0.4927533E-06  0.3036775E+04  0.7818609E-02  0.8233307E-01
        2   -1    0    0  501    0  0.00000000000E+00  0.00000000000E+00  0.22376554611E+04  0.22376554611E+04  0.25500000920E-02 0.  1.
       -2   -1    0    0    0  501  0.00000000000E+00  0.00000000000E+00 -0.10303199932E+04  0.10303199932E+04  0.25500000920E-02 0. -1.
    10030    2    1    2    0    0  0.00000000000E+00  0.00000000000E+00  0.12073354679E+04  0.32679754543E+04  0.30367753684E+04 0.  0.
        5    1    3    3  502    0 -0.93201296905E+03  0.72838363075E+03  0.16281378065E+04  0.20124725327E+04  0.46999998093E+01 0.  1.
       -5    1    3    3    0  502  0.93201296905E+03 -0.72838363075E+03 -0.42080233855E+03  0.12555029216E+04  0.46999998093E+01 0. -1.
</event>
<event>
 5   0  0.4900679E-06  0.3112877E+04  0.7818609E-02  0.8212213E-01
        2   -1    0    0  501    0  0.00000000000E+00  0.00000000000E+00  0.14808501346E+04  0.14808501346E+04  0.25500000920E-02 0. -1.
       -2   -1    0    0    0  501  0.00000000000E+00  0.00000000000E+00 -0.16358856457E+04  0.16358856457E+04  0.25500000920E-02 0.  1.
    10030    2    1    2    0    0  0.00000000000E+00  0.00000000000E+00 -0.15503551117E+03  0.31167357803E+04  0.31128774332E+04 0.  0.
        4    1    3    3  502    0 -0.49262041401E+02  0.11648868955E+03 -0.16307314633E+04  0.16356292617E+04  0.12699999809E+01 0.  1.
       -4    1    3    3    0  502  0.49262041401E+02 -0.11648868955E+03  0.14756959521E+04  0.14811065186E+04  0.12699999809E+01 0. -1.
</event>
<event>
 5   0  0.1885307E-06  0.3138808E+04  0.7818609E-02  0.8205167E-01
       -1   -1    0    0    0  501  0.00000000000E+00  0.00000000000E+00  0.91089295474E+03  0.91089295476E+03  0.50400001928E-02 0. -1.
        1   -1    0    0  501    0  0.00000000000E+00  0.00000000000E+00 -0.27039718725E+04  0.27039718725E+04  0.50400001928E-02 0.  1.
    10030    2    1    2    0    0  0.00000000000E+00  0.00000000000E+00 -0.17930789178E+04  0.36148648273E+04  0.31388080085E+04 0.  0.
        3    1    3    3  502    0  0.43060374668E+03 -0.44229714053E+03 -0.25582900996E+04  0.26317094427E+04  0.10100000352E+00 0.  1.
       -3    1    3    3    0  502 -0.43060374668E+03  0.44229714053E+03  0.76521118181E+03  0.98315538454E+03  0.10100000352E+00 0. -1.
</event>
<event>
 5   0  0.1836401E-06  0.3077666E+04  0.7818609E-02  0.8221894E-01
        1   -1    0    0  501    0  0.00000000000E+00  0.00000000000E+00  0.19310303928E+04  0.19310303929E+04  0.50400001928E-02 0.  1.
       -1   -1    0    0    0  501  0.00000000000E+00  0.00000000000E+00 -0.12262916843E+04  0.12262916843E+04  0.50400001928E-02 0. -1.
    10030    2    1    2    0    0  0.00000000000E+00  0.00000000000E+00  0.70473870852E+03  0.31573220772E+04  0.30776656823E+04 0.  0.
        2    1    3    3  502    0 -0.62427750199E+02  0.59651928803E+03  0.18061836341E+04  0.19031636306E+04  0.25500000920E-02 0.  1.
       -2    1    3    3    0  502  0.62427750199E+02 -0.59651928803E+03 -0.11014449256E+04  0.12541584465E+04  0.25500000920E-02 0. -1.
</event>
<event>
 5   0  0.4900679E-06  0.3095289E+04  0.7818609E-02  0.8217032E-01
        2   -1    0    0  501    0  0.00000000000E+00  0.00000000000E+00  0.13940054673E+04  0.13940054673E+04  0.25500000920E-02 0.  1.
       -2   -1    0    0    0  501  0.00000000000E+00  0.00000000000E+00 -0.17182167873E+04  0.17182167873E+04  0.25500000920E-02 0. -1.
    10030    2    1    2    0    0  0.00000000000E+00  0.00000000000E+00 -0.32421132005E+03  0.31122222546E+04  0.30952890627E+04 0.  0.
        4    1    3    3  502    0 -0.55225889282E+03 -0.29651042891E+03  0.12606596815E+04  0.14078965746E+04  0.12699999809E+01 0.  1.
       -4    1    3    3    0  502  0.55225889282E+03  0.29651042891E+03 -0.15848710016E+04  0.17043256800E+04  0.12699999809E+01 0. -1.
</event>
<event>
 5   0  0.1840431E-06  0.3064058E+04  0.7818609E-02  0.8225672E-01
        1   -1    0    0  501    0  0.00000000000E+00  0.00000000000E+00  0.17896682094E+04  0.17896682094E+04  0.50400001928E-02 0.  1.
       -1   -1    0    0    0  501  0.00000000000E+00  0.00000000000E+00 -0.13114790348E+04  0.13114790348E+04  0.50400001928E-02 0. -1.
    10030    2    1    2    0    0  0.00000000000E+00  0.00000000000E+00  0.47818917457E+03  0.31011472442E+04  0.30640576599E+04 0.  0.
        1    1    3    3  502    0  0.12128261579E+04  0.77988302830E+02 -0.70497881682E+03  0.14049998565E+04  0.50400001928E-02 0. -1.
       -1    1    3    3    0  502 -0.12128261579E+04 -0.77988302830E+02  0.11831679914E+04  0.16961473876E+04  0.50400001928E-02 0.  1.
</event>
<event>
 5   0  0.5328368E-06  0.3102881E+04  0.7818609E-02  0.8214948E-01
       -2   -1    0    0    0  501  0.00000000000E+00  0.00000000000E+00  0.22917440822E+04  0.22917440822E+04  0.25500000920E-02 0.  1.
        2   -1    0    0  501    0  0.00000000000E+00  0.00000000000E+00 -0.10502778000E+04  0.10502778000E+04  0.25500000920E-02 0. -1.
    10030    2    1    2    0    0  0.00000000000E+00  0.00000000000E+00  0.12414662821E+04  0.33420218822E+04  0.31028811984E+04 0.  0.
        1    1    3    3  502    0  0.12903778740E+04 -0.55788875349E+03 -0.86085324187E+02  0.14084479409E+04  0.50400001928E-02 0. -1.
       -1    1    3    3    0  502 -0.12903778740E+04  0.55788875349E+03  0.13275516063E+04  0.19335739413E+04  0.50400001928E-02 0.  1.
</event>
<event>
 5   0  0.1840431E-06  0.3073672E+04  0.7818609E-02  0.8223001E-01
       -1   -1    0    0    0  501  0.00000000000E+00  0.00000000000E+00  0.22543805858E+04  0.22543805858E+04  0.50400001928E-02 0.  1.
        1   -1    0    0  501    0  0.00000000000E+00  0.00000000000E+00 -0.10476778380E+04  0.10476778380E+04  0.50400001928E-02 0. -1.
    10030    2    1    2    0    0  0.00000000000E+00  0.00000000000E+00  0.12067027478E+04  0.33020584239E+04  0.30736717966E+04 0.  0.
        1    1    3    3  502    0  0.65447988984E+03  0.67841905678E+03 -0.70062034866E+03  0.11745063711E+04  0.50400001928E-02 0. -1.
       -1    1    3    3    0  502 -0.65447988984E+03 -0.67841905678E+03  0.19073230965E+04  0.21275520528E+04  0.50400001928E-02 0.  1.
</event>
<event>
 5   0  0.1840431E-06  0.3112651E+04  0.7818609E-02  0.8212274E-01
       -1   -1    0    0    0  501  0.00000000000E+00  0.00000000000E+00  0.23452301200E+04  0.23452301200E+04  0.50400001928E-02 0.  1.
        1   -1    0    0  501    0  0.00000000000E+00  0.00000000000E+00 -0.10327982844E+04  0.10327982844E+04  0.50400001928E-02 0. -1.
    10030    2    1    2    0    0  0.00000000000E+00  0.00000000000E+00  0.13124318356E+04  0.33780284044E+04  0.31126513743E+04 0.  0.
        1    1    3    3  502    0  0.48362114800E+03 -0.97844150571E+03  0.18602711187E+04  0.21568138144E+04  0.50400001928E-02 0.  1.
       -1    1    3    3    0  502 -0.48362114800E+03  0.97844150571E+03 -0.54783928302E+03  0.12212145900E+04  0.50400001928E-02 0. -1.
</event>
<event>
 5   0  0.4927533E-06  0.3140294E+04  0.7818609E-02  0.8204766E-01
       -2   -1    0    0    0  501  0.00000000000E+00  0.00000000000E+00  0.14430853636E+04  0.14430853636E+04  0.25500000920E-02 0.  1.
        2   -1    0    0  501    0  0.00000000000E+00  0.00000000000E+00 -0.17083963357E+04  0.17083963357E+04  0.25500000920E-02 0. -1.
    10030    2    1    2    0    0  0.00000000000E+00  0.00000000000E+00 -0.26531097217E+03  0.31514816993E+04  0.31402940927E+04 0.  0.
        5    1    3    3  502    0 -0.73555551605E+03  0.12449008641E+04 -0.74681577275E+03  0.16274446126E+04  0.46999998093E+01 0. -1.
       -5    1    3    3    0  502  0.73555551605E+03 -0.12449008641E+04  0.48150480058E+03  0.15240370867E+04  0.46999998093E+01 0.  1.
</event>
<event>
 5   0  0.1649875E-06  0.3110166E+04  0.7818609E-02  0.8212954E-01
        3   -1    0    0  501    0  0.00000000000E+00  0.00000000000E+00  0.17416379987E+04  0.17416380016E+04  0.10100000352E+00 0.  1.
       -3   -1    0    0    0  501  0.00000000000E+00  0.00000000000E+00 -0.13885105290E+04  0.13885105326E+04  0.10100000352E+00 0. -1.
    10030    2    1    2    0    0  0.00000000000E+00  0.00000000000E+00  0.35312746973E+03  0.31301485343E+04  0.31101657249E+04 0.  0.
        1    1    3    3  502    0 -0.15920621773E+03  0.63948053035E+02  0.17320835904E+04  0.17405601218E+04  0.50400001928E-02 0.  1.
       -1    1    3    3    0  502  0.15920621773E+03 -0.63948053035E+02 -0.13789561207E+04  0.13895884125E+04  0.50400001928E-02 0. -1.
</event>
<event>
 5   0  0.5001658E-06  0.3103065E+04  0.7818609E-02  0.8214897E-01
        2   -1    0    0  501    0  0.00000000000E+00  0.00000000000E+00  0.17980884944E+04  0.17980884944E+04  0.25500000920E-02 0. -1.
       -2   -1    0    0    0  501  0.00000000000E+00  0.00000000000E+00 -0.13387846658E+04  0.13387846658E+04  0.25500000920E-02 0.  1.
    10030    2    1    2    0    0  0.00000000000E+00  0.00000000000E+00  0.45930382857E+03  0.31368731603E+04  0.31030651325E+04 0.  0.
        3    1    3    3  502    0 -0.12774487768E+03  0.14782252660E+04  0.68822916443E+03  0.16355818793E+04  0.10100000352E+00 0. -1.
       -3    1    3    3    0  502  0.12774487768E+03 -0.14782252660E+04 -0.22892533586E+03  0.15012912810E+04  0.10100000352E+00 0.  1.
</event>
<event>
 5   0  0.4900679E-06  0.2877089E+04  0.7818609E-02  0.8279727E-01
       -2   -1    0    0    0  501  0.00000000000E+00  0.00000000000E+00  0.12820785823E+04  0.12820785823E+04  0.25500000920E-02 0. -1.
        2   -1    0    0  501    0  0.00000000000E+00  0.00000000000E+00 -0.16141051791E+04  0.16141051791E+04  0.25500000920E-02 0.  1.
    10030    2    1    2    0    0  0.00000000000E+00  0.00000000000E+00 -0.33202659678E+03  0.28961837615E+04  0.28770885838E+04 0.  0.
        4    1    3    3  502    0  0.63279085263E+03 -0.11487909621E+04 -0.76092053343E+03  0.15162937080E+04  0.12699999809E+01 0.  1.
       -4    1    3    3    0  502 -0.63279085263E+03  0.11487909621E+04  0.42889393665E+03  0.13798900535E+04  0.12699999809E+01 0. -1.
</event>
<event>
 5   0  0.5001658E-06  0.3040633E+04  0.7818609E-02  0.8232222E-01
       -2   -1    0    0    0  501  0.00000000000E+00  0.00000000000E+00  0.99578408968E+03  0.99578408968E+03  0.25500000920E-02 0. -1.
        2   -1    0    0  501    0  0.00000000000E+00  0.00000000000E+00 -0.23211481921E+04  0.23211481921E+04  0.25500000920E-02 0.  1.
    10030    2    1    2    0    0  0.00000000000E+00  0.00000000000E+00 -0.13253641025E+04  0.33169322818E+04  0.30406331180E+04 0.  0.
        3    1    3    3  502    0 -0.46522171782E+03  0.97206746191E+03  0.50715273402E+03  0.11910290941E+04  0.10100000352E+00 0. -1.
       -3    1    3    3    0  502  0.46522171782E+03 -0.97206746191E+03 -0.18325168365E+04  0.21259031877E+04  0.10100000352E+00 0.  1.
</event>
<event>
 5   0  0.5328368E-06  0.2985613E+04  0.7818609E-02  0.8247851E-01
        2   -1    0    0  501    0  0.00000000000E+00  0.00000000000E+00  0.98650071571E+03  0.98650071572E+03  0.25500000920E-02 0. -1.
       -2   -1    0    0    0  501  0.00000000000E+00  0.00000000000E+00 -0.22589655254E+04  0.22589655254E+04  0.25500000920E-02 0.  1.
    10030    2    1    2    0    0  0.00000000000E+00  0.00000000000E+00 -0.12724648097E+04  0.32454662411E+04  0.29856129070E+04 0.  0.
        1    1    3    3  502    0  0.49756756357E+03  0.84900672780E+03 -0.18564676147E+04  0.21011563266E+04  0.50400001928E-02 0.  1.
       -1    1    3    3    0  502 -0.49756756357E+03 -0.84900672780E+03  0.58400280505E+03  0.11443099145E+04  0.50400001928E-02 0. -1.
</event>
<event>
 5   0  0.1836401E-06  0.2869317E+04  0.7818609E-02  0.8282066E-01
        1   -1    0    0  501    0  0.00000000000E+00  0.00000000000E+00  0.15134445224E+04  0.15134445224E+04  0.50400001928E-02 0. -1.
       -1   -1    0    0    0  501  0.00000000000E+00  0.00000000000E+00 -0.13599738516E+04  0.13599738516E+04  0.50400001928E-02 0.  1.
    10030    2    1    2    0    0  0.00000000000E+00  0.00000000000E+00  0.15347067085E+03  0.28734183740E+04  0.28693169754E+04 0.  0.
        2    1    3    3  502    0 -0.11841339671E+03 -0.14142449314E+04  0.28711779615E+03  0.14479458164E+04  0.25500000920E-02 0. -1.
       -2    1    3    3    0  502  0.11841339671E+03  0.14142449314E+04 -0.13364712530E+03  0.14254725576E+04  0.25500000920E-02 0.  1.
</event>
<event>
 5   0  0.1843709E-06  0.3060997E+04  0.7818609E-02  0.8226524E-01
       -1   -1    0    0    0  501  0.00000000000E+00  0.00000000000E+00  0.10051681510E+04  0.10051681510E+04  0.50400001928E-02 0.  1.
        1   -1    0    0  501    0  0.00000000000E+00  0.00000000000E+00 -0.23303823741E+04  0.23303823741E+04  0.50400001928E-02 0. -1.
    10030    2    1    2    0    0  0.00000000000E+00  0.00000000000E+00 -0.13252142232E+04  0.33355505251E+04  0.30609973159E+04 0.  0.
        4    1    3    3  502    0 -0.86496075354E+03 -0.13047735452E+02 -0.20384282303E+04  0.22143889928E+04  0.12699999809E+01 0. -1.
       -4    1    3    3    0  502  0.86496075354E+03  0.13047735452E+02  0.71321400714E+03  0.11211615323E+04  0.12699999809E+01 0.  1.
</event>
<event>
 5   0  0.4927533E-06  0.2310763E+04  0.7818609E-02  0.8473689E-01
        2   -1    0    0  501    0  0.00000000000E+00  0.00000000000E+00  0.17692833959E+04  0.17692833959E+04  0.25500000920E-02 0.  1.
       -2   -1    0    0    0  501  0.00000000000E+00  0.00000000000E+00 -0.75449015150E+03  0.75449015150E+03  0.25500000920E-02 0. -1.
    10030    2    1    2    0    0  0.00000000000E+00  0.00000000000E+00  0.10147932444E+04  0.25237735474E+04  0.23107634214E+04 0.  0.
        5    1    3    3  502    0 -0.67270004714E+03  0.43015355513E+03  0.14194353005E+04  0.16286117084E+04  0.46999998093E+01 0.  1.
       -5    1    3    3    0  502  0.67270004714E+03 -0.43015355513E+03 -0.40464205612E+03  0.89516183899E+03  0.46999998093E+01 0. -1.
</event>
<event>
 5   0  0.1840431E-06  0.3147028E+04  0.7818609E-02  0.8202949E-01
       -1   -1    0    0    0  501  0.00000000000E+00  0.00000000000E+00  0.32640799223E+04  0.32640799223E+04  0.50400001928E-02 0.  1.
        1   -1    0    0  501    0  0.00000000000E+00  0.00000000000E+00 -0.75854323995E+03  0.75854323997E+03  0.50400001928E-02 0. -1.
    10030    2    1    2    0    0  0.00000000000E+00  0.00000000000E+00  0.25055366823E+04  0.40226231622E+04  0.31470276514E+04 0.  0.
        1    1    3    3  502    0 -0.12767105980E+04 -0.56649116195E+03  0.32656474250E+03  0.14344151138E+04  0.50400001928E-02 0. -1.
       -1    1    3    3    0  502  0.12767105980E+04  0.56649116195E+03  0.21789719398E+04  0.25882080484E+04  0.50400001928E-02 0.  1.
</event>
<event>
 5   0  0.1843709E-06  0.3073302E+04  0.7818609E-02  0.8223103E-01
        1   -1    0    0  501    0  0.00000000000E+00  0.00000000000E+00  0.14707619784E+04  0.14707619784E+04  0.50400001928E-02 0.  1.
       -1   -1    0    0    0  501  0.00000000000E+00  0.00000000000E+00 -0.16054921988E+04  0.16054921988E+04  0.50400001928E-02 0. -1.
    10030    2    1    2    0    0  0.00000000000E+00  0.00000000000E+00 -0.13473022040E+03  0.30762541772E+04  0.30733023819E+04 0.  0.
        4    1    3    3  502    0 -0.10364966025E+04 -0.92962533506E+03 -0.71819480637E+03  0.15666313745E+04  0.12699999809E+01 0.  1.
       -4    1    3    3    0  502  0.10364966025E+04  0.92962533506E+03  0.58346458597E+03  0.15096228028E+04  0.12699999809E+01 0. -1.
</event>
<event>
 5   0  0.1853742E-06  0.3134665E+04  0.7818609E-02  0.8206288E-01
       -1   -1    0    0    0  501  0.00000000000E+00  0.00000000000E+00  0.11397714021E+04  0.11397714022E+04  0.50400001928E-02 0. -1.
        1   -1    0    0  501    0  0.00000000000E+00  0.00000000000E+00 -0.21552835851E+04  0.21552835851E+04  0.50400001928E-02 0.  1.
    10030    2    1    2    0    0  0.00000000000E+00  0.00000000000E+00 -0.10155121829E+04  0.32950549872E+04  0.31346646352E+04 0.  0.
        5    1    3    3  502    0 -0.70602671629E+02  0.14170525037E+02  0.11380241682E+04  0.11403098870E+04  0.46999998093E+01 0. -1.
       -5    1    3    3    0  502  0.70602671629E+02 -0.14170525037E+02 -0.21535363512E+04  0.21547451002E+04  0.46999998093E+01 0.  1.
</event>
<event>
 5   0  0.4900679E-06  0.2948384E+04  0.7818609E-02  0.8258626E-01
        2   -1    0    0  501    0  0.00000000000E+00  0.00000000000E+00  0.26157496113E+04  0.26157496113E+04  0.25500000920E-02 0. -1.
       -2   -1    0    0    0  501  0.00000000000E+00  0.00000000000E+00 -0.83082966447E+03  0.83082966447E+03  0.25500000920E-02 0.  1.
    10030    2    1    2    0    0  0.00000000000E+00  0.00000000000E+00  0.17849199468E+04  0.34465792758E+04  0.29483842164E+04 0.  0.
        4    1    3    3  502    0 -0.16450027251E+03  0.10807287452E+04  0.20486236239E+04  0.23220455046E+04  0.12699999809E+01 0. -1.
       -4    1    3    3    0  502  0.16450027251E+03 -0.10807287452E+04 -0.26370367702E+03  0.11245337712E+04  0.12699999809E+01 0.  1.
</event>
<event>
 5   0  0.1840431E-06  0.2783110E+04  0.7818609E-02  0.8308531E-01
       -1   -1    0    0    0  501  0.00000000000E+00  0.00000000000E+00  0.20331122753E+04  0.20331122753E+04  0.50400001928E-02 0. -1.
        1   -1    0    0  501    0  0.00000000000E+00  0.00000000000E+00 -0.95244396990E+03  0.95244396991E+03  0.50400001928E-02 0.  1.
    10030    2    1    2    0    0  0.00000000000E+00  0.00000000000E+00  0.10806683054E+04  0.29855562452E+04  0.27831101500E+04 0.  0.
        1    1    3    3  502    0  0.46590774321E+03 -0.13105211277E+04  0.58696909694E+03  0.15096583627E+04  0.50400001928E-02 0. -1.
       -1    1    3    3    0  502 -0.46590774321E+03  0.13105211277E+04  0.49369920847E+03  0.14758978825E+04  0.50400001928E-02 0.  1.
</event>
<event>
 5   0  0.5114870E-06  0.3115943E+04  0.7818609E-02  0.8211376E-01
       -2   -1    0    0    0  501  0.00000000000E+00  0.00000000000E+00  0.14456018711E+04  0.14456018711E+04  0.25500000920E-02 0.  1.
        2   -1    0    0  501    0  0.00000000000E+00  0.00000000000E+00 -0.16790758639E+04  0.16790758639E+04  0.25500000920E-02 0. -1.
    10030    2    1    2    0    0  0.00000000000E+00  0.00000000000E+00 -0.23347399281E+03  0.31246777351E+04  0.31159430102E+04 0.  0.
        2    1    3    3  502    0 -0.10178831571E+04 -0.40333275326E+03 -0.12282265604E+04  0.16453886821E+04  0.25500000920E-02 0. -1.
       -2    1    3    3    0  502  0.10178831571E+04  0.40333275326E+03  0.99475256760E+03  0.14792890530E+04  0.25500000920E-02 0.  1.
</event>
<event>
 5   0  0.4927533E-06  0.3086665E+04  0.7818609E-02  0.8219407E-01
       -2   -1    0    0    0  501  0.00000000000E+00  0.00000000000E+00  0.16434804876E+04  0.16434804876E+04  0.25500000920E-02 0. -1.
        2   -1    0    0  501    0  0.00000000000E+00  0.00000000000E+00 -0.14492869811E+04  0.14492869811E+04  0.25500000920E-02 0.  1.
    10030    2    1    2    0    0  0.00000000000E+00  0.00000000000E+00  0.19419350648E+03  0.30927674688E+04  0.30866647855E+04 0.  0.
        5    1    3    3  502    0 -0.10624433251E+04  0.74178758666E+03 -0.74290324079E+03  0.14936405049E+04  0.46999998093E+01 0.  1.
       -5    1    3    3    0  502  0.10624433251E+04 -0.74178758666E+03  0.93709674727E+03  0.15991269638E+04  0.46999998093E+01 0. -1.
</event>
<event>
 5   0  0.1885307E-06  0.3056004E+04  0.7818609E-02  0.8227917E-01
       -1   -1    0    0    0  501  0.00000000000E+00  0.00000000000E+00  0.10367234801E+04  0.10367234801E+04  0.50400001928E-02 0. -1.
        1   -1    0    0  501    0  0.00000000000E+00  0.00000000000E+00 -0.22520861938E+04  0.22520861938E+04  0.50400001928E-02 0.  1.
    10030    2    1    2    0    0  0.00000000000E+00  0.00000000000E+00 -0.12153627137E+04  0.32888096739E+04  0.30560043432E+04 0.  0.
        3    1    3    3  502    0 -0.21215488525E+03 -0.16582392710E+03  0.10109884814E+04  0.10462337166E+04  0.10100000352E+00 0. -1.
       -3    1    3    3    0  502  0.21215488525E+03  0.16582392710E+03 -0.22263511951E+04  0.22425759573E+04  0.10100000352E+00 0.  1.
</event>
<event>
 5   0  0.1853742E-06  0.3118392E+04  0.7818609E-02  0.8210708E-01
        1   -1    0    0  501    0  0.00000000000E+00  0.00000000000E+00  0.29188565166E+04  0.29188565166E+04  0.50400001928E-02 0. -1.
       -1   -1    0    0    0  501  0.00000000000E+00  0.00000000000E+00 -0.83289206155E+03  0.83289206156E+03  0.50400001928E-02 0.  1.
    10030    2    1    2    0    0  0.00000000000E+00  0.00000000000E+00  0.20859644551E+04  0.37517485782E+04  0.31183921636E+04 0.  0.
        5    1    3    3  502    0 -0.95071719403E+03  0.12079935934E+04  0.13566177851E+04  0.20502550109E+04  0.46999998093E+01 0. -1.
       -5    1    3    3    0  502  0.95071719403E+03 -0.12079935934E+04  0.72934666994E+03  0.17014935673E+04  0.46999998093E+01 0.  1.
</event>
<event>
 5   0  0.5114870E-06  0.3018766E+04  0.7818609E-02  0.8238392E-01
        2   -1    0    0  501    0  0.00000000000E+00  0.00000000000E+00  0.17239061802E+04  0.17239061802E+04  0.25500000920E-02 0.  1.
       -2   -1    0    0    0  501  0.00000000000E+00  0.00000000000E+00 -0.13215553628E+04  0.13215553628E+04  0.25500000920E-02 0. -1.
    10030    2    1    2    0    0  0.00000000000E+00  0.00000000000E+00  0.40235081742E+03  0.30454615430E+04  0.30187662761E+04 0.  0.
        2    1    3    3  502    0  0.40312556593E+03  0.10481557588E+04 -0.81625511208E+03  0.13883130499E+04  0.25500000920E-02 0.  1.
       -2    1    3    3    0  502 -0.40312556593E+03 -0.10481557588E+04  0.12186059295E+04  0.16571484931E+04  0.25500000920E-02 0. -1.
</event>
<event>
 5   0  0.1843709E-06  0.3189271E+04  0.7818609E-02  0.8191656E-01
       -1   -1    0    0    0  501  0.00000000000E+00  0.00000000000E+00  0.19910686272E+04  0.19910686272E+04  0.50400001928E-02 0. -1.
        1   -1    0    0  501    0  0.00000000000E+00  0.00000000000E+00 -0.12771345062E+04  0.12771345062E+04  0.50400001928E-02 0.  1.
    10030    2    1    2    0    0  0.00000000000E+00  0.00000000000E+00  0.71393412096E+03  0.32682031334E+04  0.31892710440E+04 0.  0.
        4    1    3    3  502    0  0.11951222082E+04 -0.69430254701E+01 -0.72485735579E+03  0.13977786295E+04  0.12699999809E+01 0.  1.
       -4    1    3    3    0  502 -0.11951222082E+04  0.69430254701E+01  0.14387914768E+04  0.18704245038E+04  0.12699999809E+01 0. -1.
</event>
<event>
 5   0  0.5001658E-06  0.3120253E+04  0.7818609E-02  0.8210201E-01
       -2   -1    0    0    0  501  0.00000000000E+00  0.00000000000E+00  0.17535667246E+04  0.17535667246E+04  0.25500000920E-02 0. -1.
        2   -1    0    0  501    0  0.00000000000E+00  0.00000000000E+00 -0.13880253780E+04  0.13880253780E+04  0.25500000920E-02 0.  1.
    10030    2    1    2    0    0  0.00000000000E+00  0.00000000000E+00  0.36554134665E+03  0.31415921026E+04  0.31202532690E+04 0.  0.
        3    1    3    3  502    0 -0.97614501737E+03  0.67339506710E+03  0.12034465850E+04  0.16895572511E+04  0.10100000352E+00 0. -1.
       -3    1    3    3    0  502  0.97614501737E+03 -0.67339506710E+03 -0.83790523840E+03  0.14520348515E+04  0.10100000352E+00 0.  1.
</event>
<event>
 5   0  0.4927533E-06  0.3130971E+04  0.7818609E-02  0.8207289E-01
        2   -1    0    0  501    0  0.00000000000E+00  0.00000000000E+00  0.19080574250E+04  0.19080574250E+04  0.25500000920E-02 0. -1.
       -2   -1    0    0    0  501  0.00000000000E+00  0.00000000000E+00 -0.12844190910E+04  0.12844190910E+04  0.25500000920E-02 0.  1.
    10030    2    1    2    0    0  0.00000000000E+00  0.00000000000E+00  0.62363833398E+03  0.31924765161E+04  0.31309713403E+04 0.  0.
        5    1    3    3  502    0 -0.11644797032E+04  0.95778678420E+03 -0.11758878305E+03  0.15123550228E+04  0.46999998093E+01 0.  1.
       -5    1    3    3    0  502  0.11644797032E+04 -0.95778678420E+03  0.74122711703E+03  0.16801214933E+04  0.46999998093E+01 0. -1.
</event>
<event>
 5   0  0.5328368E-06  0.3155475E+04  0.7818609E-02  0.8200676E-01
        2   -1    0    0  501    0  0.00000000000E+00  0.00000000000E+00  0.16164651160E+04  0.16164651160E+04  0.25500000920E-02 0.  1.
       -2   -1    0    0    0  501  0.00000000000E+00  0.00000000000E+00 -0.15399374513E+04  0.15399374513E+04  0.25500000920E-02 0. -1.
    10030    2    1    2    0    0  0.00000000000E+00  0.00000000000E+00  0.76527664735E+02  0.31564025673E+04  0.31554747160E+04 0.  0.
        1    1    3    3  502    0 -0.14154378875E+04  0.88102826095E+02  0.72986329347E+03  0.15949692626E+04  0.50400001928E-02 0.  1.
       -1    1    3    3    0  502  0.14154378875E+04 -0.88102826095E+02 -0.65333562874E+03  0.15614333047E+04  0.50400001928E-02 0. -1.
</event>
<event>
 5   0  0.1840431E-06  0.2584439E+04  0.7818609E-02  0.8373506E-01
        1   -1    0    0  501    0  0.00000000000E+00  0.00000000000E+00  0.81786590319E+03  0.81786590320E+03  0.50400001928E-02 0.  1.
       -1   -1    0    0    0  501  0.00000000000E+00  0.00000000000E+00 -0.20416927705E+04  0.20416927705E+04  0.50400001928E-02 0. -1.
    10030    2    1    2    0    0  0.00000000000E+00  0.00000000000E+00 -0.12238268673E+04  0.28595586737E+04  0.25844387413E+04 0.  0.
        1    1    3    3  502    0  0.10218968682E+04 -0.20986834906E+03 -0.14556608807E+04  0.17908842879E+04  0.50400001928E-02 0. -1.
       -1    1    3    3    0  502 -0.10218968682E+04  0.20986834906E+03  0.23183401335E+03  0.10686743858E+04  0.50400001928E-02 0.  1.
</event>
<event>
 5   0  0.5328368E-06  0.3047790E+04  0.7818609E-02  0.8230214E-01
        2   -1    0    0  501    0  0.00000000000E+00  0.00000000000E+00  0.24224075120E+04  0.24224075120E+04  0.25500000920E-02 0. -1.
       -2   -1    0    0    0  501  0.00000000000E+00  0.00000000000E+00 -0.95865604070E+03  0.95865604071E+03  0.25500000920E-02 0.  1.
    10030    2    1    2    0    0  0.00000000000E+00  0.00000000000E+00  0.14637514713E+04  0.33810635527E+04  0.30477897529E+04 0.  0.
        1    1    3    3  502    0  0.10679836204E+04  0.45108072078E+03  0.18290624813E+04  0.21655328191E+04  0.50400001928E-02 0. -1.
       -1    1    3    3    0  502 -0.10679836204E+04 -0.45108072078E+03 -0.36531101002E+03  0.12155307336E+04  0.50400001928E-02 0.  1.
</event>
<event>
 5   0  0.1840431E-06  0.3100913E+04  0.7818609E-02  0.8215487E-01
       -1   -1    0    0    0  501  0.00000000000E+00  0.00000000000E+00  0.17964782382E+04  0.17964782382E+04  0.50400001928E-02 0.  1.
        1   -1    0    0  501    0  0.00000000000E+00  0.00000000000E+00 -0.13381267796E+04  0.13381267796E+04  0.50400001928E-02 0. -1.
    10030    2    1    2    0    0  0.00000000000E+00  0.00000000000E+00  0.45835145855E+03  0.31346050178E+04  0.31009131813E+04 0.  0.
        1    1    3    3  502    0 -0.97467435332E+03 -0.55869201103E+03  0.13093307859E+04  0.17252460593E+04  0.50400001928E-02 0. -1.
       -1    1    3    3    0  502  0.97467435332E+03  0.55869201103E+03 -0.85097932738E+03  0.14093589585E+04  0.50400001928E-02 0.  1.
</event>
<event>
 5   0  0.4900679E-06  0.2765410E+04  0.7818609E-02  0.8314088E-01
        2   -1    0    0  501    0  0.00000000000E+00  0.00000000000E+00  0.10992519567E+04  0.10992519567E+04  0.25500000920E-02 0. -1.
       -2   -1    0    0    0  501  0.00000000000E+00  0.00000000000E+00 -0.17392490034E+04  0.17392490034E+04  0.25500000920E-02 0.  1.
    10030    2    1    2    0    0  0.00000000000E+00  0.00000000000E+00 -0.63999704667E+03  0.28385009601E+04  0.27654098215E+04 0.  0.
        4    1    3    3  502    0 -0.11261394599E+04 -0.33063453022E+03 -0.10703199013E+04  0.15884255033E+04  0.12699999809E+01 0.  1.
       -4    1    3    3    0  502  0.11261394599E+04  0.33063453022E+03  0.43032285459E+03  0.12500754568E+04  0.12699999809E+01 0. -1.
</event>
<event>
 5   0  0.1840431E-06  0.3101640E+04  0.7818609E-02  0.8215288E-01
       -1   -1    0    0    0  501  0.00000000000E+00  0.00000000000E+00  0.14442570149E+04  0.14442570149E+04  0.50400001928E-02 0.  1.
        1   -1    0    0  501    0  0.00000000000E+00  0.00000000000E+00 -0.16652461299E+04  0.16652461299E+04  0.50400001928E-02 0. -1.
    10030    2    1    2    0    0  0.00000000000E+00  0.00000000000E+00 -0.22098911500E+03  0.31095031449E+04  0.31016404722E+04 0.  0.
        1    1    3    3  502    0 -0.52018927195E+03 -0.22934187188E+03  0.13360244375E+04  0.14519489903E+04  0.50400001928E-02 0.  1.
       -1    1    3    3    0  502  0.52018927195E+03  0.22934187188E+03 -0.15570135525E+04  0.16575541546E+04  0.50400001928E-02 0. -1.
</event>
<event>
 5   0  0.4927533E-06  0.2788507E+04  0.7818609E-02  0.8306845E-01
        2   -1    0    0  501    0  0.00000000000E+00  0.00000000000E+00  0.19967973579E+04  0.19967973579E+04  0.25500000920E-02 0.  1.
       -2   -1    0    0    0  501  0.00000000000E+00  0.00000000000E+00 -0.97353067384E+03  0.97353067384E+03  0.25500000920E-02 0. -1.
    10030    2    1    2    0    0  0.00000000000E+00  0.00000000000E+00  0.10232666841E+04  0.29703280317E+04  0.27885074699E+04 0.  0.
        5    1    3    3  502    0 -0.37090746996E+03 -0.69405270271E+03  0.17376080617E+04  0.19075076334E+04  0.46999998093E+01 0.  1.
       -5    1    3    3    0  502  0.37090746996E+03  0.69405270271E+03 -0.71434137761E+03  0.10628203984E+04  0.46999998093E+01 0. -1.
</event>
<event>
 5   0  0.4927533E-06  0.3106704E+04  0.7818609E-02  0.8213900E-01
        2   -1    0    0  501    0  0.00000000000E+00  0.00000000000E+00  0.16229348033E+04  0.16229348033E+04  0.25500000920E-02 0.  1.
       -2   -1    0    0    0  501  0.00000000000E+00  0.00000000000E+00 -0.14867527901E+04  0.14867527901E+04  0.25500000920E-02 0. -1.
    10030    2    1    2    0    0  0.00000000000E+00  0.00000000000E+00  0.13618201319E+03  0.31096875934E+04  0.31067042646E+04 0.  0.
        5    1    3    3  502    0  0.11257163643E+04 -0.77204582873E+02 -0.10004934653E+04  0.15080474610E+04  0.46999998093E+01 0. -1.
       -5    1    3    3    0  502 -0.11257163643E+04  0.77204582873E+02  0.11366754785E+04  0.16016401324E+04  0.46999998093E+01 0.  1.
</event>
<event>
 5   0  0.5114870E-06  0.3137821E+04  0.7818609E-02  0.8205434E-01
       -2   -1    0    0    0  501  0.00000000000E+00  0.00000000000E+00  0.19523563192E+04  0.19523563192E+04  0.25500000920E-02 0.  1.
        2   -1    0    0  501    0  0.00000000000E+00  0.00000000000E+00 -0.12607739214E+04  0.12607739214E+04  0.25500000920E-02 0. -1.
    10030    2    1    2    0    0  0.00000000000E+00  0.00000000000E+00  0.69158239781E+03  0.32131302407E+04  0.31378208570E+04 0.  0.
        2    1    3    3  502    0 -0.21455731269E+03 -0.17115997004E+03  0.19275818201E+04  0.19470239467E+04  0.25500000920E-02 0.  1.
       -2    1    3    3    0  502  0.21455731269E+03  0.17115997004E+03 -0.12359994223E+04  0.12661062940E+04  0.25500000920E-02 0. -1.
</event>
<event>
 5   0  0.5114870E-06  0.3120734E+04  0.7818609E-02  0.8210071E-01
       -2   -1    0    0    0  501  0.00000000000E+00  0.00000000000E+00  0.13495796229E+04  0.13495796229E+04  0.25500000920E-02 0. -1.
        2   -1    0    0  501    0  0.00000000000E+00  0.00000000000E+00 -0.18040768343E+04  0.18040768343E+04  0.25500000920E-02 0.  1.
    10030    2    1    2    0    0  0.00000000000E+00  0.00000000000E+00 -0.45449721140E+03  0.31536564572E+04  0.31207341019E+04 0.  0.
        2    1    3    3  502    0 -0.43994645933E+03 -0.59918969179E+03 -0.16136416306E+04  0.17766317812E+04  0.25500000920E-02 0.  1.
       -2    1    3    3    0  502  0.43994645933E+03  0.59918969179E+03  0.11591444192E+04  0.13770246760E+04  0.25500000920E-02 0. -1.
</event>
<event>
 5   0  0.5328368E-06  0.3131113E+04  0.7818609E-02  0.8207251E-01
       -2   -1    0    0    0  501  0.00000000000E+00  0.00000000000E+00  0.14965817128E+04  0.14965817128E+04  0.25500000920E-02 0. -1.
        2   -1    0    0  501    0  0.00000000000E+00  0.00000000000E+00 -0.16377101962E+04  0.16377101962E+04  0.25500000920E-02 0.  1.
    10030    2    1    2    0    0  0.00000000000E+00  0.00000000000E+00 -0.14112848331E+03  0.31342919090E+04  0.31311129846E+04 0.  0.
        1    1    3    3  502    0  0.17958954409E+03  0.14955975733E+04  0.35636921097E+03  0.15479223236E+04  0.50400001928E-02 0. -1.
       -1    1    3    3    0  502 -0.17958954409E+03 -0.14955975733E+04 -0.49749769428E+03  0.15863695854E+04  0.50400001928E-02 0.  1.
</event>
<event>
 5   0  0.1853742E-06  0.2955766E+04  0.7818609E-02  0.8256476E-01
       -1   -1    0    0    0  501  0.00000000000E+00  0.00000000000E+00  0.17980195441E+04  0.17980195441E+04  0.50400001928E-02 0.  1.
        1   -1    0    0  501    0  0.00000000000E+00  0.00000000000E+00 -0.12147466767E+04  0.12147466767E+04  0.50400001928E-02 0. -1.
    10030    2    1    2    0    0  0.00000000000E+00  0.00000000000E+00  0.58327286738E+03  0.30127662209E+04  0.29557660705E+04 0.  0.
        5    1    3    3  502    0  0.79935518837E+03  0.11592344022E+04  0.74897953729E+03  0.15949249367E+04  0.46999998093E+01 0.  1.
       -5    1    3    3    0  502 -0.79935518837E+03 -0.11592344022E+04 -0.16570666991E+03  0.14178412841E+04  0.46999998093E+01 0. -1.
</event>
<event>
 5   0  0.1885307E-06  0.3104617E+04  0.7818609E-02  0.8214472E-01
       -1   -1    0    0    0  501  0.00000000000E+00  0.00000000000E+00  0.87318543757E+03  0.87318543758E+03  0.50400001928E-02 0.  1.
        1   -1    0    0  501    0  0.00000000000E+00  0.00000000000E+00 -0.27596218970E+04  0.27596218970E+04  0.50400001928E-02 0. -1.
    10030    2    1    2    0    0  0.00000000000E+00  0.00000000000E+00 -0.18864364594E+04  0.36328073345E+04  0.31046169836E+04 0.  0.
        3    1    3    3  502    0 -0.10494525909E+04  0.11184708889E+04 -0.66303663671E+03  0.16709115661E+04  0.10100000352E+00 0. -1.
       -3    1    3    3    0  502  0.10494525909E+04 -0.11184708889E+04 -0.12233998227E+04  0.19618957684E+04  0.10100000352E+00 0.  1.
</event>
<event>
 5   0  0.5001658E-06  0.3139982E+04  0.7818609E-02  0.8204850E-01
       -2   -1    0    0    0  501  0.00000000000E+00  0.00000000000E+00  0.10872154475E+04  0.10872154475E+04  0.25500000920E-02 0.  1.
        2   -1    0    0  501    0  0.00000000000E+00  0.00000000000E+00 -0.22671414890E+04  0.22671414890E+04  0.25500000920E-02 0. -1.
    10030    2    1    2    0    0  0.00000000000E+00  0.00000000000E+00 -0.11799260415E+04  0.33543569364E+04  0.31399816868E+04 0.  0.
        3    1    3    3  502    0  0.64565509387E+03 -0.46582723624E+03 -0.20354926894E+04  0.21856568836E+04  0.10100000352E+00 0. -1.
       -3    1    3    3    0  502 -0.64565509387E+03  0.46582723624E+03  0.85556664786E+03  0.11687000528E+04  0.10100000352E+00 0.  1.
</event>
<event>
 5   0  0.1840431E-06  0.3097607E+04  0.7818609E-02  0.8216395E-01
        1   -1    0    0  501    0  0.00000000000E+00  0.00000000000E+00  0.20403562193E+04  0.20403562193E+04  0.50400001928E-02 0. -1.
       -1   -1    0    0    0  501  0.00000000000E+00  0.00000000000E+00 -0.11756729781E+04  0.11756729781E+04  0.50400001928E-02 0.  1.
    10030    2    1    2    0    0  0.00000000000E+00  0.00000000000E+00  0.86468324114E+03  0.32160291974E+04  0.30976066069E+04 0.  0.
        1    1    3    3  502    0  0.87224172008E+03  0.42618982984E+03 -0.82058704387E+03  0.12711437707E+04  0.50400001928E-02 0.  1.
       -1    1    3    3    0  502 -0.87224172008E+03 -0.42618982984E+03  0.16852702850E+04  0.19448854267E+04  0.50400001928E-02 0. -1.
</event>
<event>
 5   0  0.5114870E-06  0.3299438E+04  0.7818609E-02  0.8163038E-01
       -2   -1    0    0    0  501  0.00000000000E+00  0.00000000000E+00  0.97670566602E+03  0.97670566602E+03  0.25500000920E-02 0. -1.
        2   -1    0    0  501    0  0.00000000000E+00  0.00000000000E+00 -0.27864818984E+04  0.27864818984E+04  0.25500000920E-02 0.  1.
    10030    2    1    2    0    0  0.00000000000E+00  0.00000000000E+00 -0.18097762324E+04  0.37631875644E+04  0.32994379269E+04 0.  0.
        2    1    3    3  502    0 -0.19445044650E+03  0.27995785389E+03 -0.27458800276E+04  0.27669558186E+04  0.25500000920E-02 0.  1.
       -2    1    3    3    0  502  0.19445044650E+03 -0.27995785389E+03  0.93610379518E+03  0.99623174586E+03  0.25500000920E-02 0. -1.
</event>
<event>
 5   0  0.1843709E-06  0.3073762E+04  0.7818609E-02  0.8222976E-01
       -1   -1    0    0    0  501  0.00000000000E+00  0.00000000000E+00  0.14088892671E+04  0.14088892671E+04  0.50400001928E-02 0.  1.
        1   -1    0    0  501    0  0.00000000000E+00  0.00000000000E+00 -0.16765001851E+04  0.16765001851E+04  0.50400001928E-02 0. -1.
    10030    2    1    2    0    0  0.00000000000E+00  0.00000000000E+00 -0.26761091794E+03  0.30853894522E+04  0.30737619407E+04 0.  0.
        4    1    3    3  502    0  0.15672015191E+03 -0.11545151645E+04  0.87225088809E+03  0.14554345385E+04  0.12699999809E+01 0.  1.
       -4    1    3    3    0  502 -0.15672015191E+03  0.11545151645E+04 -0.11398618060E+04  0.16299549137E+04  0.12699999809E+01 0. -1.
</event>
<event>
 5   0  0.1840431E-06  0.2977761E+04  0.7818609E-02  0.8250110E-01
        1   -1    0    0  501    0  0.00000000000E+00  0.00000000000E+00  0.24500319294E+04  0.24500319294E+04  0.50400001928E-02 0. -1.
       -1   -1    0    0    0  501  0.00000000000E+00  0.00000000000E+00 -0.90479037483E+03  0.90479037485E+03  0.50400001928E-02 0.  1.
    10030    2    1    2    0    0  0.00000000000E+00  0.00000000000E+00  0.15452415546E+04  0.33548223043E+04  0.29777611105E+04 0.  0.
        1    1    3    3  502    0  0.11193019200E+04  0.38972479830E+03  0.17878619184E+04  0.21450343694E+04  0.50400001928E-02 0. -1.
       -1    1    3    3    0  502 -0.11193019200E+04 -0.38972479830E+03 -0.24262036383E+03  0.12097879349E+04  0.50400001928E-02 0.  1.
</event>
<event>
 5   0  0.1836401E-06  0.3017169E+04  0.7818609E-02  0.8238845E-01
        1   -1    0    0  501    0  0.00000000000E+00  0.00000000000E+00  0.14113896716E+04  0.14113896716E+04  0.50400001928E-02 0. -1.
       -1   -1    0    0    0  501  0.00000000000E+00  0.00000000000E+00 -0.16124730590E+04  0.16124730590E+04  0.50400001928E-02 0.  1.
    10030    2    1    2    0    0  0.00000000000E+00  0.00000000000E+00 -0.20108338732E+03  0.30238627306E+04  0.30171694160E+04 0.  0.
        2    1    3    3  502    0 -0.94647289799E+02 -0.81147985370E+03  0.11704870702E+04  0.14274094171E+04  0.25500000920E-02 0. -1.
       -2    1    3    3    0  502  0.94647289799E+02  0.81147985370E+03 -0.13715704575E+04  0.15964533136E+04  0.25500000920E-02 0.  1.
</event>
<event>
 5   0  0.1853742E-06  0.2250848E+04  0.7818609E-02  0.8497557E-01
       -1   -1    0    0    0  501  0.00000000000E+00  0.00000000000E+00  0.22855341813E+04  0.22855341813E+04  0.50400001928E-02 0. -1.
        1   -1    0    0  501    0  0.00000000000E+00  0.00000000000E+00 -0.55417227661E+03  0.55417227663E+03  0.50400001928E-02 0.  1.
    10030    2    1    2    0    0  0.00000000000E+00  0.00000000000E+00  0.17313619047E+04  0.28397064579E+04  0.22508484450E+04 0.  0.
        5    1    3    3  502    0  0.65709273276E+03  0.35135424146E+03  0.19297379025E+04  0.20686060826E+04  0.46999998093E+01 0. -1.
       -5    1    3    3    0  502 -0.65709273276E+03 -0.35135424146E+03 -0.19837599779E+03  0.77110037540E+03  0.46999998093E+01 0.  1.
</event>
<event>
 5   0  0.4900679E-06  0.3027530E+04  0.7818609E-02  0.8235913E-01
        2   -1    0    0  501    0  0.00000000000E+00  0.00000000000E+00  0.21651797871E+04  0.21651797871E+04  0.25500000920E-02 0.  1.
       -2   -1    0    0    0  501  0.00000000000E+00  0.00000000000E+00 -0.10583346995E+04  0.10583346995E+04  0.25500000920E-02 0. -1.
    10030    2    1    2    0    0  0.00000000000E+00  0.00000000000E+00  0.11068450876E+04  0.32235144866E+04  0.30275302802E+04 0.  0.
        4    1    3    3  502    0  0.20509263625E+03 -0.14696482479E+04  0.87205089192E+03  0.17211633661E+04  0.12699999809E+01 0. -1.
       -4    1    3    3    0  502 -0.20509263625E+03  0.14696482479E+04  0.23479419563E+03  0.15023511205E+04  0.12699999809E+01 0.  1.
</event>
<event>
 5   0  0.4900679E-06  0.3100400E+04  0.7818609E-02  0.8215628E-01
        2   -1    0    0  501    0  0.00000000000E+00  0.00000000000E+00  0.23144695860E+04  0.23144695860E+04  0.25500000920E-02 0. -1.
       -2   -1    0    0    0  501  0.00000000000E+00  0.00000000000E+00 -0.10383029884E+04  0.10383029884E+04  0.25500000920E-02 0.  1.
    10030    2    1    2    0    0  0.00000000000E+00  0.00000000000E+00  0.12761665976E+04  0.33527725744E+04  0.31004004178E+04 0.  0.
        4    1    3    3  502    0 -0.11408149633E+04  0.20474734531E+03 -0.47514882532E+03  0.12526564873E+04  0.12699999809E+01 0.  1.
       -4    1    3    3    0  502  0.11408149633E+04 -0.20474734531E+03  0.17513154229E+04  0.21001160871E+04  0.12699999809E+01 0. -1.
</event>
<event>
 5   0  0.1836401E-06  0.3091715E+04  0.7818609E-02  0.8218015E-01
       -1   -1    0    0    0  501  0.00000000000E+00  0.00000000000E+00  0.10597859231E+04  0.10597859231E+04  0.50400001928E-02 0.  1.
        1   -1    0    0  501    0  0.00000000000E+00  0.00000000000E+00 -0.22548661287E+04  0.22548661287E+04  0.50400001928E-02 0. -1.
    10030    2    1    2    0    0  0.00000000000E+00  0.00000000000E+00 -0.11950802056E+04  0.33146520517E+04  0.30917149814E+04 0.  0.
        2    1    3    3  502    0 -0.14667606705E+04  0.33123362921E+03 -0.98196636254E+03  0.17959288736E+04  0.25500000920E-02 0.  1.
       -2    1    3    3    0  502  0.14667606705E+04 -0.33123362921E+03 -0.21311384304E+03  0.15187231782E+04  0.25500000920E-02 0. -1.
</event>
<event>
 5   0  0.4900679E-06  0.3101558E+04  0.7818609E-02  0.8215310E-01
        2   -1    0    0  501    0  0.00000000000E+00  0.00000000000E+00  0.16274436866E+04  0.16274436866E+04  0.25500000920E-02 0. -1.
       -2   -1    0    0    0  501  0.00000000000E+00  0.00000000000E+00 -0.14777258959E+04  0.14777258959E+04  0.25500000920E-02 0.  1.
    10030    2    1    2    0    0  0.00000000000E+00  0.00000000000E+00  0.14971779068E+03  0.31051695825E+04  0.31015581115E+04 0.  0.
        4    1    3    3  502    0 -0.22487197728E+03 -0.60408553794E+02  0.16098426034E+04  0.16265950388E+04  0.12699999809E+01 0. -1.
       -4    1    3    3    0  502  0.22487197728E+03  0.60408553794E+02 -0.14601248128E+04  0.14785745437E+04  0.12699999809E+01 0.  1.
</event>
<event>
 5   0  0.5328368E-06  0.3028661E+04  0.7818609E-02  0.8235594E-01
       -2   -1    0    0    0  501  0.00000000000E+00  0.00000000000E+00  0.14184158560E+04  0.14184158560E+04  0.25500000920E-02 0. -1.
        2   -1    0    0  501    0  0.00000000000E+00  0.00000000000E+00 -0.16167305112E+04  0.16167305112E+04  0.25500000920E-02 0.  1.
    10030    2    1    2    0    0  0.00000000000E+00  0.00000000000E+00 -0.19831465520E+03  0.30351463672E+04  0.30286605567E+04 0.  0.
        1    1    3    3  502    0  0.35148908035E+03  0.15201223370E+03 -0.15674036614E+04  0.16135075242E+04  0.50400001928E-02 0.  1.
       -1    1    3    3    0  502 -0.35148908035E+03 -0.15201223370E+03  0.13690890062E+04  0.14216388430E+04  0.50400001928E-02 0. -1.
</event>
<event>
 5   0  0.4900679E-06  0.3113802E+04  0.7818609E-02  0.8211960E-01
        2   -1    0    0  501    0  0.00000000000E+00  0.00000000000E+00  0.22345118758E+04  0.22345118758E+04  0.25500000920E-02 0. -1.
       -2   -1    0    0    0  501  0.00000000000E+00  0.00000000000E+00 -0.10847743786E+04  0.10847743786E+04  0.25500000920E-02 0.  1.
    10030    2    1    2    0    0  0.00000000000E+00  0.00000000000E+00  0.11497374972E+04  0.33192862544E+04  0.31138023261E+04 0.  0.
        4    1    3    3  502    0  0.94529128319E+03 -0.39040615513E+02  0.18929271822E+04  0.21161934481E+04  0.12699999809E+01 0.  1.
       -4    1    3    3    0  502 -0.94529128319E+03  0.39040615513E+02 -0.74318968500E+03  0.12030928063E+04  0.12699999809E+01 0. -1.
</event>
<event>
 5   0  0.1853742E-06  0.3092277E+04  0.7818609E-02  0.8217861E-01
       -1   -1    0    0    0  501  0.00000000000E+00  0.00000000000E+00  0.11517626282E+04  0.11517626282E+04  0.50400001928E-02 0.  1.
        1   -1    0    0  501    0  0.00000000000E+00  0.00000000000E+00 -0.20755524453E+04  0.20755524453E+04  0.50400001928E-02 0. -1.
    10030    2    1    2    0    0  0.00000000000E+00  0.00000000000E+00 -0.92378981709E+03  0.32273150735E+04  0.30922766625E+04 0.  0.
        5    1    3    3  502    0 -0.68946710074E+03 -0.11362880085E+04 -0.12863319964E+04  0.18496452136E+04  0.46999998093E+01 0. -1.
       -5    1    3    3    0  502  0.68946710074E+03  0.11362880085E+04  0.36254217928E+03  0.13776698599E+04  0.46999998093E+01 0.  1.
</event>
<event>
 5   0  0.4927533E-06  0.3086018E+04  0.7818609E-02  0.8219586E-01
       -2   -1    0    0    0  501  0.00000000000E+00  0.00000000000E+00  0.13244494982E+04  0.13244494982E+04  0.25500000920E-02 0.  1.
        2   -1    0    0  501    0  0.00000000000E+00  0.00000000000E+00 -0.17976355559E+04  0.17976355559E+04  0.25500000920E-02 0. -1.
    10030    2    1    2    0    0  0.00000000000E+00  0.00000000000E+00 -0.47318605774E+03  0.31220850542E+04  0.30860184770E+04 0.  0.
        5    1    3    3  502    0 -0.13236898954E+04  0.57289429790E+03  0.31798556472E+03  0.14769900897E+04  0.46999998093E+01 0.  1.
       -5    1    3    3    0  502  0.13236898954E+04 -0.57289429790E+03 -0.79117162246E+03  0.16450949644E+04  0.46999998093E+01 0. -1.
</event>
<event>
 5   0  0.1853742E-06  0.3126359E+04  0.7818609E-02  0.8208541E-01
       -1   -1    0    0    0  501  0.00000000000E+00  0.00000000000E+00  0.10582459520E+04  0.10582459520E+04  0.50400001928E-02 0.  1.
        1   -1    0    0  501    0  0.00000000000E+00  0.00000000000E+00 -0.23090379695E+04  0.23090379695E+04  0.50400001928E-02 0. -1.
    10030    2    1    2    0    0  0.00000000000E+00  0.00000000000E+00 -0.12507920176E+04  0.33672839215E+04  0.31263589584E+04 0.  0.
        5    1    3    3  502    0 -0.87243389281E+03  0.12706070789E+04 -0.34468792910E+03  0.15793717437E+04  0.46999998093E+01 0. -1.
       -5    1    3    3    0  502  0.87243389281E+03 -0.12706070789E+04 -0.90610408849E+03  0.17879121778E+04  0.46999998093E+01 0.  1.
</event>
<event>
 5   0  0.1885307E-06  0.3131546E+04  0.7818609E-02  0.8207133E-01
        1   -1    0    0  501    0  0.00000000000E+00  0.00000000000E+00  0.15986006216E+04  0.15986006216E+04  0.50400001928E-02 0. -1.
       -1   -1    0    0    0  501  0.00000000000E+00  0.00000000000E+00 -0.15336196119E+04  0.15336196119E+04  0.50400001928E-02 0.  1.
    10030    2    1    2    0    0  0.00000000000E+00  0.00000000000E+00  0.64981009757E+02  0.31322202335E+04  0.31315461133E+04 0.  0.
        3    1    3    3  502    0 -0.61096236173E+03 -0.76131520309E+03  0.12569964261E+04  0.15915137044E+04  0.10100000352E+00 0. -1.
       -3    1    3    3    0  502  0.61096236173E+03  0.76131520309E+03 -0.11920154163E+04  0.15407065291E+04  0.10100000352E+00 0.  1.
</event>
<event>
 5   0  0.4927533E-06  0.3127154E+04  0.7818609E-02  0.8208325E-01
       -2   -1    0    0    0  501  0.00000000000E+00  0.00000000000E+00  0.18542005705E+04  0.18542005705E+04  0.25500000920E-02 0. -1.
        2   -1    0    0  501    0  0.00000000000E+00  0.00000000000E+00 -0.13185053871E+04  0.13185053871E+04  0.25500000920E-02 0.  1.
    10030    2    1    2    0    0  0.00000000000E+00  0.00000000000E+00  0.53569518336E+03  0.31727059576E+04  0.31271542597E+04 0.  0.
        5    1    3    3  502    0 -0.89792303462E+03  0.62472314917E+02 -0.10292838285E+04  0.13673389689E+04  0.46999998093E+01 0.  1.
       -5    1    3    3    0  502  0.89792303462E+03 -0.62472314917E+02  0.15649790119E+04  0.18053669887E+04  0.46999998093E+01 0. -1.
</event>
<event>
 5   0  0.1840431E-06  0.3127655E+04  0.7818609E-02  0.8208189E-01
       -1   -1    0    0    0  501  0.00000000000E+00  0.00000000000E+00  0.91826720953E+03  0.91826720955E+03  0.50400001928E-02 0.  1.
        1   -1    0    0  501    0  0.00000000000E+00  0.00000000000E+00 -0.26632302356E+04  0.26632302356E+04  0.50400001928E-02 0. -1.
    10030    2    1    2    0    0  0.00000000000E+00  0.00000000000E+00 -0.17449630261E+04  0.35814974452E+04  0.31276553498E+04 0.  0.
        1    1    3    3  502    0  0.15891624630E+03  0.15554579670E+04 -0.90592834169E+03  0.18070445542E+04  0.50400001928E-02 0.  1.
       -1    1    3    3    0  502 -0.15891624630E+03 -0.15554579670E+04 -0.83903468439E+03  0.17744528910E+04  0.50400001928E-02 0. -1.
</event>
<event>
 5   0  0.1843709E-06  0.3087639E+04  0.7818609E-02  0.8219139E-01
        1   -1    0    0  501    0  0.00000000000E+00  0.00000000000E+00  0.16431375171E+04  0.16431375171E+04  0.50400001928E-02 0. -1.
       -1   -1    0    0    0  501  0.00000000000E+00  0.00000000000E+00 -0.14505043717E+04  0.14505043717E+04  0.50400001928E-02 0.  1.
    10030    2    1    2    0    0  0.00000000000E+00  0.00000000000E+00  0.19263314545E+03  0.30936418888E+04  0.30876386783E+04 0.  0.
        4    1    3    3  502    0 -0.55003729104E+03 -0.14350323687E+04 -0.50657478465E+02  0.15376692472E+04  0.12699999809E+01 0. -1.
       -4    1    3    3    0  502  0.55003729104E+03  0.14350323687E+04  0.24329062391E+03  0.15559726416E+04  0.12699999809E+01 0.  1.
</event>
<event>
 5   0  0.1853742E-06  0.3033663E+04  0.7818609E-02  0.8234183E-01
        1   -1    0    0  501    0  0.00000000000E+00  0.00000000000E+00  0.16201238670E+04  0.16201238670E+04  0.50400001928E-02 0.  1.
       -1   -1    0    0    0  501  0.00000000000E+00  0.00000000000E+00 -0.14201248943E+04  0.14201248943E+04  0.50400001928E-02 0. -1.
    10030    2    1    2    0    0  0.00000000000E+00  0.00000000000E+00  0.19999897268E+03  0.30402487613E+04  0.30336632875E+04 0.  0.
        5    1    3    3  502    0 -0.39092306565E+03 -0.10145170636E+04  0.11599771305E+04  0.15898536879E+04  0.46999998093E+01 0.  1.
       -5    1    3    3    0  502  0.39092306565E+03  0.10145170636E+04 -0.95997815786E+03  0.14503950734E+04  0.46999998093E+01 0. -1.
</event>
<event>
 5   0  0.1840431E-06  0.3126855E+04  0.7818609E-02  0.8208406E-01
        1   -1    0    0  501    0  0.00000000000E+00  0.00000000000E+00  0.26363354148E+04  0.26363354148E+04  0.50400001928E-02 0.  1.
       -1   -1    0    0    0  501  0.00000000000E+00  0.00000000000E+00 -0.92716020670E+03  0.92716020671E+03  0.50400001928E-02 0. -1.
    10030    2    1    2    0    0  0.00000000000E+00  0.00000000000E+00  0.17091752081E+04  0.35634956215E+04  0.31268548340E+04 0.  0.
        1    1    3    3  502    0  0.24968214502E+03  0.14828327255E+04  0.36683776769E+03  0.15478061937E+04  0.50400001928E-02 0. -1.
       -1    1    3    3    0  502 -0.24968214502E+03 -0.14828327255E+04  0.13423374404E+04  0.20156894278E+04  0.50400001928E-02 0.  1.
</event>
<event>
 5   0  0.1840431E-06  0.2897458E+04  0.7818609E-02  0.8273634E-01
        1   -1    0    0  501    0  0.00000000000E+00  0.00000000000E+00  0.21139520620E+04  0.21139520620E+04  0.50400001928E-02 0. -1.
       -1   -1    0    0    0  501  0.00000000000E+00  0.00000000000E+00 -0.99283979068E+03  0.99283979069E+03  0.50400001928E-02 0.  1.
    10030    2    1    2    0    0  0.00000000000E+00  0.00000000000E+00  0.11211122713E+04  0.31067918527E+04  0.28974580050E+04 0.  0.
        1    1    3    3  502    0 -0.14018456591E+04 -0.12387738929E+03  0.92935136375E+03  0.16864788220E+04  0.50400001928E-02 0. -1.
       -1    1    3    3    0  502  0.14018456591E+04  0.12387738929E+03  0.19176090755E+03  0.14203130307E+04  0.50400001928E-02 0.  1.
</event>
<event>
 5   0  0.4900679E-06  0.3093382E+04  0.7818609E-02  0.8217556E-01
        2   -1    0    0  501    0  0.00000000000E+00  0.00000000000E+00  0.15605470275E+04  0.15605470275E+04  0.25500000920E-02 0.  1.
       -2   -1    0    0    0  501  0.00000000000E+00  0.00000000000E+00 -0.15329581633E+04  0.15329581633E+04  0.25500000920E-02 0. -1.
    10030    2    1    2    0    0  0.00000000000E+00  0.00000000000E+00  0.27588864147E+02  0.30935051908E+04  0.30933821653E+04 0.  0.
        4    1    3    3  502    0 -0.13482635617E+03  0.48726364017E+03  0.14755802049E+04  0.15597892663E+04  0.12699999809E+01 0.  1.
       -4    1    3    3    0  502  0.13482635617E+03 -0.48726364017E+03 -0.14479913407E+04  0.15337159245E+04  0.12699999809E+01 0. -1.
</event>
<event>
 5   0  0.1843709E-06  0.2918244E+04  0.7818609E-02  0.8267470E-01
       -1   -1    0    0    0  501  0.00000000000E+00  0.00000000000E+00  0.13238835305E+04  0.13238835305E+04  0.50400001928E-02 0.  1.
        1   -1    0    0  501    0  0.00000000000E+00  0.00000000000E+00 -0.16081755013E+04  0.16081755013E+04  0.50400001928E-02 0. -1.
    10030    2    1    2    0    0  0.00000000000E+00  0.00000000000E+00 -0.28429197084E+03  0.29320590318E+04  0.29182440338E+04 0.  0.
        4    1    3    3  502    0  0.49096402938E+03 -0.85061490395E+03  0.94205654703E+03  0.13609054132E+04  0.12699999809E+01 0.  1.
       -4    1    3    3    0  502 -0.49096402938E+03  0.85061490395E+03 -0.12263485179E+04  0.15711536186E+04  0.12699999809E+01 0. -1.
</event>
<event>
 5   0  0.1840431E-06  0.3041640E+04  0.7818609E-02  0.8231939E-01
        1   -1    0    0  501    0  0.00000000000E+00  0.00000000000E+00  0.22674009322E+04  0.22674009322E+04  0.50400001928E-02 0.  1.
       -1   -1    0    0    0  501  0.00000000000E+00  0.00000000000E+00 -0.10200634302E+04  0.10200634302E+04  0.50400001928E-02 0. -1.
    10030    2    1    2    0    0  0.00000000000E+00  0.00000000000E+00  0.12473375020E+04  0.32874643624E+04  0.30416395398E+04 0.  0.
        1    1    3    3  502    0 -0.57158368417E+03 -0.25817226524E+03 -0.87377659554E+03  0.10755679270E+04  0.50400001928E-02 0. -1.
       -1    1    3    3    0  502  0.57158368417E+03  0.25817226524E+03  0.21211140975E+04  0.22118964355E+04  0.50400001928E-02 0.  1.
</event>
<event>
 5   0  0.1885307E-06  0.3108197E+04  0.7818609E-02  0.8213492E-01
        1   -1    0    0  501    0  0.00000000000E+00  0.00000000000E+00  0.24200807457E+04  0.24200807457E+04  0.50400001928E-02 0.  1.
       -1   -1    0    0    0  501  0.00000000000E+00  0.00000000000E+00 -0.99799228665E+03  0.99799228667E+03  0.50400001928E-02 0. -1.
    10030    2    1    2    0    0  0.00000000000E+00  0.00000000000E+00  0.14220884590E+04  0.34180730324E+04  0.31081968517E+04 0.  0.
        3    1    3    3  502    0 -0.55882203306E+03 -0.11563315690E+04 -0.25132346331E+03  0.13086436702E+04  0.10100000352E+00 0. -1.
       -3    1    3    3    0  502  0.55882203306E+03  0.11563315690E+04  0.16734119223E+04  0.21094293622E+04  0.10100000352E+00 0.  1.
</event>
<event>
 5   0  0.1853742E-06  0.3085961E+04  0.7818609E-02  0.8219601E-01
       -1   -1    0    0    0  501  0.00000000000E+00  0.00000000000E+00  0.28677534528E+04  0.28677534528E+04  0.50400001928E-02 0. -1.
        1   -1    0    0  501    0  0.00000000000E+00  0.00000000000E+00 -0.83019320681E+03  0.83019320683E+03  0.50400001928E-02 0.  1.
    10030    2    1    2    0    0  0.00000000000E+00  0.00000000000E+00  0.20375602460E+04  0.36979466596E+04  0.30859613966E+04 0.  0.
        5    1    3    3  502    0 -0.14874503736E+04 -0.16860866079E+03  0.14668751261E+04  0.20958726631E+04  0.46999998093E+01 0. -1.
       -5    1    3    3    0  502  0.14874503736E+04  0.16860866079E+03  0.57068511992E+03  0.16020739966E+04  0.46999998093E+01 0.  1.
</event>
<event>
 5   0  0.4900679E-06  0.3106689E+04  0.7818609E-02  0.8213905E-01
        2   -1    0    0  501    0  0.00000000000E+00  0.00000000000E+00  0.18108676319E+04  0.18108676319E+04  0.25500000920E-02 0. -1.
       -2   -1    0    0    0  501  0.00000000000E+00  0.00000000000E+00 -0.13324438905E+04  0.13324438905E+04  0.25500000920E-02 0.  1.
    10030    2    1    2    0    0  0.00000000000E+00  0.00000000000E+00  0.47842374140E+03  0.31433115224E+04  0.31066892427E+04 0.  0.
        4    1    3    3  502    0  0.18879182209E+03  0.97371819271E+03 -0.97033360481E+03  0.13875584270E+04  0.12699999809E+01 0.  1.
       -4    1    3    3    0  502 -0.18879182209E+03 -0.97371819271E+03  0.14487573462E+04  0.17557530954E+04  0.12699999809E+01 0. -1.
</event>
<event>
 5   0  0.1836401E-06  0.2945900E+04  0.7818609E-02  0.8259350E-01
        1   -1    0    0  501    0  0.00000000000E+00  0.00000000000E+00  0.23657057585E+04  0.23657057585E+04  0.50400001928E-02 0. -1.
       -1   -1    0    0    0  501  0.00000000000E+00  0.00000000000E+00 -0.91709687361E+03  0.91709687363E+03  0.50400001928E-02 0.  1.
    10030    2    1    2    0    0  0.00000000000E+00  0.00000000000E+00  0.14486088849E+04  0.32828026321E+04  0.29458997641E+04 0.  0.
        2    1    3    3  502    0  0.13409772420E+04  0.33212729896E+03  0.12936697821E+04  0.18926462985E+04  0.25500000920E-02 0. -1.
       -2    1    3    3    0  502 -0.13409772420E+04 -0.33212729896E+03  0.15493910280E+03  0.13901563336E+04  0.25500000920E-02 0.  1.
</event>
<event>
 5   0  0.1843709E-06  0.3054927E+04  0.7818609E-02  0.8228218E-01
        1   -1    0    0  501    0  0.00000000000E+00  0.00000000000E+00  0.31037538832E+04  0.31037538832E+04  0.50400001928E-02 0.  1.
       -1   -1    0    0    0  501  0.00000000000E+00  0.00000000000E+00 -0.75171683186E+03  0.75171683188E+03  0.50400001928E-02 0. -1.
    10030    2    1    2    0    0  0.00000000000E+00  0.00000000000E+00  0.23520370513E+04  0.38554707151E+04  0.30549265366E+04 0.  0.
        4    1    3    3  502    0  0.26093772556E+03 -0.14970771503E+04  0.98126191969E+03  0.18089237293E+04  0.12699999809E+01 0.  1.
       -4    1    3    3    0  502 -0.26093772556E+03  0.14970771503E+04  0.13707751316E+04  0.20465469858E+04  0.12699999809E+01 0. -1.
</event>
<event>
 5   0  0.4900679E-06  0.3067292E+04  0.7818609E-02  0.8224772E-01
        2   -1    0    0  501    0  0.00000000000E+00  0.00000000000E+00  0.17134755640E+04  0.17134755640E+04  0.25500000920E-02 0.  1.
       -2   -1    0    0    0  501  0.00000000000E+00  0.00000000000E+00 -0.13726892441E+04  0.13726892441E+04  0.25500000920E-02 0. -1.
    10030    2    1    2    0    0  0.00000000000E+00  0.00000000000E+00  0.34078631985E+03  0.30861648081E+04  0.30672916241E+04 0.  0.
        4    1    3    3  502    0 -0.93499253062E+03 -0.74904029685E+03 -0.79299271449E+03  0.14367015893E+04  0.12699999809E+01 0. -1.
       -4    1    3    3    0  502  0.93499253062E+03  0.74904029685E+03  0.11337790343E+04  0.16494632188E+04  0.12699999809E+01 0.  1.
</event>
<event>
 5   0  0.4927533E-06  0.2352913E+04  0.7818609E-02  0.8457345E-01
        2   -1    0    0  501    0  0.00000000000E+00  0.00000000000E+00  0.11594598209E+04  0.11594598209E+04  0.25500000920E-02 0.  1.
       -2   -1    0    0    0  501  0.00000000000E+00  0.00000000000E+00 -0.11937026435E+04  0.11937026435E+04  0.25500000920E-02 0. -1.
    10030    2    1    2    0    0  0.00000000000E+00  0.00000000000E+00 -0.34242822556E+02  0.23531624644E+04  0.23529133034E+04 0.  0.
        5    1    3    3  502    0 -0.92744212561E+03 -0.70519411323E+03  0.14593121632E+03  0.11742085179E+04  0.46999998093E+01 0.  1.
       -5    1    3    3    0  502  0.92744212561E+03  0.70519411323E+03 -0.18017403887E+03  0.11789539465E+04  0.46999998093E+01 0. -1.
</event>
<event>
 5   0  0.1843709E-06  0.2912516E+04  0.7818609E-02  0.8269163E-01
       -1   -1    0    0    0  501  0.00000000000E+00  0.00000000000E+00  0.11478334235E+04  0.11478334235E+04  0.50400001928E-02 0.  1.
        1   -1    0    0  501    0  0.00000000000E+00  0.00000000000E+00 -0.18475564583E+04  0.18475564584E+04  0.50400001928E-02 0. -1.
    10030    2    1    2    0    0  0.00000000000E+00  0.00000000000E+00 -0.69972303485E+03  0.29953898819E+04  0.29125157886E+04 0.  0.
        4    1    3    3  502    0  0.72707659215E+02  0.33287455197E+03  0.11062620691E+04  0.11575444913E+04  0.12699999809E+01 0.  1.
       -4    1    3    3    0  502 -0.72707659215E+02 -0.33287455197E+03 -0.18059851039E+04  0.18378453905E+04  0.12699999809E+01 0. -1.
</event>
<event>
 5   0  0.4900679E-06  0.3214338E+04  0.7818609E-02  0.8185041E-01
        2   -1    0    0  501    0  0.00000000000E+00  0.00000000000E+00  0.22831042668E+04  0.22831042668E+04  0.25500000920E-02 0.  1.
       -2   -1    0    0    0  501  0.00000000000E+00  0.00000000000E+00 -0.11313508937E+04  0.11313508937E+04  0.25500000920E-02 0. -1.
    10030    2    1    2    0    0  0.00000000000E+00  0.00000000000E+00  0.11517533731E+04  0.34144551606E+04  0.32143379118E+04 0.  0.
        4    1    3    3  502    0  0.10150705109E+04 -0.36105902021E+03  0.18427091383E+04  0.21345515546E+04  0.12699999809E+01 0.  1.
       -4    1    3    3    0  502 -0.10150705109E+04  0.36105902021E+03 -0.69095576519E+03  0.12799036060E+04  0.12699999809E+01 0. -1.
</event>
<event>
 5   0  0.5001658E-06  0.3112564E+04  0.7818609E-02  0.8212298E-01
        2   -1    0    0  501    0  0.00000000000E+00  0.00000000000E+00  0.16085834050E+04  0.16085834050E+04  0.25500000920E-02 0. -1.
       -2   -1    0    0    0  501  0.00000000000E+00  0.00000000000E+00 -0.15056807623E+04  0.15056807623E+04  0.25500000920E-02 0.  1.
    10030    2    1    2    0    0  0.00000000000E+00  0.00000000000E+00  0.10290264271E+03  0.31142641673E+04  0.31125636298E+04 0.  0.
        3    1    3    3  502    0  0.24995828148E+03 -0.13477936572E+04  0.78872987891E+03  0.15814935083E+04  0.10100000352E+00 0.  1.
       -3    1    3    3    0  502 -0.24995828148E+03  0.13477936572E+04 -0.68582723621E+03  0.15327706589E+04  0.10100000352E+00 0. -1.
</event>
<event>
 5   0  0.1853742E-06  0.3164546E+04  0.7818609E-02  0.8198244E-01
        1   -1    0    0  501    0  0.00000000000E+00  0.00000000000E+00  0.13518001816E+04  0.13518001816E+04  0.50400001928E-02 0.  1.
       -1   -1    0    0    0  501  0.00000000000E+00  0.00000000000E+00 -0.18520398778E+04  0.18520398779E+04  0.50400001928E-02 0. -1.
    10030    2    1    2    0    0  0.00000000000E+00  0.00000000000E+00 -0.50023969627E+03  0.32038400594E+04  0.31645459979E+04 0.  0.
        5    1    3    3  502    0 -0.64779612452E+03 -0.16487789547E+03  0.12018220576E+04  0.13752173965E+04  0.46999998093E+01 0.  1.
       -5    1    3    3    0  502  0.64779612452E+03  0.16487789547E+03 -0.17020617539E+04  0.18286226630E+04  0.46999998093E+01 0. -1.
</event>
<event>
 5   0  0.5114870E-06  0.3083759E+04  0.7818609E-02  0.8220209E-01
        2   -1    0    0  501    0  0.00000000000E+00  0.00000000000E+00  0.15533153559E+04  0.15533153559E+04  0.25500000920E-02 0. -1.
       -2   -1    0    0    0  501  0.00000000000E+00  0.00000000000E+00 -0.15305273446E+04  0.15305273446E+04  0.25500000920E-02 0.  1.
    10030    2    1    2    0    0  0.00000000000E+00  0.00000000000E+00  0.22788011323E+02  0.30838427005E+04  0.30837585036E+04 0.  0.
        2    1    3    3  502    0  0.46802020761E+03  0.70347083183E+03 -0.12783999079E+04  0.15323904367E+04  0.25500000920E-02 0. -1.
       -2    1    3    3    0  502 -0.46802020761E+03 -0.70347083183E+03  0.13011879192E+04  0.15514522639E+04  0.25500000920E-02 0.  1.
</event>
<event>
 5   0  0.1649875E-06  0.3000880E+04  0.7818609E-02  0.8243480E-01
        3   -1    0    0  501    0  0.00000000000E+00  0.00000000000E+00  0.10736534900E+04  0.10736534948E+04  0.10100000352E+00 0. -1.
       -3   -1    0    0    0  501  0.00000000000E+00  0.00000000000E+00 -0.20968771887E+04  0.20968771912E+04  0.10100000352E+00 0.  1.
    10030    2    1    2    0    0  0.00000000000E+00  0.00000000000E+00 -0.10232236987E+04  0.31705306859E+04  0.30008795532E+04 0.  0.
        5    1    3    3  502    0  0.73284449342E+03 -0.12312889662E+04 -0.41289488980E+02  0.14334784553E+04  0.46999998093E+01 0. -1.
       -5    1    3    3    0  502 -0.73284449342E+03  0.12312889662E+04 -0.98193420975E+03  0.17370522307E+04  0.46999998093E+01 0.  1.
</event>
<event>
 5   0  0.5114870E-06  0.3045645E+04  0.7818609E-02  0.8230816E-01
        2   -1    0    0  501    0  0.00000000000E+00  0.00000000000E+00  0.26730157912E+04  0.26730157912E+04  0.25500000920E-02 0.  1.
       -2   -1    0    0    0  501  0.00000000000E+00  0.00000000000E+00 -0.86755480190E+03  0.86755480191E+03  0.25500000920E-02 0. -1.
    10030    2    1    2    0    0  0.00000000000E+00  0.00000000000E+00  0.18054609892E+04  0.35405705931E+04  0.30456445526E+04 0.  0.
        2    1    3    3  502    0  0.89998448314E+03 -0.90587705543E+03 -0.61798353042E+02  0.12784382449E+04  0.25500000920E-02 0. -1.
       -2    1    3    3    0  502 -0.89998448314E+03  0.90587705543E+03  0.18672593423E+04  0.22621323482E+04  0.25500000920E-02 0.  1.
</event>
<event>
 5   0  0.1885307E-06  0.3062157E+04  0.7818609E-02  0.8226201E-01
        1   -1    0    0  501    0  0.00000000000E+00  0.00000000000E+00  0.22716677653E+04  0.22716677653E+04  0.50400001928E-02 0.  1.
       -1   -1    0    0    0  501  0.00000000000E+00  0.00000000000E+00 -0.10319293588E+04  0.10319293588E+04  0.50400001928E-02 0. -1.
    10030    2    1    2    0    0  0.00000000000E+00  0.00000000000E+00  0.12397384065E+04  0.33035971240E+04  0.30621565344E+04 0.  0.
        3    1    3    3  502    0  0.11995230589E+04 -0.16492724908E+03 -0.39111083749E+03  0.12724088430E+04  0.10100000352E+00 0. -1.
       -3    1    3    3    0  502 -0.11995230589E+04  0.16492724908E+03  0.16308492440E+04  0.20311882811E+04  0.10100000352E+00 0.  1.
</event>
<event>
 5   0  0.5001658E-06  0.3085976E+04  0.7818609E-02  0.8219597E-01
        2   -1    0    0  501    0  0.00000000000E+00  0.00000000000E+00  0.21960538605E+04  0.21960538605E+04  0.25500000920E-02 0. -1.
       -2   -1    0    0    0  501  0.00000000000E+00  0.00000000000E+00 -0.10841320462E+04  0.10841320462E+04  0.25500000920E-02 0.  1.
    10030    2    1    2    0    0  0.00000000000E+00  0.00000000000E+00  0.11119218143E+04  0.32801859067E+04  0.30859762574E+04 0.  0.
        3    1    3    3  502    0 -0.70660763745E+03  0.49224668082E+03 -0.80493007178E+03  0.11787763056E+04  0.10100000352E+00 0.  1.
       -3    1    3    3    0  502  0.70660763745E+03 -0.49224668082E+03  0.19168518861E+04  0.21014096011E+04  0.10100000352E+00 0. -1.
</event>
<event>
 5   0  0.1843709E-06  0.3219059E+04  0.7818609E-02  0.8183802E-01
       -1   -1    0    0    0  501  0.00000000000E+00  0.00000000000E+00  0.36545542246E+04  0.36545542246E+04  0.50400001928E-02 0. -1.
        1   -1    0    0  501    0  0.00000000000E+00  0.00000000000E+00 -0.70886477751E+03  0.70886477753E+03  0.50400001928E-02 0.  1.
    10030    2    1    2    0    0  0.00000000000E+00  0.00000000000E+00  0.29456894470E+04  0.43634190021E+04  0.32190587241E+04 0.  0.
        4    1    3    3  502    0  0.44649171437E+03  0.13000218884E+04  0.33780747568E+03  0.14154600894E+04  0.12699999809E+01 0.  1.
       -4    1    3    3    0  502 -0.44649171437E+03 -0.13000218884E+04  0.26078819714E+04  0.29479589127E+04  0.12699999809E+01 0. -1.
</event>
<event>
 5   0  0.1840431E-06  0.3087814E+04  0.7818609E-02  0.8219090E-01
        1   -1    0    0  501    0  0.00000000000E+00  0.00000000000E+00  0.21459613444E+04  0.21459613445E+04  0.50400001928E-02 0.  1.
       -1   -1    0    0    0  501  0.00000000000E+00  0.00000000000E+00 -0.11107602108E+04  0.11107602108E+04  0.50400001928E-02 0. -1.
    10030    2    1    2    0    0  0.00000000000E+00  0.00000000000E+00  0.10352011336E+04  0.32567215553E+04  0.30878137738E+04 0.  0.
        1    1    3    3  502    0  0.19423986669E+02 -0.35762695596E+03  0.21015409345E+04  0.21318416053E+04  0.50400001928E-02 0.  1.
       -1    1    3    3    0  502 -0.19423986669E+02  0.35762695596E+03 -0.10663398008E+04  0.11248799499E+04  0.50400001928E-02 0. -1.
</event>
<event>
 5   0  0.5114870E-06  0.3083011E+04  0.7818609E-02  0.8220416E-01
        2   -1    0    0  501    0  0.00000000000E+00  0.00000000000E+00  0.97348088426E+03  0.97348088427E+03  0.25500000920E-02 0.  1.
       -2   -1    0    0    0  501  0.00000000000E+00  0.00000000000E+00 -0.24409721288E+04  0.24409721288E+04  0.25500000920E-02 0. -1.
    10030    2    1    2    0    0  0.00000000000E+00  0.00000000000E+00 -0.14674912445E+04  0.34144530131E+04  0.30830113243E+04 0.  0.
        2    1    3    3  502    0 -0.53854659275E+03 -0.31597164787E+03 -0.22946489486E+04  0.23780841684E+04  0.25500000920E-02 0. -1.
       -2    1    3    3    0  502  0.53854659275E+03  0.31597164787E+03  0.82715770404E+03  0.10363688447E+04  0.25500000920E-02 0.  1.
</event>
<event>
 5   0  0.1853742E-06  0.3088215E+04  0.7818609E-02  0.8218980E-01
       -1   -1    0    0    0  501  0.00000000000E+00  0.00000000000E+00  0.92732980533E+03  0.92732980534E+03  0.50400001928E-02 0. -1.
        1   -1    0    0  501    0  0.00000000000E+00  0.00000000000E+00 -0.25711108154E+04  0.25711108154E+04  0.50400001928E-02 0.  1.
    10030    2    1    2    0    0  0.00000000000E+00  0.00000000000E+00 -0.16437810100E+04  0.34984406207E+04  0.30882148189E+04 0.  0.
        5    1    3    3  502    0  0.48082561902E+03  0.10550433402E+04 -0.19771253632E+04  0.22920201826E+04  0.46999998093E+01 0.  1.
       -5    1    3    3    0  502 -0.48082561902E+03 -0.10550433402E+04  0.33334435317E+03  0.12064204381E+04  0.46999998093E+01 0. -1.
</event>
<event>
 5   0  0.4900679E-06  0.3105815E+04  0.7818609E-02  0.8214144E-01
        2   -1    0    0  501    0  0.00000000000E+00  0.00000000000E+00  0.12717366800E+04  0.12717366800E+04  0.25500000920E-02 0.  1.
       -2   -1    0    0    0  501  0.00000000000E+00  0.00000000000E+00 -0.18962434711E+04  0.18962434711E+04  0.25500000920E-02 0. -1.
    10030    2    1    2    0    0  0.00000000000E+00  0.00000000000E+00 -0.62450679112E+03  0.31679801510E+04  0.31058154332E+04 0.  0.
        4    1    3    3  502    0  0.10542468112E+04 -0.65883135272E+03 -0.12614850044E+04  0.17711129607E+04  0.12699999809E+01 0. -1.
       -4    1    3    3    0  502 -0.10542468112E+04  0.65883135272E+03  0.63697821329E+03  0.13968671903E+04  0.12699999809E+01 0.  1.
</event>
<event>
 5   0  0.5001658E-06  0.3095403E+04  0.7818609E-02  0.8217001E-01
       -2   -1    0    0    0  501  0.00000000000E+00  0.00000000000E+00  0.14657156421E+04  0.14657156421E+04  0.25500000920E-02 0.  1.
        2   -1    0    0  501    0  0.00000000000E+00  0.00000000000E+00 -0.16342734055E+04  0.16342734055E+04  0.25500000920E-02 0. -1.
    10030    2    1    2    0    0  0.00000000000E+00  0.00000000000E+00 -0.16855776336E+03  0.30999890476E+04  0.30954031039E+04 0.  0.
        3    1    3    3  502    0  0.95016253542E+03 -0.10898206102E+04  0.46868248605E+03  0.15199279881E+04  0.10100000352E+00 0. -1.
       -3    1    3    3    0  502 -0.95016253542E+03  0.10898206102E+04 -0.63724024941E+03  0.15800610595E+04  0.10100000352E+00 0.  1.
</event>
<event>
 5   0  0.4927533E-06  0.3064514E+04  0.7818609E-02  0.8225545E-01
        2   -1    0    0  501    0  0.00000000000E+00  0.00000000000E+00  0.13976646682E+04  0.13976646682E+04  0.25500000920E-02 0. -1.
       -2   -1    0    0    0  501  0.00000000000E+00  0.00000000000E+00 -0.16798098770E+04  0.16798098770E+04  0.25500000920E-02 0.  1.
    10030    2    1    2    0    0  0.00000000000E+00  0.00000000000E+00 -0.28214520875E+03  0.30774745452E+04  0.30645136087E+04 0.  0.
        5    1    3    3  502    0  0.15420478596E+03  0.95331439250E+03 -0.13357263153E+04  0.16482640342E+04  0.46999998093E+01 0.  1.
       -5    1    3    3    0  502 -0.15420478596E+03 -0.95331439250E+03  0.10535811065E+04  0.14292105111E+04  0.46999998093E+01 0. -1.
</event>
<event>
 5   0  0.1843709E-06  0.2532848E+04  0.7818609E-02  0.8391376E-01
        1   -1    0    0  501    0  0.00000000000E+00  0.00000000000E+00  0.20079137740E+04  0.20079137740E+04  0.50400001928E-02 0.  1.
       -1   -1    0    0    0  501  0.00000000000E+00  0.00000000000E+00 -0.79875458793E+03  0.79875458795E+03  0.50400001928E-02 0. -1.
    10030    2    1    2    0    0  0.00000000000E+00  0.00000000000E+00  0.12091591860E+04  0.28066683619E+04  0.25328484670E+04 0.  0.
        4    1    3    3  502    0 -0.81697471626E+03 -0.94247793189E+03  0.84764793382E+03  0.15080520454E+04  0.12699999809E+01 0.  1.
       -4    1    3    3    0  502  0.81697471626E+03  0.94247793189E+03  0.36151125223E+03  0.12986163165E+04  0.12699999809E+01 0. -1.
</event>
<event>
 5   0  0.1885307E-06  0.3096985E+04  0.7818609E-02  0.8216566E-01
       -1   -1    0    0    0  501  0.00000000000E+00  0.00000000000E+00  0.12372624637E+04  0.12372624637E+04  0.50400001928E-02 0.  1.
        1   -1    0    0  501    0  0.00000000000E+00  0.00000000000E+00 -0.19380113502E+04  0.19380113502E+04  0.50400001928E-02 0. -1.
    10030    2    1    2    0    0  0.00000000000E+00  0.00000000000E+00 -0.70074888646E+03  0.31752738139E+04  0.30969847903E+04 0.  0.
        3    1    3    3  502    0  0.38273247999E+03  0.88925069157E+03  0.88872011209E+03  0.13141820237E+04  0.10100000352E+00 0.  1.
       -3    1    3    3    0  502 -0.38273247999E+03 -0.88925069157E+03 -0.15894689986E+04  0.18610917901E+04  0.10100000352E+00 0. -1.
</event>
<event>
 5   0  0.1853742E-06  0.3097386E+04  0.7818609E-02  0.8216456E-01
       -1   -1    0    0    0  501  0.00000000000E+00  0.00000000000E+00  0.11885535986E+04  0.11885535986E+04  0.50400001928E-02 0.  1.
        1   -1    0    0  501    0  0.00000000000E+00  0.00000000000E+00 -0.20179570611E+04  0.20179570611E+04  0.50400001928E-02 0. -1.
    10030    2    1    2    0    0  0.00000000000E+00  0.00000000000E+00 -0.82940346248E+03  0.32065106598E+04  0.30973860766E+04 0.  0.
        5    1    3    3  502    0  0.46234686725E+03 -0.83524108090E+03 -0.16771048266E+04  0.19297914339E+04  0.46999998093E+01 0. -1.
       -5    1    3    3    0  502 -0.46234686725E+03  0.83524108090E+03  0.84770136416E+03  0.12767192259E+04  0.46999998093E+01 0.  1.
</event>
<event>
 5   0  0.4900679E-06  0.3040211E+04  0.7818609E-02  0.8232341E-01
        2   -1    0    0  501    0  0.00000000000E+00  0.00000000000E+00  0.21244688766E+04  0.21244688766E+04  0.25500000920E-02 0.  1.
       -2   -1    0    0    0  501  0.00000000000E+00  0.00000000000E+00 -0.10876700258E+04  0.10876700258E+04  0.25500000920E-02 0. -1.
    10030    2    1    2    0    0  0.00000000000E+00  0.00000000000E+00  0.10367988509E+04  0.32121389024E+04  0.30402112544E+04 0.  0.
        4    1    3    3  502    0 -0.99362636253E+03 -0.54596742885E+03  0.15882563870E+04  0.19513927707E+04  0.12699999809E+01 0. -1.
       -4    1    3    3    0  502  0.99362636253E+03  0.54596742885E+03 -0.55145753612E+03  0.12607461317E+04  0.12699999809E+01 0.  1.
</event>
<event>
 5   0  0.5328368E-06  0.2946302E+04  0.7818609E-02  0.8259233E-01
        2   -1    0    0  501    0  0.00000000000E+00  0.00000000000E+00  0.18093965003E+04  0.18093965003E+04  0.25500000920E-02 0.  1.
       -2   -1    0    0    0  501  0.00000000000E+00  0.00000000000E+00 -0.11993909763E+04  0.11993909763E+04  0.25500000920E-02 0. -1.
    10030    2    1    2    0    0  0.00000000000E+00  0.00000000000E+00  0.61000552403E+03  0.30087874766E+04  0.29463019770E+04 0.  0.
        1    1    3    3  502    0  0.78535332252E+03  0.12388701484E+04  0.16574820452E+03  0.14761610864E+04  0.50400001928E-02 0. -1.
       -1    1    3    3    0  502 -0.78535332252E+03 -0.12388701484E+04  0.44425731951E+03  0.15326263901E+04  0.50400001928E-02 0.  1.
</event>
<event>
 5   0  0.4927533E-06  0.3098644E+04  0.7818609E-02  0.8216110E-01
        2   -1    0    0  501    0  0.00000000000E+00  0.00000000000E+00  0.31069561733E+04  0.31069561733E+04  0.25500000920E-02 0.  1.
       -2   -1    0    0    0  501  0.00000000000E+00  0.00000000000E+00 -0.77258852829E+03  0.77258852830E+03  0.25500000920E-02 0. -1.
    10030    2    1    2    0    0  0.00000000000E+00  0.00000000000E+00  0.23343676450E+04  0.38795447016E+04  0.30986440244E+04 0.  0.
        5    1    3    3  502    0 -0.32104598205E+03 -0.12416357533E+04  0.22555335685E+04  0.25946451849E+04  0.46999998093E+01 0.  1.
       -5    1    3    3    0  502  0.32104598205E+03  0.12416357533E+04  0.78834076506E+02  0.12848995168E+04  0.46999998093E+01 0. -1.
</event>
<event>
 5   0  0.4900679E-06  0.3118042E+04  0.7818609E-02  0.8210804E-01
       -2   -1    0    0    0  501  0.00000000000E+00  0.00000000000E+00  0.99504315357E+03  0.99504315357E+03  0.25500000920E-02 0.  1.
        2   -1    0    0  501    0  0.00000000000E+00  0.00000000000E+00 -0.24426542090E+04  0.24426542090E+04  0.25500000920E-02 0. -1.
    10030    2    1    2    0    0  0.00000000000E+00  0.00000000000E+00 -0.14476110554E+04  0.34376973626E+04  0.31180419158E+04 0.  0.
        4    1    3    3  502    0  0.58011621222E+03 -0.96475526637E+02  0.86806493232E+03  0.10485135605E+04  0.12699999809E+01 0.  1.
       -4    1    3    3    0  502 -0.58011621222E+03  0.96475526637E+02 -0.23156759878E+04  0.23891838021E+04  0.12699999809E+01 0. -1.
</event>
<event>
 5   0  0.5114870E-06  0.3054243E+04  0.7818609E-02  0.8228409E-01
        2   -1    0    0  501    0  0.00000000000E+00  0.00000000000E+00  0.15104885181E+04  0.15104885181E+04  0.25500000920E-02 0.  1.
       -2   -1    0    0    0  501  0.00000000000E+00  0.00000000000E+00 -0.15439376916E+04  0.15439376916E+04  0.25500000920E-02 0. -1.
    10030    2    1    2    0    0  0.00000000000E+00  0.00000000000E+00 -0.33449173538E+02  0.30544262097E+04  0.30542430524E+04 0.  0.
        2    1    3    3  502    0 -0.12473618093E+04 -0.88018666983E+03 -0.54938116997E+02  0.15276315831E+04  0.25500000920E-02 0. -1.
       -2    1    3    3    0  502  0.12473618093E+04  0.88018666983E+03  0.21488943459E+02  0.15267946266E+04  0.25500000920E-02 0.  1.
</event>
<event>
 5   0  0.4927533E-06  0.3006028E+04  0.7818609E-02  0.8242012E-01
        2   -1    0    0  501    0  0.00000000000E+00  0.00000000000E+00  0.16156925095E+04  0.16156925095E+04  0.25500000920E-02 0. -1.
       -2   -1    0    0    0  501  0.00000000000E+00  0.00000000000E+00 -0.13981938871E+04  0.13981938871E+04  0.25500000920E-02 0.  1.
    10030    2    1    2    0    0  0.00000000000E+00  0.00000000000E+00  0.21749862241E+03  0.30138863965E+04  0.30060282035E+04 0.  0.
        5    1    3    3  502    0  0.10745329891E+04  0.10502641502E+04  0.71864960533E+02  0.15042814206E+04  0.46999998093E+01 0.  1.
       -5    1    3    3    0  502 -0.10745329891E+04 -0.10502641502E+04  0.14563366188E+03  0.15096049759E+04  0.46999998093E+01 0. -1.
</event>
<event>
 5   0  0.4927533E-06  0.3015636E+04  0.7818609E-02  0.8239280E-01
        2   -1    0    0  501    0  0.00000000000E+00  0.00000000000E+00  0.16434847575E+04  0.16434847575E+04  0.25500000920E-02 0.  1.
       -2   -1    0    0    0  501  0.00000000000E+00  0.00000000000E+00 -0.13833506151E+04  0.13833506151E+04  0.25500000920E-02 0. -1.
    10030    2    1    2    0    0  0.00000000000E+00  0.00000000000E+00  0.26013414236E+03  0.30268353726E+04  0.30156363509E+04 0.  0.
        5    1    3    3  502    0  0.83489807869E+03 -0.11777291942E+04 -0.30674180288E+03  0.14758771901E+04  0.46999998093E+01 0. -1.
       -5    1    3    3    0  502 -0.83489807869E+03  0.11777291942E+04  0.56687594524E+03  0.15509581825E+04  0.46999998093E+01 0.  1.
</event>
<event>
 5   0  0.1836401E-06  0.3082279E+04  0.7818609E-02  0.8220618E-01
       -1   -1    0    0    0  501  0.00000000000E+00  0.00000000000E+00  0.15616191626E+04  0.15616191626E+04  0.50400001928E-02 0.  1.
        1   -1    0    0  501    0  0.00000000000E+00  0.00000000000E+00 -0.15209287386E+04  0.15209287386E+04  0.50400001928E-02 0. -1.
    10030    2    1    2    0    0  0.00000000000E+00  0.00000000000E+00  0.40690424077E+02  0.30825479012E+04  0.30822793275E+04 0.  0.
        2    1    3    3  502    0  0.79244117333E+03 -0.12895066046E+04 -0.27006116183E+03  0.15374405119E+04  0.25500000920E-02 0. -1.
       -2    1    3    3    0  502 -0.79244117333E+03  0.12895066046E+04  0.31075158591E+03  0.15451073893E+04  0.25500000920E-02 0.  1.
</event>
<event>
 5   0  0.1836401E-06  0.3096618E+04  0.7818609E-02  0.8216667E-01
        1   -1    0    0  501    0  0.00000000000E+00  0.00000000000E+00  0.16072869318E+04  0.16072869318E+04  0.50400001928E-02 0. -1.
       -1   -1    0    0    0  501  0.00000000000E+00  0.00000000000E+00 -0.14914950820E+04  0.14914950820E+04  0.50400001928E-02 0.  1.
    10030    2    1    2    0    0  0.00000000000E+00  0.00000000000E+00  0.11579184988E+03  0.30987820138E+04  0.30966178674E+04 0.  0.
        2    1    3    3  502    0  0.96940526217E+02 -0.15429360033E+04 -0.27084435820E+02  0.15462155550E+04  0.25500000920E-02 0.  1.
       -2    1    3    3    0  502 -0.96940526217E+02  0.15429360033E+04  0.14287628570E+03  0.15525664588E+04  0.25500000920E-02 0. -1.
</event>
<event>
 5   0  0.1836401E-06  0.3084977E+04  0.7818609E-02  0.8219873E-01
       -1   -1    0    0    0  501  0.00000000000E+00  0.00000000000E+00  0.11774926932E+04  0.11774926932E+04  0.50400001928E-02 0. -1.
        1   -1    0    0  501    0  0.00000000000E+00  0.00000000000E+00 -0.20206247124E+04  0.20206247124E+04  0.50400001928E-02 0.  1.
    10030    2    1    2    0    0  0.00000000000E+00  0.00000000000E+00 -0.84313201916E+03  0.31981174056E+04  0.30849770401E+04 0.  0.
        2    1    3    3  502    0  0.52232678953E+03  0.11987269434E+04 -0.12698036148E+04  0.18226828523E+04  0.25500000920E-02 0.  1.
       -2    1    3    3    0  502 -0.52232678953E+03 -0.11987269434E+04  0.42667159566E+03  0.13754345533E+04  0.25500000920E-02 0. -1.
</event>
<event>
 5   0  0.1853742E-06  0.3118178E+04  0.7818609E-02  0.8210767E-01
       -1   -1    0    0    0  501  0.00000000000E+00  0.00000000000E+00  0.14352561729E+04  0.14352561730E+04  0.50400001928E-02 0. -1.
        1   -1    0    0  501    0  0.00000000000E+00  0.00000000000E+00 -0.16936063717E+04  0.16936063717E+04  0.50400001928E-02 0.  1.
    10030    2    1    2    0    0  0.00000000000E+00  0.00000000000E+00 -0.25835019875E+03  0.31288625447E+04  0.31181783140E+04 0.  0.
        5    1    3    3  502    0  0.12106319350E+03 -0.11389466993E+04  0.93222101321E+03  0.14767917891E+04  0.46999998093E+01 0. -1.
       -5    1    3    3    0  502 -0.12106319350E+03  0.11389466993E+04 -0.11905712120E+04  0.16520707556E+04  0.46999998093E+01 0.  1.
</event>
<event>
 5   0  0.5001658E-06  0.3091354E+04  0.7818609E-02  0.8218115E-01
       -2   -1    0    0    0  501  0.00000000000E+00  0.00000000000E+00  0.13296614028E+04  0.13296614028E+04  0.25500000920E-02 0. -1.
        2   -1    0    0  501    0  0.00000000000E+00  0.00000000000E+00 -0.17967860409E+04  0.17967860409E+04  0.25500000920E-02 0.  1.
    10030    2    1    2    0    0  0.00000000000E+00  0.00000000000E+00 -0.46712463814E+03  0.31264474438E+04  0.30913537797E+04 0.  0.
        3    1    3    3  502    0 -0.36105853228E+03 -0.14144585469E+04 -0.74732604399E+03  0.16399855093E+04  0.10100000352E+00 0.  1.
       -3    1    3    3    0  502  0.36105853228E+03  0.14144585469E+04  0.28020140585E+03  0.14864619345E+04  0.10100000352E+00 0. -1.
</event>
<event>
 5   0  0.1885307E-06  0.3195383E+04  0.7818609E-02  0.8190038E-01
       -1   -1    0    0    0  501  0.00000000000E+00  0.00000000000E+00  0.18561905204E+04  0.18561905205E+04  0.50400001928E-02 0.  1.
        1   -1    0    0  501    0  0.00000000000E+00  0.00000000000E+00 -0.13751918957E+04  0.13751918957E+04  0.50400001928E-02 0. -1.
    10030    2    1    2    0    0  0.00000000000E+00  0.00000000000E+00  0.48099862471E+03  0.32313824162E+04  0.31953830197E+04 0.  0.
        3    1    3    3  502    0  0.11118263614E+04  0.11468184123E+04  0.20449168217E+03  0.16103313904E+04  0.10100000352E+00 0. -1.
       -3    1    3    3    0  502 -0.11118263614E+04 -0.11468184123E+04  0.27650694254E+03  0.16210510258E+04  0.10100000352E+00 0.  1.
</event>
<event>
 5   0  0.1836401E-06  0.3148484E+04  0.7818609E-02  0.8202557E-01
        1   -1    0    0  501    0  0.00000000000E+00  0.00000000000E+00  0.20218577014E+04  0.20218577014E+04  0.50400001928E-02 0. -1.
       -1   -1    0    0    0  501  0.00000000000E+00  0.00000000000E+00 -0.12257228994E+04  0.12257228994E+04  0.50400001928E-02 0.  1.
    10030    2    1    2    0    0  0.00000000000E+00  0.00000000000E+00  0.79613480202E+03  0.32475806008E+04  0.31484836248E+04 0.  0.
        2    1    3    3  502    0  0.11785745746E+04  0.73486427415E+03  0.11624545668E+04  0.18111775587E+04  0.25500000920E-02 0. -1.
       -2    1    3    3    0  502 -0.11785745746E+04 -0.73486427415E+03 -0.36631976477E+03  0.14364030421E+04  0.25500000920E-02 0.  1.
</event>
<event>
 5   0  0.1853742E-06  0.3069682E+04  0.7818609E-02  0.8224108E-01
       -1   -1    0    0    0  501  0.00000000000E+00  0.00000000000E+00  0.15523368589E+04  0.15523368589E+04  0.50400001928E-02 0. -1.
        1   -1    0    0  501    0  0.00000000000E+00  0.00000000000E+00 -0.15175426632E+04  0.15175426632E+04  0.50400001928E-02 0.  1.
    10030    2    1    2    0    0  0.00000000000E+00  0.00000000000E+00  0.34794195709E+02  0.30698795221E+04  0.30696823361E+04 0.  0.
        5    1    3    3  502    0  0.16121056353E+03 -0.79488839451E+03 -0.12857134326E+04  0.15201702294E+04  0.46999998093E+01 0.  1.
       -5    1    3    3    0  502 -0.16121056353E+03  0.79488839451E+03  0.13205076283E+04  0.15497092927E+04  0.46999998093E+01 0. -1.
</event>
<event>
 5   0  0.5114870E-06  0.3101205E+04  0.7818609E-02  0.8215407E-01
       -2   -1    0    0    0  501  0.00000000000E+00  0.00000000000E+00  0.12469384488E+04  0.12469384488E+04  0.25500000920E-02 0. -1.
        2   -1    0    0  501    0  0.00000000000E+00  0.00000000000E+00 -0.19282172525E+04  0.19282172525E+04  0.25500000920E-02 0.  1.
    10030    2    1    2    0    0  0.00000000000E+00  0.00000000000E+00 -0.68127880363E+03  0.31751557013E+04  0.31012050753E+04 0.  0.
        2    1    3    3  502    0  0.30420109223E+03  0.48789798808E+03  0.11337644449E+04  0.12712216832E+04  0.25500000920E-02 0. -1.
       -2    1    3    3    0  502 -0.30420109223E+03 -0.48789798808E+03 -0.18150432485E+04  0.19039340181E+04  0.25500000920E-02 0.  1.
</event>
<event>
 5   0  0.4900679E-06  0.2953924E+04  0.7818609E-02  0.8257012E-01
       -2   -1    0    0    0  501  0.00000000000E+00  0.00000000000E+00  0.96454020123E+03  0.96454020124E+03  0.25500000920E-02 0.  1.
        2   -1    0    0  501    0  0.00000000000E+00  0.00000000000E+00 -0.22616137925E+04  0.22616137925E+04  0.25500000920E-02 0. -1.
    10030    2    1    2    0    0  0.00000000000E+00  0.00000000000E+00 -0.12970735912E+04  0.32261539937E+04  0.29539244557E+04 0.  0.
        4    1    3    3  502    0 -0.72724583095E+03 -0.28382030084E+03  0.72079462892E+03  0.10625379860E+04  0.12699999809E+01 0.  1.
       -4    1    3    3    0  502  0.72724583095E+03  0.28382030084E+03 -0.20178682201E+04  0.21636160077E+04  0.12699999809E+01 0. -1.
</event>
<event>
 5   0  0.1885307E-06  0.3038489E+04  0.7818609E-02  0.8232825E-01
       -1   -1    0    0    0  501  0.00000000000E+00  0.00000000000E+00  0.11850613168E+04  0.11850613168E+04  0.50400001928E-02 0. -1.
        1   -1    0    0  501    0  0.00000000000E+00  0.00000000000E+00 -0.19476661353E+04  0.19476661353E+04  0.50400001928E-02 0.  1.
    10030    2    1    2    0    0  0.00000000000E+00  0.00000000000E+00 -0.76260481847E+03  0.31327274521E+04  0.30384889633E+04 0.  0.
        3    1    3    3  502    0 -0.94760901403E+03  0.11741630617E+04 -0.19836757030E+03  0.15218316077E+04  0.10100000352E+00 0. -1.
       -3    1    3    3    0  502  0.94760901403E+03 -0.11741630617E+04 -0.56423724817E+03  0.16108958444E+04  0.10100000352E+00 0.  1.
</event>
<event>
 5   0  0.5114870E-06  0.3078758E+04  0.7818609E-02  0.8221592E-01
        2   -1    0    0  501    0  0.00000000000E+00  0.00000000000E+00  0.14301741524E+04  0.14301741524E+04  0.25500000920E-02 0. -1.
       -2   -1    0    0    0  501  0.00000000000E+00  0.00000000000E+00 -0.16569227114E+04  0.16569227114E+04  0.25500000920E-02 0.  1.
    10030    2    1    2    0    0  0.00000000000E+00  0.00000000000E+00 -0.22674855901E+03  0.30870968639E+04  0.30787582136E+04 0.  0.
        2    1    3    3  502    0  0.65757190646E+03 -0.11192017274E+04 -0.94306611820E+03  0.16044896454E+04  0.25500000920E-02 0.  1.
       -2    1    3    3    0  502 -0.65757190646E+03  0.11192017274E+04  0.71631755919E+03  0.14826072185E+04  0.25500000920E-02 0. -1.
</event>
<event>
 5   0  0.1853742E-06  0.3094134E+04  0.7818609E-02  0.8217350E-01
        1   -1    0    0  501    0  0.00000000000E+00  0.00000000000E+00  0.72262031838E+03  0.72262031840E+03  0.50400001928E-02 0. -1.
       -1   -1    0    0    0  501  0.00000000000E+00  0.00000000000E+00 -0.33121357887E+04  0.33121357887E+04  0.50400001928E-02 0.  1.
    10030    2    1    2    0    0  0.00000000000E+00  0.00000000000E+00 -0.25895154704E+04  0.40347561071E+04  0.30941342041E+04 0.  0.
        5    1    3    3  502    0  0.93901728690E+03 -0.60085295062E+03 -0.26935186722E+04  0.29151059433E+04  0.46999998093E+01 0.  1.
       -5    1    3    3    0  502 -0.93901728690E+03  0.60085295062E+03  0.10400320182E+03  0.11196501638E+04  0.46999998093E+01 0. -1.
</event>
<event>
 5   0  0.1843709E-06  0.2889291E+04  0.7818609E-02  0.8276071E-01
       -1   -1    0    0    0  501  0.00000000000E+00  0.00000000000E+00  0.17995172679E+04  0.17995172679E+04  0.50400001928E-02 0.  1.
        1   -1    0    0  501    0  0.00000000000E+00  0.00000000000E+00 -0.11597558752E+04  0.11597558752E+04  0.50400001928E-02 0. -1.
    10030    2    1    2    0    0  0.00000000000E+00  0.00000000000E+00  0.63976139275E+03  0.29592731431E+04  0.28892910715E+04 0.  0.
        4    1    3    3  502    0  0.56017475601E+03  0.48334632638E+03  0.15907323044E+04  0.17543803196E+04  0.12699999809E+01 0.  1.
       -4    1    3    3    0  502 -0.56017475601E+03 -0.48334632638E+03 -0.95097091164E+03  0.12048928235E+04  0.12699999809E+01 0. -1.
</event>
<event>
 5   0  0.1836401E-06  0.3119422E+04  0.7818609E-02  0.8210428E-01
       -1   -1    0    0    0  501  0.00000000000E+00  0.00000000000E+00  0.18626060409E+04  0.18626060409E+04  0.50400001928E-02 0. -1.
        1   -1    0    0  501    0  0.00000000000E+00  0.00000000000E+00 -0.13060727760E+04  0.13060727760E+04  0.50400001928E-02 0.  1.
    10030    2    1    2    0    0  0.00000000000E+00  0.00000000000E+00  0.55653326496E+03  0.31686788169E+04  0.31194224097E+04 0.  0.
        2    1    3    3  502    0 -0.10277870951E+04  0.11568957140E+04  0.80395918442E+02  0.15495862382E+04  0.25500000920E-02 0.  1.
       -2    1    3    3    0  502  0.10277870951E+04 -0.11568957140E+04  0.47613734652E+03  0.16190925788E+04  0.25500000920E-02 0. -1.
</event>
<event>
 5   0  0.1853742E-06  0.3074108E+04  0.7818609E-02  0.8222880E-01
       -1   -1    0    0    0  501  0.00000000000E+00  0.00000000000E+00  0.14544853663E+04  0.14544853664E+04  0.50400001928E-02 0.  1.
        1   -1    0    0  501    0  0.00000000000E+00  0.00000000000E+00 -0.16243102872E+04  0.16243102872E+04  0.50400001928E-02 0. -1.
    10030    2    1    2    0    0  0.00000000000E+00  0.00000000000E+00 -0.16982492084E+03  0.30787956535E+04  0.30741083541E+04 0.  0.
        5    1    3    3  502    0 -0.13476250598E+04 -0.73784596244E+03 -0.12974103965E+03  0.15418705501E+04  0.46999998093E+01 0.  1.
       -5    1    3    3    0  502  0.13476250598E+04  0.73784596244E+03 -0.40083881184E+02  0.15369251034E+04  0.46999998093E+01 0. -1.
</event>
<event>
 5   0  0.1840431E-06  0.3049927E+04  0.7818609E-02  0.8229616E-01
        1   -1    0    0  501    0  0.00000000000E+00  0.00000000000E+00  0.18737101858E+04  0.18737101858E+04  0.50400001928E-02 0.  1.
       -1   -1    0    0    0  501  0.00000000000E+00  0.00000000000E+00 -0.12411274896E+04  0.12411274896E+04  0.50400001928E-02 0. -1.
    10030    2    1    2    0    0  0.00000000000E+00  0.00000000000E+00  0.63258269617E+03  0.31148376754E+04  0.30499267002E+04 0.  0.
        1    1    3    3  502    0  0.12891238444E+03 -0.10221829531E+04 -0.83193069651E+03  0.13242299937E+04  0.50400001928E-02 0. -1.
       -1    1    3    3    0  502 -0.12891238444E+03  0.10221829531E+04  0.14645133927E+04  0.17906076817E+04  0.50400001928E-02 0.  1.
</event>
<event>
 5   0  0.5001658E-06  0.3106226E+04  0.7818609E-02  0.8214031E-01
       -2   -1    0    0    0  501  0.00000000000E+00  0.00000000000E+00  0.10788807343E+04  0.10788807343E+04  0.25500000920E-02 0.  1.
        2   -1    0    0  501    0  0.00000000000E+00  0.00000000000E+00 -0.22357980941E+04  0.22357980941E+04  0.25500000920E-02 0. -1.
    10030    2    1    2    0    0  0.00000000000E+00  0.00000000000E+00 -0.11569173598E+04  0.33146788284E+04  0.31062256773E+04 0.  0.
        3    1    3    3  502    0 -0.36999861098E+02  0.12440591725E+04 -0.15698402363E+04  0.20033598259E+04  0.10100000352E+00 0. -1.
       -3    1    3    3    0  502  0.36999861098E+02 -0.12440591725E+04  0.41292287643E+03  0.13113190025E+04  0.10100000352E+00 0.  1.
</event>
<event>
 5   0  0.5001658E-06  0.3111502E+04  0.7818609E-02  0.8212588E-01
        2   -1    0    0  501    0  0.00000000000E+00  0.00000000000E+00  0.17172542387E+04  0.17172542387E+04  0.25500000920E-02 0.  1.
       -2   -1    0    0    0  501  0.00000000000E+00  0.00000000000E+00 -0.14094364319E+04  0.14094364319E+04  0.25500000920E-02 0. -1.
    10030    2    1    2    0    0  0.00000000000E+00  0.00000000000E+00  0.30781780676E+03  0.31266906707E+04  0.31115016869E+04 0.  0.
        3    1    3    3  502    0  0.59560915627E+03  0.13699364171E+04 -0.28282125059E+03  0.15203499347E+04  0.10100000352E+00 0.  1.
       -3    1    3    3    0  502 -0.59560915627E+03 -0.13699364171E+04  0.59063905735E+03  0.16063407360E+04  0.10100000352E+00 0. -1.
</event>
<event>
 5   0  0.1853742E-06  0.3107795E+04  0.7818609E-02  0.8213602E-01
       -1   -1    0    0    0  501  0.00000000000E+00  0.00000000000E+00  0.11389712903E+04  0.11389712903E+04  0.50400001928E-02 0.  1.
        1   -1    0    0  501    0  0.00000000000E+00  0.00000000000E+00 -0.21199805414E+04  0.21199805414E+04  0.50400001928E-02 0. -1.
    10030    2    1    2    0    0  0.00000000000E+00  0.00000000000E+00 -0.98100925108E+03  0.32589518317E+04  0.31077946989E+04 0.  0.
        5    1    3    3  502    0 -0.65824902430E+03 -0.71337328824E+03 -0.17629402483E+04  0.20125043194E+04  0.46999998093E+01 0. -1.
       -5    1    3    3    0  502  0.65824902430E+03  0.71337328824E+03  0.78193099725E+03  0.12464475123E+04  0.46999998093E+01 0.  1.
</event>
<event>
 5   0  0.1885307E-06  0.2947790E+04  0.7818609E-02  0.8258799E-01
        1   -1    0    0  501    0  0.00000000000E+00  0.00000000000E+00  0.11092741426E+04  0.11092741426E+04  0.50400001928E-02 0.  1.
       -1   -1    0    0    0  501  0.00000000000E+00  0.00000000000E+00 -0.19583673124E+04  0.19583673124E+04  0.50400001928E-02 0. -1.
    10030    2    1    2    0    0  0.00000000000E+00  0.00000000000E+00 -0.84909316985E+03  0.30676414550E+04  0.29477898306E+04 0.  0.
        3    1    3    3  502    0 -0.13635320849E+04  0.31669185779E+03  0.55571091853E+02  0.14009288475E+04  0.10100000352E+00 0. -1.
       -3    1    3    3    0  502  0.13635320849E+04 -0.31669185779E+03 -0.90466426170E+03  0.16667126075E+04  0.10100000352E+00 0.  1.
</event>
<event>
 5   0  0.1885307E-06  0.3117700E+04  0.7818609E-02  0.8210897E-01
        1   -1    0    0  501    0  0.00000000000E+00  0.00000000000E+00  0.13809756947E+04  0.13809756947E+04  0.50400001928E-02 0.  1.
       -1   -1    0    0    0  501  0.00000000000E+00  0.00000000000E+00 -0.17596349079E+04  0.17596349079E+04  0.50400001928E-02 0. -1.
    10030    2    1    2    0    0  0.00000000000E+00  0.00000000000E+00 -0.37865921317E+03  0.31406106026E+04  0.31176998184E+04 0.  0.
        3    1    3    3  502    0  0.52392118460E+03  0.60319188253E+03 -0.15377022034E+04  0.17328767790E+04  0.10100000352E+00 0. -1.
       -3    1    3    3    0  502 -0.52392118460E+03 -0.60319188253E+03  0.11590429902E+04  0.14077338236E+04  0.10100000352E+00 0.  1.
</event>
<event>
 5   0  0.5114870E-06  0.3127713E+04  0.7818609E-02  0.8208173E-01
       -2   -1    0    0    0  501  0.00000000000E+00  0.00000000000E+00  0.22585309965E+04  0.22585309965E+04  0.25500000920E-02 0. -1.
        2   -1    0    0  501    0  0.00000000000E+00  0.00000000000E+00 -0.10828484848E+04  0.10828484848E+04  0.25500000920E-02 0.  1.
    10030    2    1    2    0    0  0.00000000000E+00  0.00000000000E+00  0.11756825117E+04  0.33413794813E+04  0.31277128176E+04 0.  0.
        2    1    3    3  502    0  0.51635647530E+03 -0.14635265539E+04  0.38203371508E+03  0.15982752400E+04  0.25500000920E-02 0.  1.
       -2    1    3    3    0  502 -0.51635647530E+03  0.14635265539E+04  0.79364879663E+03  0.17431042412E+04  0.25500000920E-02 0. -1.
</event>
<event>
 5   0  0.5114870E-06  0.3105190E+04  0.7818609E-02  0.8214315E-01
       -2   -1    0    0    0  501  0.00000000000E+00  0.00000000000E+00  0.13279562501E+04  0.13279562501E+04  0.25500000920E-02 0. -1.
        2   -1    0    0  501    0  0.00000000000E+00  0.00000000000E+00 -0.18152340726E+04  0.18152340726E+04  0.25500000920E-02 0.  1.
    10030    2    1    2    0    0  0.00000000000E+00  0.00000000000E+00 -0.48727782253E+03  0.31431903227E+04  0.31051901275E+04 0.  0.
        2    1    3    3  502    0  0.98860030739E+03  0.46200273012E+03  0.87431069866E+03  0.13982833362E+04  0.25500000920E-02 0.  1.
       -2    1    3    3    0  502 -0.98860030739E+03 -0.46200273012E+03 -0.13615885212E+04  0.17449069865E+04  0.25500000920E-02 0. -1.
</event>
<event>
 5   0  0.1843709E-06  0.3128406E+04  0.7818609E-02  0.8207985E-01
       -1   -1    0    0    0  501  0.00000000000E+00  0.00000000000E+00  0.32240090132E+04  0.32240090132E+04  0.50400001928E-02 0.  1.
        1   -1    0    0  501    0  0.00000000000E+00  0.00000000000E+00 -0.75890933738E+03  0.75890933740E+03  0.50400001928E-02 0. -1.
    10030    2    1    2    0    0  0.00000000000E+00  0.00000000000E+00  0.24650996758E+04  0.39829183506E+04  0.31284056923E+04 0.  0.
        4    1    3    3  502    0  0.11042665641E+04 -0.64123385164E+03  0.82381040474E+02  0.12795990566E+04  0.12699999809E+01 0. -1.
       -4    1    3    3    0  502 -0.11042665641E+04  0.64123385164E+03  0.23827186354E+04  0.27033192940E+04  0.12699999809E+01 0.  1.
</event>
<event>
 5   0  0.5328368E-06  0.3094524E+04  0.7818609E-02  0.8217242E-01
       -2   -1    0    0    0  501  0.00000000000E+00  0.00000000000E+00  0.15942549076E+04  0.15942549076E+04  0.25500000920E-02 0.  1.
        2   -1    0    0  501    0  0.00000000000E+00  0.00000000000E+00 -0.15016538585E+04  0.15016538585E+04  0.25500000920E-02 0. -1.
    10030    2    1    2    0    0  0.00000000000E+00  0.00000000000E+00  0.92601049079E+02  0.30959087661E+04  0.30945235714E+04 0.  0.
        1    1    3    3  502    0  0.88001421606E+03 -0.12176045942E+04 -0.32404495241E+03  0.15368770606E+04  0.50400001928E-02 0. -1.
       -1    1    3    3    0  502 -0.88001421606E+03  0.12176045942E+04  0.41664600148E+03  0.15590317055E+04  0.50400001928E-02 0.  1.
</event>
<event>
 5   0  0.4927533E-06  0.3050123E+04  0.7818609E-02  0.8229561E-01
        2   -1    0    0  501    0  0.00000000000E+00  0.00000000000E+00  0.10733859049E+04  0.10733859049E+04  0.25500000920E-02 0. -1.
       -2   -1    0    0    0  501  0.00000000000E+00  0.00000000000E+00 -0.21668000800E+04  0.21668000800E+04  0.25500000920E-02 0.  1.
    10030    2    1    2    0    0  0.00000000000E+00  0.00000000000E+00 -0.10934141751E+04  0.32401859849E+04  0.30501230562E+04 0.  0.
        5    1    3    3  502    0 -0.67269435853E+03  0.12922478942E+04 -0.67642401062E+02  0.14584306306E+04  0.46999998093E+01 0. -1.
       -5    1    3    3    0  502  0.67269435853E+03 -0.12922478942E+04 -0.10257717740E+04  0.17817553542E+04  0.46999998093E+01 0.  1.
</event>
<event>
 5   0  0.4927533E-06  0.3144803E+04  0.7818609E-02  0.8203548E-01
        2   -1    0    0  501    0  0.00000000000E+00  0.00000000000E+00  0.18737771400E+04  0.18737771400E+04  0.25500000920E-02 0. -1.
       -2   -1    0    0    0  501  0.00000000000E+00  0.00000000000E+00 -0.13194990476E+04  0.13194990476E+04  0.25500000920E-02 0.  1.
    10030    2    1    2    0    0  0.00000000000E+00  0.00000000000E+00  0.55427809241E+03  0.31932761876E+04  0.31448034289E+04 0.  0.
        5    1    3    3  502    0 -0.45537465698E+03 -0.50372422155E+02  0.18044917757E+04  0.18617508206E+04  0.46999998093E+01 0. -1.
       -5    1    3    3    0  502  0.45537465698E+03  0.50372422155E+02 -0.12502136833E+04  0.13315253671E+04  0.46999998093E+01 0.  1.
</event>
<event>
 5   0  0.5114870E-06  0.3137078E+04  0.7818609E-02  0.8205635E-01
        2   -1    0    0  501    0  0.00000000000E+00  0.00000000000E+00  0.10812323868E+04  0.10812323868E+04  0.25500000920E-02 0. -1.
       -2   -1    0    0    0  501  0.00000000000E+00  0.00000000000E+00 -0.22754719060E+04  0.22754719060E+04  0.25500000920E-02 0.  1.
    10030    2    1    2    0    0  0.00000000000E+00  0.00000000000E+00 -0.11942395192E+04  0.33567042928E+04  0.31370775700E+04 0.  0.
        2    1    3    3  502    0  0.55934603524E+03 -0.93979175415E+03 -0.18002209097E+04  0.21063883431E+04  0.25500000920E-02 0.  1.
       -2    1    3    3    0  502 -0.55934603524E+03  0.93979175415E+03  0.60598139051E+03  0.12503159497E+04  0.25500000920E-02 0. -1.
</event>
<event>
 5   0  0.1649875E-06  0.3175773E+04  0.7818609E-02  0.8195245E-01
        3   -1    0    0  501    0  0.00000000000E+00  0.00000000000E+00  0.22882593278E+04  0.22882593300E+04  0.10100000352E+00 0.  1.
       -3   -1    0    0    0  501  0.00000000000E+00  0.00000000000E+00 -0.11018786761E+04  0.11018786807E+04  0.10100000352E+00 0. -1.
    10030    2    1    2    0    0  0.00000000000E+00  0.00000000000E+00  0.11863806517E+04  0.33901380107E+04  0.31757733988E+04 0.  0.
        4    1    3    3  502    0  0.10433761872E+04  0.11398913905E+04  0.98307824194E+03  0.18315104949E+04  0.12699999809E+01 0.  1.
       -4    1    3    3    0  502 -0.10433761872E+04 -0.11398913905E+04  0.20330240978E+03  0.15586275158E+04  0.12699999809E+01 0. -1.
</event>
<event>
 5   0  0.5001658E-06  0.3138065E+04  0.7818609E-02  0.8205368E-01
       -2   -1    0    0    0  501  0.00000000000E+00  0.00000000000E+00  0.19529505605E+04  0.19529505605E+04  0.25500000920E-02 0. -1.
        2   -1    0    0  501    0  0.00000000000E+00  0.00000000000E+00 -0.12605865865E+04  0.12605865865E+04  0.25500000920E-02 0.  1.
    10030    2    1    2    0    0  0.00000000000E+00  0.00000000000E+00  0.69236397399E+03  0.32135371470E+04  0.31380651878E+04 0.  0.
        3    1    3    3  502    0 -0.30328034628E+03  0.16396891756E+03  0.19136813333E+04  0.19444899151E+04  0.10100000352E+00 0. -1.
       -3    1    3    3    0  502  0.30328034628E+03 -0.16396891756E+03 -0.12213173593E+04  0.12690472319E+04  0.10100000352E+00 0.  1.
</event>
<event>
 5   0  0.1885307E-06  0.3095700E+04  0.7818609E-02  0.8216919E-01
        1   -1    0    0  501    0  0.00000000000E+00  0.00000000000E+00  0.12149667335E+04  0.12149667335E+04  0.50400001928E-02 0. -1.
       -1   -1    0    0    0  501  0.00000000000E+00  0.00000000000E+00 -0.19719386296E+04  0.19719386296E+04  0.50400001928E-02 0.  1.
    10030    2    1    2    0    0  0.00000000000E+00  0.00000000000E+00 -0.75697189614E+03  0.31869053631E+04  0.30957001376E+04 0.  0.
        3    1    3    3  502    0 -0.94049457245E+03  0.79525608875E+03  0.58661882402E+03  0.13642155044E+04  0.10100000352E+00 0. -1.
       -3    1    3    3    0  502  0.94049457245E+03 -0.79525608875E+03 -0.13435907202E+04  0.18226898587E+04  0.10100000352E+00 0.  1.
</event>
<event>
 5   0  0.4900679E-06  0.3135924E+04  0.7818609E-02  0.8205947E-01
        2   -1    0    0  501    0  0.00000000000E+00  0.00000000000E+00  0.13649504323E+04  0.13649504323E+04  0.25500000920E-02 0.  1.
       -2   -1    0    0    0  501  0.00000000000E+00  0.00000000000E+00 -0.18011681437E+04  0.18011681437E+04  0.25500000920E-02 0. -1.
    10030    2    1    2    0    0  0.00000000000E+00  0.00000000000E+00 -0.43621771144E+03  0.31661185760E+04  0.31359242570E+04 0.  0.
        4    1    3    3  502    0 -0.10000380956E+04  0.14265679212E+03 -0.14288536254E+04  0.17498718378E+04  0.12699999809E+01 0. -1.
       -4    1    3    3    0  502  0.10000380956E+04 -0.14265679212E+03  0.99263591391E+03  0.14162467382E+04  0.12699999809E+01 0.  1.
</event>
<event>
 5   0  0.1836401E-06  0.3107813E+04  0.7818609E-02  0.8213597E-01
        1   -1    0    0  501    0  0.00000000000E+00  0.00000000000E+00  0.15204851179E+04  0.15204851179E+04  0.50400001928E-02 0.  1.
       -1   -1    0    0    0  501  0.00000000000E+00  0.00000000000E+00 -0.15880622677E+04  0.15880622677E+04  0.50400001928E-02 0. -1.
    10030    2    1    2    0    0  0.00000000000E+00  0.00000000000E+00 -0.67577149835E+02  0.31085473856E+04  0.31078127642E+04 0.  0.
        2    1    3    3  502    0  0.58536590201E+03 -0.30848004279E+03 -0.14401123399E+04  0.15848459634E+04  0.25500000920E-02 0. -1.
       -2    1    3    3    0  502 -0.58536590201E+03  0.30848004279E+03  0.13725351901E+04  0.15237014222E+04  0.25500000920E-02 0.  1.
</event>
<event>
 5   0  0.1840431E-06  0.3107944E+04  0.7818609E-02  0.8213561E-01
       -1   -1    0    0    0  501  0.00000000000E+00  0.00000000000E+00  0.16661752638E+04  0.16661752638E+04  0.50400001928E-02 0.  1.
        1   -1    0    0  501    0  0.00000000000E+00  0.00000000000E+00 -0.14493249794E+04  0.14493249794E+04  0.50400001928E-02 0. -1.
    10030    2    1    2    0    0  0.00000000000E+00  0.00000000000E+00  0.21685028440E+03  0.31155002432E+04  0.31079442916E+04 0.  0.
        1    1    3    3  502    0  0.11395174586E+04 -0.23872094233E+03 -0.92332039399E+03  0.14859368347E+04  0.50400001928E-02 0. -1.
       -1    1    3    3    0  502 -0.11395174586E+04  0.23872094233E+03  0.11401706784E+04  0.16295634086E+04  0.50400001928E-02 0.  1.
</event>
<event>
 5   0  0.4927533E-06  0.3058136E+04  0.7818609E-02  0.8227322E-01
       -2   -1    0    0    0  501  0.00000000000E+00  0.00000000000E+00  0.18861719795E+04  0.18861719795E+04  0.25500000920E-02 0. -1.
        2   -1    0    0  501    0  0.00000000000E+00  0.00000000000E+00 -0.12395733837E+04  0.12395733837E+04  0.25500000920E-02 0.  1.
    10030    2    1    2    0    0  0.00000000000E+00  0.00000000000E+00  0.64659859580E+03  0.31257453632E+04  0.30581357608E+04 0.  0.
        5    1    3    3  502    0  0.17668401417E+03 -0.12621874223E+04 -0.54018073264E+03  0.13842512936E+04  0.46999998093E+01 0.  1.
       -5    1    3    3    0  502 -0.17668401417E+03  0.12621874223E+04  0.11867793284E+04  0.17414940696E+04  0.46999998093E+01 0. -1.
</event>
<event>
 5   0  0.1853742E-06  0.3130915E+04  0.7818609E-02  0.8207304E-01
       -1   -1    0    0    0  501  0.00000000000E+00  0.00000000000E+00  0.15224748860E+04  0.15224748860E+04  0.50400001928E-02 0.  1.
        1   -1    0    0  501    0  0.00000000000E+00  0.00000000000E+00 -0.16096534457E+04  0.16096534457E+04  0.50400001928E-02 0. -1.
    10030    2    1    2    0    0  0.00000000000E+00  0.00000000000E+00 -0.87178559660E+02  0.31321283317E+04  0.31309148479E+04 0.  0.
        5    1    3    3  502    0 -0.39136184874E+03 -0.42371140613E+03  0.14122889668E+04  0.15255417622E+04  0.46999998093E+01 0.  1.
       -5    1    3    3    0  502  0.39136184874E+03  0.42371140613E+03 -0.14994675265E+04  0.16065865695E+04  0.46999998093E+01 0. -1.
</event>
<event>
 5   0  0.5001658E-06  0.3215347E+04  0.7818609E-02  0.8184776E-01
        2   -1    0    0  501    0  0.00000000000E+00  0.00000000000E+00  0.20111691172E+04  0.20111691172E+04  0.25500000920E-02 0. -1.
       -2   -1    0    0    0  501  0.00000000000E+00  0.00000000000E+00 -0.12851298190E+04  0.12851298190E+04  0.25500000920E-02 0.  1.
    10030    2    1    2    0    0  0.00000000000E+00  0.00000000000E+00  0.72603929821E+03  0.32962989362E+04  0.32153465776E+04 0.  0.
        3    1    3    3  502    0 -0.39086143608E+03  0.64564208185E+03 -0.10922213655E+04  0.13276196298E+04  0.10100000352E+00 0.  1.
       -3    1    3    3    0  502  0.39086143608E+03 -0.64564208185E+03  0.18182606637E+04  0.19686793064E+04  0.10100000352E+00 0. -1.
</event>
<event>
 5   0  0.5328368E-06  0.3116562E+04  0.7818609E-02  0.8211207E-01
        2   -1    0    0  501    0  0.00000000000E+00  0.00000000000E+00  0.14336940258E+04  0.14336940258E+04  0.25500000920E-02 0.  1.
       -2   -1    0    0    0  501  0.00000000000E+00  0.00000000000E+00 -0.16936950229E+04  0.16936950229E+04  0.25500000920E-02 0. -1.
    10030    2    1    2    0    0  0.00000000000E+00  0.00000000000E+00 -0.26000099703E+03  0.31273890487E+04  0.31165624883E+04 0.  0.
        1    1    3    3  502    0  0.50765868247E+03 -0.11495068436E+04  0.79469788465E+03  0.14868180955E+04  0.50400001928E-02 0.  1.
       -1    1    3    3    0  502 -0.50765868247E+03  0.11495068436E+04 -0.10546988817E+04  0.16405709532E+04  0.50400001928E-02 0. -1.
</event>
<event>
 5   0  0.1836401E-06  0.3098329E+04  0.7818609E-02  0.8216197E-01
        1   -1    0    0  501    0  0.00000000000E+00  0.00000000000E+00  0.92863307687E+03  0.92863307688E+03  0.50400001928E-02 0.  1.
       -1   -1    0    0    0  501  0.00000000000E+00  0.00000000000E+00 -0.25843484032E+04  0.25843484032E+04  0.50400001928E-02 0. -1.
    10030    2    1    2    0    0  0.00000000000E+00  0.00000000000E+00 -0.16557153264E+04  0.35129814801E+04  0.30983294915E+04 0.  0.
        2    1    3    3  502    0  0.10676241978E+04 -0.33535787270E+03 -0.20424996084E+04  0.23289677930E+04  0.25500000920E-02 0. -1.
       -2    1    3    3    0  502 -0.10676241978E+04  0.33535787270E+03  0.38678428203E+03  0.11840136871E+04  0.25500000920E-02 0.  1.
</event>
<event>
 5   0  0.1836401E-06  0.2972290E+04  0.7818609E-02  0.8251688E-01
       -1   -1    0    0    0  501  0.00000000000E+00  0.00000000000E+00  0.10211685036E+04  0.10211685037E+04  0.50400001928E-02 0. -1.
        1   -1    0    0  501    0  0.00000000000E+00  0.00000000000E+00 -0.21628425672E+04  0.21628425672E+04  0.50400001928E-02 0.  1.
    10030    2    1    2    0    0  0.00000000000E+00  0.00000000000E+00 -0.11416740635E+04  0.31840110708E+04  0.29722898297E+04 0.  0.
        2    1    3    3  502    0 -0.11949517841E+04 -0.44335287751E+02 -0.15161656653E+04  0.19309670397E+04  0.25500000920E-02 0.  1.
       -2    1    3    3    0  502  0.11949517841E+04  0.44335287751E+02  0.37449160174E+03  0.12530440311E+04  0.25500000920E-02 0. -1.
</event>
<event>
 5   0  0.5001658E-06  0.3085929E+04  0.7818609E-02  0.8219610E-01
        2   -1    0    0  501    0  0.00000000000E+00  0.00000000000E+00  0.17921741719E+04  0.17921741719E+04  0.25500000920E-02 0.  1.
       -2   -1    0    0    0  501  0.00000000000E+00  0.00000000000E+00 -0.13284087286E+04  0.13284087286E+04  0.25500000920E-02 0. -1.
    10030    2    1    2    0    0  0.00000000000E+00  0.00000000000E+00  0.46376544326E+03  0.31205829005E+04  0.30859292365E+04 0.  0.
        3    1    3    3  502    0 -0.78420710728E+03 -0.92656579324E+03  0.11950675272E+04  0.17034351649E+04  0.10100000352E+00 0.  1.
       -3    1    3    3    0  502  0.78420710728E+03  0.92656579324E+03 -0.73130208397E+03  0.14171477356E+04  0.10100000352E+00 0. -1.
</event>
<event>
 5   0  0.4927533E-06  0.3096691E+04  0.7818609E-02  0.8216647E-01
        2   -1    0    0  501    0  0.00000000000E+00  0.00000000000E+00  0.85677267303E+03  0.85677267304E+03  0.25500000920E-02 0.  1.
       -2   -1    0    0    0  501  0.00000000000E+00  0.00000000000E+00 -0.27981436697E+04  0.27981436697E+04  0.25500000920E-02 0. -1.
    10030    2    1    2    0    0  0.00000000000E+00  0.00000000000E+00 -0.19413709966E+04  0.36549163427E+04  0.30966905118E+04 0.  0.
        5    1    3    3  502    0  0.33007645499E+03 -0.92644146458E+03 -0.23821301624E+04  0.25771710177E+04  0.46999998093E+01 0. -1.
       -5    1    3    3    0  502 -0.33007645499E+03  0.92644146458E+03  0.44075916580E+03  0.10777453251E+04  0.46999998093E+01 0.  1.
</event>
<event>
 5   0  0.1843709E-06  0.3059327E+04  0.7818609E-02  0.8226990E-01
       -1   -1    0    0    0  501  0.00000000000E+00  0.00000000000E+00  0.29470123525E+04  0.29470123525E+04  0.50400001928E-02 0. -1.
        1   -1    0    0  501    0  0.00000000000E+00  0.00000000000E+00 -0.79398027926E+03  0.79398027927E+03  0.50400001928E-02 0.  1.
    10030    2    1    2    0    0  0.00000000000E+00  0.00000000000E+00  0.21530320732E+04  0.37409926318E+04  0.30593265211E+04 0.  0.
        4    1    3    3  502    0 -0.10467259526E+04  0.46788163160E+03 -0.16168356154E+03  0.11578823895E+04  0.12699999809E+01 0.  1.
       -4    1    3    3    0  502  0.10467259526E+04 -0.46788163160E+03  0.23147156348E+04  0.25831102423E+04  0.12699999809E+01 0. -1.
</event>
<event>
 5   0  0.1843709E-06  0.3085945E+04  0.7818609E-02  0.8219606E-01
        1   -1    0    0  501    0  0.00000000000E+00  0.00000000000E+00  0.15023216305E+04  0.15023216305E+04  0.50400001928E-02 0. -1.
       -1   -1    0    0    0  501  0.00000000000E+00  0.00000000000E+00 -0.15847237680E+04  0.15847237680E+04  0.50400001928E-02 0.  1.
    10030    2    1    2    0    0  0.00000000000E+00  0.00000000000E+00 -0.82402137468E+02  0.30870453985E+04  0.30859454272E+04 0.  0.
        4    1    3    3  502    0  0.97960872995E+03 -0.55835443195E+03 -0.10948429659E+04  0.15716474377E+04  0.12699999809E+01 0.  1.
       -4    1    3    3    0  502 -0.97960872995E+03  0.55835443195E+03  0.10124408285E+04  0.15153979608E+04  0.12699999809E+01 0. -1.
</event>
<event>
 5   0  0.1840431E-06  0.3589960E+04  0.7818609E-02  0.8092795E-01
       -1   -1    0    0    0  501  0.00000000000E+00  0.00000000000E+00  0.15630757011E+04  0.15630757011E+04  0.50400001928E-02 0.  1.
        1   -1    0    0  501    0  0.00000000000E+00  0.00000000000E+00 -0.20612904755E+04  0.20612904755E+04  0.50400001928E-02 0. -1.
    10030    2    1    2    0    0  0.00000000000E+00  0.00000000000E+00 -0.49821477441E+03  0.36243661766E+04  0.35899599191E+04 0.  0.
        1    1    3    3  502    0 -0.39466841235E+01  0.17622441442E+04 -0.59360055719E+03  0.18595380129E+04  0.50400001928E-02 0.  1.
       -1    1    3    3    0  502  0.39466841235E+01 -0.17622441442E+04  0.95385782781E+02  0.17648281637E+04  0.50400001928E-02 0. -1.
</event>
<event>
 5   0  0.1840431E-06  0.3172178E+04  0.7818609E-02  0.8196204E-01
       -1   -1    0    0    0  501  0.00000000000E+00  0.00000000000E+00  0.17609888060E+04  0.17609888060E+04  0.50400001928E-02 0. -1.
        1   -1    0    0  501    0  0.00000000000E+00  0.00000000000E+00 -0.14285598193E+04  0.14285598193E+04  0.50400001928E-02 0.  1.
    10030    2    1    2    0    0  0.00000000000E+00  0.00000000000E+00  0.33242898666E+03  0.31895486253E+04  0.31721777065E+04 0.  0.
        1    1    3    3  502    0 -0.78501875433E+03  0.31738028836E+03 -0.11822833622E+04  0.14542278503E+04  0.50400001928E-02 0.  1.
       -1    1    3    3    0  502  0.78501875433E+03 -0.31738028836E+03  0.15147123489E+04  0.17353207749E+04  0.50400001928E-02 0. -1.
</event>
<event>
 5   0  0.1836401E-06  0.2518109E+04  0.7818609E-02  0.8396562E-01
       -1   -1    0    0    0  501  0.00000000000E+00  0.00000000000E+00  0.13003295647E+04  0.13003295647E+04  0.50400001928E-02 0. -1.
        1   -1    0    0  501    0  0.00000000000E+00  0.00000000000E+00 -0.12190892902E+04  0.12190892902E+04  0.50400001928E-02 0.  1.
    10030    2    1    2    0    0  0.00000000000E+00  0.00000000000E+00  0.81240274538E+02  0.25194188549E+04  0.25181086919E+04 0.  0.
        2    1    3    3  502    0 -0.17306806924E+03 -0.11265841678E+04  0.57575672321E+03  0.12769652494E+04  0.25500000920E-02 0. -1.
       -2    1    3    3    0  502  0.17306806924E+03  0.11265841678E+04 -0.49451644867E+03  0.12424536055E+04  0.25500000920E-02 0.  1.
</event>
<event>
 5   0  0.1853742E-06  0.3081407E+04  0.7818609E-02  0.8220859E-01
       -1   -1    0    0    0  501  0.00000000000E+00  0.00000000000E+00  0.11751460824E+04  0.11751460824E+04  0.50400001928E-02 0. -1.
        1   -1    0    0  501    0  0.00000000000E+00  0.00000000000E+00 -0.20199767807E+04  0.20199767808E+04  0.50400001928E-02 0.  1.
    10030    2    1    2    0    0  0.00000000000E+00  0.00000000000E+00 -0.84483069837E+03  0.31951228631E+04  0.30814073411E+04 0.  0.
        5    1    3    3  502    0  0.54271582398E+03 -0.17557245284E+03 -0.19064487192E+04  0.19899585324E+04  0.46999998093E+01 0.  1.
       -5    1    3    3    0  502 -0.54271582398E+03  0.17557245284E+03  0.10616180208E+04  0.12051643307E+04  0.46999998093E+01 0. -1.
</event>
<event>
 5   0  0.1836401E-06  0.3203668E+04  0.7818609E-02  0.8187849E-01
       -1   -1    0    0    0  501  0.00000000000E+00  0.00000000000E+00  0.23481574659E+04  0.23481574659E+04  0.50400001928E-02 0. -1.
        1   -1    0    0  501    0  0.00000000000E+00  0.00000000000E+00 -0.10927172300E+04  0.10927172300E+04  0.50400001928E-02 0.  1.
    10030    2    1    2    0    0  0.00000000000E+00  0.00000000000E+00  0.12554402360E+04  0.34408746959E+04  0.32036679739E+04 0.  0.
        2    1    3    3  502    0 -0.36657971963E+03 -0.10291943872E+03  0.22988480376E+04  0.23301663893E+04  0.25500000920E-02 0. -1.
       -2    1    3    3    0  502  0.36657971963E+03  0.10291943872E+03 -0.10434078017E+04  0.11107083066E+04  0.25500000920E-02 0.  1.
</event>
<event>
 5   0  0.5328368E-06  0.3135306E+04  0.7818609E-02  0.8206115E-01
       -2   -1    0    0    0  501  0.00000000000E+00  0.00000000000E+00  0.12524808768E+04  0.12524808768E+04  0.25500000920E-02 0. -1.
        2   -1    0    0  501    0  0.00000000000E+00  0.00000000000E+00 -0.19621347243E+04  0.19621347243E+04  0.25500000920E-02 0.  1.
    10030    2    1    2    0    0  0.00000000000E+00  0.00000000000E+00 -0.70965384746E+03  0.32146156011E+04  0.31353061860E+04 0.  0.
        1    1    3    3  502    0 -0.44228142684E+03  0.22233468664E+03  0.11702431900E+04  0.12706355485E+04  0.50400001928E-02 0. -1.
       -1    1    3    3    0  502  0.44228142684E+03 -0.22233468664E+03 -0.18798970375E+04  0.19439800526E+04  0.50400001928E-02 0.  1.
</event>
<event>
 5   0  0.5328368E-06  0.3108539E+04  0.7818609E-02  0.8213398E-01
        2   -1    0    0  501    0  0.00000000000E+00  0.00000000000E+00  0.19445423040E+04  0.19445423040E+04  0.25500000920E-02 0. -1.
       -2   -1    0    0    0  501  0.00000000000E+00  0.00000000000E+00 -0.12423252706E+04  0.12423252706E+04  0.25500000920E-02 0.  1.
    10030    2    1    2    0    0  0.00000000000E+00  0.00000000000E+00  0.70221703336E+03  0.31868675746E+04  0.31085392351E+04 0.  0.
        1    1    3    3  502    0  0.13381875311E+04 -0.79054948529E+03  0.34465000862E+03  0.15920106738E+04  0.50400001928E-02 0.  1.
       -1    1    3    3    0  502 -0.13381875311E+04  0.79054948529E+03  0.35756702474E+03  0.15948569008E+04  0.50400001928E-02 0. -1.
</event>
<event>
 5   0  0.5114870E-06  0.3065973E+04  0.7818609E-02  0.8225139E-01
        2   -1    0    0  501    0  0.00000000000E+00  0.00000000000E+00  0.22793487625E+04  0.22793487625E+04  0.25500000920E-02 0.  1.
       -2   -1    0    0    0  501  0.00000000000E+00  0.00000000000E+00 -0.10310170640E+04  0.10310170640E+04  0.25500000920E-02 0. -1.
    10030    2    1    2    0    0  0.00000000000E+00  0.00000000000E+00  0.12483316985E+04  0.33103658266E+04  0.30659729086E+04 0.  0.
        2    1    3    3  502    0 -0.67348536318E+03 -0.13615959786E+04  0.84680988995E+03  0.17391414931E+04  0.25500000920E-02 0.  1.
       -2    1    3    3    0  502  0.67348536318E+03  0.13615959786E+04  0.40152180859E+03  0.15712243335E+04  0.25500000920E-02 0. -1.
</event>
<event>
 5   0  0.1843709E-06  0.3115288E+04  0.7818609E-02  0.8211555E-01
        1   -1    0    0  501    0  0.00000000000E+00  0.00000000000E+00  0.19962340444E+04  0.19962340444E+04  0.50400001928E-02 0.  1.
       -1   -1    0    0    0  501  0.00000000000E+00  0.00000000000E+00 -0.12154163592E+04  0.12154163592E+04  0.50400001928E-02 0. -1.
    10030    2    1    2    0    0  0.00000000000E+00  0.00000000000E+00  0.78081768522E+03  0.32116504036E+04  0.31152884389E+04 0.  0.
        4    1    3    3  502    0  0.10223907122E+03  0.26612535311E+03 -0.11882904789E+04  0.12220112137E+04  0.12699999809E+01 0. -1.
       -4    1    3    3    0  502 -0.10223907122E+03 -0.26612535311E+03  0.19691081641E+04  0.19896391899E+04  0.12699999809E+01 0.  1.
</event>
<event>
 5   0  0.1843709E-06  0.2929357E+04  0.7818609E-02  0.8264196E-01
        1   -1    0    0  501    0  0.00000000000E+00  0.00000000000E+00  0.13450758972E+04  0.13450758972E+04  0.50400001928E-02 0.  1.
       -1   -1    0    0    0  501  0.00000000000E+00  0.00000000000E+00 -0.15949159476E+04  0.15949159476E+04  0.50400001928E-02 0. -1.
    10030    2    1    2    0    0  0.00000000000E+00  0.00000000000E+00 -0.24984005044E+03  0.29399918448E+04  0.29293569255E+04 0.  0.
        4    1    3    3  502    0  0.36213988638E+03 -0.13753585556E+03 -0.15425706931E+04  0.15904676560E+04  0.12699999809E+01 0. -1.
       -4    1    3    3    0  502 -0.36213988638E+03  0.13753585556E+03  0.12927306426E+04  0.13495241888E+04  0.12699999809E+01 0.  1.
</event>
<event>
 5   0  0.1840431E-06  0.3110767E+04  0.7818609E-02  0.8212789E-01
        1   -1    0    0  501    0  0.00000000000E+00  0.00000000000E+00  0.22482891763E+04  0.22482891763E+04  0.50400001928E-02 0. -1.
       -1   -1    0    0    0  501  0.00000000000E+00  0.00000000000E+00 -0.10760260093E+04  0.10760260093E+04  0.50400001928E-02 0.  1.
    10030    2    1    2    0    0  0.00000000000E+00  0.00000000000E+00  0.11722631670E+04  0.33243151856E+04  0.31107668701E+04 0.  0.
        1    1    3    3  502    0 -0.12959656519E+04 -0.22258516187E+03  0.14739116201E+04  0.19752181118E+04  0.50400001928E-02 0. -1.
       -1    1    3    3    0  502  0.12959656519E+04  0.22258516187E+03 -0.30164845312E+03  0.13490970738E+04  0.50400001928E-02 0.  1.
</event>
<event>
 5   0  0.1836401E-06  0.3074835E+04  0.7818609E-02  0.8222678E-01
        1   -1    0    0  501    0  0.00000000000E+00  0.00000000000E+00  0.15441834645E+04  0.15441834645E+04  0.50400001928E-02 0.  1.
       -1   -1    0    0    0  501  0.00000000000E+00  0.00000000000E+00 -0.15306808067E+04  0.15306808067E+04  0.50400001928E-02 0. -1.
    10030    2    1    2    0    0  0.00000000000E+00  0.00000000000E+00  0.13502657835E+02  0.30748642713E+04  0.30748346240E+04 0.  0.
        2    1    3    3  502    0  0.12891636409E+04  0.83467925523E+03 -0.64098765136E+02  0.15371210115E+04  0.25500000920E-02 0.  1.
       -2    1    3    3    0  502 -0.12891636409E+04 -0.83467925523E+03  0.77601422971E+02  0.15377432598E+04  0.25500000920E-02 0. -1.
</event>
<event>
 5   0  0.1836401E-06  0.3059930E+04  0.7818609E-02  0.8226822E-01
       -1   -1    0    0    0  501  0.00000000000E+00  0.00000000000E+00  0.13427349190E+04  0.13427349190E+04  0.50400001928E-02 0.  1.
        1   -1    0    0  501    0  0.00000000000E+00  0.00000000000E+00 -0.17433021747E+04  0.17433021747E+04  0.50400001928E-02 0. -1.
    10030    2    1    2    0    0  0.00000000000E+00  0.00000000000E+00 -0.40056725563E+03  0.30860370937E+04  0.30599298713E+04 0.  0.
        2    1    3    3  502    0 -0.38657882965E+03  0.14776112064E+04 -0.29057194551E+03  0.15547379600E+04  0.25500000920E-02 0.  1.
       -2    1    3    3    0  502  0.38657882965E+03 -0.14776112064E+04 -0.10999531012E+03  0.15312991337E+04  0.25500000920E-02 0. -1.
</event>
<event>
 5   0  0.5001658E-06  0.3115528E+04  0.7818609E-02  0.8211489E-01
       -2   -1    0    0    0  501  0.00000000000E+00  0.00000000000E+00  0.10818701776E+04  0.10818701776E+04  0.25500000920E-02 0.  1.
        2   -1    0    0  501    0  0.00000000000E+00  0.00000000000E+00 -0.22429942555E+04  0.22429942555E+04  0.25500000920E-02 0. -1.
    10030    2    1    2    0    0  0.00000000000E+00  0.00000000000E+00 -0.11611240778E+04  0.33248644331E+04  0.31155279447E+04 0.  0.
        3    1    3    3  502    0  0.10116847276E+04  0.13039019262E+03  0.67588116544E+03  0.12236514824E+04  0.10100000352E+00 0.  1.
       -3    1    3    3    0  502 -0.10116847276E+04 -0.13039019262E+03 -0.18370052433E+04  0.21012129507E+04  0.10100000352E+00 0. -1.
</event>
<event>
 5   0  0.5328368E-06  0.3020546E+04  0.7818609E-02  0.8237888E-01
       -2   -1    0    0    0  501  0.00000000000E+00  0.00000000000E+00  0.15470324506E+04  0.15470324506E+04  0.25500000920E-02 0. -1.
        2   -1    0    0  501    0  0.00000000000E+00  0.00000000000E+00 -0.14743867315E+04  0.14743867315E+04  0.25500000920E-02 0.  1.
    10030    2    1    2    0    0  0.00000000000E+00  0.00000000000E+00  0.72645719063E+02  0.30214191821E+04  0.30205457245E+04 0.  0.
        1    1    3    3  502    0  0.45375864734E+03  0.14293609034E+04  0.21513309311E+03  0.15150088283E+04  0.50400001928E-02 0.  1.
       -1    1    3    3    0  502 -0.45375864734E+03 -0.14293609034E+04 -0.14248737405E+03  0.15064103538E+04  0.50400001928E-02 0. -1.
</event>
<event>
 5   0  0.5001658E-06  0.3030355E+04  0.7818609E-02  0.8235115E-01
        2   -1    0    0  501    0  0.00000000000E+00  0.00000000000E+00  0.17146406373E+04  0.17146406373E+04  0.25500000920E-02 0. -1.
       -2   -1    0    0    0  501  0.00000000000E+00  0.00000000000E+00 -0.13389180632E+04  0.13389180632E+04  0.25500000920E-02 0.  1.
    10030    2    1    2    0    0  0.00000000000E+00  0.00000000000E+00  0.37572257412E+03  0.30535587005E+04  0.30303553067E+04 0.  0.
        3    1    3    3  502    0  0.54453521310E+03 -0.13468166105E+04 -0.24593443813E+03  0.14734033184E+04  0.10100000352E+00 0.  1.
       -3    1    3    3    0  502 -0.54453521310E+03  0.13468166105E+04  0.62165701226E+03  0.15801553821E+04  0.10100000352E+00 0. -1.
</event>
<event>
 5   0  0.1840431E-06  0.3129307E+04  0.7818609E-02  0.8207740E-01
        1   -1    0    0  501    0  0.00000000000E+00  0.00000000000E+00  0.25840384793E+04  0.25840384793E+04  0.50400001928E-02 0. -1.
       -1   -1    0    0    0  501  0.00000000000E+00  0.00000000000E+00 -0.94740896340E+03  0.94740896342E+03  0.50400001928E-02 0.  1.
    10030    2    1    2    0    0  0.00000000000E+00  0.00000000000E+00  0.16366295159E+04  0.35314474427E+04  0.31293074104E+04 0.  0.
        1    1    3    3  502    0 -0.11048609708E+04  0.10367177392E+04  0.37741649637E+03  0.15613918942E+04  0.50400001928E-02 0.  1.
       -1    1    3    3    0  502  0.11048609708E+04 -0.10367177392E+04  0.12592130195E+04  0.19700555485E+04  0.50400001928E-02 0. -1.
</event>
<event>
 5   0  0.5114870E-06  0.2966490E+04  0.7818609E-02  0.8253365E-01
        2   -1    0    0  501    0  0.00000000000E+00  0.00000000000E+00  0.25494968761E+04  0.25494968761E+04  0.25500000920E-02 0.  1.
       -2   -1    0    0    0  501  0.00000000000E+00  0.00000000000E+00 -0.86292164653E+03  0.86292164654E+03  0.25500000920E-02 0. -1.
    10030    2    1    2    0    0  0.00000000000E+00  0.00000000000E+00  0.16865752296E+04  0.34124185226E+04  0.29664902104E+04 0.  0.
        2    1    3    3  502    0  0.75111608743E+03 -0.84024139239E+03 -0.26594423654E+03  0.11579755227E+04  0.25500000920E-02 0. -1.
       -2    1    3    3    0  502 -0.75111608743E+03  0.84024139239E+03  0.19525194661E+04  0.22544429999E+04  0.25500000920E-02 0.  1.
</event>
<event>
 5   0  0.5114870E-06  0.2711253E+04  0.7818609E-02  0.8331363E-01
       -2   -1    0    0    0  501  0.00000000000E+00  0.00000000000E+00  0.91612560037E+03  0.91612560037E+03  0.25500000920E-02 0. -1.
        2   -1    0    0  501    0  0.00000000000E+00  0.00000000000E+00 -0.20059733931E+04  0.20059733931E+04  0.25500000920E-02 0.  1.
    10030    2    1    2    0    0  0.00000000000E+00  0.00000000000E+00 -0.10898477927E+04  0.29220989934E+04  0.27112532741E+04 0.  0.
        2    1    3    3  502    0 -0.89127208851E+03 -0.96812529571E+03 -0.89597005047E+03  0.15919782835E+04  0.25500000920E-02 0.  1.
       -2    1    3    3    0  502  0.89127208851E+03  0.96812529571E+03 -0.19387774223E+03  0.13301207099E+04  0.25500000920E-02 0. -1.
</event>
<event>
 5   0  0.1840431E-06  0.3091214E+04  0.7818609E-02  0.8218153E-01
       -1   -1    0    0    0  501  0.00000000000E+00  0.00000000000E+00  0.10219359714E+04  0.10219359714E+04  0.50400001928E-02 0.  1.
        1   -1    0    0  501    0  0.00000000000E+00  0.00000000000E+00 -0.23376235166E+04  0.23376235166E+04  0.50400001928E-02 0. -1.
    10030    2    1    2    0    0  0.00000000000E+00  0.00000000000E+00 -0.13156875452E+04  0.33595594881E+04  0.30912143629E+04 0.  0.
        1    1    3    3  502    0  0.10290150029E+04 -0.23589559600E+03  0.56903934182E+03  0.11993016222E+04  0.50400001928E-02 0.  1.
       -1    1    3    3    0  502 -0.10290150029E+04  0.23589559600E+03 -0.18847268870E+04  0.21602578659E+04  0.50400001928E-02 0. -1.
</event>
<event>
 5   0  0.1843709E-06  0.2510231E+04  0.7818609E-02  0.8399350E-01
        1   -1    0    0  501    0  0.00000000000E+00  0.00000000000E+00  0.19559228683E+04  0.19559228683E+04  0.50400001928E-02 0.  1.
       -1   -1    0    0    0  501  0.00000000000E+00  0.00000000000E+00 -0.80540773100E+03  0.80540773102E+03  0.50400001928E-02 0. -1.
    10030    2    1    2    0    0  0.00000000000E+00  0.00000000000E+00  0.11505151373E+04  0.27613305993E+04  0.25102313833E+04 0.  0.
        4    1    3    3  502    0 -0.99600705508E+03  0.57485609108E+03  0.11283707109E+04  0.16111212411E+04  0.12699999809E+01 0.  1.
       -4    1    3    3    0  502  0.99600705508E+03 -0.57485609108E+03  0.22144426327E+02  0.11502093582E+04  0.12699999809E+01 0. -1.
</event>
<event>
 5   0  0.1853742E-06  0.3115077E+04  0.7818609E-02  0.8211612E-01
       -1   -1    0    0    0  501  0.00000000000E+00  0.00000000000E+00  0.14837935435E+04  0.14837935435E+04  0.50400001928E-02 0. -1.
        1   -1    0    0  501    0  0.00000000000E+00  0.00000000000E+00 -0.16349484258E+04  0.16349484258E+04  0.50400001928E-02 0.  1.
    10030    2    1    2    0    0  0.00000000000E+00  0.00000000000E+00 -0.15115488239E+03  0.31187419693E+04  0.31150768325E+04 0.  0.
        5    1    3    3  502    0  0.44856521244E+03 -0.11332614444E+04  0.89531174791E+03  0.15123152671E+04  0.46999998093E+01 0. -1.
       -5    1    3    3    0  502 -0.44856521244E+03  0.11332614444E+04 -0.10464666303E+04  0.16064267022E+04  0.46999998093E+01 0.  1.
</event>
<event>
 5   0  0.4900679E-06  0.3034265E+04  0.7818609E-02  0.8234014E-01
        2   -1    0    0  501    0  0.00000000000E+00  0.00000000000E+00  0.26457499897E+04  0.26457499897E+04  0.25500000920E-02 0.  1.
       -2   -1    0    0    0  501  0.00000000000E+00  0.00000000000E+00 -0.86995759233E+03  0.86995759233E+03  0.25500000920E-02 0. -1.
    10030    2    1    2    0    0  0.00000000000E+00  0.00000000000E+00  0.17757923974E+04  0.35157075820E+04  0.30342645178E+04 0.  0.
        4    1    3    3  502    0 -0.15798770026E+02 -0.10634713669E+04  0.21414386014E+04  0.23910210885E+04  0.12699999809E+01 0.  1.
       -4    1    3    3    0  502  0.15798770026E+02  0.10634713669E+04 -0.36564620399E+03  0.11246864935E+04  0.12699999809E+01 0. -1.
</event>
<event>
 5   0  0.1853742E-06  0.2287183E+04  0.7818609E-02  0.8482992E-01
        1   -1    0    0  501    0  0.00000000000E+00  0.00000000000E+00  0.92107264288E+03  0.92107264290E+03  0.50400001928E-02 0.  1.
       -1   -1    0    0    0  501  0.00000000000E+00  0.00000000000E+00 -0.14198674011E+04  0.14198674011E+04  0.50400001928E-02 0. -1.
    10030    2    1    2    0    0  0.00000000000E+00  0.00000000000E+00 -0.49879475820E+03  0.23409400440E+04  0.22871825635E+04 0.  0.
        5    1    3    3  502    0 -0.93139433320E+03 -0.20331257483E+03 -0.89586584538E+03  0.13082160028E+04  0.46999998093E+01 0. -1.
       -5    1    3    3    0  502  0.93139433320E+03  0.20331257483E+03  0.39707108719E+03  0.10327240412E+04  0.46999998093E+01 0.  1.
</event>
<event>
 5   0  0.5001658E-06  0.3129114E+04  0.7818609E-02  0.8207793E-01
        2   -1    0    0  501    0  0.00000000000E+00  0.00000000000E+00  0.29776635229E+04  0.29776635229E+04  0.25500000920E-02 0. -1.
       -2   -1    0    0    0  501  0.00000000000E+00  0.00000000000E+00 -0.82206673317E+03  0.82206673318E+03  0.25500000920E-02 0.  1.
    10030    2    1    2    0    0  0.00000000000E+00  0.00000000000E+00  0.21555967897E+04  0.37997302560E+04  0.31291136922E+04 0.  0.
        3    1    3    3  502    0  0.61223261447E+03  0.11157476287E+04  0.21828362637E+04  0.25267559655E+04  0.10100000352E+00 0. -1.
       -3    1    3    3    0  502 -0.61223261447E+03 -0.11157476287E+04 -0.27239473986E+02  0.12729742905E+04  0.10100000352E+00 0.  1.
</event>
<event>
 5   0  0.1853742E-06  0.3080235E+04  0.7818609E-02  0.8221183E-01
        1   -1    0    0  501    0  0.00000000000E+00  0.00000000000E+00  0.15668218864E+04  0.15668218864E+04  0.50400001928E-02 0.  1.
       -1   -1    0    0    0  501  0.00000000000E+00  0.00000000000E+00 -0.15138679681E+04  0.15138679682E+04  0.50400001928E-02 0. -1.
    10030    2    1    2    0    0  0.00000000000E+00  0.00000000000E+00  0.52953918290E+02  0.30806898546E+04  0.30802347090E+04 0.  0.
        5    1    3    3  502    0  0.15039631789E+04 -0.48731402616E+02 -0.30168641642E+03  0.15347041334E+04  0.46999998093E+01 0. -1.
       -5    1    3    3    0  502 -0.15039631789E+04  0.48731402616E+02  0.35464033471E+03  0.15459857212E+04  0.46999998093E+01 0.  1.
</event>
<event>
 5   0  0.1885307E-06  0.3075391E+04  0.7818609E-02  0.8222524E-01
       -1   -1    0    0    0  501  0.00000000000E+00  0.00000000000E+00  0.91615797617E+03  0.91615797618E+03  0.50400001928E-02 0. -1.
        1   -1    0    0  501    0  0.00000000000E+00  0.00000000000E+00 -0.25808943882E+04  0.25808943882E+04  0.50400001928E-02 0.  1.
    10030    2    1    2    0    0  0.00000000000E+00  0.00000000000E+00 -0.16647364120E+04  0.34970523643E+04  0.30753906935E+04 0.  0.
        3    1    3    3  502    0  0.19583477359E+03 -0.15251706273E+04 -0.82872445460E+03  0.17467916112E+04  0.10100000352E+00 0.  1.
       -3    1    3    3    0  502 -0.19583477359E+03  0.15251706273E+04 -0.83601195738E+03  0.17502607532E+04  0.10100000352E+00 0. -1.
</event>
<event>
 5   0  0.1885307E-06  0.3048379E+04  0.7818609E-02  0.8230049E-01
       -1   -1    0    0    0  501  0.00000000000E+00  0.00000000000E+00  0.19287999345E+04  0.19287999345E+04  0.50400001928E-02 0.  1.
        1   -1    0    0  501    0  0.00000000000E+00  0.00000000000E+00 -0.12044555791E+04  0.12044555791E+04  0.50400001928E-02 0. -1.
    10030    2    1    2    0    0  0.00000000000E+00  0.00000000000E+00  0.72434435548E+03  0.31332555136E+04  0.30483791379E+04 0.  0.
        3    1    3    3  502    0 -0.14039200058E+04 -0.49284090149E+03  0.70193659129E+03  0.16451743146E+04  0.10100000352E+00 0.  1.
       -3    1    3    3    0  502  0.14039200058E+04  0.49284090149E+03  0.22407764194E+02  0.14880811991E+04  0.10100000352E+00 0. -1.
</event>
<event>
 5   0  0.1649875E-06  0.3109184E+04  0.7818609E-02  0.8213222E-01
        3   -1    0    0  501    0  0.00000000000E+00  0.00000000000E+00  0.11322010012E+04  0.11322010057E+04  0.10100000352E+00 0. -1.
       -3   -1    0    0    0  501  0.00000000000E+00  0.00000000000E+00 -0.21345643102E+04  0.21345643126E+04  0.10100000352E+00 0.  1.
    10030    2    1    2    0    0  0.00000000000E+00  0.00000000000E+00 -0.10023633090E+04  0.32667653183E+04  0.31091837259E+04 0.  0.
        4    1    3    3  502    0  0.75176043572E+03  0.44879406388E+03 -0.18508874187E+04  0.20475218471E+04  0.12699999809E+01 0.  1.
       -4    1    3    3    0  502 -0.75176043572E+03 -0.44879406388E+03  0.84852410971E+03  0.12192434712E+04  0.12699999809E+01 0. -1.
</event>
<event>
 5   0  0.4900679E-06  0.3088302E+04  0.7818609E-02  0.8218956E-01
       -2   -1    0    0    0  501  0.00000000000E+00  0.00000000000E+00  0.13475778938E+04  0.13475778939E+04  0.25500000920E-02 0.  1.
        2   -1    0    0  501    0  0.00000000000E+00  0.00000000000E+00 -0.17693982148E+04  0.17693982148E+04  0.25500000920E-02 0. -1.
    10030    2    1    2    0    0  0.00000000000E+00  0.00000000000E+00 -0.42182032100E+03  0.31169761087E+04  0.30883017468E+04 0.  0.
        4    1    3    3  502    0 -0.14849901813E+04  0.13040271138E+03  0.19556932991E+03  0.15034791922E+04  0.12699999809E+01 0.  1.
       -4    1    3    3    0  502  0.14849901813E+04 -0.13040271138E+03 -0.61738965091E+03  0.16134969165E+04  0.12699999809E+01 0. -1.
</event>
<event>
 5   0  0.5001658E-06  0.3117336E+04  0.7818609E-02  0.8210996E-01
        2   -1    0    0  501    0  0.00000000000E+00  0.00000000000E+00  0.10624909116E+04  0.10624909116E+04  0.25500000920E-02 0.  1.
       -2   -1    0    0    0  501  0.00000000000E+00  0.00000000000E+00 -0.22865567089E+04  0.22865567089E+04  0.25500000920E-02 0. -1.
    10030    2    1    2    0    0  0.00000000000E+00  0.00000000000E+00 -0.12240657973E+04  0.33490476205E+04  0.31173358638E+04 0.  0.
        3    1    3    3  502    0 -0.38503257075E+03  0.30157799924E+03 -0.22019856138E+04  0.22556462541E+04  0.10100000352E+00 0. -1.
       -3    1    3    3    0  502  0.38503257075E+03 -0.30157799924E+03  0.97791981650E+03  0.10934013663E+04  0.10100000352E+00 0.  1.
</event>
<event>
 5   0  0.5114870E-06  0.2797894E+04  0.7818609E-02  0.8303922E-01
       -2   -1    0    0    0  501  0.00000000000E+00  0.00000000000E+00  0.66597576686E+03  0.66597576687E+03  0.25500000920E-02 0.  1.
        2   -1    0    0  501    0  0.00000000000E+00  0.00000000000E+00 -0.29386252837E+04  0.29386252837E+04  0.25500000920E-02 0. -1.
    10030    2    1    2    0    0  0.00000000000E+00  0.00000000000E+00 -0.22726495168E+04  0.36046010505E+04  0.27978943703E+04 0.  0.
        2    1    3    3  502    0 -0.62559063094E+03 -0.23580936516E+02 -0.27480892662E+04  0.28184950440E+04  0.25500000920E-02 0. -1.
       -2    1    3    3    0  502  0.62559063094E+03  0.23580936516E+02  0.47543974944E+03  0.78610600649E+03  0.25500000920E-02 0.  1.
</event>
<event>
 5   0  0.5328368E-06  0.3111023E+04  0.7818609E-02  0.8212719E-01
       -2   -1    0    0    0  501  0.00000000000E+00  0.00000000000E+00  0.12330859875E+04  0.12330859875E+04  0.25500000920E-02 0.  1.
        2   -1    0    0  501    0  0.00000000000E+00  0.00000000000E+00 -0.19622445639E+04  0.19622445639E+04  0.25500000920E-02 0. -1.
    10030    2    1    2    0    0  0.00000000000E+00  0.00000000000E+00 -0.72915857639E+03  0.31953305514E+04  0.31110231601E+04 0.  0.
        1    1    3    3  502    0  0.64159988857E+03 -0.71293056606E+03  0.89322810998E+03  0.13106398687E+04  0.50400001928E-02 0.  1.
       -1    1    3    3    0  502 -0.64159988857E+03  0.71293056606E+03 -0.16223866864E+04  0.18846906826E+04  0.50400001928E-02 0. -1.
</event>
<event>
 5   0  0.4927533E-06  0.3091453E+04  0.7818609E-02  0.8218087E-01
        2   -1    0    0  501    0  0.00000000000E+00  0.00000000000E+00  0.11236728841E+04  0.11236728841E+04  0.25500000920E-02 0.  1.
       -2   -1    0    0    0  501  0.00000000000E+00  0.00000000000E+00 -0.21263046819E+04  0.21263046819E+04  0.25500000920E-02 0. -1.
    10030    2    1    2    0    0  0.00000000000E+00  0.00000000000E+00 -0.10026317979E+04  0.32499775660E+04  0.30914533245E+04 0.  0.
        5    1    3    3  502    0  0.97754490835E+03  0.11973246511E+04 -0.49261779613E+03  0.16223053816E+04  0.46999998093E+01 0. -1.
       -5    1    3    3    0  502 -0.97754490835E+03 -0.11973246511E+04 -0.51001400174E+03  0.16276721844E+04  0.46999998093E+01 0.  1.
</event>
<event>
 5   0  0.5001658E-06  0.3082617E+04  0.7818609E-02  0.8220525E-01
       -2   -1    0    0    0  501  0.00000000000E+00  0.00000000000E+00  0.90133618769E+03  0.90133618770E+03  0.25500000920E-02 0.  1.
        2   -1    0    0  501    0  0.00000000000E+00  0.00000000000E+00 -0.26356787714E+04  0.26356787714E+04  0.25500000920E-02 0. -1.
    10030    2    1    2    0    0  0.00000000000E+00  0.00000000000E+00 -0.17343425837E+04  0.35370149591E+04  0.30826174954E+04 0.  0.
        3    1    3    3  502    0 -0.22129228960E+03  0.13957134534E+04 -0.16112344933E+03  0.14223034477E+04  0.10100000352E+00 0.  1.
       -3    1    3    3    0  502  0.22129228960E+03 -0.13957134534E+04 -0.15732191344E+04  0.21147115114E+04  0.10100000352E+00 0. -1.
</event>
<event>
 5   0  0.1885307E-06  0.3096368E+04  0.7818609E-02  0.8216735E-01
       -1   -1    0    0    0  501  0.00000000000E+00  0.00000000000E+00  0.13553585845E+04  0.13553585845E+04  0.50400001928E-02 0. -1.
        1   -1    0    0  501    0  0.00000000000E+00  0.00000000000E+00 -0.17684421259E+04  0.17684421259E+04  0.50400001928E-02 0.  1.
    10030    2    1    2    0    0  0.00000000000E+00  0.00000000000E+00 -0.41308354142E+03  0.31238007104E+04  0.30963676891E+04 0.  0.
        3    1    3    3  502    0 -0.94760772263E+03  0.91471723107E+03 -0.10275113882E+04  0.16704633105E+04  0.10100000352E+00 0.  1.
       -3    1    3    3    0  502  0.94760772263E+03 -0.91471723107E+03  0.61442784676E+03  0.14533373999E+04  0.10100000352E+00 0. -1.
</event>
<event>
 5   0  0.1885307E-06  0.3107906E+04  0.7818609E-02  0.8213572E-01
        1   -1    0    0  501    0  0.00000000000E+00  0.00000000000E+00  0.18328173419E+04  0.18328173419E+04  0.50400001928E-02 0.  1.
       -1   -1    0    0    0  501  0.00000000000E+00  0.00000000000E+00 -0.13175177904E+04  0.13175177904E+04  0.50400001928E-02 0. -1.
    10030    2    1    2    0    0  0.00000000000E+00  0.00000000000E+00  0.51529955144E+03  0.31503351323E+04  0.31079056965E+04 0.  0.
        3    1    3    3  502    0 -0.58835621957E+03  0.88619036165E+03 -0.89063196818E+03  0.13873434006E+04  0.10100000352E+00 0. -1.
       -3    1    3    3    0  502  0.58835621957E+03 -0.88619036165E+03  0.14059315196E+04  0.17629917318E+04  0.10100000352E+00 0.  1.
</event>
<event>
 5   0  0.1853742E-06  0.3133719E+04  0.7818609E-02  0.8206544E-01
        1   -1    0    0  501    0  0.00000000000E+00  0.00000000000E+00  0.23264932906E+04  0.23264932906E+04  0.50400001928E-02 0. -1.
       -1   -1    0    0    0  501  0.00000000000E+00  0.00000000000E+00 -0.10552574705E+04  0.10552574705E+04  0.50400001928E-02 0.  1.
    10030    2    1    2    0    0  0.00000000000E+00  0.00000000000E+00  0.12712358201E+04  0.33817507611E+04  0.31337194674E+04 0.  0.
        5    1    3    3  502    0 -0.10010044757E+04  0.35811765854E+03  0.18777036581E+04  0.21577885288E+04  0.46999998093E+01 0. -1.
       -5    1    3    3    0  502  0.10010044757E+04 -0.35811765854E+03 -0.60646783796E+03  0.12239622323E+04  0.46999998093E+01 0.  1.
</event>
<event>
 5   0  0.1885307E-06  0.2899866E+04  0.7818609E-02  0.8272917E-01
        1   -1    0    0  501    0  0.00000000000E+00  0.00000000000E+00  0.18847386242E+04  0.18847386242E+04  0.50400001928E-02 0.  1.
       -1   -1    0    0    0  501  0.00000000000E+00  0.00000000000E+00 -0.11154358782E+04  0.11154358782E+04  0.50400001928E-02 0. -1.
    10030    2    1    2    0    0  0.00000000000E+00  0.00000000000E+00  0.76930274604E+03  0.30001745024E+04  0.28998655710E+04 0.  0.
        3    1    3    3  502    0  0.57334187298E+03  0.66917133378E+03 -0.80660889608E+03  0.11946250871E+04  0.10100000352E+00 0. -1.
       -3    1    3    3    0  502 -0.57334187298E+03 -0.66917133378E+03  0.15759116421E+04  0.18055494153E+04  0.10100000352E+00 0.  1.
</event>
<event>
 5   0  0.5114870E-06  0.3081144E+04  0.7818609E-02  0.8220932E-01
        2   -1    0    0  501    0  0.00000000000E+00  0.00000000000E+00  0.19160040667E+04  0.19160040667E+04  0.25500000920E-02 0. -1.
       -2   -1    0    0    0  501  0.00000000000E+00  0.00000000000E+00 -0.12387037062E+04  0.12387037062E+04  0.25500000920E-02 0.  1.
    10030    2    1    2    0    0  0.00000000000E+00  0.00000000000E+00  0.67730036047E+03  0.31547077729E+04  0.30811435141E+04 0.  0.
        2    1    3    3  502    0  0.19519323349E+03  0.30565129107E+03  0.18716755561E+04  0.19064869519E+04  0.25500000920E-02 0. -1.
       -2    1    3    3    0  502 -0.19519323349E+03 -0.30565129107E+03 -0.11943751957E+04  0.12482208211E+04  0.25500000920E-02 0.  1.
</event>
<event>
 5   0  0.5001658E-06  0.3090747E+04  0.7818609E-02  0.8218282E-01
        2   -1    0    0  501    0  0.00000000000E+00  0.00000000000E+00  0.14506054522E+04  0.14506054522E+04  0.25500000920E-02 0.  1.
       -2   -1    0    0    0  501  0.00000000000E+00  0.00000000000E+00 -0.16463331440E+04  0.16463331440E+04  0.25500000920E-02 0. -1.
    10030    2    1    2    0    0  0.00000000000E+00  0.00000000000E+00 -0.19572769187E+03  0.30969385962E+04  0.30907473755E+04 0.  0.
        3    1    3    3  502    0  0.67728349672E+03 -0.35556841581E+03 -0.14433261181E+04  0.16335030231E+04  0.10100000352E+00 0. -1.
       -3    1    3    3    0  502 -0.67728349672E+03  0.35556841581E+03  0.12475984262E+04  0.14634355731E+04  0.10100000352E+00 0.  1.
</event>
<event>
 5   0  0.1885307E-06  0.3098647E+04  0.7818609E-02  0.8216109E-01
        1   -1    0    0  501    0  0.00000000000E+00  0.00000000000E+00  0.15066611450E+04  0.15066611450E+04  0.50400001928E-02 0.  1.
       -1   -1    0    0    0  501  0.00000000000E+00  0.00000000000E+00 -0.15931937318E+04  0.15931937318E+04  0.50400001928E-02 0. -1.
    10030    2    1    2    0    0  0.00000000000E+00  0.00000000000E+00 -0.86532586830E+02  0.30998548769E+04  0.30986468610E+04 0.  0.
        3    1    3    3  502    0 -0.10209667452E+04  0.11457722211E+04 -0.25603678561E+03  0.15558669362E+04  0.10100000352E+00 0.  1.
       -3    1    3    3    0  502  0.10209667452E+04 -0.11457722211E+04  0.16950419878E+03  0.15439879407E+04  0.10100000352E+00 0. -1.
</event>
<event>
 5   0  0.1836401E-06  0.2918713E+04  0.7818609E-02  0.8267331E-01
        1   -1    0    0  501    0  0.00000000000E+00  0.00000000000E+00  0.19929738422E+04  0.19929738422E+04  0.50400001928E-02 0. -1.
       -1   -1    0    0    0  501  0.00000000000E+00  0.00000000000E+00 -0.10686150453E+04  0.10686150453E+04  0.50400001928E-02 0.  1.
    10030    2    1    2    0    0  0.00000000000E+00  0.00000000000E+00  0.92435879692E+03  0.30615888876E+04  0.29187133006E+04 0.  0.
        2    1    3    3  502    0  0.12301713332E+04 -0.26274805539E+03 -0.31387732348E+03  0.12964864148E+04  0.25500000920E-02 0.  1.
       -2    1    3    3    0  502 -0.12301713332E+04  0.26274805539E+03  0.12382361204E+04  0.17651024728E+04  0.25500000920E-02 0. -1.
</event>
<event>
 5   0  0.5114870E-06  0.3291813E+04  0.7818609E-02  0.8164982E-01
       -2   -1    0    0    0  501  0.00000000000E+00  0.00000000000E+00  0.14588341794E+04  0.14588341794E+04  0.25500000920E-02 0.  1.
        2   -1    0    0  501    0  0.00000000000E+00  0.00000000000E+00 -0.18569676970E+04  0.18569676970E+04  0.25500000920E-02 0. -1.
    10030    2    1    2    0    0  0.00000000000E+00  0.00000000000E+00 -0.39813351752E+03  0.33158018764E+04  0.32918128419E+04 0.  0.
        2    1    3    3  502    0  0.84118983464E+03 -0.54498656424E+03  0.11159729008E+04  0.15000020694E+04  0.25500000920E-02 0.  1.
       -2    1    3    3    0  502 -0.84118983464E+03  0.54498656424E+03 -0.15141064183E+04  0.18157998070E+04  0.25500000920E-02 0. -1.
</event>
<event>
 5   0  0.1843709E-06  0.3163451E+04  0.7818609E-02  0.8198537E-01
       -1   -1    0    0    0  501  0.00000000000E+00  0.00000000000E+00  0.14075701300E+04  0.14075701300E+04  0.50400001928E-02 0. -1.
        1   -1    0    0  501    0  0.00000000000E+00  0.00000000000E+00 -0.17774287063E+04  0.17774287063E+04  0.50400001928E-02 0.  1.
    10030    2    1    2    0    0  0.00000000000E+00  0.00000000000E+00 -0.36985857631E+03  0.31849988364E+04  0.31634509987E+04 0.  0.
        4    1    3    3  502    0 -0.22930470884E+03  0.15647271515E+04 -0.21517110135E+03  0.15960112543E+04  0.12699999809E+01 0. -1.
       -4    1    3    3    0  502  0.22930470884E+03 -0.15647271515E+04 -0.15468747496E+03  0.15889875821E+04  0.12699999809E+01 0.  1.
</event>
<event>
 5   0  0.5328368E-06  0.2473247E+04  0.7818609E-02  0.8412579E-01
        2   -1    0    0  501    0  0.00000000000E+00  0.00000000000E+00  0.20803332152E+04  0.20803332152E+04  0.25500000920E-02 0. -1.
       -2   -1    0    0    0  501  0.00000000000E+00  0.00000000000E+00 -0.73509266702E+03  0.73509266703E+03  0.25500000920E-02 0.  1.
    10030    2    1    2    0    0  0.00000000000E+00  0.00000000000E+00  0.13452405482E+04  0.28154258823E+04  0.24732470087E+04 0.  0.
        1    1    3    3  502    0  0.66906198012E+03 -0.85155372402E+03 -0.70150197166E+01  0.10829759409E+04  0.50400001928E-02 0.  1.
       -1    1    3    3    0  502 -0.66906198012E+03  0.85155372402E+03  0.13522555679E+04  0.17324499413E+04  0.50400001928E-02 0. -1.
</event>
<event>
 5   0  0.1843709E-06  0.3104316E+04  0.7818609E-02  0.8214554E-01
       -1   -1    0    0    0  501  0.00000000000E+00  0.00000000000E+00  0.15420194021E+04  0.15420194021E+04  0.50400001928E-02 0. -1.
        1   -1    0    0  501    0  0.00000000000E+00  0.00000000000E+00 -0.15623633931E+04  0.15623633931E+04  0.50400001928E-02 0.  1.
    10030    2    1    2    0    0  0.00000000000E+00  0.00000000000E+00 -0.20343991048E+02  0.31043827952E+04  0.31043161342E+04 0.  0.
        4    1    3    3  502    0 -0.42763722131E+03  0.48674211845E+03  0.14003197662E+04  0.15429480041E+04  0.12699999809E+01 0. -1.
       -4    1    3    3    0  502  0.42763722131E+03 -0.48674211845E+03 -0.14206637572E+04  0.15614347911E+04  0.12699999809E+01 0.  1.
</event>
<event>
 5   0  0.1885307E-06  0.3087104E+04  0.7818609E-02  0.8219286E-01
       -1   -1    0    0    0  501  0.00000000000E+00  0.00000000000E+00  0.10766365264E+04  0.10766365264E+04  0.50400001928E-02 0. -1.
        1   -1    0    0  501    0  0.00000000000E+00  0.00000000000E+00 -0.22129598364E+04  0.22129598364E+04  0.50400001928E-02 0.  1.
    10030    2    1    2    0    0  0.00000000000E+00  0.00000000000E+00 -0.11363233101E+04  0.32895963628E+04  0.30871043982E+04 0.  0.
        3    1    3    3  502    0  0.12404884218E+04 -0.91793921536E+03 -0.60397339965E+03  0.16571686110E+04  0.10100000352E+00 0. -1.
       -3    1    3    3    0  502 -0.12404884218E+04  0.91793921536E+03 -0.53234991042E+03  0.16324277518E+04  0.10100000352E+00 0.  1.
</event>
<event>
 5   0  0.1836401E-06  0.2999626E+04  0.7818609E-02  0.8243838E-01
        1   -1    0    0  501    0  0.00000000000E+00  0.00000000000E+00  0.10654177421E+04  0.10654177421E+04  0.50400001928E-02 0. -1.
       -1   -1    0    0    0  501  0.00000000000E+00  0.00000000000E+00 -0.21113212837E+04  0.21113212837E+04  0.50400001928E-02 0.  1.
    10030    2    1    2    0    0  0.00000000000E+00  0.00000000000E+00 -0.10459035416E+04  0.31767390258E+04  0.29996260800E+04 0.  0.
        2    1    3    3  502    0 -0.13490122115E+04  0.65392706747E+03 -0.57013099000E+03  0.16039027097E+04  0.25500000920E-02 0. -1.
       -2    1    3    3    0  502  0.13490122115E+04 -0.65392706747E+03 -0.47577255159E+03  0.15728363161E+04  0.25500000920E-02 0.  1.
</event>
<event>
 5   0  0.5328368E-06  0.3095868E+04  0.7818609E-02  0.8216873E-01
       -2   -1    0    0    0  501  0.00000000000E+00  0.00000000000E+00  0.17581146698E+04  0.17581146698E+04  0.25500000920E-02 0. -1.
        2   -1    0    0  501    0  0.00000000000E+00  0.00000000000E+00 -0.13628803564E+04  0.13628803564E+04  0.25500000920E-02 0.  1.
    10030    2    1    2    0    0  0.00000000000E+00  0.00000000000E+00  0.39523431333E+03  0.31209950262E+04  0.30958681805E+04 0.  0.
        1    1    3    3  502    0  0.14667147939E+04 -0.23346358007E+03  0.63744063325E+03  0.16161955608E+04  0.50400001928E-02 0. -1.
       -1    1    3    3    0  502 -0.14667147939E+04  0.23346358007E+03 -0.24220631992E+03  0.15047994654E+04  0.50400001928E-02 0.  1.
</event>
<event>
 5   0  0.4927533E-06  0.3107779E+04  0.7818609E-02  0.8213606E-01
       -2   -1    0    0    0  501  0.00000000000E+00  0.00000000000E+00  0.12309780814E+04  0.12309780814E+04  0.25500000920E-02 0.  1.
        2   -1    0    0  501    0  0.00000000000E+00  0.00000000000E+00 -0.19615078754E+04  0.19615078754E+04  0.25500000920E-02 0. -1.
    10030    2    1    2    0    0  0.00000000000E+00  0.00000000000E+00 -0.73052979393E+03  0.31924859568E+04  0.31077794009E+04 0.  0.
        5    1    3    3  502    0  0.49369061826E+03 -0.14704537728E+04 -0.27007649504E+03  0.15744612182E+04  0.46999998093E+01 0. -1.
       -5    1    3    3    0  502 -0.49369061826E+03  0.14704537728E+04 -0.46045329889E+03  0.16180247386E+04  0.46999998093E+01 0.  1.
</event>
<event>
 5   0  0.1853742E-06  0.2797318E+04  0.7818609E-02  0.8304102E-01
        1   -1    0    0  501    0  0.00000000000E+00  0.00000000000E+00  0.12290269560E+04  0.12290269560E+04  0.50400001928E-02 0.  1.
       -1   -1    0    0    0  501  0.00000000000E+00  0.00000000000E+00 -0.15917038752E+04  0.15917038752E+04  0.50400001928E-02 0. -1.
    10030    2    1    2    0    0  0.00000000000E+00  0.00000000000E+00 -0.36267691918E+03  0.28207308312E+04  0.27973179788E+04 0.  0.
        5    1    3    3  502    0  0.48152679210E+03 -0.18558111088E+03  0.11295098226E+04  0.12418224227E+04  0.46999998093E+01 0.  1.
       -5    1    3    3    0  502 -0.48152679210E+03  0.18558111088E+03 -0.14921867418E+04  0.15789084085E+04  0.46999998093E+01 0. -1.
</event>
<event>
 5   0  0.4900679E-06  0.3145984E+04  0.7818609E-02  0.8203230E-01
       -2   -1    0    0    0  501  0.00000000000E+00  0.00000000000E+00  0.21483888335E+04  0.21483888335E+04  0.25500000920E-02 0. -1.
        2   -1    0    0  501    0  0.00000000000E+00  0.00000000000E+00 -0.11517023880E+04  0.11517023880E+04  0.25500000920E-02 0.  1.
    10030    2    1    2    0    0  0.00000000000E+00  0.00000000000E+00  0.99668644545E+03  0.33000912215E+04  0.31459844564E+04 0.  0.
        4    1    3    3  502    0  0.11962792556E+04 -0.10213381084E+04  0.48853939525E+03  0.16470846799E+04  0.12699999809E+01 0.  1.
       -4    1    3    3    0  502 -0.11962792556E+04  0.10213381084E+04  0.50814705020E+03  0.16530065416E+04  0.12699999809E+01 0. -1.
</event>
<event>
 5   0  0.1840431E-06  0.3149363E+04  0.7818609E-02  0.8202320E-01
       -1   -1    0    0    0  501  0.00000000000E+00  0.00000000000E+00  0.77679887876E+03  0.77679887877E+03  0.50400001928E-02 0.  1.
        1   -1    0    0  501    0  0.00000000000E+00  0.00000000000E+00 -0.31921019412E+04  0.31921019412E+04  0.50400001928E-02 0. -1.
    10030    2    1    2    0    0  0.00000000000E+00  0.00000000000E+00 -0.24153030624E+04  0.39689008199E+04  0.31493626078E+04 0.  0.
        1    1    3    3  502    0  0.87139822043E+03 -0.43619701500E+03  0.35116830122E+03  0.10358194197E+04  0.50400001928E-02 0.  1.
       -1    1    3    3    0  502 -0.87139822043E+03  0.43619701500E+03 -0.27664713636E+04  0.29330814002E+04  0.50400001928E-02 0. -1.
</event>
<event>
 5   0  0.1853742E-06  0.2360104E+04  0.7818609E-02  0.8454593E-01
       -1   -1    0    0    0  501  0.00000000000E+00  0.00000000000E+00  0.83876001401E+03  0.83876001403E+03  0.50400001928E-02 0.  1.
        1   -1    0    0  501    0  0.00000000000E+00  0.00000000000E+00 -0.16602152654E+04  0.16602152654E+04  0.50400001928E-02 0. -1.
    10030    2    1    2    0    0  0.00000000000E+00  0.00000000000E+00 -0.82145525143E+03  0.24989752795E+04  0.23601035395E+04 0.  0.
        5    1    3    3  502    0 -0.95826073498E+03  0.59590292942E+03 -0.77619842902E+03  0.13696240465E+04  0.46999998093E+01 0. -1.
       -5    1    3    3    0  502  0.95826073498E+03 -0.59590292942E+03 -0.45256822410E+02  0.11293512330E+04  0.46999998093E+01 0.  1.
</event>
<event>
 5   0  0.1836401E-06  0.3110334E+04  0.7818609E-02  0.8212908E-01
        1   -1    0    0  501    0  0.00000000000E+00  0.00000000000E+00  0.12465501145E+04  0.12465501146E+04  0.50400001928E-02 0.  1.
       -1   -1    0    0    0  501  0.00000000000E+00  0.00000000000E+00 -0.19401899942E+04  0.19401899942E+04  0.50400001928E-02 0. -1.
    10030    2    1    2    0    0  0.00000000000E+00  0.00000000000E+00 -0.69363987967E+03  0.31867401088E+04  0.31103337824E+04 0.  0.
        2    1    3    3  502    0 -0.10826172315E+04 -0.25297079288E+03 -0.14609562922E+04  0.18358778771E+04  0.25500000920E-02 0. -1.
       -2    1    3    3    0  502  0.10826172315E+04  0.25297079288E+03  0.76731641255E+03  0.13508622316E+04  0.25500000920E-02 0.  1.
</event>
<event>
 5   0  0.1836401E-06  0.3081979E+04  0.7818609E-02  0.8220701E-01
       -1   -1    0    0    0  501  0.00000000000E+00  0.00000000000E+00  0.14329237510E+04  0.14329237510E+04  0.50400001928E-02 0.  1.
        1   -1    0    0  501    0  0.00000000000E+00  0.00000000000E+00 -0.16572056252E+04  0.16572056252E+04  0.50400001928E-02 0. -1.
    10030    2    1    2    0    0  0.00000000000E+00  0.00000000000E+00 -0.22428187423E+03  0.30901293763E+04  0.30819794294E+04 0.  0.
        2    1    3    3  502    0 -0.62869216775E+03 -0.26170435348E+03  0.12738698872E+04  0.14444678951E+04  0.25500000920E-02 0.  1.
       -2    1    3    3    0  502  0.62869216775E+03  0.26170435348E+03 -0.14981517614E+04  0.16456614812E+04  0.25500000920E-02 0. -1.
</event>
<event>
 5   0  0.1649875E-06  0.3264083E+04  0.7818609E-02  0.8172095E-01
       -3   -1    0    0    0  501  0.00000000000E+00  0.00000000000E+00  0.20384754054E+04  0.20384754079E+04  0.10100000352E+00 0. -1.
        3   -1    0    0  501    0  0.00000000000E+00  0.00000000000E+00 -0.13066432587E+04  0.13066432627E+04  0.10100000352E+00 0.  1.
    10030    2    1    2    0    0  0.00000000000E+00  0.00000000000E+00  0.73183214666E+03  0.33451186706E+04  0.32640834287E+04 0.  0.
        4    1    3    3  502    0 -0.12358009465E+04 -0.42508128642E+03 -0.63593251052E+03  0.14533787704E+04  0.12699999809E+01 0.  1.
       -4    1    3    3    0  502  0.12358009465E+04  0.42508128642E+03  0.13677646572E+04  0.18917399001E+04  0.12699999809E+01 0. -1.
</event>
<event>
 5   0  0.1649875E-06  0.3087986E+04  0.7818609E-02  0.8219043E-01
        3   -1    0    0  501    0  0.00000000000E+00  0.00000000000E+00  0.19607999383E+04  0.19607999409E+04  0.10100000352E+00 0. -1.
       -3   -1    0    0    0  501  0.00000000000E+00  0.00000000000E+00 -0.12157870285E+04  0.12157870327E+04  0.10100000352E+00 0.  1.
    10030    2    1    2    0    0  0.00000000000E+00  0.00000000000E+00  0.74501290977E+03  0.31765869736E+04  0.30879864904E+04 0.  0.
        2    1    3    3  502    0 -0.63798540671E+03  0.33957123385E+03  0.17760514635E+04  0.19174704177E+04  0.25500000920E-02 0. -1.
       -2    1    3    3    0  502  0.63798540671E+03 -0.33957123385E+03 -0.10310385537E+04  0.12591165559E+04  0.25500000920E-02 0.  1.
</event>
<event>
 5   0  0.1836401E-06  0.3018749E+04  0.7818609E-02  0.8238397E-01
        1   -1    0    0  501    0  0.00000000000E+00  0.00000000000E+00  0.20933350086E+04  0.20933350087E+04  0.50400001928E-02 0.  1.
       -1   -1    0    0    0  501  0.00000000000E+00  0.00000000000E+00 -0.10883167525E+04  0.10883167525E+04  0.50400001928E-02 0. -1.
    10030    2    1    2    0    0  0.00000000000E+00  0.00000000000E+00  0.10050182562E+04  0.31816517611E+04  0.30187491174E+04 0.  0.
        2    1    3    3  502    0 -0.12911994663E+04 -0.13239523142E+03 -0.30944450096E+03  0.13343464536E+04  0.25500000920E-02 0. -1.
       -2    1    3    3    0  502  0.12911994663E+04  0.13239523142E+03  0.13144627571E+04  0.18473053075E+04  0.25500000920E-02 0.  1.
</event>
<event>
 5   0  0.1836401E-06  0.3067938E+04  0.7818609E-02  0.8224592E-01
        1   -1    0    0  501    0  0.00000000000E+00  0.00000000000E+00  0.80903037483E+03  0.80903037484E+03  0.50400001928E-02 0.  1.
       -1   -1    0    0    0  501  0.00000000000E+00  0.00000000000E+00 -0.29084952919E+04  0.29084952919E+04  0.50400001928E-02 0. -1.
    10030    2    1    2    0    0  0.00000000000E+00  0.00000000000E+00 -0.20994649171E+04  0.37175256667E+04  0.30679380934E+04 0.  0.
        2    1    3    3  502    0 -0.16915132458E+03 -0.72450560784E+03 -0.26752370297E+04  0.27767631717E+04  0.25500000920E-02 0. -1.
       -2    1    3    3    0  502  0.16915132458E+03  0.72450560784E+03  0.57577211265E+03  0.94076249506E+03  0.25500000920E-02 0.  1.
</event>
<event>
 5   0  0.1836401E-06  0.3172911E+04  0.7818609E-02  0.8196008E-01
        1   -1    0    0  501    0  0.00000000000E+00  0.00000000000E+00  0.13301039174E+04  0.13301039174E+04  0.50400001928E-02 0. -1.
       -1   -1    0    0    0  501  0.00000000000E+00  0.00000000000E+00 -0.18922143169E+04  0.18922143169E+04  0.50400001928E-02 0.  1.
    10030    2    1    2    0    0  0.00000000000E+00  0.00000000000E+00 -0.56211039948E+03  0.32223182343E+04  0.31729113921E+04 0.  0.
        2    1    3    3  502    0 -0.11534687291E+04  0.73356516345E+03  0.53661146659E+03  0.14685230077E+04  0.25500000920E-02 0. -1.
       -2    1    3    3    0  502  0.11534687291E+04 -0.73356516345E+03 -0.10987218661E+04  0.17537952266E+04  0.25500000920E-02 0.  1.
</event>
<event>
 5   0  0.5328368E-06  0.3146440E+04  0.7818609E-02  0.8203107E-01
       -2   -1    0    0    0  501  0.00000000000E+00  0.00000000000E+00  0.10190502315E+04  0.10190502315E+04  0.25500000920E-02 0. -1.
        2   -1    0    0  501    0  0.00000000000E+00  0.00000000000E+00 -0.24287524086E+04  0.24287524086E+04  0.25500000920E-02 0.  1.
    10030    2    1    2    0    0  0.00000000000E+00  0.00000000000E+00 -0.14097021771E+04  0.34478026401E+04  0.31464397050E+04 0.  0.
        1    1    3    3  502    0 -0.14730891795E+04 -0.35434478607E+03 -0.11690641952E+04  0.19137040134E+04  0.50400001928E-02 0.  1.
       -1    1    3    3    0  502  0.14730891795E+04  0.35434478607E+03 -0.24063798189E+03  0.15340986268E+04  0.50400001928E-02 0. -1.
</event>
<event>
 5   0  0.1853742E-06  0.3199370E+04  0.7818609E-02  0.8188984E-01
        1   -1    0    0  501    0  0.00000000000E+00  0.00000000000E+00  0.15381666070E+04  0.15381666070E+04  0.50400001928E-02 0. -1.
       -1   -1    0    0    0  501  0.00000000000E+00  0.00000000000E+00 -0.16636633414E+04  0.16636633414E+04  0.50400001928E-02 0.  1.
    10030    2    1    2    0    0  0.00000000000E+00  0.00000000000E+00 -0.12549673440E+03  0.32018299485E+04  0.31993695611E+04 0.  0.
        5    1    3    3  502    0  0.11812604381E+04  0.12865262209E+02  0.10167041152E+04  0.15586054938E+04  0.46999998093E+01 0. -1.
       -5    1    3    3    0  502 -0.11812604381E+04 -0.12865262209E+02 -0.11422008496E+04  0.16432244546E+04  0.46999998093E+01 0.  1.
</event>
<event>
 5   0  0.1836401E-06  0.3037117E+04  0.7818609E-02  0.8233211E-01
        1   -1    0    0  501    0  0.00000000000E+00  0.00000000000E+00  0.15706006148E+04  0.15706006148E+04  0.50400001928E-02 0.  1.
       -1   -1    0    0    0  501  0.00000000000E+00  0.00000000000E+00 -0.14682408074E+04  0.14682408074E+04  0.50400001928E-02 0. -1.
    10030    2    1    2    0    0  0.00000000000E+00  0.00000000000E+00  0.10235980747E+03  0.30388414222E+04  0.30371169979E+04 0.  0.
        2    1    3    3  502    0  0.29427779530E+03  0.29342632484E+03 -0.14102388255E+04  0.14701945361E+04  0.25500000920E-02 0. -1.
       -2    1    3    3    0  502 -0.29427779530E+03 -0.29342632484E+03  0.15125986330E+04  0.15686468861E+04  0.25500000920E-02 0.  1.
</event>
<event>
 5   0  0.1840431E-06  0.2991806E+04  0.7818609E-02  0.8246075E-01
       -1   -1    0    0    0  501  0.00000000000E+00  0.00000000000E+00  0.14443586620E+04  0.14443586620E+04  0.50400001928E-02 0.  1.
        1   -1    0    0  501    0  0.00000000000E+00  0.00000000000E+00 -0.15492866324E+04  0.15492866324E+04  0.50400001928E-02 0. -1.
    10030    2    1    2    0    0  0.00000000000E+00  0.00000000000E+00 -0.10492797041E+03  0.29936452944E+04  0.29918058543E+04 0.  0.
        1    1    3    3  502    0  0.15919661655E+03 -0.54853755639E+03  0.13309519835E+04  0.14483335927E+04  0.50400001928E-02 0.  1.
       -1    1    3    3    0  502 -0.15919661655E+03  0.54853755639E+03 -0.14358799539E+04  0.15453117017E+04  0.50400001928E-02 0. -1.
</event>
<event>
 5   0  0.4927533E-06  0.3054020E+04  0.7818609E-02  0.8228471E-01
       -2   -1    0    0    0  501  0.00000000000E+00  0.00000000000E+00  0.18828782967E+04  0.18828782967E+04  0.25500000920E-02 0. -1.
        2   -1    0    0  501    0  0.00000000000E+00  0.00000000000E+00 -0.12384012580E+04  0.12384012580E+04  0.25500000920E-02 0.  1.
    10030    2    1    2    0    0  0.00000000000E+00  0.00000000000E+00  0.64447703864E+03  0.31212795547E+04  0.30540195489E+04 0.  0.
        5    1    3    3  502    0 -0.31465602377E+03  0.11306550441E+04 -0.67618345169E+03  0.13544871326E+04  0.46999998093E+01 0.  1.
       -5    1    3    3    0  502  0.31465602377E+03 -0.11306550441E+04  0.13206604903E+04  0.17667924221E+04  0.46999998093E+01 0. -1.
</event>
<event>
 5   0  0.4927533E-06  0.3148694E+04  0.7818609E-02  0.8202500E-01
       -2   -1    0    0    0  501  0.00000000000E+00  0.00000000000E+00  0.14368017188E+04  0.14368017188E+04  0.25500000920E-02 0.  1.
        2   -1    0    0  501    0  0.00000000000E+00  0.00000000000E+00 -0.17250597295E+04  0.17250597295E+04  0.25500000920E-02 0. -1.
    10030    2    1    2    0    0  0.00000000000E+00  0.00000000000E+00 -0.28825801066E+03  0.31618614483E+04  0.31486941957E+04 0.  0.
        5    1    3    3  502    0  0.97504147259E+03  0.25961036859E+03  0.10694126795E+04  0.14702955437E+04  0.46999998093E+01 0.  1.
       -5    1    3    3    0  502 -0.97504147259E+03 -0.25961036859E+03 -0.13576706902E+04  0.16915659046E+04  0.46999998093E+01 0. -1.
</event>
<event>
 5   0  0.4900679E-06  0.3105470E+04  0.7818609E-02  0.8214238E-01
       -2   -1    0    0    0  501  0.00000000000E+00  0.00000000000E+00  0.17366016223E+04  0.17366016223E+04  0.25500000920E-02 0.  1.
        2   -1    0    0  501    0  0.00000000000E+00  0.00000000000E+00 -0.13883357493E+04  0.13883357493E+04  0.25500000920E-02 0. -1.
    10030    2    1    2    0    0  0.00000000000E+00  0.00000000000E+00  0.34826587297E+03  0.31249373717E+04  0.31054700866E+04 0.  0.
        4    1    3    3  502    0 -0.19786126143E+03  0.40678728518E+03 -0.13205604359E+04  0.13958891259E+04  0.12699999809E+01 0. -1.
       -4    1    3    3    0  502  0.19786126143E+03 -0.40678728518E+03  0.16688263088E+04  0.17290482457E+04  0.12699999809E+01 0.  1.
</event>
<event>
 5   0  0.1853742E-06  0.3118779E+04  0.7818609E-02  0.8210603E-01
        1   -1    0    0  501    0  0.00000000000E+00  0.00000000000E+00  0.15422434857E+04  0.15422434858E+04  0.50400001928E-02 0. -1.
       -1   -1    0    0    0  501  0.00000000000E+00  0.00000000000E+00 -0.15767258192E+04  0.15767258192E+04  0.50400001928E-02 0.  1.
    10030    2    1    2    0    0  0.00000000000E+00  0.00000000000E+00 -0.34482333478E+02  0.31189693050E+04  0.31187786863E+04 0.  0.
        5    1    3    3  502    0  0.36898189142E+03  0.50913949372E+03 -0.14443190543E+04  0.15752619721E+04  0.46999998093E+01 0.  1.
       -5    1    3    3    0  502 -0.36898189142E+03 -0.50913949372E+03  0.14098367208E+04  0.15437073329E+04  0.46999998093E+01 0. -1.
</event>
<event>
 5   0  0.5114870E-06  0.3083289E+04  0.7818609E-02  0.8220339E-01
        2   -1    0    0  501    0  0.00000000000E+00  0.00000000000E+00  0.11720770390E+04  0.11720770390E+04  0.25500000920E-02 0.  1.
       -2   -1    0    0    0  501  0.00000000000E+00  0.00000000000E+00 -0.20277399146E+04  0.20277399146E+04  0.25500000920E-02 0. -1.
    10030    2    1    2    0    0  0.00000000000E+00  0.00000000000E+00 -0.85566287552E+03  0.31998169536E+04  0.30832887604E+04 0.  0.
        2    1    3    3  502    0  0.13221207434E+04  0.32588059271E+03 -0.11779673221E+04  0.18005022723E+04  0.25500000920E-02 0. -1.
       -2    1    3    3    0  502 -0.13221207434E+04 -0.32588059271E+03  0.32230444655E+03  0.13993146812E+04  0.25500000920E-02 0.  1.
</event>
<event>
 5   0  0.1836401E-06  0.3158376E+04  0.7818609E-02  0.8199897E-01
       -1   -1    0    0    0  501  0.00000000000E+00  0.00000000000E+00  0.17701221697E+04  0.17701221697E+04  0.50400001928E-02 0.  1.
        1   -1    0    0  501    0  0.00000000000E+00  0.00000000000E+00 -0.14088490887E+04  0.14088490887E+04  0.50400001928E-02 0. -1.
    10030    2    1    2    0    0  0.00000000000E+00  0.00000000000E+00  0.36127308097E+03  0.31789712584E+04  0.31583761687E+04 0.  0.
        2    1    3    3  502    0 -0.10220281213E+03 -0.12962070761E+04  0.10827154887E+04  0.16920020770E+04  0.25500000920E-02 0.  1.
       -2    1    3    3    0  502  0.10220281213E+03  0.12962070761E+04 -0.72144240776E+03  0.14869691815E+04  0.25500000920E-02 0. -1.
</event>
<event>
 5   0  0.5114870E-06  0.3116720E+04  0.7818609E-02  0.8211164E-01
       -2   -1    0    0    0  501  0.00000000000E+00  0.00000000000E+00  0.16291021963E+04  0.16291021963E+04  0.25500000920E-02 0. -1.
        2   -1    0    0  501    0  0.00000000000E+00  0.00000000000E+00 -0.14906897707E+04  0.14906897707E+04  0.25500000920E-02 0.  1.
    10030    2    1    2    0    0  0.00000000000E+00  0.00000000000E+00  0.13841242563E+03  0.31197919670E+04  0.31167200576E+04 0.  0.
        2    1    3    3  502    0 -0.57197264400E+02  0.12264374848E+04 -0.89146130966E+03  0.15172750897E+04  0.25500000920E-02 0.  1.
       -2    1    3    3    0  502  0.57197264400E+02 -0.12264374848E+04  0.10298737353E+04  0.16025168773E+04  0.25500000920E-02 0. -1.
</event>
<event>
 5   0  0.1853742E-06  0.3080213E+04  0.7818609E-02  0.8221189E-01
        1   -1    0    0  501    0  0.00000000000E+00  0.00000000000E+00  0.95255384174E+03  0.95255384175E+03  0.50400001928E-02 0. -1.
       -1   -1    0    0    0  501  0.00000000000E+00  0.00000000000E+00 -0.24900722668E+04  0.24900722668E+04  0.50400001928E-02 0.  1.
    10030    2    1    2    0    0  0.00000000000E+00  0.00000000000E+00 -0.15375184251E+04  0.34426261086E+04  0.30802129173E+04 0.  0.
        5    1    3    3  502    0  0.27646653146E+01 -0.16899223131E+03  0.94214917082E+03  0.95720069353E+03  0.46999998093E+01 0. -1.
       -5    1    3    3    0  502 -0.27646653146E+01  0.16899223131E+03 -0.24796675959E+04  0.24854254150E+04  0.46999998093E+01 0.  1.
</event>
<event>
 5   0  0.4900679E-06  0.3090261E+04  0.7818609E-02  0.8218416E-01
        2   -1    0    0  501    0  0.00000000000E+00  0.00000000000E+00  0.15490896094E+04  0.15490896094E+04  0.25500000920E-02 0.  1.
       -2   -1    0    0    0  501  0.00000000000E+00  0.00000000000E+00 -0.15411819544E+04  0.15411819544E+04  0.25500000920E-02 0. -1.
    10030    2    1    2    0    0  0.00000000000E+00  0.00000000000E+00  0.79076550529E+01  0.30902715638E+04  0.30902614464E+04 0.  0.
        4    1    3    3  502    0  0.99636807406E+03 -0.21614476370E+03  0.11649741836E+04  0.15481067015E+04  0.12699999809E+01 0.  1.
       -4    1    3    3    0  502 -0.99636807406E+03  0.21614476370E+03 -0.11570665286E+04  0.15421648623E+04  0.12699999809E+01 0. -1.
</event>
<event>
 5   0  0.1840431E-06  0.3084361E+04  0.7818609E-02  0.8220043E-01
       -1   -1    0    0    0  501  0.00000000000E+00  0.00000000000E+00  0.17046988400E+04  0.17046988400E+04  0.50400001928E-02 0. -1.
        1   -1    0    0  501    0  0.00000000000E+00  0.00000000000E+00 -0.13951555273E+04  0.13951555273E+04  0.50400001928E-02 0.  1.
    10030    2    1    2    0    0  0.00000000000E+00  0.00000000000E+00  0.30954331270E+03  0.30998543673E+04  0.30843605555E+04 0.  0.
        1    1    3    3  502    0 -0.39995350029E+03  0.10145367663E+04  0.12506952880E+04  0.16593632382E+04  0.50400001928E-02 0. -1.
       -1    1    3    3    0  502  0.39995350029E+03 -0.10145367663E+04 -0.94115197533E+03  0.14404911292E+04  0.50400001928E-02 0.  1.
</event>
<event>
 5   0  0.1853742E-06  0.3096765E+04  0.7818609E-02  0.8216626E-01
       -1   -1    0    0    0  501  0.00000000000E+00  0.00000000000E+00  0.13520225172E+04  0.13520225172E+04  0.50400001928E-02 0. -1.
        1   -1    0    0  501    0  0.00000000000E+00  0.00000000000E+00 -0.17732608638E+04  0.17732608638E+04  0.50400001928E-02 0.  1.
    10030    2    1    2    0    0  0.00000000000E+00  0.00000000000E+00 -0.42123834665E+03  0.31252833810E+04  0.30967651618E+04 0.  0.
        5    1    3    3  502    0  0.38657072888E+03  0.14518023143E+04 -0.58863449757E+03  0.16135921263E+04  0.46999998093E+01 0.  1.
       -5    1    3    3    0  502 -0.38657072888E+03 -0.14518023143E+04  0.16739615092E+03  0.15116912547E+04  0.46999998093E+01 0. -1.
</event>
<event>
 5   0  0.1840431E-06  0.3120333E+04  0.7818609E-02  0.8210180E-01
        1   -1    0    0  501    0  0.00000000000E+00  0.00000000000E+00  0.19527256994E+04  0.19527256994E+04  0.50400001928E-02 0. -1.
       -1   -1    0    0    0  501  0.00000000000E+00  0.00000000000E+00 -0.12465237216E+04  0.12465237216E+04  0.50400001928E-02 0.  1.
    10030    2    1    2    0    0  0.00000000000E+00  0.00000000000E+00  0.70620197784E+03  0.31992494210E+04  0.31203326144E+04 0.  0.
        1    1    3    3  502    0 -0.15512413510E+03  0.11356702966E+04  0.14383165262E+04  0.18391750731E+04  0.50400001928E-02 0. -1.
       -1    1    3    3    0  502  0.15512413510E+03 -0.11356702966E+04 -0.73211454835E+03  0.13600743479E+04  0.50400001928E-02 0.  1.
</event>
<event>
 5   0  0.5114870E-06  0.3082844E+04  0.7818609E-02  0.8220462E-01
        2   -1    0    0  501    0  0.00000000000E+00  0.00000000000E+00  0.27914121328E+04  0.27914121328E+04  0.25500000920E-02 0. -1.
       -2   -1    0    0    0  501  0.00000000000E+00  0.00000000000E+00 -0.85117550404E+03  0.85117550404E+03  0.25500000920E-02 0.  1.
    10030    2    1    2    0    0  0.00000000000E+00  0.00000000000E+00  0.19402366288E+04  0.36425876368E+04  0.30828439008E+04 0.  0.
        2    1    3    3  502    0 -0.24700153766E+03 -0.16985380653E+03  0.27566393471E+04  0.27728902908E+04  0.25500000920E-02 0. -1.
       -2    1    3    3    0  502  0.24700153766E+03  0.16985380653E+03 -0.81640271830E+03  0.86969734601E+03  0.25500000920E-02 0.  1.
</event>
<event>
 5   0  0.5001658E-06  0.3315753E+04  0.7818609E-02  0.8158899E-01
       -2   -1    0    0    0  501  0.00000000000E+00  0.00000000000E+00  0.22843023464E+04  0.22843023464E+04  0.25500000920E-02 0. -1.
        2   -1    0    0  501    0  0.00000000000E+00  0.00000000000E+00 -0.12032358750E+04  0.12032358750E+04  0.25500000920E-02 0.  1.
    10030    2    1    2    0    0  0.00000000000E+00  0.00000000000E+00  0.10810664714E+04  0.34875382215E+04  0.33157530262E+04 0.  0.
        3    1    3    3  502    0 -0.11773480224E+04  0.79721436189E+02  0.17653602509E+04  0.21234407689E+04  0.10100000352E+00 0. -1.
       -3    1    3    3    0  502  0.11773480224E+04 -0.79721436189E+02 -0.68429377953E+03  0.13640974526E+04  0.10100000352E+00 0.  1.
</event>
<event>
 5   0  0.1853742E-06  0.3172240E+04  0.7818609E-02  0.8196187E-01
       -1   -1    0    0    0  501  0.00000000000E+00  0.00000000000E+00  0.14579688785E+04  0.14579688785E+04  0.50400001928E-02 0.  1.
        1   -1    0    0  501    0  0.00000000000E+00  0.00000000000E+00 -0.17255354870E+04  0.17255354870E+04  0.50400001928E-02 0. -1.
    10030    2    1    2    0    0  0.00000000000E+00  0.00000000000E+00 -0.26756660850E+03  0.31835043655E+04  0.31722402423E+04 0.  0.
        5    1    3    3  502    0  0.44188261684E+03  0.71751395091E+03  0.12147397710E+04  0.14784117552E+04  0.46999998093E+01 0.  1.
       -5    1    3    3    0  502 -0.44188261684E+03 -0.71751395091E+03 -0.14823063795E+04  0.17050926102E+04  0.46999998093E+01 0. -1.
</event>
<event>
 5   0  0.4927533E-06  0.3075183E+04  0.7818609E-02  0.8222582E-01
       -2   -1    0    0    0  501  0.00000000000E+00  0.00000000000E+00  0.14647561103E+04  0.14647561103E+04  0.25500000920E-02 0. -1.
        2   -1    0    0  501    0  0.00000000000E+00  0.00000000000E+00 -0.16140482372E+04  0.16140482372E+04  0.25500000920E-02 0.  1.
    10030    2    1    2    0    0  0.00000000000E+00  0.00000000000E+00 -0.14929212692E+03  0.30788043475E+04  0.30751826078E+04 0.  0.
        5    1    3    3  502    0  0.44636375287E+03 -0.14249430979E+04 -0.44176784325E+03  0.15572040167E+04  0.46999998093E+01 0.  1.
       -5    1    3    3    0  502 -0.44636375287E+03  0.14249430979E+04  0.29247571633E+03  0.15216003309E+04  0.46999998093E+01 0. -1.
</event>
<event>
 5   0  0.4927533E-06  0.3063370E+04  0.7818609E-02  0.8225863E-01
        2   -1    0    0  501    0  0.00000000000E+00  0.00000000000E+00  0.20549789820E+04  0.20549789820E+04  0.25500000920E-02 0.  1.
       -2   -1    0    0    0  501  0.00000000000E+00  0.00000000000E+00 -0.11416458396E+04  0.11416458396E+04  0.25500000920E-02 0. -1.
    10030    2    1    2    0    0  0.00000000000E+00  0.00000000000E+00  0.91333314240E+03  0.31966248215E+04  0.30633695207E+04 0.  0.
        5    1    3    3  502    0  0.14063187827E+04 -0.33493170494E+02  0.10889806564E+04  0.17789759051E+04  0.46999998093E+01 0.  1.
       -5    1    3    3    0  502 -0.14063187827E+04  0.33493170494E+02 -0.17564751404E+03  0.14176489164E+04  0.46999998093E+01 0. -1.
</event>
<event>
 5   0  0.4927533E-06  0.2929149E+04  0.7818609E-02  0.8264257E-01
       -2   -1    0    0    0  501  0.00000000000E+00  0.00000000000E+00  0.11331501717E+04  0.11331501717E+04  0.25500000920E-02 0.  1.
        2   -1    0    0  501    0  0.00000000000E+00  0.00000000000E+00 -0.18929345468E+04  0.18929345468E+04  0.25500000920E-02 0. -1.
    10030    2    1    2    0    0  0.00000000000E+00  0.00000000000E+00 -0.75978437511E+03  0.30260847186E+04  0.29291494375E+04 0.  0.
        5    1    3    3  502    0 -0.99882273812E+03  0.30809640385E+03 -0.14397003048E+04  0.17791372386E+04  0.46999998093E+01 0. -1.
       -5    1    3    3    0  502  0.99882273812E+03 -0.30809640385E+03  0.67991592971E+03  0.12469474799E+04  0.46999998093E+01 0.  1.
</event>
<event>
 5   0  0.1840431E-06  0.3111319E+04  0.7818609E-02  0.8212638E-01
       -1   -1    0    0    0  501  0.00000000000E+00  0.00000000000E+00  0.10727983260E+04  0.10727983260E+04  0.50400001928E-02 0.  1.
        1   -1    0    0  501    0  0.00000000000E+00  0.00000000000E+00 -0.22558546682E+04  0.22558546682E+04  0.50400001928E-02 0. -1.
    10030    2    1    2    0    0  0.00000000000E+00  0.00000000000E+00 -0.11830563422E+04  0.33286529941E+04  0.31113194061E+04 0.  0.
        1    1    3    3  502    0  0.47041193014E+03 -0.61766233921E+03 -0.20337604216E+04  0.21769188321E+04  0.50400001928E-02 0. -1.
       -1    1    3    3    0  502 -0.47041193014E+03  0.61766233921E+03  0.85070407936E+03  0.11517341620E+04  0.50400001928E-02 0.  1.
</event>
<event>
 5   0  0.4900679E-06  0.2546510E+04  0.7818609E-02  0.8386601E-01
       -2   -1    0    0    0  501  0.00000000000E+00  0.00000000000E+00  0.86135242561E+03  0.86135242562E+03  0.25500000920E-02 0. -1.
        2   -1    0    0  501    0  0.00000000000E+00  0.00000000000E+00 -0.18821315922E+04  0.18821315922E+04  0.25500000920E-02 0.  1.
    10030    2    1    2    0    0  0.00000000000E+00  0.00000000000E+00 -0.10207791665E+04  0.27434840178E+04  0.25465102491E+04 0.  0.
        4    1    3    3  502    0  0.99260995557E+01  0.20314694990E+03 -0.18645166104E+04  0.18755775148E+04  0.12699999809E+01 0.  1.
       -4    1    3    3    0  502 -0.99260995557E+01 -0.20314694990E+03  0.84373744389E+03  0.86790650293E+03  0.12699999809E+01 0. -1.
</event>
<event>
 5   0  0.1840431E-06  0.3050392E+04  0.7818609E-02  0.8229486E-01
       -1   -1    0    0    0  501  0.00000000000E+00  0.00000000000E+00  0.30869524175E+04  0.30869524175E+04  0.50400001928E-02 0.  1.
        1   -1    0    0  501    0  0.00000000000E+00  0.00000000000E+00 -0.75356619284E+03  0.75356619286E+03  0.50400001928E-02 0. -1.
    10030    2    1    2    0    0  0.00000000000E+00  0.00000000000E+00  0.23333862247E+04  0.38405186104E+04  0.30503920933E+04 0.  0.
        1    1    3    3  502    0  0.76285622571E+03 -0.79204037958E+03  0.24973012609E+04  0.27286977061E+04  0.50400001928E-02 0.  1.
       -1    1    3    3    0  502 -0.76285622571E+03  0.79204037958E+03 -0.16391503617E+03  0.11118209042E+04  0.50400001928E-02 0. -1.
</event>
<event>
 5   0  0.1885307E-06  0.3051686E+04  0.7818609E-02  0.8229124E-01
        1   -1    0    0  501    0  0.00000000000E+00  0.00000000000E+00  0.18709571483E+04  0.18709571483E+04  0.50400001928E-02 0. -1.
       -1   -1    0    0    0  501  0.00000000000E+00  0.00000000000E+00 -0.12443881739E+04  0.12443881739E+04  0.50400001928E-02 0.  1.
    10030    2    1    2    0    0  0.00000000000E+00  0.00000000000E+00  0.62656897437E+03  0.31153453222E+04  0.30516860580E+04 0.  0.
        3    1    3    3  502    0  0.10077546165E+04  0.72822214739E+01  0.14828601641E+04  0.17929017470E+04  0.10100000352E+00 0. -1.
       -3    1    3    3    0  502 -0.10077546165E+04 -0.72822214739E+01 -0.85629118969E+03  0.13224435752E+04  0.10100000352E+00 0.  1.
</event>
<event>
 5   0  0.1843709E-06  0.3107345E+04  0.7818609E-02  0.8213725E-01
       -1   -1    0    0    0  501  0.00000000000E+00  0.00000000000E+00  0.20354967591E+04  0.20354967591E+04  0.50400001928E-02 0.  1.
        1   -1    0    0  501    0  0.00000000000E+00  0.00000000000E+00 -0.11859016314E+04  0.11859016314E+04  0.50400001928E-02 0. -1.
    10030    2    1    2    0    0  0.00000000000E+00  0.00000000000E+00  0.84959512775E+03  0.32213983905E+04  0.31073454441E+04 0.  0.
        4    1    3    3  502    0  0.63766847908E+03  0.11314215878E+04  0.13088343034E+04  0.18438505213E+04  0.12699999809E+01 0.  1.
       -4    1    3    3    0  502 -0.63766847908E+03 -0.11314215878E+04 -0.45923917561E+03  0.13775478692E+04  0.12699999809E+01 0. -1.
</event>
<event>
 5   0  0.4900679E-06  0.3053546E+04  0.7818609E-02  0.8228604E-01
        2   -1    0    0  501    0  0.00000000000E+00  0.00000000000E+00  0.21078293980E+04  0.21078293980E+04  0.25500000920E-02 0.  1.
       -2   -1    0    0    0  501  0.00000000000E+00  0.00000000000E+00 -0.11058938033E+04  0.11058938033E+04  0.25500000920E-02 0. -1.
    10030    2    1    2    0    0  0.00000000000E+00  0.00000000000E+00  0.10019355948E+04  0.32137232013E+04  0.30535457879E+04 0.  0.
        4    1    3    3  502    0  0.10819377595E+04 -0.46395512956E+03  0.15241751018E+04  0.19258647490E+04  0.12699999809E+01 0.  1.
       -4    1    3    3    0  502 -0.10819377595E+04  0.46395512956E+03 -0.52223950705E+03  0.12878584523E+04  0.12699999809E+01 0. -1.
</event>
<event>
 5   0  0.1843709E-06  0.3081820E+04  0.7818609E-02  0.8220745E-01
        1   -1    0    0  501    0  0.00000000000E+00  0.00000000000E+00  0.25102654425E+04  0.25102654425E+04  0.50400001928E-02 0.  1.
       -1   -1    0    0    0  501  0.00000000000E+00  0.00000000000E+00 -0.94587768864E+03  0.94587768865E+03  0.50400001928E-02 0. -1.
    10030    2    1    2    0    0  0.00000000000E+00  0.00000000000E+00  0.15643877539E+04  0.34561431312E+04  0.30818202898E+04 0.  0.
        4    1    3    3  502    0  0.80202195188E+03  0.44463868293E+03 -0.60654499568E+03  0.10994731531E+04  0.12699999809E+01 0. -1.
       -4    1    3    3    0  502 -0.80202195188E+03 -0.44463868293E+03  0.21709327496E+04  0.23566699781E+04  0.12699999809E+01 0.  1.
</event>
<event>
 5   0  0.1885307E-06  0.3189792E+04  0.7818609E-02  0.8191518E-01
        1   -1    0    0  501    0  0.00000000000E+00  0.00000000000E+00  0.16808775416E+04  0.16808775416E+04  0.50400001928E-02 0. -1.
       -1   -1    0    0    0  501  0.00000000000E+00  0.00000000000E+00 -0.15133128849E+04  0.15133128849E+04  0.50400001928E-02 0.  1.
    10030    2    1    2    0    0  0.00000000000E+00  0.00000000000E+00  0.16756465672E+03  0.31941904266E+04  0.31897922451E+04 0.  0.
        3    1    3    3  502    0 -0.83977908808E+03 -0.57010698695E+03  0.13156991990E+04  0.16617205800E+04  0.10100000352E+00 0. -1.
       -3    1    3    3    0  502  0.83977908808E+03  0.57010698695E+03 -0.11481345423E+04  0.15324698466E+04  0.10100000352E+00 0.  1.
</event>
<event>
 5   0  0.5328368E-06  0.3096605E+04  0.7818609E-02  0.8216670E-01
       -2   -1    0    0    0  501  0.00000000000E+00  0.00000000000E+00  0.86065930107E+03  0.86065930107E+03  0.25500000920E-02 0. -1.
        2   -1    0    0  501    0  0.00000000000E+00  0.00000000000E+00 -0.27853531237E+04  0.27853531237E+04  0.25500000920E-02 0.  1.
    10030    2    1    2    0    0  0.00000000000E+00  0.00000000000E+00 -0.19246938227E+04  0.36460124248E+04  0.30966046391E+04 0.  0.
        1    1    3    3  502    0 -0.21891009850E+03  0.58036614848E+03 -0.26326667353E+04  0.27047514926E+04  0.50400001928E-02 0.  1.
       -1    1    3    3    0  502  0.21891009850E+03 -0.58036614848E+03  0.70797291261E+03  0.94126093223E+03  0.50400001928E-02 0. -1.
</event>
<event>
 5   0  0.4927533E-06  0.2547391E+04  0.7818609E-02  0.8386294E-01
        2   -1    0    0  501    0  0.00000000000E+00  0.00000000000E+00  0.25456923465E+04  0.25456923465E+04  0.25500000920E-02 0.  1.
       -2   -1    0    0    0  501  0.00000000000E+00  0.00000000000E+00 -0.63727259064E+03  0.63727259065E+03  0.25500000920E-02 0. -1.
    10030    2    1    2    0    0  0.00000000000E+00  0.00000000000E+00  0.19084197559E+04  0.31829649372E+04  0.25473907880E+04 0.  0.
        5    1    3    3  502    0  0.24846011526E+02  0.40536999793E+03  0.24626083492E+04  0.24958774271E+04  0.46999998093E+01 0.  1.
       -5    1    3    3    0  502 -0.24846011526E+02 -0.40536999793E+03 -0.55418859334E+03  0.68708751007E+03  0.46999998093E+01 0. -1.
</event>
<event>
 5   0  0.1843709E-06  0.3082538E+04  0.7818609E-02  0.8220547E-01
        1   -1    0    0  501    0  0.00000000000E+00  0.00000000000E+00  0.17608053916E+04  0.17608053917E+04  0.50400001928E-02 0.  1.
       -1   -1    0    0    0  501  0.00000000000E+00  0.00000000000E+00 -0.13491044069E+04  0.13491044069E+04  0.50400001928E-02 0. -1.
    10030    2    1    2    0    0  0.00000000000E+00  0.00000000000E+00  0.41170098479E+03  0.31099097985E+04  0.30825381188E+04 0.  0.
        4    1    3    3  502    0 -0.13779504533E+04  0.64112027737E+03 -0.52796877551E+02  0.15207142351E+04  0.12699999809E+01 0.  1.
       -4    1    3    3    0  502  0.13779504533E+04 -0.64112027737E+03  0.46449786234E+03  0.15891955634E+04  0.12699999809E+01 0. -1.
</event>
<event>
 5   0  0.4900679E-06  0.3145598E+04  0.7818609E-02  0.8203334E-01
       -2   -1    0    0    0  501  0.00000000000E+00  0.00000000000E+00  0.92658828656E+03  0.92658828656E+03  0.25500000920E-02 0.  1.
        2   -1    0    0  501    0  0.00000000000E+00  0.00000000000E+00 -0.26696834546E+04  0.26696834546E+04  0.25500000920E-02 0. -1.
    10030    2    1    2    0    0  0.00000000000E+00  0.00000000000E+00 -0.17430951680E+04  0.35962717412E+04  0.31455984600E+04 0.  0.
        4    1    3    3  502    0  0.51322772675E+03 -0.15545723535E+03 -0.25619372414E+04  0.26174593967E+04  0.12699999809E+01 0. -1.
       -4    1    3    3    0  502 -0.51322772675E+03  0.15545723535E+03  0.81884207341E+03  0.97881234443E+03  0.12699999809E+01 0.  1.
</event>
<event>
 5   0  0.5114870E-06  0.3092766E+04  0.7818609E-02  0.8217726E-01
       -2   -1    0    0    0  501  0.00000000000E+00  0.00000000000E+00  0.10765230775E+04  0.10765230775E+04  0.25500000920E-02 0. -1.
        2   -1    0    0  501    0  0.00000000000E+00  0.00000000000E+00 -0.22213179648E+04  0.22213179648E+04  0.25500000920E-02 0.  1.
    10030    2    1    2    0    0  0.00000000000E+00  0.00000000000E+00 -0.11447948873E+04  0.32978410423E+04  0.30927657859E+04 0.  0.
        2    1    3    3  502    0 -0.17707486304E+03  0.13818912245E+04 -0.12879538545E+04  0.18973149435E+04  0.25500000920E-02 0.  1.
       -2    1    3    3    0  502  0.17707486304E+03 -0.13818912245E+04  0.14315896720E+03  0.14005260988E+04  0.25500000920E-02 0. -1.
</event>
<event>
 5   0  0.1840431E-06  0.2714465E+04  0.7818609E-02  0.8330327E-01
       -1   -1    0    0    0  501  0.00000000000E+00  0.00000000000E+00  0.13193412691E+04  0.13193412691E+04  0.50400001928E-02 0. -1.
        1   -1    0    0  501    0  0.00000000000E+00  0.00000000000E+00 -0.13962121877E+04  0.13962121877E+04  0.50400001928E-02 0.  1.
    10030    2    1    2    0    0  0.00000000000E+00  0.00000000000E+00 -0.76870918621E+02  0.27155534568E+04  0.27144652215E+04 0.  0.
        1    1    3    3  502    0 -0.51980304506E+03  0.45165472518E+03  0.11316030726E+04  0.13246556950E+04  0.50400001928E-02 0. -1.
       -1    1    3    3    0  502  0.51980304506E+03 -0.45165472518E+03 -0.12084739912E+04  0.13908977618E+04  0.50400001928E-02 0.  1.
</event>
<event>
 5   0  0.5114870E-06  0.3124111E+04  0.7818609E-02  0.8209152E-01
       -2   -1    0    0    0  501  0.00000000000E+00  0.00000000000E+00  0.93103028393E+03  0.93103028393E+03  0.25500000920E-02 0.  1.
        2   -1    0    0  501    0  0.00000000000E+00  0.00000000000E+00 -0.26207707301E+04  0.26207707301E+04  0.25500000920E-02 0. -1.
    10030    2    1    2    0    0  0.00000000000E+00  0.00000000000E+00 -0.16897404462E+04  0.35518010141E+04  0.31241107003E+04 0.  0.
        2    1    3    3  502    0  0.27579377480E+03 -0.78320221696E+03 -0.23490832593E+04  0.24915176255E+04  0.25500000920E-02 0. -1.
       -2    1    3    3    0  502 -0.27579377480E+03  0.78320221696E+03  0.65934281312E+03  0.10602833886E+04  0.25500000920E-02 0.  1.
</event>
<event>
 5   0  0.1836401E-06  0.3079338E+04  0.7818609E-02  0.8221431E-01
        1   -1    0    0  501    0  0.00000000000E+00  0.00000000000E+00  0.15911422261E+04  0.15911422261E+04  0.50400001928E-02 0.  1.
       -1   -1    0    0    0  501  0.00000000000E+00  0.00000000000E+00 -0.14898613015E+04  0.14898613015E+04  0.50400001928E-02 0. -1.
    10030    2    1    2    0    0  0.00000000000E+00  0.00000000000E+00  0.10128092460E+03  0.30810035277E+04  0.30793383886E+04 0.  0.
        2    1    3    3  502    0 -0.15214455978E+04  0.22201766037E+03  0.13126119832E+03  0.15431519856E+04  0.25500000920E-02 0.  1.
       -2    1    3    3    0  502  0.15214455978E+04 -0.22201766037E+03 -0.29980273723E+02  0.15378515420E+04  0.25500000920E-02 0. -1.
</event>
<event>
 5   0  0.1840431E-06  0.3104086E+04  0.7818609E-02  0.8214617E-01
        1   -1    0    0  501    0  0.00000000000E+00  0.00000000000E+00  0.16422190976E+04  0.16422190976E+04  0.50400001928E-02 0. -1.
       -1   -1    0    0    0  501  0.00000000000E+00  0.00000000000E+00 -0.14668190002E+04  0.14668190002E+04  0.50400001928E-02 0.  1.
    10030    2    1    2    0    0  0.00000000000E+00  0.00000000000E+00  0.17540009747E+03  0.31090380978E+04  0.31040864517E+04 0.  0.
        1    1    3    3  502    0 -0.36721376949E+03 -0.10536183015E+04  0.11682540313E+04  0.16154797924E+04  0.50400001928E-02 0. -1.
       -1    1    3    3    0  502  0.36721376949E+03  0.10536183015E+04 -0.99285393384E+03  0.14935583054E+04  0.50400001928E-02 0.  1.
</event>
<event>
 5   0  0.5328368E-06  0.3075894E+04  0.7818609E-02  0.8222385E-01
       -2   -1    0    0    0  501  0.00000000000E+00  0.00000000000E+00  0.13307769023E+04  0.13307769023E+04  0.25500000920E-02 0.  1.
        2   -1    0    0  501    0  0.00000000000E+00  0.00000000000E+00 -0.17773684549E+04  0.17773684549E+04  0.25500000920E-02 0. -1.
    10030    2    1    2    0    0  0.00000000000E+00  0.00000000000E+00 -0.44659155259E+03  0.31081453571E+04  0.30758939426E+04 0.  0.
        1    1    3    3  502    0 -0.11205288727E+04  0.78000454958E+03  0.49214547937E+03  0.14512750342E+04  0.50400001928E-02 0.  1.
       -1    1    3    3    0  502  0.11205288727E+04 -0.78000454958E+03 -0.93873703196E+03  0.16568703230E+04  0.50400001928E-02 0. -1.
</event>
<event>
 5   0  0.5114870E-06  0.2481587E+04  0.7818609E-02  0.8409575E-01
        2   -1    0    0  501    0  0.00000000000E+00  0.00000000000E+00  0.24128296842E+04  0.24128296842E+04  0.25500000920E-02 0.  1.
       -2   -1    0    0    0  501  0.00000000000E+00  0.00000000000E+00 -0.63807582340E+03  0.63807582340E+03  0.25500000920E-02 0. -1.
    10030    2    1    2    0    0  0.00000000000E+00  0.00000000000E+00  0.17747538608E+04  0.30509055076E+04  0.24815868209E+04 0.  0.
        2    1    3    3  502    0  0.32260180833E+03 -0.35926093670E+03  0.22925894577E+04  0.23428842841E+04  0.25500000920E-02 0.  1.
       -2    1    3    3    0  502 -0.32260180833E+03  0.35926093670E+03 -0.51783559692E+03  0.70802122342E+03  0.25500000920E-02 0. -1.
</event>
<event>
 5   0  0.1840431E-06  0.3151203E+04  0.7818609E-02  0.8201825E-01
        1   -1    0    0  501    0  0.00000000000E+00  0.00000000000E+00  0.17244745042E+04  0.17244745042E+04  0.50400001928E-02 0.  1.
       -1   -1    0    0    0  501  0.00000000000E+00  0.00000000000E+00 -0.14395807081E+04  0.14395807081E+04  0.50400001928E-02 0. -1.
    10030    2    1    2    0    0  0.00000000000E+00  0.00000000000E+00  0.28489379617E+03  0.31640552123E+04  0.31512030895E+04 0.  0.
        1    1    3    3  502    0  0.54198932772E+02 -0.13432722615E+04  0.96750517874E+03  0.16563164443E+04  0.50400001928E-02 0.  1.
       -1    1    3    3    0  502 -0.54198932772E+02  0.13432722615E+04 -0.68261138257E+03  0.15077387680E+04  0.50400001928E-02 0. -1.
</event>
<event>
 5   0  0.1836401E-06  0.3065161E+04  0.7818609E-02  0.8225365E-01
        1   -1    0    0  501    0  0.00000000000E+00  0.00000000000E+00  0.24467074114E+04  0.24467074114E+04  0.50400001928E-02 0. -1.
       -1   -1    0    0    0  501  0.00000000000E+00  0.00000000000E+00 -0.95998493680E+03  0.95998493682E+03  0.50400001928E-02 0.  1.
    10030    2    1    2    0    0  0.00000000000E+00  0.00000000000E+00  0.14867224746E+04  0.34066923482E+04  0.30651605242E+04 0.  0.
        2    1    3    3  502    0 -0.31249047248E+03  0.66095989847E+02  0.24093047952E+04  0.24303844493E+04  0.25500000920E-02 0. -1.
       -2    1    3    3    0  502  0.31249047248E+03 -0.66095989847E+02 -0.92258232058E+03  0.97630789893E+03  0.25500000920E-02 0.  1.
</event>
<event>
 5   0  0.5328368E-06  0.3096267E+04  0.7818609E-02  0.8216763E-01
       -2   -1    0    0    0  501  0.00000000000E+00  0.00000000000E+00  0.13129135025E+04  0.13129135025E+04  0.25500000920E-02 0.  1.
        2   -1    0    0  501    0  0.00000000000E+00  0.00000000000E+00 -0.18254953916E+04  0.18254953916E+04  0.25500000920E-02 0. -1.
    10030    2    1    2    0    0  0.00000000000E+00  0.00000000000E+00 -0.51258188910E+03  0.31384088942E+04  0.30962671387E+04 0.  0.
        1    1    3    3  502    0 -0.79159664155E+03  0.33078762243E+03 -0.15625009766E+04  0.17825417235E+04  0.50400001928E-02 0. -1.
       -1    1    3    3    0  502  0.79159664155E+03 -0.33078762243E+03  0.10499190875E+04  0.13558671706E+04  0.50400001928E-02 0.  1.
</event>
<event>
 5   0  0.1836401E-06  0.3055009E+04  0.7818609E-02  0.8228195E-01
        1   -1    0    0  501    0  0.00000000000E+00  0.00000000000E+00  0.15140558241E+04  0.15140558241E+04  0.50400001928E-02 0. -1.
       -1   -1    0    0    0  501  0.00000000000E+00  0.00000000000E+00 -0.15410725908E+04  0.15410725908E+04  0.50400001928E-02 0.  1.
    10030    2    1    2    0    0  0.00000000000E+00  0.00000000000E+00 -0.27016766668E+02  0.30551284149E+04  0.30550089567E+04 0.  0.
        2    1    3    3  502    0  0.48086901233E+03  0.66352271183E+03 -0.13026563564E+04  0.15389642552E+04  0.25500000920E-02 0.  1.
       -2    1    3    3    0  502 -0.48086901233E+03 -0.66352271183E+03  0.12756395897E+04  0.15161641596E+04  0.25500000920E-02 0. -1.
</event>
<event>
 5   0  0.1885307E-06  0.3195412E+04  0.7818609E-02  0.8190030E-01
        1   -1    0    0  501    0  0.00000000000E+00  0.00000000000E+00  0.20172349816E+04  0.20172349816E+04  0.50400001928E-02 0.  1.
       -1   -1    0    0    0  501  0.00000000000E+00  0.00000000000E+00 -0.12654277592E+04  0.12654277592E+04  0.50400001928E-02 0. -1.
    10030    2    1    2    0    0  0.00000000000E+00  0.00000000000E+00  0.75180722246E+03  0.32826627408E+04  0.31954124257E+04 0.  0.
        3    1    3    3  502    0 -0.58305187228E+03 -0.15207776844E+02  0.19039602492E+04  0.19912923952E+04  0.10100000352E+00 0.  1.
       -3    1    3    3    0  502  0.58305187228E+03  0.15207776844E+02 -0.11521530268E+04  0.12913703456E+04  0.10100000352E+00 0. -1.
</event>
<event>
 5   0  0.4900679E-06  0.3062659E+04  0.7818609E-02  0.8226061E-01
       -2   -1    0    0    0  501  0.00000000000E+00  0.00000000000E+00  0.13888649455E+04  0.13888649455E+04  0.25500000920E-02 0. -1.
        2   -1    0    0  501    0  0.00000000000E+00  0.00000000000E+00 -0.16884079665E+04  0.16884079665E+04  0.25500000920E-02 0.  1.
    10030    2    1    2    0    0  0.00000000000E+00  0.00000000000E+00 -0.29954302100E+03  0.30772729121E+04  0.30626593924E+04 0.  0.
        4    1    3    3  502    0 -0.20644742521E+03 -0.17106026256E+03 -0.16646413903E+04  0.16860945182E+04  0.12699999809E+01 0.  1.
       -4    1    3    3    0  502  0.20644742521E+03  0.17106026256E+03  0.13650983694E+04  0.13911783939E+04  0.12699999809E+01 0. -1.
</event>
<event>
 5   0  0.4900679E-06  0.3110072E+04  0.7818609E-02  0.8212979E-01
       -2   -1    0    0    0  501  0.00000000000E+00  0.00000000000E+00  0.90481097011E+03  0.90481097011E+03  0.25500000920E-02 0. -1.
        2   -1    0    0  501    0  0.00000000000E+00  0.00000000000E+00 -0.26725327427E+04  0.26725327427E+04  0.25500000920E-02 0.  1.
    10030    2    1    2    0    0  0.00000000000E+00  0.00000000000E+00 -0.17677217726E+04  0.35773437128E+04  0.31100719886E+04 0.  0.
        4    1    3    3  502    0 -0.83169332508E+03 -0.11952165275E+04 -0.15116447787E+04  0.20988872967E+04  0.12699999809E+01 0.  1.
       -4    1    3    3    0  502  0.83169332508E+03  0.11952165275E+04 -0.25607699390E+03  0.14784564161E+04  0.12699999809E+01 0. -1.
</event>
<event>
 5   0  0.4900679E-06  0.2989798E+04  0.7818609E-02  0.8246650E-01
       -2   -1    0    0    0  501  0.00000000000E+00  0.00000000000E+00  0.17481371048E+04  0.17481371048E+04  0.25500000920E-02 0. -1.
        2   -1    0    0  501    0  0.00000000000E+00  0.00000000000E+00 -0.12783449809E+04  0.12783449809E+04  0.25500000920E-02 0.  1.
    10030    2    1    2    0    0  0.00000000000E+00  0.00000000000E+00  0.46979212382E+03  0.30264820857E+04  0.29897975141E+04 0.  0.
        4    1    3    3  502    0  0.52459005344E+03 -0.13938513395E+04  0.36572739658E+03  0.15335496152E+04  0.12699999809E+01 0. -1.
       -4    1    3    3    0  502 -0.52459005344E+03  0.13938513395E+04  0.10406472725E+03  0.14929324704E+04  0.12699999809E+01 0.  1.
</event>
<event>
 5   0  0.5001658E-06  0.2927191E+04  0.7818609E-02  0.8264833E-01
        2   -1    0    0  501    0  0.00000000000E+00  0.00000000000E+00  0.19004632083E+04  0.19004632083E+04  0.25500000920E-02 0. -1.
       -2   -1    0    0    0  501  0.00000000000E+00  0.00000000000E+00 -0.11271524017E+04  0.11271524017E+04  0.25500000920E-02 0.  1.
    10030    2    1    2    0    0  0.00000000000E+00  0.00000000000E+00  0.77331080661E+03  0.30276156100E+04  0.29271909193E+04 0.  0.
        3    1    3    3  502    0 -0.13146082413E+04  0.77507911664E+02 -0.27393387297E+03  0.13450806970E+04  0.10100000352E+00 0.  1.
       -3    1    3    3    0  502  0.13146082413E+04 -0.77507911664E+02  0.10472446796E+04  0.16825349130E+04  0.10100000352E+00 0. -1.
</event>
<event>
 5   0  0.1840431E-06  0.2758791E+04  0.7818609E-02  0.8316178E-01
        1   -1    0    0  501    0  0.00000000000E+00  0.00000000000E+00  0.26447984230E+04  0.26447984230E+04  0.50400001928E-02 0. -1.
       -1   -1    0    0    0  501  0.00000000000E+00  0.00000000000E+00 -0.71942413225E+03  0.71942413227E+03  0.50400001928E-02 0.  1.
    10030    2    1    2    0    0  0.00000000000E+00  0.00000000000E+00  0.19253742908E+04  0.33642225553E+04  0.27587909022E+04 0.  0.
        1    1    3    3  502    0 -0.42078577383E+03  0.41084165006E+03  0.24842627695E+04  0.25529224502E+04  0.50400001928E-02 0. -1.
       -1    1    3    3    0  502  0.42078577383E+03 -0.41084165006E+03 -0.55888847870E+03  0.81130010510E+03  0.50400001928E-02 0.  1.
</event>
<event>
 5   0  0.5114870E-06  0.3104711E+04  0.7818609E-02  0.8214446E-01
       -2   -1    0    0    0  501  0.00000000000E+00  0.00000000000E+00  0.14190546262E+04  0.14190546262E+04  0.25500000920E-02 0.  1.
        2   -1    0    0  501    0  0.00000000000E+00  0.00000000000E+00 -0.16981777175E+04  0.16981777175E+04  0.25500000920E-02 0. -1.
    10030    2    1    2    0    0  0.00000000000E+00  0.00000000000E+00 -0.27912309133E+03  0.31172323437E+04  0.31047105798E+04 0.  0.
        2    1    3    3  502    0  0.49064514345E+03 -0.57393116542E+03  0.12222558507E+04  0.14366763741E+04  0.25500000920E-02 0.  1.
       -2    1    3    3    0  502 -0.49064514345E+03  0.57393116542E+03 -0.15013789420E+04  0.16805559696E+04  0.25500000920E-02 0. -1.
</event>
<event>
 5   0  0.5328368E-06  0.3107123E+04  0.7818609E-02  0.8213786E-01
       -2   -1    0    0    0  501  0.00000000000E+00  0.00000000000E+00  0.11277648996E+04  0.11277648996E+04  0.25500000920E-02 0.  1.
        2   -1    0    0  501    0  0.00000000000E+00  0.00000000000E+00 -0.21401213650E+04  0.21401213650E+04  0.25500000920E-02 0. -1.
    10030    2    1    2    0    0  0.00000000000E+00  0.00000000000E+00 -0.10123564654E+04  0.32678862646E+04  0.31071232716E+04 0.  0.
        1    1    3    3  502    0 -0.70641693001E+03  0.73105310825E+03  0.72937707287E+03  0.12511812181E+04  0.50400001928E-02 0.  1.
       -1    1    3    3    0  502  0.70641693001E+03 -0.73105310825E+03 -0.17417335383E+04  0.20167050465E+04  0.50400001928E-02 0. -1.
</event>
<event>
 5   0  0.1836401E-06  0.3228327E+04  0.7818609E-02  0.8181376E-01
        1   -1    0    0  501    0  0.00000000000E+00  0.00000000000E+00  0.21850047214E+04  0.21850047214E+04  0.50400001928E-02 0.  1.
       -1   -1    0    0    0  501  0.00000000000E+00  0.00000000000E+00 -0.11924568044E+04  0.11924568044E+04  0.50400001928E-02 0. -1.
    10030    2    1    2    0    0  0.00000000000E+00  0.00000000000E+00  0.99254791702E+03  0.33774615258E+04  0.32283269646E+04 0.  0.
        2    1    3    3  502    0 -0.62989026398E+03 -0.14703977512E+04  0.72234048268E+03  0.17551658225E+04  0.25500000920E-02 0. -1.
       -2    1    3    3    0  502  0.62989026398E+03  0.14703977512E+04  0.27020743434E+03  0.16222957033E+04  0.25500000920E-02 0.  1.
</event>
<event>
 5   0  0.1836401E-06  0.2510705E+04  0.7818609E-02  0.8399182E-01
       -1   -1    0    0    0  501  0.00000000000E+00  0.00000000000E+00  0.89461140521E+03  0.89461140522E+03  0.50400001928E-02 0. -1.
        1   -1    0    0  501    0  0.00000000000E+00  0.00000000000E+00 -0.17615580329E+04  0.17615580329E+04  0.50400001928E-02 0.  1.
    10030    2    1    2    0    0  0.00000000000E+00  0.00000000000E+00 -0.86694662765E+03  0.26561694381E+04  0.25107050063E+04 0.  0.
        2    1    3    3  502    0  0.10378415378E+04  0.26092057110E+02 -0.11801360622E+04  0.15717878286E+04  0.25500000920E-02 0. -1.
       -2    1    3    3    0  502 -0.10378415378E+04 -0.26092057110E+02  0.31318943452E+03  0.10843816094E+04  0.25500000920E-02 0.  1.
</event>
<event>
 5   0  0.4900679E-06  0.3128944E+04  0.7818609E-02  0.8207839E-01
        2   -1    0    0  501    0  0.00000000000E+00  0.00000000000E+00  0.14727919748E+04  0.14727919748E+04  0.25500000920E-02 0. -1.
       -2   -1    0    0    0  501  0.00000000000E+00  0.00000000000E+00 -0.16618589017E+04  0.16618589017E+04  0.25500000920E-02 0.  1.
    10030    2    1    2    0    0  0.00000000000E+00  0.00000000000E+00 -0.18906692687E+03  0.31346508765E+04  0.31289438817E+04 0.  0.
        4    1    3    3  502    0  0.92636055871E+03 -0.59789787183E+03  0.10174211977E+04  0.15002577300E+04  0.12699999809E+01 0. -1.
       -4    1    3    3    0  502 -0.92636055871E+03  0.59789787183E+03 -0.12064881246E+04  0.16343931466E+04  0.12699999809E+01 0.  1.
</event>
<event>
 5   0  0.4900679E-06  0.3054623E+04  0.7818609E-02  0.8228303E-01
        2   -1    0    0  501    0  0.00000000000E+00  0.00000000000E+00  0.22286486227E+04  0.22286486227E+04  0.25500000920E-02 0.  1.
       -2   -1    0    0    0  501  0.00000000000E+00  0.00000000000E+00 -0.10466794996E+04  0.10466794996E+04  0.25500000920E-02 0. -1.
    10030    2    1    2    0    0  0.00000000000E+00  0.00000000000E+00  0.11819691230E+04  0.32753281223E+04  0.30546232666E+04 0.  0.
        4    1    3    3  502    0  0.54273513009E+03  0.91060048044E+03 -0.58796916167E+03  0.12122145043E+04  0.12699999809E+01 0. -1.
       -4    1    3    3    0  502 -0.54273513009E+03 -0.91060048044E+03  0.17699382847E+04  0.20631136180E+04  0.12699999809E+01 0.  1.
</event>
<event>
 5   0  0.4900679E-06  0.3126112E+04  0.7818609E-02  0.8208608E-01
       -2   -1    0    0    0  501  0.00000000000E+00  0.00000000000E+00  0.21998478623E+04  0.21998478623E+04  0.25500000920E-02 0. -1.
        2   -1    0    0  501    0  0.00000000000E+00  0.00000000000E+00 -0.11105969566E+04  0.11105969566E+04  0.25500000920E-02 0.  1.
    10030    2    1    2    0    0  0.00000000000E+00  0.00000000000E+00  0.10892509057E+04  0.33104448189E+04  0.31261121802E+04 0.  0.
        4    1    3    3  502    0 -0.22196653388E+03 -0.49530070759E+03 -0.10075993092E+04  0.11444867469E+04  0.12699999809E+01 0.  1.
       -4    1    3    3    0  502  0.22196653388E+03  0.49530070759E+03  0.20968502149E+04  0.21659580720E+04  0.12699999809E+01 0. -1.
</event>
<event>
 5   0  0.1885307E-06  0.3231448E+04  0.7818609E-02  0.8180561E-01
        1   -1    0    0  501    0  0.00000000000E+00  0.00000000000E+00  0.21174505221E+04  0.21174505221E+04  0.50400001928E-02 0. -1.
       -1   -1    0    0    0  501  0.00000000000E+00  0.00000000000E+00 -0.12328810772E+04  0.12328810772E+04  0.50400001928E-02 0.  1.
    10030    2    1    2    0    0  0.00000000000E+00  0.00000000000E+00  0.88456944494E+03  0.33503315993E+04  0.32314483939E+04 0.  0.
        3    1    3    3  502    0  0.25539057104E+03  0.15949700177E+04  0.48122951072E+03  0.16854481758E+04  0.10100000352E+00 0. -1.
       -3    1    3    3    0  502 -0.25539057104E+03 -0.15949700177E+04  0.40333993422E+03  0.16648834235E+04  0.10100000352E+00 0.  1.
</event>
<event>
 5   0  0.1853742E-06  0.3095027E+04  0.7818609E-02  0.8217104E-01
       -1   -1    0    0    0  501  0.00000000000E+00  0.00000000000E+00  0.11964435427E+04  0.11964435427E+04  0.50400001928E-02 0. -1.
        1   -1    0    0  501    0  0.00000000000E+00  0.00000000000E+00 -0.20015974944E+04  0.20015974944E+04  0.50400001928E-02 0.  1.
    10030    2    1    2    0    0  0.00000000000E+00  0.00000000000E+00 -0.80515395166E+03  0.31980410371E+04  0.30950272356E+04 0.  0.
        5    1    3    3  502    0 -0.77885003597E+03 -0.10568714731E+04  0.44395393213E+03  0.13858938895E+04  0.46999998093E+01 0. -1.
       -5    1    3    3    0  502  0.77885003597E+03  0.10568714731E+04 -0.12491078838E+04  0.18121471476E+04  0.46999998093E+01 0.  1.
</event>
<event>
 5   0  0.5114870E-06  0.3416653E+04  0.7818609E-02  0.8133831E-01
        2   -1    0    0  501    0  0.00000000000E+00  0.00000000000E+00  0.24116375761E+04  0.24116375761E+04  0.25500000920E-02 0. -1.
       -2   -1    0    0    0  501  0.00000000000E+00  0.00000000000E+00 -0.12101238332E+04  0.12101238333E+04  0.25500000920E-02 0.  1.
    10030    2    1    2    0    0  0.00000000000E+00  0.00000000000E+00  0.12015137429E+04  0.36217614094E+04  0.34166533966E+04 0.  0.
        2    1    3    3  502    0 -0.13268240794E+04  0.10692421435E+04  0.47250086328E+03  0.17683319725E+04  0.25500000920E-02 0.  1.
       -2    1    3    3    0  502  0.13268240794E+04 -0.10692421435E+04  0.72901287962E+03  0.18534294369E+04  0.25500000920E-02 0. -1.
</event>
<event>
 5   0  0.1836401E-06  0.3013555E+04  0.7818609E-02  0.8239871E-01
       -1   -1    0    0    0  501  0.00000000000E+00  0.00000000000E+00  0.75226340199E+03  0.75226340201E+03  0.50400001928E-02 0. -1.
        1   -1    0    0  501    0  0.00000000000E+00  0.00000000000E+00 -0.30180627513E+04  0.30180627513E+04  0.50400001928E-02 0.  1.
    10030    2    1    2    0    0  0.00000000000E+00  0.00000000000E+00 -0.22657993493E+04  0.37703261533E+04  0.30135548130E+04 0.  0.
        2    1    3    3  502    0 -0.60089297676E+03  0.13322477311E+04 -0.67419345977E+03  0.16095009188E+04  0.25500000920E-02 0. -1.
       -2    1    3    3    0  502  0.60089297676E+03 -0.13322477311E+04 -0.15916058895E+04  0.21608252345E+04  0.25500000920E-02 0.  1.
</event>
<event>
 5   0  0.1836401E-06  0.3059276E+04  0.7818609E-02  0.8227004E-01
        1   -1    0    0  501    0  0.00000000000E+00  0.00000000000E+00  0.21929185881E+04  0.21929185881E+04  0.50400001928E-02 0.  1.
       -1   -1    0    0    0  501  0.00000000000E+00  0.00000000000E+00 -0.10669766990E+04  0.10669766990E+04  0.50400001928E-02 0. -1.
    10030    2    1    2    0    0  0.00000000000E+00  0.00000000000E+00  0.11259418890E+04  0.32598952871E+04  0.30592764088E+04 0.  0.
        2    1    3    3  502    0 -0.16874286643E+03  0.48604097158E+03 -0.97200889000E+03  0.10997778245E+04  0.25500000920E-02 0. -1.
       -2    1    3    3    0  502  0.16874286643E+03 -0.48604097158E+03  0.20979507790E+04  0.21601174626E+04  0.25500000920E-02 0.  1.
</event>
<event>
 5   0  0.1840431E-06  0.2949709E+04  0.7818609E-02  0.8258239E-01
        1   -1    0    0  501    0  0.00000000000E+00  0.00000000000E+00  0.11297050488E+04  0.11297050488E+04  0.50400001928E-02 0.  1.
       -1   -1    0    0    0  501  0.00000000000E+00  0.00000000000E+00 -0.19254547390E+04  0.19254547390E+04  0.50400001928E-02 0. -1.
    10030    2    1    2    0    0  0.00000000000E+00  0.00000000000E+00 -0.79574969026E+03  0.30551597878E+04  0.29497090974E+04 0.  0.
        1    1    3    3  502    0 -0.57077593964E+03 -0.10878453373E+03 -0.18019083717E+04  0.18932757401E+04  0.50400001928E-02 0. -1.
       -1    1    3    3    0  502  0.57077593964E+03  0.10878453373E+03  0.10061586814E+04  0.11618840477E+04  0.50400001928E-02 0.  1.
</event>
<event>
 5   0  0.5114870E-06  0.3122058E+04  0.7818609E-02  0.8209710E-01
        2   -1    0    0  501    0  0.00000000000E+00  0.00000000000E+00  0.18620557394E+04  0.18620557394E+04  0.25500000920E-02 0. -1.
       -2   -1    0    0    0  501  0.00000000000E+00  0.00000000000E+00 -0.13086674640E+04  0.13086674640E+04  0.25500000920E-02 0.  1.
    10030    2    1    2    0    0  0.00000000000E+00  0.00000000000E+00  0.55338827546E+03  0.31707232034E+04  0.31220581431E+04 0.  0.
        2    1    3    3  502    0  0.23022758549E+02  0.15601890404E+04  0.23024421213E+03  0.15772546675E+04  0.25500000920E-02 0.  1.
       -2    1    3    3    0  502 -0.23022758549E+02 -0.15601890404E+04  0.32314406333E+03  0.15934685358E+04  0.25500000920E-02 0. -1.
</event>
<event>
 5   0  0.4900679E-06  0.2811949E+04  0.7818609E-02  0.8299568E-01
        2   -1    0    0  501    0  0.00000000000E+00  0.00000000000E+00  0.19670449117E+04  0.19670449117E+04  0.25500000920E-02 0.  1.
       -2   -1    0    0    0  501  0.00000000000E+00  0.00000000000E+00 -0.10049410127E+04  0.10049410127E+04  0.25500000920E-02 0. -1.
    10030    2    1    2    0    0  0.00000000000E+00  0.00000000000E+00  0.96210389898E+03  0.29719859244E+04  0.28119488656E+04 0.  0.
        4    1    3    3  502    0  0.77729643059E+03 -0.66306309125E+03  0.15019010532E+04  0.18164665674E+04  0.12699999809E+01 0.  1.
       -4    1    3    3    0  502 -0.77729643059E+03  0.66306309125E+03 -0.53979715419E+03  0.11555193571E+04  0.12699999809E+01 0. -1.
</event>
<event>
 5   0  0.1885307E-06  0.2350402E+04  0.7818609E-02  0.8458309E-01
        1   -1    0    0  501    0  0.00000000000E+00  0.00000000000E+00  0.10053418197E+04  0.10053418197E+04  0.50400001928E-02 0. -1.
       -1   -1    0    0    0  501  0.00000000000E+00  0.00000000000E+00 -0.13737595298E+04  0.13737595298E+04  0.50400001928E-02 0.  1.
    10030    2    1    2    0    0  0.00000000000E+00  0.00000000000E+00 -0.36841771011E+03  0.23791013495E+04  0.23504024383E+04 0.  0.
        3    1    3    3  502    0  0.89821090580E+03  0.34283337360E+02  0.58209492301E+03  0.10708840685E+04  0.10100000352E+00 0. -1.
       -3    1    3    3    0  502 -0.89821090580E+03 -0.34283337360E+02 -0.95051263312E+03  0.13082172811E+04  0.10100000352E+00 0.  1.
</event>
<event>
 5   0  0.5328368E-06  0.3103255E+04  0.7818609E-02  0.8214845E-01
        2   -1    0    0  501    0  0.00000000000E+00  0.00000000000E+00  0.22296964332E+04  0.22296964332E+04  0.25500000920E-02 0.  1.
       -2   -1    0    0    0  501  0.00000000000E+00  0.00000000000E+00 -0.10797652172E+04  0.10797652173E+04  0.25500000920E-02 0. -1.
    10030    2    1    2    0    0  0.00000000000E+00  0.00000000000E+00  0.11499312160E+04  0.33094616505E+04  0.31032554865E+04 0.  0.
        1    1    3    3  502    0 -0.11932601992E+03 -0.15470173687E+04  0.56763765227E+03  0.16521845969E+04  0.50400001928E-02 0.  1.
       -1    1    3    3    0  502  0.11932601992E+03  0.15470173687E+04  0.58229356373E+03  0.16572770536E+04  0.50400001928E-02 0. -1.
</event>
<event>
 5   0  0.1836401E-06  0.2961193E+04  0.7818609E-02  0.8254900E-01
       -1   -1    0    0    0  501  0.00000000000E+00  0.00000000000E+00  0.93643375161E+03  0.93643375162E+03  0.50400001928E-02 0.  1.
        1   -1    0    0  501    0  0.00000000000E+00  0.00000000000E+00 -0.23409729140E+04  0.23409729140E+04  0.50400001928E-02 0. -1.
    10030    2    1    2    0    0  0.00000000000E+00  0.00000000000E+00 -0.14045391624E+04  0.32774066656E+04  0.29611930354E+04 0.  0.
        2    1    3    3  502    0  0.79514508632E+03 -0.12167113519E+04 -0.39015630171E+03  0.15049465645E+04  0.25500000920E-02 0. -1.
       -2    1    3    3    0  502 -0.79514508632E+03  0.12167113519E+04 -0.10143828607E+04  0.17724601011E+04  0.25500000920E-02 0.  1.
</event>
<event>
 5   0  0.1840431E-06  0.3088905E+04  0.7818609E-02  0.8218790E-01
        1   -1    0    0  501    0  0.00000000000E+00  0.00000000000E+00  0.17334867611E+04  0.17334867611E+04  0.50400001928E-02 0. -1.
       -1   -1    0    0    0  501  0.00000000000E+00  0.00000000000E+00 -0.13760318072E+04  0.13760318073E+04  0.50400001928E-02 0.  1.
    10030    2    1    2    0    0  0.00000000000E+00  0.00000000000E+00  0.35745495389E+03  0.31095185684E+04  0.30889046089E+04 0.  0.
        1    1    3    3  502    0  0.31589490755E+03  0.12137147945E+04  0.10860970947E+04  0.16590660306E+04  0.50400001928E-02 0. -1.
       -1    1    3    3    0  502 -0.31589490755E+03 -0.12137147945E+04 -0.72864214080E+03  0.14504525378E+04  0.50400001928E-02 0.  1.
</event>
<event>
 5   0  0.1885307E-06  0.3106709E+04  0.7818609E-02  0.8213899E-01
       -1   -1    0    0    0  501  0.00000000000E+00  0.00000000000E+00  0.17570192515E+04  0.17570192515E+04  0.50400001928E-02 0.  1.
        1   -1    0    0  501    0  0.00000000000E+00  0.00000000000E+00 -0.13732978247E+04  0.13732978248E+04  0.50400001928E-02 0. -1.
    10030    2    1    2    0    0  0.00000000000E+00  0.00000000000E+00  0.38372142677E+03  0.31303170763E+04  0.31067093306E+04 0.  0.
        3    1    3    3  502    0  0.41824981798E+03  0.10857747447E+04  0.12287926403E+04  0.16922680254E+04  0.10100000352E+00 0.  1.
       -3    1    3    3    0  502 -0.41824981798E+03 -0.10857747447E+04 -0.84507121358E+03  0.14380490509E+04  0.10100000352E+00 0. -1.
</event>
<event>
 5   0  0.1840431E-06  0.3043864E+04  0.7818609E-02  0.8231315E-01
       -1   -1    0    0    0  501  0.00000000000E+00  0.00000000000E+00  0.91887395598E+03  0.91887395600E+03  0.50400001928E-02 0.  1.
        1   -1    0    0  501    0  0.00000000000E+00  0.00000000000E+00 -0.25207775579E+04  0.25207775579E+04  0.50400001928E-02 0. -1.
    10030    2    1    2    0    0  0.00000000000E+00  0.00000000000E+00 -0.16019036020E+04  0.34396515139E+04  0.30438638911E+04 0.  0.
        1    1    3    3  502    0  0.15058131677E+04  0.22035611665E+03 -0.78320162872E+03  0.17115592030E+04  0.50400001928E-02 0.  1.
       -1    1    3    3    0  502 -0.15058131677E+04 -0.22035611665E+03 -0.81870197323E+03  0.17280923109E+04  0.50400001928E-02 0. -1.
</event>
<event>
 5   0  0.1840431E-06  0.3000242E+04  0.7818609E-02  0.8243662E-01
        1   -1    0    0  501    0  0.00000000000E+00  0.00000000000E+00  0.19380741997E+04  0.19380741997E+04  0.50400001928E-02 0.  1.
       -1   -1    0    0    0  501  0.00000000000E+00  0.00000000000E+00 -0.11611339168E+04  0.11611339168E+04  0.50400001928E-02 0. -1.
    10030    2    1    2    0    0  0.00000000000E+00  0.00000000000E+00  0.77694028295E+03  0.30992081165E+04  0.30002424479E+04 0.  0.
        1    1    3    3  502    0 -0.13775275281E+04 -0.58880016208E+03  0.30781805228E+03  0.15293853912E+04  0.50400001928E-02 0.  1.
       -1    1    3    3    0  502  0.13775275281E+04  0.58880016208E+03  0.46912223066E+03  0.15698227253E+04  0.50400001928E-02 0. -1.
</event>
<event>
 5   0  0.1836401E-06  0.3093007E+04  0.7818609E-02  0.8217660E-01
       -1   -1    0    0    0  501  0.00000000000E+00  0.00000000000E+00  0.81704314951E+03  0.81704314953E+03  0.50400001928E-02 0.  1.
        1   -1    0    0  501    0  0.00000000000E+00  0.00000000000E+00 -0.29272295231E+04  0.29272295231E+04  0.50400001928E-02 0. -1.
    10030    2    1    2    0    0  0.00000000000E+00  0.00000000000E+00 -0.21101863736E+04  0.37442726726E+04  0.30930068405E+04 0.  0.
        2    1    3    3  502    0 -0.25436111261E+03  0.13994122267E+04 -0.32011364022E+03  0.14579186872E+04  0.25500000920E-02 0.  1.
       -2    1    3    3    0  502  0.25436111261E+03 -0.13994122267E+04 -0.17900727333E+04  0.22863539854E+04  0.25500000920E-02 0. -1.
</event>
<event>
 5   0  0.1840431E-06  0.3091900E+04  0.7818609E-02  0.8217965E-01
       -1   -1    0    0    0  501  0.00000000000E+00  0.00000000000E+00  0.91633029646E+03  0.91633029648E+03  0.50400001928E-02 0. -1.
        1   -1    0    0  501    0  0.00000000000E+00  0.00000000000E+00 -0.26081869165E+04  0.26081869165E+04  0.50400001928E-02 0.  1.
    10030    2    1    2    0    0  0.00000000000E+00  0.00000000000E+00 -0.16918566201E+04  0.35245172130E+04  0.30918995394E+04 0.  0.
        1    1    3    3  502    0 -0.10521994515E+04 -0.10635105694E+04 -0.12900324157E+04  0.19754397107E+04  0.50400001928E-02 0. -1.
       -1    1    3    3    0  502  0.10521994515E+04  0.10635105694E+04 -0.40182420436E+03  0.15490775023E+04  0.50400001928E-02 0.  1.
</event>
<event>
 5   0  0.5114870E-06  0.3072498E+04  0.7818609E-02  0.8223326E-01
       -2   -1    0    0    0  501  0.00000000000E+00  0.00000000000E+00  0.12510079626E+04  0.12510079626E+04  0.25500000920E-02 0.  1.
        2   -1    0    0  501    0  0.00000000000E+00  0.00000000000E+00 -0.18865277525E+04  0.18865277525E+04  0.25500000920E-02 0. -1.
    10030    2    1    2    0    0  0.00000000000E+00  0.00000000000E+00 -0.63551978991E+03  0.31375357151E+04  0.30724981628E+04 0.  0.
        2    1    3    3  502    0  0.11753307719E+04 -0.16405749259E+03 -0.13139841471E+04  0.17705568681E+04  0.25500000920E-02 0. -1.
       -2    1    3    3    0  502 -0.11753307719E+04  0.16405749259E+03  0.67846435716E+03  0.13669788471E+04  0.25500000920E-02 0.  1.
</event>
<event>
 5   0  0.1836401E-06  0.3141587E+04  0.7818609E-02  0.8204416E-01
       -1   -1    0    0    0  501  0.00000000000E+00  0.00000000000E+00  0.14027099340E+04  0.14027099340E+04  0.50400001928E-02 0. -1.
        1   -1    0    0  501    0  0.00000000000E+00  0.00000000000E+00 -0.17590184469E+04  0.17590184469E+04  0.50400001928E-02 0.  1.
    10030    2    1    2    0    0  0.00000000000E+00  0.00000000000E+00 -0.35630851295E+03  0.31617283809E+04  0.31415872737E+04 0.  0.
        2    1    3    3  502    0  0.56102784140E+03  0.82521030602E+03  0.10427466195E+04  0.14432757188E+04  0.25500000920E-02 0. -1.
       -2    1    3    3    0  502 -0.56102784140E+03 -0.82521030602E+03 -0.13990551325E+04  0.17184526620E+04  0.25500000920E-02 0.  1.
</event>
<event>
 5   0  0.1853742E-06  0.3100837E+04  0.7818609E-02  0.8215508E-01
        1   -1    0    0  501    0  0.00000000000E+00  0.00000000000E+00  0.16546902345E+04  0.16546902345E+04  0.50400001928E-02 0.  1.
       -1   -1    0    0    0  501  0.00000000000E+00  0.00000000000E+00 -0.14527174630E+04  0.14527174630E+04  0.50400001928E-02 0. -1.
    10030    2    1    2    0    0  0.00000000000E+00  0.00000000000E+00  0.20197277154E+03  0.31074076975E+04  0.31008369189E+04 0.  0.
        5    1    3    3  502    0  0.99242215346E+03 -0.29193399187E+03 -0.10562975910E+04  0.14784836411E+04  0.46999998093E+01 0. -1.
       -5    1    3    3    0  502 -0.99242215346E+03  0.29193399187E+03  0.12582703625E+04  0.16289240564E+04  0.46999998093E+01 0.  1.
</event>
<event>
 5   0  0.5328368E-06  0.3080594E+04  0.7818609E-02  0.8221084E-01
        2   -1    0    0  501    0  0.00000000000E+00  0.00000000000E+00  0.13271463809E+04  0.13271463809E+04  0.25500000920E-02 0. -1.
       -2   -1    0    0    0  501  0.00000000000E+00  0.00000000000E+00 -0.17876812754E+04  0.17876812754E+04  0.25500000920E-02 0.  1.
    10030    2    1    2    0    0  0.00000000000E+00  0.00000000000E+00 -0.46053489447E+03  0.31148276563E+04  0.30805939264E+04 0.  0.
        1    1    3    3  502    0  0.71950430264E+02  0.10252890580E+04  0.92970412936E+03  0.13859091908E+04  0.50400001928E-02 0. -1.
       -1    1    3    3    0  502 -0.71950430264E+02 -0.10252890580E+04 -0.13902390238E+04  0.17289184655E+04  0.50400001928E-02 0.  1.
</event>
<event>
 5   0  0.5328368E-06  0.3105159E+04  0.7818609E-02  0.8214323E-01
        2   -1    0    0  501    0  0.00000000000E+00  0.00000000000E+00  0.16602680903E+04  0.16602680903E+04  0.25500000920E-02 0. -1.
       -2   -1    0    0    0  501  0.00000000000E+00  0.00000000000E+00 -0.14518759522E+04  0.14518759522E+04  0.25500000920E-02 0.  1.
    10030    2    1    2    0    0  0.00000000000E+00  0.00000000000E+00  0.20839213811E+03  0.31121440425E+04  0.31051591357E+04 0.  0.
        1    1    3    3  502    0 -0.67377413538E+03  0.11268896311E+03  0.15015463761E+04  0.16496399327E+04  0.50400001928E-02 0. -1.
       -1    1    3    3    0  502  0.67377413538E+03 -0.11268896311E+03 -0.12931542380E+04  0.14625041098E+04  0.50400001928E-02 0.  1.
</event>
<event>
 5   0  0.5114870E-06  0.3098849E+04  0.7818609E-02  0.8216054E-01
        2   -1    0    0  501    0  0.00000000000E+00  0.00000000000E+00  0.21349063595E+04  0.21349063595E+04  0.25500000920E-02 0. -1.
       -2   -1    0    0    0  501  0.00000000000E+00  0.00000000000E+00 -0.11245063160E+04  0.11245063160E+04  0.25500000920E-02 0.  1.
    10030    2    1    2    0    0  0.00000000000E+00  0.00000000000E+00  0.10104000435E+04  0.32594126755E+04  0.30988486154E+04 0.  0.
        2    1    3    3  502    0 -0.97036783353E+03  0.42385893793E+03  0.16949340799E+04  0.19985173671E+04  0.25500000920E-02 0. -1.
       -2    1    3    3    0  502  0.97036783353E+03 -0.42385893793E+03 -0.68453403637E+03  0.12608953083E+04  0.25500000920E-02 0.  1.
</event>
<event>
 5   0  0.4927533E-06  0.3099304E+04  0.7818609E-02  0.8215929E-01
        2   -1    0    0  501    0  0.00000000000E+00  0.00000000000E+00  0.16255241943E+04  0.16255241943E+04  0.25500000920E-02 0. -1.
       -2   -1    0    0    0  501  0.00000000000E+00  0.00000000000E+00 -0.14773216003E+04  0.14773216003E+04  0.25500000920E-02 0.  1.
    10030    2    1    2    0    0  0.00000000000E+00  0.00000000000E+00  0.14820259394E+03  0.31028457946E+04  0.30993044407E+04 0.  0.
        5    1    3    3  502    0  0.10753715491E+04 -0.17087893968E+03  0.11779836650E+04  0.16041481183E+04  0.46999998093E+01 0. -1.
       -5    1    3    3    0  502 -0.10753715491E+04  0.17087893968E+03 -0.10297810710E+04  0.14986976763E+04  0.46999998093E+01 0.  1.
</event>
<event>
 5   0  0.1843709E-06  0.2259369E+04  0.7818609E-02  0.8494116E-01
        1   -1    0    0  501    0  0.00000000000E+00  0.00000000000E+00  0.96807653055E+03  0.96807653056E+03  0.50400001928E-02 0. -1.
       -1   -1    0    0    0  501  0.00000000000E+00  0.00000000000E+00 -0.13182706265E+04  0.13182706265E+04  0.50400001928E-02 0.  1.
    10030    2    1    2    0    0  0.00000000000E+00  0.00000000000E+00 -0.35019409594E+03  0.22863471571E+04  0.22593688096E+04 0.  0.
        4    1    3    3  502    0 -0.57246966188E+03 -0.26723890234E+03 -0.11227874944E+04  0.12883289624E+04  0.12699999809E+01 0.  1.
       -4    1    3    3    0  502  0.57246966188E+03  0.26723890234E+03  0.77259339848E+03  0.99801819471E+03  0.12699999809E+01 0. -1.
</event>
<event>
 5   0  0.5328368E-06  0.3086351E+04  0.7818609E-02  0.8219494E-01
       -2   -1    0    0    0  501  0.00000000000E+00  0.00000000000E+00  0.11195548235E+04  0.11195548235E+04  0.25500000920E-02 0. -1.
        2   -1    0    0  501    0  0.00000000000E+00  0.00000000000E+00 -0.21270868645E+04  0.21270868645E+04  0.25500000920E-02 0.  1.
    10030    2    1    2    0    0  0.00000000000E+00  0.00000000000E+00 -0.10075320410E+04  0.32466416880E+04  0.30863508285E+04 0.  0.
        1    1    3    3  502    0  0.17061678031E+02  0.12249775344E+04 -0.14908656189E+04  0.19296479871E+04  0.50400001928E-02 0.  1.
       -1    1    3    3    0  502 -0.17061678031E+02 -0.12249775344E+04  0.48333357788E+03  0.13169937009E+04  0.50400001928E-02 0. -1.
</event>
<event>
 5   0  0.1840431E-06  0.3109631E+04  0.7818609E-02  0.8213100E-01
       -1   -1    0    0    0  501  0.00000000000E+00  0.00000000000E+00  0.12532730337E+04  0.12532730337E+04  0.50400001928E-02 0. -1.
        1   -1    0    0  501    0  0.00000000000E+00  0.00000000000E+00 -0.19289104960E+04  0.19289104960E+04  0.50400001928E-02 0.  1.
    10030    2    1    2    0    0  0.00000000000E+00  0.00000000000E+00 -0.67563746237E+03  0.31821835297E+04  0.31096311736E+04 0.  0.
        1    1    3    3  502    0  0.13678234919E+04  0.36275177439E+03  0.32135416256E+03  0.14511369517E+04  0.50400001928E-02 0. -1.
       -1    1    3    3    0  502 -0.13678234919E+04 -0.36275177439E+03 -0.99699162493E+03  0.17310465780E+04  0.50400001928E-02 0.  1.
</event>
<event>
 5   0  0.1836401E-06  0.3016399E+04  0.7818609E-02  0.8239063E-01
        1   -1    0    0  501    0  0.00000000000E+00  0.00000000000E+00  0.34861542608E+04  0.34861542608E+04  0.50400001928E-02 0. -1.
       -1   -1    0    0    0  501  0.00000000000E+00  0.00000000000E+00 -0.65248586390E+03  0.65248586392E+03  0.50400001928E-02 0.  1.
    10030    2    1    2    0    0  0.00000000000E+00  0.00000000000E+00  0.28336683969E+04  0.41386401247E+04  0.30163994262E+04 0.  0.
        2    1    3    3  502    0  0.97651881489E+03  0.93311574309E+03  0.49605670978E+03  0.14388767304E+04  0.25500000920E-02 0. -1.
       -2    1    3    3    0  502 -0.97651881489E+03 -0.93311574309E+03  0.23376116871E+04  0.26997633944E+04  0.25500000920E-02 0.  1.
</event>
<event>
 5   0  0.1885307E-06  0.3108100E+04  0.7818609E-02  0.8213518E-01
       -1   -1    0    0    0  501  0.00000000000E+00  0.00000000000E+00  0.14120532390E+04  0.14120532390E+04  0.50400001928E-02 0. -1.
        1   -1    0    0  501    0  0.00000000000E+00  0.00000000000E+00 -0.17103259327E+04  0.17103259328E+04  0.50400001928E-02 0.  1.
    10030    2    1    2    0    0  0.00000000000E+00  0.00000000000E+00 -0.29827269372E+03  0.31223791718E+04  0.31080999168E+04 0.  0.
        3    1    3    3  502    0  0.83416914071E+03 -0.66576553296E+03 -0.12839229408E+04  0.16695927732E+04  0.10100000352E+00 0.  1.
       -3    1    3    3    0  502 -0.83416914071E+03  0.66576553296E+03  0.98565024708E+03  0.14527863986E+04  0.10100000352E+00 0. -1.
</event>
<event>
 5   0  0.1853742E-06  0.3069545E+04  0.7818609E-02  0.8224146E-01
       -1   -1    0    0    0  501  0.00000000000E+00  0.00000000000E+00  0.29709649008E+04  0.29709649008E+04  0.50400001928E-02 0. -1.
        1   -1    0    0  501    0  0.00000000000E+00  0.00000000000E+00 -0.79284921914E+03  0.79284921915E+03  0.50400001928E-02 0.  1.
    10030    2    1    2    0    0  0.00000000000E+00  0.00000000000E+00  0.21781156817E+04  0.37638141200E+04  0.30695453746E+04 0.  0.
        5    1    3    3  502    0 -0.79220026492E+03  0.13074207023E+04  0.12561738455E+04  0.19786169343E+04  0.46999998093E+01 0. -1.
       -5    1    3    3    0  502  0.79220026492E+03 -0.13074207023E+04  0.92194183621E+03  0.17851971857E+04  0.46999998093E+01 0.  1.
</event>
<event>
 5   0  0.1836401E-06  0.3079359E+04  0.7818609E-02  0.8221425E-01
        1   -1    0    0  501    0  0.00000000000E+00  0.00000000000E+00  0.17464487688E+04  0.17464487688E+04  0.50400001928E-02 0.  1.
       -1   -1    0    0    0  501  0.00000000000E+00  0.00000000000E+00 -0.13573908892E+04  0.13573908892E+04  0.50400001928E-02 0. -1.
    10030    2    1    2    0    0  0.00000000000E+00  0.00000000000E+00  0.38905787959E+03  0.31038396580E+04  0.30793594446E+04 0.  0.
        2    1    3    3  502    0 -0.11747811385E+04  0.29185464684E+03 -0.76452019581E+03  0.14317056220E+04  0.25500000920E-02 0. -1.
       -2    1    3    3    0  502  0.11747811385E+04 -0.29185464684E+03  0.11535780754E+04  0.16721340360E+04  0.25500000920E-02 0.  1.
</event>
<event>
 5   0  0.5328368E-06  0.2236405E+04  0.7818609E-02  0.8503426E-01
        2   -1    0    0  501    0  0.00000000000E+00  0.00000000000E+00  0.10352017318E+04  0.10352017318E+04  0.25500000920E-02 0. -1.
       -2   -1    0    0    0  501  0.00000000000E+00  0.00000000000E+00 -0.12078583706E+04  0.12078583706E+04  0.25500000920E-02 0.  1.
    10030    2    1    2    0    0  0.00000000000E+00  0.00000000000E+00 -0.17265663881E+03  0.22430601024E+04  0.22364052200E+04 0.  0.
        1    1    3    3  502    0  0.79845383569E+03 -0.35796637423E+03 -0.78461022235E+03  0.11752793939E+04  0.50400001928E-02 0.  1.
       -1    1    3    3    0  502 -0.79845383569E+03  0.35796637423E+03  0.61195358353E+03  0.10677807084E+04  0.50400001928E-02 0. -1.
</event>
<event>
 5   0  0.5001658E-06  0.3245225E+04  0.7818609E-02  0.8176975E-01
        2   -1    0    0  501    0  0.00000000000E+00  0.00000000000E+00  0.16091927209E+04  0.16091927209E+04  0.25500000920E-02 0.  1.
       -2   -1    0    0    0  501  0.00000000000E+00  0.00000000000E+00 -0.16361437297E+04  0.16361437297E+04  0.25500000920E-02 0. -1.
    10030    2    1    2    0    0  0.00000000000E+00  0.00000000000E+00 -0.26951008839E+02  0.32453364506E+04  0.32452245409E+04 0.  0.
        3    1    3    3  502    0 -0.27709300192E+03 -0.35149753354E+03 -0.15731893546E+04  0.16356209229E+04  0.10100000352E+00 0. -1.
       -3    1    3    3    0  502  0.27709300192E+03  0.35149753354E+03  0.15462383458E+04  0.16097155277E+04  0.10100000352E+00 0.  1.
</event>
<event>
 5   0  0.1840431E-06  0.3081945E+04  0.7818609E-02  0.8220710E-01
       -1   -1    0    0    0  501  0.00000000000E+00  0.00000000000E+00  0.13020197120E+04  0.13020197120E+04  0.50400001928E-02 0.  1.
        1   -1    0    0  501    0  0.00000000000E+00  0.00000000000E+00 -0.18237793882E+04  0.18237793883E+04  0.50400001928E-02 0. -1.
    10030    2    1    2    0    0  0.00000000000E+00  0.00000000000E+00 -0.52175967626E+03  0.31257991002E+04  0.30819453038E+04 0.  0.
        1    1    3    3  502    0  0.50303774061E+03  0.87743183849E+03 -0.14400333971E+04  0.17597243490E+04  0.50400001928E-02 0. -1.
       -1    1    3    3    0  502 -0.50303774061E+03 -0.87743183849E+03  0.91827372082E+03  0.13660747513E+04  0.50400001928E-02 0.  1.
</event>
<event>
 5   0  0.1836401E-06  0.2654743E+04  0.7818609E-02  0.8349840E-01
       -1   -1    0    0    0  501  0.00000000000E+00  0.00000000000E+00  0.16768986164E+04  0.16768986164E+04  0.50400001928E-02 0.  1.
        1   -1    0    0  501    0  0.00000000000E+00  0.00000000000E+00 -0.10506988839E+04  0.10506988839E+04  0.50400001928E-02 0. -1.
    10030    2    1    2    0    0  0.00000000000E+00  0.00000000000E+00  0.62619973254E+03  0.27275975003E+04  0.26547433056E+04 0.  0.
        2    1    3    3  502    0  0.62310773774E+01 -0.56288764474E+03 -0.92198502482E+03  0.10802489125E+04  0.25500000920E-02 0. -1.
       -2    1    3    3    0  502 -0.62310773774E+01  0.56288764474E+03  0.15481847574E+04  0.16473485878E+04  0.25500000920E-02 0.  1.
</event>
<event>
 5   0  0.1840431E-06  0.3105242E+04  0.7818609E-02  0.8214301E-01
       -1   -1    0    0    0  501  0.00000000000E+00  0.00000000000E+00  0.94653042218E+03  0.94653042220E+03  0.50400001928E-02 0. -1.
        1   -1    0    0  501    0  0.00000000000E+00  0.00000000000E+00 -0.25468094306E+04  0.25468094306E+04  0.50400001928E-02 0.  1.
    10030    2    1    2    0    0  0.00000000000E+00  0.00000000000E+00 -0.16002790084E+04  0.34933398528E+04  0.31052424096E+04 0.  0.
        1    1    3    3  502    0  0.81208282526E+03 -0.50980263535E+03  0.57365362152E+03  0.11173431521E+04  0.50400001928E-02 0. -1.
       -1    1    3    3    0  502 -0.81208282526E+03  0.50980263535E+03 -0.21739326300E+04  0.23759967007E+04  0.50400001928E-02 0.  1.
</event>
<event>
 5   0  0.1843709E-06  0.3122685E+04  0.7818609E-02  0.8209540E-01
        1   -1    0    0  501    0  0.00000000000E+00  0.00000000000E+00  0.15857153604E+04  0.15857153604E+04  0.50400001928E-02 0. -1.
       -1   -1    0    0    0  501  0.00000000000E+00  0.00000000000E+00 -0.15373442673E+04  0.15373442673E+04  0.50400001928E-02 0.  1.
    10030    2    1    2    0    0  0.00000000000E+00  0.00000000000E+00  0.48371093042E+02  0.31230596277E+04  0.31226850107E+04 0.  0.
        4    1    3    3  502    0  0.41247448057E+03  0.23831878590E+03  0.15112592683E+04  0.15845621571E+04  0.12699999809E+01 0. -1.
       -4    1    3    3    0  502 -0.41247448057E+03 -0.23831878590E+03 -0.14628881753E+04  0.15384974706E+04  0.12699999809E+01 0.  1.
</event>
<event>
 5   0  0.1853742E-06  0.3064832E+04  0.7818609E-02  0.8225456E-01
        1   -1    0    0  501    0  0.00000000000E+00  0.00000000000E+00  0.19091518906E+04  0.19091518906E+04  0.50400001928E-02 0. -1.
       -1   -1    0    0    0  501  0.00000000000E+00  0.00000000000E+00 -0.12300220149E+04  0.12300220149E+04  0.50400001928E-02 0.  1.
    10030    2    1    2    0    0  0.00000000000E+00  0.00000000000E+00  0.67912987569E+03  0.31391739055E+04  0.30648320379E+04 0.  0.
        5    1    3    3  502    0 -0.16400460396E+03  0.14928116438E+04  0.65174084047E+03  0.16371231863E+04  0.46999998093E+01 0. -1.
       -5    1    3    3    0  502  0.16400460396E+03 -0.14928116438E+04  0.27389035223E+02  0.15020507192E+04  0.46999998093E+01 0.  1.
</event>
<event>
 5   0  0.5328368E-06  0.3226618E+04  0.7818609E-02  0.8181823E-01
        2   -1    0    0  501    0  0.00000000000E+00  0.00000000000E+00  0.12333708324E+04  0.12333708324E+04  0.25500000920E-02 0. -1.
       -2   -1    0    0    0  501  0.00000000000E+00  0.00000000000E+00 -0.21102861745E+04  0.21102861745E+04  0.25500000920E-02 0.  1.
    10030    2    1    2    0    0  0.00000000000E+00  0.00000000000E+00 -0.87691534213E+03  0.33436570069E+04  0.32266176815E+04 0.  0.
        1    1    3    3  502    0  0.12756629460E+04 -0.98696429543E+03 -0.40036926727E+03  0.16618393492E+04  0.50400001928E-02 0. -1.
       -1    1    3    3    0  502 -0.12756629460E+04  0.98696429543E+03 -0.47654607486E+03  0.16818176577E+04  0.50400001928E-02 0.  1.
</event>
<event>
 5   0  0.1853742E-06  0.3102849E+04  0.7818609E-02  0.8214957E-01
        1   -1    0    0  501    0  0.00000000000E+00  0.00000000000E+00  0.16618521899E+04  0.16618521899E+04  0.50400001928E-02 0.  1.
       -1   -1    0    0    0  501  0.00000000000E+00  0.00000000000E+00 -0.14483342167E+04  0.14483342167E+04  0.50400001928E-02 0. -1.
    10030    2    1    2    0    0  0.00000000000E+00  0.00000000000E+00  0.21351797324E+03  0.31101864067E+04  0.31028486201E+04 0.  0.
        5    1    3    3  502    0 -0.18283564015E+03 -0.10632968479E+04 -0.10107165563E+04  0.14783771864E+04  0.46999998093E+01 0. -1.
       -5    1    3    3    0  502  0.18283564015E+03  0.10632968479E+04  0.12242345295E+04  0.16318092203E+04  0.46999998093E+01 0.  1.
</event>
<event>
 5   0  0.5114870E-06  0.3126146E+04  0.7818609E-02  0.8208599E-01
        2   -1    0    0  501    0  0.00000000000E+00  0.00000000000E+00  0.21949938823E+04  0.21949938823E+04  0.25500000920E-02 0.  1.
       -2   -1    0    0    0  501  0.00000000000E+00  0.00000000000E+00 -0.11130769158E+04  0.11130769159E+04  0.25500000920E-02 0. -1.
    10030    2    1    2    0    0  0.00000000000E+00  0.00000000000E+00  0.10819169665E+04  0.33080707982E+04  0.31261458833E+04 0.  0.
        2    1    3    3  502    0  0.13347066948E+04  0.73582690319E+03  0.90800687686E+03  0.17740799534E+04  0.25500000920E-02 0.  1.
       -2    1    3    3    0  502 -0.13347066948E+04 -0.73582690319E+03  0.17391008963E+03  0.15339908448E+04  0.25500000920E-02 0. -1.
</event>
<event>
 5   0  0.1843709E-06  0.3095995E+04  0.7818609E-02  0.8216838E-01
       -1   -1    0    0    0  501  0.00000000000E+00  0.00000000000E+00  0.14261687388E+04  0.14261687388E+04  0.50400001928E-02 0. -1.
        1   -1    0    0  501    0  0.00000000000E+00  0.00000000000E+00 -0.16802335437E+04  0.16802335437E+04  0.50400001928E-02 0.  1.
    10030    2    1    2    0    0  0.00000000000E+00  0.00000000000E+00 -0.25406480490E+03  0.31064022824E+04  0.30959951898E+04 0.  0.
        4    1    3    3  502    0  0.34779320397E+03  0.14646083133E+04 -0.48915738179E+03  0.15828184296E+04  0.12699999809E+01 0.  1.
       -4    1    3    3    0  502 -0.34779320397E+03 -0.14646083133E+04  0.23509257689E+03  0.15235838528E+04  0.12699999809E+01 0. -1.
</event>
<event>
 5   0  0.5001658E-06  0.2725597E+04  0.7818609E-02  0.8326747E-01
        2   -1    0    0  501    0  0.00000000000E+00  0.00000000000E+00  0.25664118987E+04  0.25664118988E+04  0.25500000920E-02 0.  1.
       -2   -1    0    0    0  501  0.00000000000E+00  0.00000000000E+00 -0.72366401688E+03  0.72366401688E+03  0.25500000920E-02 0. -1.
    10030    2    1    2    0    0  0.00000000000E+00  0.00000000000E+00  0.18427478819E+04  0.32900759156E+04  0.27255971409E+04 0.  0.
        3    1    3    3  502    0 -0.24140213764E+03  0.42578924364E+03 -0.61390159106E+03  0.78514116296E+03  0.10100000352E+00 0. -1.
       -3    1    3    3    0  502  0.24140213764E+03 -0.42578924364E+03  0.24566494729E+04  0.25049347527E+04  0.10100000352E+00 0.  1.
</event>
<event>
 5   0  0.1840431E-06  0.3135584E+04  0.7818609E-02  0.8206039E-01
        1   -1    0    0  501    0  0.00000000000E+00  0.00000000000E+00  0.21885717269E+04  0.21885717269E+04  0.50400001928E-02 0. -1.
       -1   -1    0    0    0  501  0.00000000000E+00  0.00000000000E+00 -0.11230942889E+04  0.11230942889E+04  0.50400001928E-02 0.  1.
    10030    2    1    2    0    0  0.00000000000E+00  0.00000000000E+00  0.10654774380E+04  0.33116660158E+04  0.31355844159E+04 0.  0.
        1    1    3    3  502    0 -0.15520773041E+04 -0.12632107766E+03  0.72480651483E+03  0.17176278574E+04  0.50400001928E-02 0.  1.
       -1    1    3    3    0  502  0.15520773041E+04  0.12632107766E+03  0.34067092317E+03  0.15940381584E+04  0.50400001928E-02 0. -1.
</event>
<event>
 5   0  0.5001658E-06  0.3112076E+04  0.7818609E-02  0.8212432E-01
        2   -1    0    0  501    0  0.00000000000E+00  0.00000000000E+00  0.13567936401E+04  0.13567936402E+04  0.25500000920E-02 0.  1.
       -2   -1    0    0    0  501  0.00000000000E+00  0.00000000000E+00 -0.17845409447E+04  0.17845409447E+04  0.25500000920E-02 0. -1.
    10030    2    1    2    0    0  0.00000000000E+00  0.00000000000E+00 -0.42774730456E+03  0.31413345849E+04  0.31120757088E+04 0.  0.
        3    1    3    3  502    0  0.30001909385E+03 -0.13381229040E+04 -0.95608903305E+03  0.16717328173E+04  0.10100000352E+00 0. -1.
       -3    1    3    3    0  502 -0.30001909385E+03  0.13381229040E+04  0.52834172850E+03  0.14696017676E+04  0.10100000352E+00 0.  1.
</event>
<event>
 5   0  0.1853742E-06  0.3073898E+04  0.7818609E-02  0.8222938E-01
       -1   -1    0    0    0  501  0.00000000000E+00  0.00000000000E+00  0.19117229083E+04  0.19117229083E+04  0.50400001928E-02 0.  1.
        1   -1    0    0  501    0  0.00000000000E+00  0.00000000000E+00 -0.12356453418E+04  0.12356453418E+04  0.50400001928E-02 0. -1.
    10030    2    1    2    0    0  0.00000000000E+00  0.00000000000E+00  0.67607756653E+03  0.31473682501E+04  0.30738975302E+04 0.  0.
        5    1    3    3  502    0  0.84761213543E+03 -0.40712350755E+02  0.16501059515E+04  0.18555256853E+04  0.46999998093E+01 0.  1.
       -5    1    3    3    0  502 -0.84761213543E+03  0.40712350755E+02 -0.97402838495E+03  0.12918425648E+04  0.46999998093E+01 0. -1.
</event>
<event>
 5   0  0.1853742E-06  0.3100797E+04  0.7818609E-02  0.8215519E-01
        1   -1    0    0  501    0  0.00000000000E+00  0.00000000000E+00  0.12293911245E+04  0.12293911245E+04  0.50400001928E-02 0.  1.
       -1   -1    0    0    0  501  0.00000000000E+00  0.00000000000E+00 -0.19552250065E+04  0.19552250065E+04  0.50400001928E-02 0. -1.
    10030    2    1    2    0    0  0.00000000000E+00  0.00000000000E+00 -0.72583388200E+03  0.31846161311E+04  0.31007974907E+04 0.  0.
        5    1    3    3  502    0 -0.56590814642E+03 -0.85389639248E+03 -0.15581286243E+04  0.18647192763E+04  0.46999998093E+01 0. -1.
       -5    1    3    3    0  502  0.56590814642E+03  0.85389639248E+03  0.83229474233E+03  0.13198968548E+04  0.46999998093E+01 0.  1.
</event>
<event>
 5   0  0.1885307E-06  0.3099135E+04  0.7818609E-02  0.8215975E-01
        1   -1    0    0  501    0  0.00000000000E+00  0.00000000000E+00  0.19729747004E+04  0.19729747004E+04  0.50400001928E-02 0.  1.
       -1   -1    0    0    0  501  0.00000000000E+00  0.00000000000E+00 -0.12170250713E+04  0.12170250713E+04  0.50400001928E-02 0. -1.
    10030    2    1    2    0    0  0.00000000000E+00  0.00000000000E+00  0.75594962916E+03  0.31899997717E+04  0.30991351538E+04 0.  0.
        3    1    3    3  502    0  0.64368606886E+03 -0.22797755968E+03 -0.10537984594E+04  0.12557056686E+04  0.10100000352E+00 0. -1.
       -3    1    3    3    0  502 -0.64368606886E+03  0.22797755968E+03  0.18097480886E+04  0.19342941031E+04  0.10100000352E+00 0.  1.
</event>
<event>
 5   0  0.4927533E-06  0.3141726E+04  0.7818609E-02  0.8204379E-01
        2   -1    0    0  501    0  0.00000000000E+00  0.00000000000E+00  0.25503849590E+04  0.25503849590E+04  0.25500000920E-02 0.  1.
       -2   -1    0    0    0  501  0.00000000000E+00  0.00000000000E+00 -0.96754465230E+03  0.96754465231E+03  0.25500000920E-02 0. -1.
    10030    2    1    2    0    0  0.00000000000E+00  0.00000000000E+00  0.15828403067E+04  0.35179296113E+04  0.31417264861E+04 0.  0.
        5    1    3    3  502    0 -0.91747002369E+03 -0.12701825497E+04  0.66635780056E+03  0.17026948529E+04  0.46999998093E+01 0. -1.
       -5    1    3    3    0  502  0.91747002369E+03  0.12701825497E+04  0.91648250611E+03  0.18152347583E+04  0.46999998093E+01 0.  1.
</event>
<event>
 5   0  0.5328368E-06  0.3098246E+04  0.7818609E-02  0.8216219E-01
        2   -1    0    0  501    0  0.00000000000E+00  0.00000000000E+00  0.19120381553E+04  0.19120381553E+04  0.25500000920E-02 0. -1.
       -2   -1    0    0    0  501  0.00000000000E+00  0.00000000000E+00 -0.12550914319E+04  0.12550914319E+04  0.25500000920E-02 0.  1.
    10030    2    1    2    0    0  0.00000000000E+00  0.00000000000E+00  0.65694672339E+03  0.31671295871E+04  0.30982464112E+04 0.  0.
        1    1    3    3  502    0  0.13613309059E+04 -0.40660907910E+03 -0.30269231174E+03  0.14526442835E+04  0.50400001928E-02 0.  1.
       -1    1    3    3    0  502 -0.13613309059E+04  0.40660907910E+03  0.95963903513E+03  0.17144853037E+04  0.50400001928E-02 0. -1.
</event>
<event>
 5   0  0.5328368E-06  0.3098561E+04  0.7818609E-02  0.8216133E-01
        2   -1    0    0  501    0  0.00000000000E+00  0.00000000000E+00  0.17239304528E+04  0.17239304528E+04  0.25500000920E-02 0. -1.
       -2   -1    0    0    0  501  0.00000000000E+00  0.00000000000E+00 -0.13923244468E+04  0.13923244468E+04  0.25500000920E-02 0.  1.
    10030    2    1    2    0    0  0.00000000000E+00  0.00000000000E+00  0.33160600598E+03  0.31162548996E+04  0.30985612881E+04 0.  0.
        1    1    3    3  502    0 -0.67849472273E+02 -0.11215585477E+04  0.12385585510E+04  0.16722811998E+04  0.50400001928E-02 0. -1.
       -1    1    3    3    0  502  0.67849472273E+02  0.11215585477E+04 -0.90695254503E+03  0.14439736998E+04  0.50400001928E-02 0.  1.
</event>
<event>
 5   0  0.1836401E-06  0.3065276E+04  0.7818609E-02  0.8225333E-01
       -1   -1    0    0    0  501  0.00000000000E+00  0.00000000000E+00  0.10614266386E+04  0.10614266387E+04  0.50400001928E-02 0. -1.
        1   -1    0    0  501    0  0.00000000000E+00  0.00000000000E+00 -0.22130401040E+04  0.22130401040E+04  0.50400001928E-02 0.  1.
    10030    2    1    2    0    0  0.00000000000E+00  0.00000000000E+00 -0.11516134653E+04  0.32744667426E+04  0.30652763130E+04 0.  0.
        2    1    3    3  502    0 -0.23601966307E+03  0.14447720621E+04 -0.91068028369E+02  0.14667532098E+04  0.25500000920E-02 0.  1.
       -2    1    3    3    0  502  0.23601966307E+03 -0.14447720621E+04 -0.10605454370E+04  0.18077135328E+04  0.25500000920E-02 0. -1.
</event>
<event>
 5   0  0.1836401E-06  0.2963306E+04  0.7818609E-02  0.8254287E-01
        1   -1    0    0  501    0  0.00000000000E+00  0.00000000000E+00  0.12304912456E+04  0.12304912456E+04  0.50400001928E-02 0.  1.
       -1   -1    0    0    0  501  0.00000000000E+00  0.00000000000E+00 -0.17840801017E+04  0.17840801017E+04  0.50400001928E-02 0. -1.
    10030    2    1    2    0    0  0.00000000000E+00  0.00000000000E+00 -0.55358885608E+03  0.30145713472E+04  0.29633055506E+04 0.  0.
        2    1    3    3  502    0  0.50495343211E+03 -0.11185643969E+04 -0.11212949478E+04  0.16623677808E+04  0.25500000920E-02 0. -1.
       -2    1    3    3    0  502 -0.50495343211E+03  0.11185643969E+04  0.56770609168E+03  0.13522035665E+04  0.25500000920E-02 0.  1.
</event>
<event>
 5   0  0.5114870E-06  0.3097326E+04  0.7818609E-02  0.8216472E-01
       -2   -1    0    0    0  501  0.00000000000E+00  0.00000000000E+00  0.90144835050E+03  0.90144835051E+03  0.25500000920E-02 0. -1.
        2   -1    0    0  501    0  0.00000000000E+00  0.00000000000E+00 -0.26605597918E+04  0.26605597918E+04  0.25500000920E-02 0.  1.
    10030    2    1    2    0    0  0.00000000000E+00  0.00000000000E+00 -0.17591114413E+04  0.35620081423E+04  0.30973260957E+04 0.  0.
        2    1    3    3  502    0  0.50986200419E+03  0.98903432595E+03 -0.21182841509E+04  0.23927548778E+04  0.25500000920E-02 0.  1.
       -2    1    3    3    0  502 -0.50986200419E+03 -0.98903432595E+03  0.35917270962E+03  0.11692532645E+04  0.25500000920E-02 0. -1.
</event>
<event>
 5   0  0.1853742E-06  0.3093375E+04  0.7818609E-02  0.8217558E-01
        1   -1    0    0  501    0  0.00000000000E+00  0.00000000000E+00  0.14395261988E+04  0.14395261988E+04  0.50400001928E-02 0.  1.
       -1   -1    0    0    0  501  0.00000000000E+00  0.00000000000E+00 -0.16618261402E+04  0.16618261402E+04  0.50400001928E-02 0. -1.
    10030    2    1    2    0    0  0.00000000000E+00  0.00000000000E+00 -0.22229994138E+03  0.31013523390E+04  0.30933750284E+04 0.  0.
        5    1    3    3  502    0  0.34672280510E+03 -0.38961441178E+03  0.13486971123E+04  0.14460366815E+04  0.46999998093E+01 0.  1.
       -5    1    3    3    0  502 -0.34672280510E+03  0.38961441178E+03 -0.15709970537E+04  0.16553156575E+04  0.46999998093E+01 0. -1.
</event>
<event>
 5   0  0.1843709E-06  0.3022283E+04  0.7818609E-02  0.8237396E-01
       -1   -1    0    0    0  501  0.00000000000E+00  0.00000000000E+00  0.13828218261E+04  0.13828218261E+04  0.50400001928E-02 0.  1.
        1   -1    0    0  501    0  0.00000000000E+00  0.00000000000E+00 -0.16513683203E+04  0.16513683203E+04  0.50400001928E-02 0. -1.
    10030    2    1    2    0    0  0.00000000000E+00  0.00000000000E+00 -0.26854649418E+03  0.30341901464E+04  0.30222826845E+04 0.  0.
        4    1    3    3  502    0 -0.53367618395E+03 -0.71340538857E+03 -0.13596512955E+04  0.16255493767E+04  0.12699999809E+01 0. -1.
       -4    1    3    3    0  502  0.53367618395E+03  0.71340538857E+03  0.10911048013E+04  0.14086407697E+04  0.12699999809E+01 0.  1.
</event>
<event>
 5   0  0.1885307E-06  0.3108308E+04  0.7818609E-02  0.8213461E-01
        1   -1    0    0  501    0  0.00000000000E+00  0.00000000000E+00  0.18937588128E+04  0.18937588128E+04  0.50400001928E-02 0. -1.
       -1   -1    0    0    0  501  0.00000000000E+00  0.00000000000E+00 -0.12754502127E+04  0.12754502127E+04  0.50400001928E-02 0.  1.
    10030    2    1    2    0    0  0.00000000000E+00  0.00000000000E+00  0.61830860013E+03  0.31692090255E+04  0.31083082733E+04 0.  0.
        3    1    3    3  502    0  0.16018648707E+03 -0.67856027549E+03 -0.11070493325E+04  0.13083050076E+04  0.10100000352E+00 0.  1.
       -3    1    3    3    0  502 -0.16018648707E+03  0.67856027549E+03  0.17253579326E+04  0.18609040179E+04  0.10100000352E+00 0. -1.
</event>
<event>
 5   0  0.1853742E-06  0.2990208E+04  0.7818609E-02  0.8246533E-01
        1   -1    0    0  501    0  0.00000000000E+00  0.00000000000E+00  0.10923330149E+04  0.10923330149E+04  0.50400001928E-02 0. -1.
       -1   -1    0    0    0  501  0.00000000000E+00  0.00000000000E+00 -0.20463863438E+04  0.20463863438E+04  0.50400001928E-02 0.  1.
    10030    2    1    2    0    0  0.00000000000E+00  0.00000000000E+00 -0.95405332896E+03  0.31387193587E+04  0.29902075945E+04 0.  0.
        5    1    3    3  502    0 -0.15006698969E+03 -0.13137387446E+04  0.25539934179E+03  0.13467295587E+04  0.46999998093E+01 0. -1.
       -5    1    3    3    0  502  0.15006698969E+03  0.13137387446E+04 -0.12094526708E+04  0.17919898000E+04  0.46999998093E+01 0.  1.
</event>
<event>
 5   0  0.5114870E-06  0.3086138E+04  0.7818609E-02  0.8219552E-01
       -2   -1    0    0    0  501  0.00000000000E+00  0.00000000000E+00  0.20348344930E+04  0.20348344930E+04  0.25500000920E-02 0.  1.
        2   -1    0    0  501    0  0.00000000000E+00  0.00000000000E+00 -0.11701504147E+04  0.11701504147E+04  0.25500000920E-02 0. -1.
    10030    2    1    2    0    0  0.00000000000E+00  0.00000000000E+00  0.86468407835E+03  0.32049849077E+04  0.30861383156E+04 0.  0.
        2    1    3    3  502    0 -0.78485038657E+02  0.19472364747E+03  0.20199328834E+04  0.20308141357E+04  0.25500000920E-02 0.  1.
       -2    1    3    3    0  502  0.78485038657E+02 -0.19472364747E+03 -0.11552488051E+04  0.11741707720E+04  0.25500000920E-02 0. -1.
</event>
<event>
 5   0  0.5114870E-06  0.3081229E+04  0.7818609E-02  0.8220908E-01
       -2   -1    0    0    0  501  0.00000000000E+00  0.00000000000E+00  0.99795791604E+03  0.99795791604E+03  0.25500000920E-02 0.  1.
        2   -1    0    0  501    0  0.00000000000E+00  0.00000000000E+00 -0.23783498975E+04  0.23783498975E+04  0.25500000920E-02 0. -1.
    10030    2    1    2    0    0  0.00000000000E+00  0.00000000000E+00 -0.13803919814E+04  0.33763078135E+04  0.30812290452E+04 0.  0.
        2    1    3    3  502    0  0.13822387381E+04  0.20385584032E+03 -0.14014759419E+04  0.19789582988E+04  0.25500000920E-02 0. -1.
       -2    1    3    3    0  502 -0.13822387381E+04 -0.20385584032E+03  0.21083960426E+02  0.13973495147E+04  0.25500000920E-02 0.  1.
</event>
<event>
 5   0  0.1843709E-06  0.3102028E+04  0.7818609E-02  0.8215182E-01
        1   -1    0    0  501    0  0.00000000000E+00  0.00000000000E+00  0.19223866863E+04  0.19223866863E+04  0.50400001928E-02 0.  1.
       -1   -1    0    0    0  501  0.00000000000E+00  0.00000000000E+00 -0.12513842604E+04  0.12513842604E+04  0.50400001928E-02 0. -1.
    10030    2    1    2    0    0  0.00000000000E+00  0.00000000000E+00  0.67100242596E+03  0.31737709467E+04  0.31020280087E+04 0.  0.
        4    1    3    3  502    0 -0.56595740458E+03  0.58298242358E+03 -0.10162153309E+04  0.13011039550E+04  0.12699999809E+01 0. -1.
       -4    1    3    3    0  502  0.56595740458E+03 -0.58298242358E+03  0.16872177569E+04  0.18726669918E+04  0.12699999809E+01 0.  1.
</event>
<event>
 5   0  0.1840431E-06  0.3078782E+04  0.7818609E-02  0.8221585E-01
       -1   -1    0    0    0  501  0.00000000000E+00  0.00000000000E+00  0.14570546549E+04  0.14570546549E+04  0.50400001928E-02 0. -1.
        1   -1    0    0  501    0  0.00000000000E+00  0.00000000000E+00 -0.16263804706E+04  0.16263804706E+04  0.50400001928E-02 0.  1.
    10030    2    1    2    0    0  0.00000000000E+00  0.00000000000E+00 -0.16932581571E+03  0.30834351255E+04  0.30787823797E+04 0.  0.
        1    1    3    3  502    0 -0.13855032503E+04 -0.28335648291E+03  0.52438033993E+03  0.15082721551E+04  0.50400001928E-02 0. -1.
       -1    1    3    3    0  502  0.13855032503E+04  0.28335648291E+03 -0.69370615564E+03  0.15751629704E+04  0.50400001928E-02 0.  1.
</event>
<event>
 5   0  0.1840431E-06  0.3114752E+04  0.7818609E-02  0.8211701E-01
        1   -1    0    0  501    0  0.00000000000E+00  0.00000000000E+00  0.12819732830E+04  0.12819732830E+04  0.50400001928E-02 0. -1.
       -1   -1    0    0    0  501  0.00000000000E+00  0.00000000000E+00 -0.18919422476E+04  0.18919422476E+04  0.50400001928E-02 0.  1.
    10030    2    1    2    0    0  0.00000000000E+00  0.00000000000E+00 -0.60996896467E+03  0.31739155306E+04  0.31147516205E+04 0.  0.
        1    1    3    3  502    0 -0.37950322022E+03  0.15078419437E+04 -0.39503383222E+03  0.16042636161E+04  0.50400001928E-02 0.  1.
       -1    1    3    3    0  502  0.37950322022E+03 -0.15078419437E+04 -0.21493513245E+03  0.15696519145E+04  0.50400001928E-02 0. -1.
</event>
<event>
 5   0  0.1853742E-06  0.2937317E+04  0.7818609E-02  0.8261860E-01
        1   -1    0    0  501    0  0.00000000000E+00  0.00000000000E+00  0.19971470275E+04  0.19971470275E+04  0.50400001928E-02 0. -1.
       -1   -1    0    0    0  501  0.00000000000E+00  0.00000000000E+00 -0.10800192734E+04  0.10800192734E+04  0.50400001928E-02 0.  1.
    10030    2    1    2    0    0  0.00000000000E+00  0.00000000000E+00  0.91712775404E+03  0.30771663009E+04  0.29373166541E+04 0.  0.
        5    1    3    3  502    0  0.11380953547E+04  0.53849006085E+03  0.12506734962E+04  0.17746658463E+04  0.46999998093E+01 0. -1.
       -5    1    3    3    0  502 -0.11380953547E+04 -0.53849006085E+03 -0.33354574220E+03  0.13025004546E+04  0.46999998093E+01 0.  1.
</event>
<event>
 5   0  0.4900679E-06  0.3117803E+04  0.7818609E-02  0.8210869E-01
       -2   -1    0    0    0  501  0.00000000000E+00  0.00000000000E+00  0.16726869104E+04  0.16726869104E+04  0.25500000920E-02 0. -1.
        2   -1    0    0  501    0  0.00000000000E+00  0.00000000000E+00 -0.14528565340E+04  0.14528565340E+04  0.25500000920E-02 0.  1.
    10030    2    1    2    0    0  0.00000000000E+00  0.00000000000E+00  0.21983037649E+03  0.31255434444E+04  0.31178031414E+04 0.  0.
        4    1    3    3  502    0  0.37841185574E+03 -0.14774823915E+04  0.43324146677E+03  0.15855123876E+04  0.12699999809E+01 0. -1.
       -4    1    3    3    0  502 -0.37841185574E+03  0.14774823915E+04 -0.21341109028E+03  0.15400310568E+04  0.12699999809E+01 0.  1.
</event>
<event>
 5   0  0.5001658E-06  0.3092944E+04  0.7818609E-02  0.8217677E-01
       -2   -1    0    0    0  501  0.00000000000E+00  0.00000000000E+00  0.10639573010E+04  0.10639573010E+04  0.25500000920E-02 0.  1.
        2   -1    0    0  501    0  0.00000000000E+00  0.00000000000E+00 -0.22478120564E+04  0.22478120564E+04  0.25500000920E-02 0. -1.
    10030    2    1    2    0    0  0.00000000000E+00  0.00000000000E+00 -0.11838547554E+04  0.33117693574E+04  0.30929442598E+04 0.  0.
        3    1    3    3  502    0  0.63221342869E+02  0.42369469314E+03  0.99915847017E+03  0.10871208718E+04  0.10100000352E+00 0.  1.
       -3    1    3    3    0  502 -0.63221342869E+02 -0.42369469314E+03 -0.21830132255E+04  0.22246484856E+04  0.10100000352E+00 0. -1.
</event>
<event>
 5   0  0.5328368E-06  0.3082414E+04  0.7818609E-02  0.8220581E-01
        2   -1    0    0  501    0  0.00000000000E+00  0.00000000000E+00  0.15822115858E+04  0.15822115858E+04  0.25500000920E-02 0. -1.
       -2   -1    0    0    0  501  0.00000000000E+00  0.00000000000E+00 -0.15012649003E+04  0.15012649003E+04  0.25500000920E-02 0.  1.
    10030    2    1    2    0    0  0.00000000000E+00  0.00000000000E+00  0.80946685435E+02  0.30834764861E+04  0.30824138065E+04 0.  0.
        1    1    3    3  502    0  0.32420775878E+03  0.37527816656E+03  0.15002140136E+04  0.15800590052E+04  0.50400001928E-02 0. -1.
       -1    1    3    3    0  502 -0.32420775878E+03 -0.37527816656E+03 -0.14192673282E+04  0.15034174809E+04  0.50400001928E-02 0.  1.
</event>
<event>
 5   0  0.5001658E-06  0.3171760E+04  0.7818609E-02  0.8196315E-01
        2   -1    0    0  501    0  0.00000000000E+00  0.00000000000E+00  0.12104210920E+04  0.12104210920E+04  0.25500000920E-02 0.  1.
       -2   -1    0    0    0  501  0.00000000000E+00  0.00000000000E+00 -0.20778019318E+04  0.20778019318E+04  0.25500000920E-02 0. -1.
    10030    2    1    2    0    0  0.00000000000E+00  0.00000000000E+00 -0.86738083984E+03  0.32882230239E+04  0.31717599426E+04 0.  0.
        3    1    3    3  502    0  0.37837104926E+03 -0.97052470462E+03  0.80601560640E+03  0.13170968154E+04  0.10100000352E+00 0.  1.
       -3    1    3    3    0  502 -0.37837104926E+03  0.97052470462E+03 -0.16733964462E+04  0.19711262085E+04  0.10100000352E+00 0. -1.
</event>
<event>
 5   0  0.4927533E-06  0.3098530E+04  0.7818609E-02  0.8216142E-01
       -2   -1    0    0    0  501  0.00000000000E+00  0.00000000000E+00  0.17504114363E+04  0.17504114363E+04  0.25500000920E-02 0.  1.
        2   -1    0    0  501    0  0.00000000000E+00  0.00000000000E+00 -0.13712327264E+04  0.13712327264E+04  0.25500000920E-02 0. -1.
    10030    2    1    2    0    0  0.00000000000E+00  0.00000000000E+00  0.37917870990E+03  0.31216441628E+04  0.30985296166E+04 0.  0.
        5    1    3    3  502    0  0.10002103351E+04 -0.11271144272E+04 -0.17280462124E+03  0.15168029449E+04  0.46999998093E+01 0. -1.
       -5    1    3    3    0  502 -0.10002103351E+04  0.11271144272E+04  0.55198333114E+03  0.16048412178E+04  0.46999998093E+01 0.  1.
</event>
<event>
 5   0  0.1836401E-06  0.3092735E+04  0.7818609E-02  0.8217734E-01
       -1   -1    0    0    0  501  0.00000000000E+00  0.00000000000E+00  0.16953518408E+04  0.16953518408E+04  0.50400001928E-02 0.  1.
        1   -1    0    0  501    0  0.00000000000E+00  0.00000000000E+00 -0.14104760743E+04  0.14104760743E+04  0.50400001928E-02 0. -1.
    10030    2    1    2    0    0  0.00000000000E+00  0.00000000000E+00  0.28487576652E+03  0.31058279151E+04  0.30927354940E+04 0.  0.
        2    1    3    3  502    0 -0.55274867677E+03  0.14396580662E+04  0.27468470473E+02  0.15423686214E+04  0.25500000920E-02 0. -1.
       -2    1    3    3    0  502  0.55274867677E+03 -0.14396580662E+04  0.25740729605E+03  0.15634592938E+04  0.25500000920E-02 0.  1.
</event>
<event>
 5   0  0.1885307E-06  0.3089605E+04  0.7818609E-02  0.8218597E-01
        1   -1    0    0  501    0  0.00000000000E+00  0.00000000000E+00  0.24623258926E+04  0.24623258926E+04  0.50400001928E-02 0.  1.
       -1   -1    0    0    0  501  0.00000000000E+00  0.00000000000E+00 -0.96917078284E+03  0.96917078286E+03  0.50400001928E-02 0. -1.
    10030    2    1    2    0    0  0.00000000000E+00  0.00000000000E+00  0.14931551097E+04  0.34314966754E+04  0.30896047080E+04 0.  0.
        3    1    3    3  502    0 -0.79205582872E+03 -0.13177199543E+04  0.57932845747E+03  0.16429728499E+04  0.10100000352E+00 0.  1.
       -3    1    3    3    0  502  0.79205582872E+03  0.13177199543E+04  0.91382665227E+03  0.17885238255E+04  0.10100000352E+00 0. -1.
</event>
<event>
 5   0  0.5328368E-06  0.3164388E+04  0.7818609E-02  0.8198286E-01
        2   -1    0    0  501    0  0.00000000000E+00  0.00000000000E+00  0.14228260921E+04  0.14228260921E+04  0.25500000920E-02 0.  1.
       -2   -1    0    0    0  501  0.00000000000E+00  0.00000000000E+00 -0.17594119566E+04  0.17594119566E+04  0.25500000920E-02 0. -1.
    10030    2    1    2    0    0  0.00000000000E+00  0.00000000000E+00 -0.33658586449E+03  0.31822380486E+04  0.31643876112E+04 0.  0.
        1    1    3    3  502    0 -0.11878431656E+04  0.21398627586E+02  0.88254563297E+03  0.14799716489E+04  0.50400001928E-02 0. -1.
       -1    1    3    3    0  502  0.11878431656E+04 -0.21398627586E+02 -0.12191314975E+04  0.17022663997E+04  0.50400001928E-02 0.  1.
</event>
<event>
 5   0  0.1885307E-06  0.3096325E+04  0.7818609E-02  0.8216747E-01
       -1   -1    0    0    0  501  0.00000000000E+00  0.00000000000E+00  0.95168390113E+03  0.95168390114E+03  0.50400001928E-02 0.  1.
        1   -1    0    0  501    0  0.00000000000E+00  0.00000000000E+00 -0.25184914580E+04  0.25184914580E+04  0.50400001928E-02 0. -1.
    10030    2    1    2    0    0  0.00000000000E+00  0.00000000000E+00 -0.15668075569E+04  0.34701753592E+04  0.30963254194E+04 0.  0.
        3    1    3    3  502    0  0.11883576674E+04  0.98081966108E+03 -0.95191257123E+03  0.18111705350E+04  0.10100000352E+00 0.  1.
       -3    1    3    3    0  502 -0.11883576674E+04 -0.98081966108E+03 -0.61489498568E+03  0.16590048242E+04  0.10100000352E+00 0. -1.
</event>
<event>
 5   0  0.1836401E-06  0.2620541E+04  0.7818609E-02  0.8361257E-01
        1   -1    0    0  501    0  0.00000000000E+00  0.00000000000E+00  0.10103143291E+04  0.10103143292E+04  0.50400001928E-02 0. -1.
       -1   -1    0    0    0  501  0.00000000000E+00  0.00000000000E+00 -0.16992823996E+04  0.16992823996E+04  0.50400001928E-02 0.  1.
    10030    2    1    2    0    0  0.00000000000E+00  0.00000000000E+00 -0.68896807041E+03  0.27095967287E+04  0.26205414384E+04 0.  0.
        2    1    3    3  502    0  0.67363897495E+03  0.87357931669E+03 -0.10755323878E+04  0.15406817350E+04  0.25500000920E-02 0.  1.
       -2    1    3    3    0  502 -0.67363897495E+03 -0.87357931669E+03  0.38656431743E+03  0.11689149938E+04  0.25500000920E-02 0. -1.
</event>
<event>
 5   0  0.1843709E-06  0.3096947E+04  0.7818609E-02  0.8216576E-01
       -1   -1    0    0    0  501  0.00000000000E+00  0.00000000000E+00  0.12356133437E+04  0.12356133437E+04  0.50400001928E-02 0.  1.
        1   -1    0    0  501    0  0.00000000000E+00  0.00000000000E+00 -0.19405507851E+04  0.19405507852E+04  0.50400001928E-02 0. -1.
    10030    2    1    2    0    0  0.00000000000E+00  0.00000000000E+00 -0.70493744144E+03  0.31761641289E+04  0.30969471706E+04 0.  0.
        4    1    3    3  502    0 -0.57574992075E+03  0.12894865824E+04  0.29900021969E+03  0.14434910328E+04  0.12699999809E+01 0.  1.
       -4    1    3    3    0  502  0.57574992075E+03 -0.12894865824E+04 -0.10039376611E+04  0.17326730961E+04  0.12699999809E+01 0. -1.
</event>
<event>
 5   0  0.4900679E-06  0.3137338E+04  0.7818609E-02  0.8205565E-01
       -2   -1    0    0    0  501  0.00000000000E+00  0.00000000000E+00  0.13641743297E+04  0.13641743297E+04  0.25500000920E-02 0.  1.
        2   -1    0    0  501    0  0.00000000000E+00  0.00000000000E+00 -0.18038183451E+04  0.18038183451E+04  0.25500000920E-02 0. -1.
    10030    2    1    2    0    0  0.00000000000E+00  0.00000000000E+00 -0.43964401536E+03  0.31679926748E+04  0.31373381596E+04 0.  0.
        4    1    3    3  502    0 -0.11830519740E+02  0.11753902128E+04 -0.12687396709E+04  0.17295618171E+04  0.12699999809E+01 0. -1.
       -4    1    3    3    0  502  0.11830519740E+02 -0.11753902128E+04  0.82909565552E+03  0.14384308578E+04  0.12699999809E+01 0.  1.
</event>
<event>
 5   0  0.1649875E-06  0.3047584E+04  0.7818609E-02  0.8230272E-01
       -3   -1    0    0    0  501  0.00000000000E+00  0.00000000000E+00  0.11933806622E+04  0.11933806665E+04  0.10100000352E+00 0.  1.
        3   -1    0    0  501    0  0.00000000000E+00  0.00000000000E+00 -0.19456838625E+04  0.19456838651E+04  0.10100000352E+00 0. -1.
    10030    2    1    2    0    0  0.00000000000E+00  0.00000000000E+00 -0.75230320027E+03  0.31390645316E+04  0.30475836376E+04 0.  0.
        4    1    3    3  502    0  0.15144745147E+02  0.56201751722E+03 -0.18349440103E+04  0.19191441287E+04  0.12699999809E+01 0. -1.
       -4    1    3    3    0  502 -0.15144745147E+02 -0.56201751722E+03  0.10826408100E+04  0.12199204029E+04  0.12699999809E+01 0.  1.
</event>
<event>
 5   0  0.1853742E-06  0.3096417E+04  0.7818609E-02  0.8216722E-01
        1   -1    0    0  501    0  0.00000000000E+00  0.00000000000E+00  0.11859942293E+04  0.11859942293E+04  0.50400001928E-02 0.  1.
       -1   -1    0    0    0  501  0.00000000000E+00  0.00000000000E+00 -0.20210467319E+04  0.20210467319E+04  0.50400001928E-02 0. -1.
    10030    2    1    2    0    0  0.00000000000E+00  0.00000000000E+00 -0.83505250253E+03  0.32070409612E+04  0.30964171303E+04 0.  0.
        5    1    3    3  502    0  0.19699629028E+03 -0.13003741216E+04 -0.12634980862E+04  0.18237954650E+04  0.46999998093E+01 0. -1.
       -5    1    3    3    0  502 -0.19699629028E+03  0.13003741216E+04  0.42844558366E+03  0.13832454962E+04  0.46999998093E+01 0.  1.
</event>
<event>
 5   0  0.1853742E-06  0.3095759E+04  0.7818609E-02  0.8216903E-01
        1   -1    0    0  501    0  0.00000000000E+00  0.00000000000E+00  0.15904213916E+04  0.15904213916E+04  0.50400001928E-02 0. -1.
       -1   -1    0    0    0  501  0.00000000000E+00  0.00000000000E+00 -0.15064755221E+04  0.15064755221E+04  0.50400001928E-02 0.  1.
    10030    2    1    2    0    0  0.00000000000E+00  0.00000000000E+00  0.83945869480E+02  0.30968969137E+04  0.30957589675E+04 0.  0.
        5    1    3    3  502    0 -0.15227361063E+04  0.23889037033E+02  0.31886497892E+03  0.15559540161E+04  0.46999998093E+01 0.  1.
       -5    1    3    3    0  502  0.15227361063E+04 -0.23889037033E+02 -0.23491910944E+03  0.15409428976E+04  0.46999998093E+01 0. -1.
</event>
<event>
 5   0  0.4927533E-06  0.2332941E+04  0.7818609E-02  0.8465045E-01
        2   -1    0    0  501    0  0.00000000000E+00  0.00000000000E+00  0.16246111692E+04  0.16246111692E+04  0.25500000920E-02 0.  1.
       -2   -1    0    0    0  501  0.00000000000E+00  0.00000000000E+00 -0.83752571066E+03  0.83752571067E+03  0.25500000920E-02 0. -1.
    10030    2    1    2    0    0  0.00000000000E+00  0.00000000000E+00  0.78708545857E+03  0.24621368799E+04  0.23329411686E+04 0.  0.
        5    1    3    3  502    0  0.54024719158E+03  0.71334922755E+03  0.11832436169E+04  0.14835166651E+04  0.46999998093E+01 0.  1.
       -5    1    3    3    0  502 -0.54024719158E+03 -0.71334922755E+03 -0.39615815837E+03  0.97862021485E+03  0.46999998093E+01 0. -1.
</event>
<event>
 5   0  0.5328368E-06  0.3149038E+04  0.7818609E-02  0.8202407E-01
       -2   -1    0    0    0  501  0.00000000000E+00  0.00000000000E+00  0.11137548063E+04  0.11137548063E+04  0.25500000920E-02 0. -1.
        2   -1    0    0  501    0  0.00000000000E+00  0.00000000000E+00 -0.22259032976E+04  0.22259032976E+04  0.25500000920E-02 0.  1.
    10030    2    1    2    0    0  0.00000000000E+00  0.00000000000E+00 -0.11121484913E+04  0.33396581040E+04  0.31490382635E+04 0.  0.
        1    1    3    3  502    0 -0.12014113464E+04 -0.57882764567E+03 -0.14438103407E+04  0.19654564270E+04  0.50400001928E-02 0.  1.
       -1    1    3    3    0  502  0.12014113464E+04  0.57882764567E+03  0.33166184938E+03  0.13742016770E+04  0.50400001928E-02 0. -1.
</event>
<event>
 5   0  0.1836401E-06  0.2338454E+04  0.7818609E-02  0.8462912E-01
        1   -1    0    0  501    0  0.00000000000E+00  0.00000000000E+00  0.77369930076E+03  0.77369930077E+03  0.50400001928E-02 0.  1.
       -1   -1    0    0    0  501  0.00000000000E+00  0.00000000000E+00 -0.17669543193E+04  0.17669543193E+04  0.50400001928E-02 0. -1.
    10030    2    1    2    0    0  0.00000000000E+00  0.00000000000E+00 -0.99325501857E+03  0.25406536201E+04  0.23384536099E+04 0.  0.
        2    1    3    3  502    0  0.53681790982E+03  0.10223173916E+03 -0.16196725149E+04  0.17093752813E+04  0.25500000920E-02 0. -1.
       -2    1    3    3    0  502 -0.53681790982E+03 -0.10223173916E+03  0.62641749635E+03  0.83127833879E+03  0.25500000920E-02 0.  1.
</event>
<event>
 5   0  0.1649875E-06  0.3104648E+04  0.7818609E-02  0.8214463E-01
        4   -1    0    0  501    0  0.00000000000E+00  0.00000000000E+00  0.11299074518E+04  0.11299081655E+04  0.12699999809E+01 0.  1.
       -4   -1    0    0    0  501  0.00000000000E+00  0.00000000000E+00 -0.21326595793E+04  0.21326599575E+04  0.12699999809E+01 0. -1.
    10030    2    1    2    0    0  0.00000000000E+00  0.00000000000E+00 -0.10027521275E+04  0.32625681230E+04  0.31046479555E+04 0.  0.
        3    1    3    3  502    0 -0.12408715283E+04  0.56173155250E+03 -0.12838337991E+04  0.18717728817E+04  0.10100000352E+00 0. -1.
       -3    1    3    3    0  502  0.12408715283E+04 -0.56173155250E+03  0.28108167162E+03  0.13907952412E+04  0.10100000352E+00 0.  1.
</event>
<event>
 5   0  0.5328368E-06  0.3130236E+04  0.7818609E-02  0.8207489E-01
       -2   -1    0    0    0  501  0.00000000000E+00  0.00000000000E+00  0.12077747932E+04  0.12077747932E+04  0.25500000920E-02 0. -1.
        2   -1    0    0  501    0  0.00000000000E+00  0.00000000000E+00 -0.20281873853E+04  0.20281873853E+04  0.25500000920E-02 0.  1.
    10030    2    1    2    0    0  0.00000000000E+00  0.00000000000E+00 -0.82041259215E+03  0.32359621785E+04  0.31302355182E+04 0.  0.
        1    1    3    3  502    0 -0.68820130125E+03  0.14043397982E+04 -0.34646078507E+03  0.16018197075E+04  0.50400001928E-02 0. -1.
       -1    1    3    3    0  502  0.68820130125E+03 -0.14043397982E+04 -0.47395180709E+03  0.16341424709E+04  0.50400001928E-02 0.  1.
</event>
<event>
 5   0  0.5328368E-06  0.3066093E+04  0.7818609E-02  0.8225105E-01
       -2   -1    0    0    0  501  0.00000000000E+00  0.00000000000E+00  0.11510297414E+04  0.11510297414E+04  0.25500000920E-02 0.  1.
        2   -1    0    0  501    0  0.00000000000E+00  0.00000000000E+00 -0.20418512515E+04  0.20418512515E+04  0.25500000920E-02 0. -1.
    10030    2    1    2    0    0  0.00000000000E+00  0.00000000000E+00 -0.89082151011E+03  0.31928809928E+04  0.30660929652E+04 0.  0.
        1    1    3    3  502    0  0.14239020261E+04  0.31749890989E+03  0.45163125476E+02  0.14595691987E+04  0.50400001928E-02 0.  1.
       -1    1    3    3    0  502 -0.14239020261E+04 -0.31749890989E+03 -0.93598463559E+03  0.17333117942E+04  0.50400001928E-02 0. -1.
</event>
<event>
 5   0  0.5001658E-06  0.3099964E+04  0.7818609E-02  0.8215748E-01
        2   -1    0    0  501    0  0.00000000000E+00  0.00000000000E+00  0.25456897968E+04  0.25456897968E+04  0.25500000920E-02 0.  1.
       -2   -1    0    0    0  501  0.00000000000E+00  0.00000000000E+00 -0.94372992265E+03  0.94372992266E+03  0.25500000920E-02 0. -1.
    10030    2    1    2    0    0  0.00000000000E+00  0.00000000000E+00  0.16019598742E+04  0.34894197195E+04  0.30999636353E+04 0.  0.
        3    1    3    3  502    0 -0.73227105510E+03 -0.55462334392E+03 -0.60431063062E+03  0.10995541370E+04  0.10100000352E+00 0. -1.
       -3    1    3    3    0  502  0.73227105510E+03  0.55462334392E+03  0.22062705048E+04  0.23898655825E+04  0.10100000352E+00 0.  1.
</event>
<event>
 5   0  0.1843709E-06  0.3308244E+04  0.7818609E-02  0.8160801E-01
        1   -1    0    0  501    0  0.00000000000E+00  0.00000000000E+00  0.16340693795E+04  0.16340693795E+04  0.50400001928E-02 0.  1.
       -1   -1    0    0    0  501  0.00000000000E+00  0.00000000000E+00 -0.16744207902E+04  0.16744207902E+04  0.50400001928E-02 0. -1.
    10030    2    1    2    0    0  0.00000000000E+00  0.00000000000E+00 -0.40351410692E+02  0.33084901697E+04  0.33082440911E+04 0.  0.
        4    1    3    3  502    0  0.17495570140E+03  0.15327067238E+04  0.57679308828E+03  0.16469642613E+04  0.12699999809E+01 0.  1.
       -4    1    3    3    0  502 -0.17495570140E+03 -0.15327067238E+04 -0.61714449897E+03  0.16615259083E+04  0.12699999809E+01 0. -1.
</event>
<event>
 5   0  0.1843709E-06  0.3084440E+04  0.7818609E-02  0.8220021E-01
       -1   -1    0    0    0  501  0.00000000000E+00  0.00000000000E+00  0.12330996875E+04  0.12330996875E+04  0.50400001928E-02 0.  1.
        1   -1    0    0  501    0  0.00000000000E+00  0.00000000000E+00 -0.19288328255E+04  0.19288328256E+04  0.50400001928E-02 0. -1.
    10030    2    1    2    0    0  0.00000000000E+00  0.00000000000E+00 -0.69573313802E+03  0.31619325131E+04  0.30844404060E+04 0.  0.
        4    1    3    3  502    0 -0.11578010089E+04 -0.85784341545E+03 -0.91125850814E+03  0.17049317239E+04  0.12699999809E+01 0. -1.
       -4    1    3    3    0  502  0.11578010089E+04  0.85784341545E+03  0.21552537012E+03  0.14570007892E+04  0.12699999809E+01 0.  1.
</event>
<event>
 5   0  0.1840431E-06  0.2903441E+04  0.7818609E-02  0.8271854E-01
       -1   -1    0    0    0  501  0.00000000000E+00  0.00000000000E+00  0.13381246084E+04  0.13381246084E+04  0.50400001928E-02 0. -1.
        1   -1    0    0  501    0  0.00000000000E+00  0.00000000000E+00 -0.15749597151E+04  0.15749597152E+04  0.50400001928E-02 0.  1.
    10030    2    1    2    0    0  0.00000000000E+00  0.00000000000E+00 -0.23683510680E+03  0.29130843235E+04  0.29034409600E+04 0.  0.
        1    1    3    3  502    0 -0.12061610483E+03 -0.57975512181E+02 -0.15687576858E+04  0.15744554873E+04  0.50400001928E-02 0.  1.
       -1    1    3    3    0  502  0.12061610483E+03  0.57975512181E+02  0.13319225790E+04  0.13386288362E+04  0.50400001928E-02 0. -1.
</event>
<event>
 5   0  0.4927533E-06  0.2835626E+04  0.7818609E-02  0.8292292E-01
       -2   -1    0    0    0  501  0.00000000000E+00  0.00000000000E+00  0.10645026393E+04  0.10645026393E+04  0.25500000920E-02 0. -1.
        2   -1    0    0  501    0  0.00000000000E+00  0.00000000000E+00 -0.18883881183E+04  0.18883881183E+04  0.25500000920E-02 0.  1.
    10030    2    1    2    0    0  0.00000000000E+00  0.00000000000E+00 -0.82388547891E+03  0.29528907576E+04  0.28356263054E+04 0.  0.
        5    1    3    3  502    0  0.92727543919E+02 -0.11857192068E+04  0.39175292952E+03  0.12522064057E+04  0.46999998093E+01 0. -1.
       -5    1    3    3    0  502 -0.92727543919E+02  0.11857192068E+04 -0.12156384084E+04  0.17006843519E+04  0.46999998093E+01 0.  1.
</event>
<event>
 5   0  0.1885307E-06  0.3089143E+04  0.7818609E-02  0.8218724E-01
       -1   -1    0    0    0  501  0.00000000000E+00  0.00000000000E+00  0.11403940139E+04  0.11403940139E+04  0.50400001928E-02 0. -1.
        1   -1    0    0  501    0  0.00000000000E+00  0.00000000000E+00 -0.20919970429E+04  0.20919970429E+04  0.50400001928E-02 0.  1.
    10030    2    1    2    0    0  0.00000000000E+00  0.00000000000E+00 -0.95160302899E+03  0.32323910568E+04  0.30891428615E+04 0.  0.
        3    1    3    3  502    0 -0.11108345283E+04  0.42956047918E+02  0.64625925622E+03  0.12858653148E+04  0.10100000352E+00 0. -1.
       -3    1    3    3    0  502  0.11108345283E+04 -0.42956047918E+02 -0.15978622852E+04  0.19465257419E+04  0.10100000352E+00 0.  1.
</event>
<event>
 5   0  0.4927533E-06  0.3084747E+04  0.7818609E-02  0.8219937E-01
       -2   -1    0    0    0  501  0.00000000000E+00  0.00000000000E+00  0.91276170420E+03  0.91276170421E+03  0.25500000920E-02 0. -1.
        2   -1    0    0  501    0  0.00000000000E+00  0.00000000000E+00 -0.26062831528E+04  0.26062831528E+04  0.25500000920E-02 0.  1.
    10030    2    1    2    0    0  0.00000000000E+00  0.00000000000E+00 -0.16935214486E+04  0.35190448570E+04  0.30847466361E+04 0.  0.
        5    1    3    3  502    0 -0.51788869590E+03 -0.14425055245E+04 -0.64962370500E+03  0.16646512961E+04  0.46999998093E+01 0.  1.
       -5    1    3    3    0  502  0.51788869590E+03  0.14425055245E+04 -0.10438977436E+04  0.18543935609E+04  0.46999998093E+01 0. -1.
</event>
<event>
 5   0  0.5328368E-06  0.3071316E+04  0.7818609E-02  0.8223654E-01
        2   -1    0    0  501    0  0.00000000000E+00  0.00000000000E+00  0.18895901050E+04  0.18895901050E+04  0.25500000920E-02 0. -1.
       -2   -1    0    0    0  501  0.00000000000E+00  0.00000000000E+00 -0.12480196946E+04  0.12480196946E+04  0.25500000920E-02 0.  1.
    10030    2    1    2    0    0  0.00000000000E+00  0.00000000000E+00  0.64157041033E+03  0.31376097996E+04  0.30713161125E+04 0.  0.
        1    1    3    3  502    0 -0.72690259393E+03  0.48308564142E+03  0.16115795272E+04  0.18327432145E+04  0.50400001928E-02 0. -1.
       -1    1    3    3    0  502  0.72690259393E+03 -0.48308564142E+03 -0.97000911684E+03  0.13048665851E+04  0.50400001928E-02 0.  1.
</event>
<event>
 5   0  0.4900679E-06  0.3094705E+04  0.7818609E-02  0.8217193E-01
        2   -1    0    0  501    0  0.00000000000E+00  0.00000000000E+00  0.19906817780E+04  0.19906817780E+04  0.25500000920E-02 0.  1.
       -2   -1    0    0    0  501  0.00000000000E+00  0.00000000000E+00 -0.12027536688E+04  0.12027536688E+04  0.25500000920E-02 0. -1.
    10030    2    1    2    0    0  0.00000000000E+00  0.00000000000E+00  0.78792810927E+03  0.31934354468E+04  0.30947050340E+04 0.  0.
        4    1    3    3  502    0  0.11790424159E+04  0.47546626674E+03 -0.51627092424E+03  0.13721320889E+04  0.12699999809E+01 0. -1.
       -4    1    3    3    0  502 -0.11790424159E+04 -0.47546626674E+03  0.13041990335E+04  0.18213033578E+04  0.12699999809E+01 0.  1.
</event>
<event>
 5   0  0.4927533E-06  0.3010118E+04  0.7818609E-02  0.8240848E-01
        2   -1    0    0  501    0  0.00000000000E+00  0.00000000000E+00  0.14168365170E+04  0.14168365170E+04  0.25500000920E-02 0.  1.
       -2   -1    0    0    0  501  0.00000000000E+00  0.00000000000E+00 -0.15987743912E+04  0.15987743912E+04  0.25500000920E-02 0. -1.
    10030    2    1    2    0    0  0.00000000000E+00  0.00000000000E+00 -0.18193787421E+03  0.30156109082E+04  0.30101175657E+04 0.  0.
        5    1    3    3  502    0  0.13594978766E+04 -0.58937856251E+03  0.17328940288E+03  0.14918622167E+04  0.46999998093E+01 0. -1.
       -5    1    3    3    0  502 -0.13594978766E+04  0.58937856251E+03 -0.35522727709E+03  0.15237486915E+04  0.46999998093E+01 0.  1.
</event>
<event>
 5   0  0.1843709E-06  0.3099048E+04  0.7818609E-02  0.8215999E-01
        1   -1    0    0  501    0  0.00000000000E+00  0.00000000000E+00  0.19344924547E+04  0.19344924547E+04  0.50400001928E-02 0. -1.
       -1   -1    0    0    0  501  0.00000000000E+00  0.00000000000E+00 -0.12411649396E+04  0.12411649396E+04  0.50400001928E-02 0.  1.
    10030    2    1    2    0    0  0.00000000000E+00  0.00000000000E+00  0.69332751510E+03  0.31756573943E+04  0.30990477316E+04 0.  0.
        4    1    3    3  502    0  0.12260191383E+04 -0.85785244306E+03 -0.65764056631E+02  0.14977851200E+04  0.12699999809E+01 0.  1.
       -4    1    3    3    0  502 -0.12260191383E+04  0.85785244306E+03  0.75909157173E+03  0.16778722743E+04  0.12699999809E+01 0. -1.
</event>
<event>
 5   0  0.5328368E-06  0.3103199E+04  0.7818609E-02  0.8214861E-01
        2   -1    0    0  501    0  0.00000000000E+00  0.00000000000E+00  0.18539579160E+04  0.18539579160E+04  0.25500000920E-02 0.  1.
       -2   -1    0    0    0  501  0.00000000000E+00  0.00000000000E+00 -0.12985519637E+04  0.12985519637E+04  0.25500000920E-02 0. -1.
    10030    2    1    2    0    0  0.00000000000E+00  0.00000000000E+00  0.55540595231E+03  0.31525098797E+04  0.31031987964E+04 0.  0.
        1    1    3    3  502    0  0.76925902249E+03  0.95929725895E+03 -0.68361603898E+03  0.14068907433E+04  0.50400001928E-02 0. -1.
       -1    1    3    3    0  502 -0.76925902249E+03 -0.95929725895E+03  0.12390219913E+04  0.17456191365E+04  0.50400001928E-02 0.  1.
</event>
<event>
 5   0  0.1840431E-06  0.3023216E+04  0.7818609E-02  0.8237132E-01
        1   -1    0    0  501    0  0.00000000000E+00  0.00000000000E+00  0.25265218932E+04  0.25265218932E+04  0.50400001928E-02 0.  1.
       -1   -1    0    0    0  501  0.00000000000E+00  0.00000000000E+00 -0.90438930000E+03  0.90438930001E+03  0.50400001928E-02 0. -1.
    10030    2    1    2    0    0  0.00000000000E+00  0.00000000000E+00  0.16221325932E+04  0.34309111932E+04  0.30232164107E+04 0.  0.
        1    1    3    3  502    0  0.77030634048E+03 -0.12392927656E+04  0.36320694267E+03  0.15037079837E+04  0.50400001928E-02 0. -1.
       -1    1    3    3    0  502 -0.77030634048E+03  0.12392927656E+04  0.12589256505E+04  0.19272032095E+04  0.50400001928E-02 0.  1.
</event>
<event>
 5   0  0.1836401E-06  0.3159482E+04  0.7818609E-02  0.8199601E-01
        1   -1    0    0  501    0  0.00000000000E+00  0.00000000000E+00  0.28813132170E+04  0.28813132170E+04  0.50400001928E-02 0. -1.
       -1   -1    0    0    0  501  0.00000000000E+00  0.00000000000E+00 -0.86612634263E+03  0.86612634265E+03  0.50400001928E-02 0.  1.
    10030    2    1    2    0    0  0.00000000000E+00  0.00000000000E+00  0.20151868743E+04  0.37474395596E+04  0.31594817794E+04 0.  0.
        2    1    3    3  502    0 -0.74519480742E+03 -0.46423437100E+02 -0.64363852877E+03  0.98576923884E+03  0.25500000920E-02 0.  1.
       -2    1    3    3    0  502  0.74519480742E+03  0.46423437100E+02  0.26588254031E+04  0.27616703208E+04  0.25500000920E-02 0. -1.
</event>
<event>
 5   0  0.1836401E-06  0.3117494E+04  0.7818609E-02  0.8210953E-01
       -1   -1    0    0    0  501  0.00000000000E+00  0.00000000000E+00  0.13423787730E+04  0.13423787730E+04  0.50400001928E-02 0. -1.
        1   -1    0    0  501    0  0.00000000000E+00  0.00000000000E+00 -0.18099905819E+04  0.18099905819E+04  0.50400001928E-02 0.  1.
    10030    2    1    2    0    0  0.00000000000E+00  0.00000000000E+00 -0.46761180893E+03  0.31523693549E+04  0.31174944661E+04 0.  0.
        2    1    3    3  502    0 -0.77992441352E+03  0.84360269314E+03 -0.12990351249E+04  0.17341971775E+04  0.25500000920E-02 0.  1.
       -2    1    3    3    0  502  0.77992441352E+03 -0.84360269314E+03  0.83142331592E+03  0.14181721775E+04  0.25500000920E-02 0. -1.
</event>
<event>
 5   0  0.1840431E-06  0.3063805E+04  0.7818609E-02  0.8225742E-01
       -1   -1    0    0    0  501  0.00000000000E+00  0.00000000000E+00  0.11357673782E+04  0.11357673782E+04  0.50400001928E-02 0.  1.
        1   -1    0    0  501    0  0.00000000000E+00  0.00000000000E+00 -0.20662022443E+04  0.20662022443E+04  0.50400001928E-02 0. -1.
    10030    2    1    2    0    0  0.00000000000E+00  0.00000000000E+00 -0.93043486606E+03  0.32019696226E+04  0.30638048932E+04 0.  0.
        1    1    3    3  502    0 -0.79713285116E+03 -0.12223028816E+04  0.21936224204E+02  0.14594267076E+04  0.50400001928E-02 0. -1.
       -1    1    3    3    0  502  0.79713285116E+03  0.12223028816E+04 -0.95237109027E+03  0.17425429150E+04  0.50400001928E-02 0.  1.
</event>
<event>
 5   0  0.1843709E-06  0.2985905E+04  0.7818609E-02  0.8247767E-01
       -1   -1    0    0    0  501  0.00000000000E+00  0.00000000000E+00  0.10359458010E+04  0.10359458010E+04  0.50400001928E-02 0. -1.
        1   -1    0    0  501    0  0.00000000000E+00  0.00000000000E+00 -0.21515667697E+04  0.21515667697E+04  0.50400001928E-02 0.  1.
    10030    2    1    2    0    0  0.00000000000E+00  0.00000000000E+00 -0.11156209687E+04  0.31875125707E+04  0.29859045937E+04 0.  0.
        4    1    3    3  502    0 -0.67488546924E+03 -0.69087626408E+03  0.65753386398E+03  0.11683889781E+04  0.12699999809E+01 0. -1.
       -4    1    3    3    0  502  0.67488546924E+03  0.69087626408E+03 -0.17731548327E+04  0.20191235927E+04  0.12699999809E+01 0.  1.
</event>
<event>
 5   0  0.4900679E-06  0.2874307E+04  0.7818609E-02  0.8280563E-01
        2   -1    0    0  501    0  0.00000000000E+00  0.00000000000E+00  0.10378416064E+04  0.10378416064E+04  0.25500000920E-02 0.  1.
       -2   -1    0    0    0  501  0.00000000000E+00  0.00000000000E+00 -0.19901012344E+04  0.19901012344E+04  0.25500000920E-02 0. -1.
    10030    2    1    2    0    0  0.00000000000E+00  0.00000000000E+00 -0.95225962800E+03  0.30279428407E+04  0.28743067769E+04 0.  0.
        4    1    3    3  502    0  0.35792149793E+03 -0.59672239888E+03 -0.18008101566E+04  0.19305709655E+04  0.12699999809E+01 0. -1.
       -4    1    3    3    0  502 -0.35792149793E+03  0.59672239888E+03  0.84855052860E+03  0.10973718752E+04  0.12699999809E+01 0.  1.
</event>
<event>
 5   0  0.4900679E-06  0.3097907E+04  0.7818609E-02  0.8216312E-01
       -2   -1    0    0    0  501  0.00000000000E+00  0.00000000000E+00  0.16079299129E+04  0.16079299129E+04  0.25500000920E-02 0. -1.
        2   -1    0    0  501    0  0.00000000000E+00  0.00000000000E+00 -0.14921405840E+04  0.14921405840E+04  0.25500000920E-02 0.  1.
    10030    2    1    2    0    0  0.00000000000E+00  0.00000000000E+00  0.11578932884E+03  0.31000704969E+04  0.30979073448E+04 0.  0.
        4    1    3    3  502    0 -0.76073062909E+03  0.89080617212E+03 -0.95622755921E+03  0.15121572287E+04  0.12699999809E+01 0.  1.
       -4    1    3    3    0  502  0.76073062909E+03 -0.89080617212E+03  0.10720168881E+04  0.15879132683E+04  0.12699999809E+01 0. -1.
</event>
<event>
 5   0  0.1853742E-06  0.3191853E+04  0.7818609E-02  0.8190972E-01
        1   -1    0    0  501    0  0.00000000000E+00  0.00000000000E+00  0.22294277199E+04  0.22294277199E+04  0.50400001928E-02 0. -1.
       -1   -1    0    0    0  501  0.00000000000E+00  0.00000000000E+00 -0.11424371317E+04  0.11424371317E+04  0.50400001928E-02 0.  1.
    10030    2    1    2    0    0  0.00000000000E+00  0.00000000000E+00  0.10869905882E+04  0.33718648516E+04  0.31918527595E+04 0.  0.
        5    1    3    3  502    0 -0.43799001584E+03  0.66663024650E+03  0.20037436270E+04  0.21566737704E+04  0.46999998093E+01 0. -1.
       -5    1    3    3    0  502  0.43799001584E+03 -0.66663024650E+03 -0.91675303877E+03  0.12151910811E+04  0.46999998093E+01 0.  1.
</event>
<event>
 5   0  0.5114870E-06  0.3067989E+04  0.7818609E-02  0.8224578E-01
       -2   -1    0    0    0  501  0.00000000000E+00  0.00000000000E+00  0.14185427584E+04  0.14185427584E+04  0.25500000920E-02 0.  1.
        2   -1    0    0  501    0  0.00000000000E+00  0.00000000000E+00 -0.16588429292E+04  0.16588429292E+04  0.25500000920E-02 0. -1.
    10030    2    1    2    0    0  0.00000000000E+00  0.00000000000E+00 -0.24030017082E+03  0.30773856876E+04  0.30679893250E+04 0.  0.
        2    1    3    3  502    0 -0.94665171444E+02 -0.12614372748E+04  0.75023681431E+03  0.14707279730E+04  0.25500000920E-02 0. -1.
       -2    1    3    3    0  502  0.94665171444E+02  0.12614372748E+04 -0.99053698513E+03  0.16066577146E+04  0.25500000920E-02 0.  1.
</event>
<event>
 5   0  0.1649875E-06  0.3162823E+04  0.7818609E-02  0.8198705E-01
       -3   -1    0    0    0  501  0.00000000000E+00  0.00000000000E+00  0.10457057507E+04  0.10457057556E+04  0.10100000352E+00 0.  1.
        3   -1    0    0  501    0  0.00000000000E+00  0.00000000000E+00 -0.23915543122E+04  0.23915543144E+04  0.10100000352E+00 0. -1.
    10030    2    1    2    0    0  0.00000000000E+00  0.00000000000E+00 -0.13458485616E+04  0.34372600699E+04  0.31628228590E+04 0.  0.
        4    1    3    3  502    0 -0.93299350574E+03 -0.85912880258E+03 -0.16994939378E+04  0.21205802128E+04  0.12699999809E+01 0. -1.
       -4    1    3    3    0  502  0.93299350574E+03  0.85912880258E+03  0.35364537627E+03  0.13166798572E+04  0.12699999809E+01 0.  1.
</event>
<event>
 5   0  0.5328368E-06  0.3134958E+04  0.7818609E-02  0.8206209E-01
       -2   -1    0    0    0  501  0.00000000000E+00  0.00000000000E+00  0.95053665935E+03  0.95053665936E+03  0.25500000920E-02 0. -1.
        2   -1    0    0  501    0  0.00000000000E+00  0.00000000000E+00 -0.25848460580E+04  0.25848460580E+04  0.25500000920E-02 0.  1.
    10030    2    1    2    0    0  0.00000000000E+00  0.00000000000E+00 -0.16343093986E+04  0.35353827173E+04  0.31349583327E+04 0.  0.
        1    1    3    3  502    0 -0.43459885261E+03 -0.13007946962E+02 -0.25154803737E+04  0.25527802256E+04  0.50400001928E-02 0.  1.
       -1    1    3    3    0  502  0.43459885261E+03  0.13007946962E+02  0.88117097512E+03  0.98260249176E+03  0.50400001928E-02 0. -1.
</event>
<event>
 5   0  0.4900679E-06  0.3055238E+04  0.7818609E-02  0.8228131E-01
       -2   -1    0    0    0  501  0.00000000000E+00  0.00000000000E+00  0.14883022218E+04  0.14883022218E+04  0.25500000920E-02 0. -1.
        2   -1    0    0  501    0  0.00000000000E+00  0.00000000000E+00 -0.15679739861E+04  0.15679739861E+04  0.25500000920E-02 0.  1.
    10030    2    1    2    0    0  0.00000000000E+00  0.00000000000E+00 -0.79671764320E+02  0.30562762079E+04  0.30552375798E+04 0.  0.
        4    1    3    3  502    0  0.51791266587E+03  0.90405703821E+03  0.10777121482E+04  0.14990055854E+04  0.12699999809E+01 0. -1.
       -4    1    3    3    0  502 -0.51791266587E+03 -0.90405703821E+03 -0.11573839125E+04  0.15572706225E+04  0.12699999809E+01 0.  1.
</event>
<event>
 5   0  0.1853742E-06  0.3299998E+04  0.7818609E-02  0.8162896E-01
        1   -1    0    0  501    0  0.00000000000E+00  0.00000000000E+00  0.27971471695E+04  0.27971471695E+04  0.50400001928E-02 0. -1.
       -1   -1    0    0    0  501  0.00000000000E+00  0.00000000000E+00 -0.97331184997E+03  0.97331184999E+03  0.50400001928E-02 0.  1.
    10030    2    1    2    0    0  0.00000000000E+00  0.00000000000E+00  0.18238353195E+04  0.37704590195E+04  0.32999978704E+04 0.  0.
        5    1    3    3  502    0 -0.90354528915E+03 -0.10723916408E+04 -0.81559035375E+02  0.14046678921E+04  0.46999998093E+01 0.  1.
       -5    1    3    3    0  502  0.90354528915E+03  0.10723916408E+04  0.19053943549E+04  0.23657911274E+04  0.46999998093E+01 0. -1.
</event>
<event>
 5   0  0.4900679E-06  0.3068462E+04  0.7818609E-02  0.8224447E-01
        2   -1    0    0  501    0  0.00000000000E+00  0.00000000000E+00  0.26726533147E+04  0.26726533147E+04  0.25500000920E-02 0. -1.
       -2   -1    0    0    0  501  0.00000000000E+00  0.00000000000E+00 -0.88072197863E+03  0.88072197863E+03  0.25500000920E-02 0.  1.
    10030    2    1    2    0    0  0.00000000000E+00  0.00000000000E+00  0.17919313361E+04  0.35533752933E+04  0.30684618398E+04 0.  0.
        4    1    3    3  502    0  0.14174705796E+04  0.57263090300E+03  0.10457681591E+04  0.18522315326E+04  0.12699999809E+01 0.  1.
       -4    1    3    3    0  502 -0.14174705796E+04 -0.57263090300E+03  0.74616317699E+03  0.17011437607E+04  0.12699999809E+01 0. -1.
</event>
<event>
 5   0  0.4927533E-06  0.3127361E+04  0.7818609E-02  0.8208269E-01
       -2   -1    0    0    0  501  0.00000000000E+00  0.00000000000E+00  0.21447394804E+04  0.21447394804E+04  0.25500000920E-02 0.  1.
        2   -1    0    0  501    0  0.00000000000E+00  0.00000000000E+00 -0.11400437487E+04  0.11400437487E+04  0.25500000920E-02 0. -1.
    10030    2    1    2    0    0  0.00000000000E+00  0.00000000000E+00  0.10046957317E+04  0.32847832291E+04  0.31273610839E+04 0.  0.
        5    1    3    3  502    0  0.20349508029E+03 -0.19708730817E+03 -0.11128578107E+04  0.11483589384E+04  0.46999998093E+01 0. -1.
       -5    1    3    3    0  502 -0.20349508029E+03  0.19708730817E+03  0.21175535424E+04  0.21364242907E+04  0.46999998093E+01 0.  1.
</event>
<event>
 5   0  0.5328368E-06  0.2865784E+04  0.7818609E-02  0.8283131E-01
       -2   -1    0    0    0  501  0.00000000000E+00  0.00000000000E+00  0.11798134375E+04  0.11798134375E+04  0.25500000920E-02 0. -1.
        2   -1    0    0  501    0  0.00000000000E+00  0.00000000000E+00 -0.17402583557E+04  0.17402583557E+04  0.25500000920E-02 0.  1.
    10030    2    1    2    0    0  0.00000000000E+00  0.00000000000E+00 -0.56044491820E+03  0.29200717933E+04  0.28657844950E+04 0.  0.
        1    1    3    3  502    0 -0.80768516731E+03 -0.42991154502E+02  0.92496673604E+03  0.12287257756E+04  0.50400001928E-02 0. -1.
       -1    1    3    3    0  502  0.80768516731E+03  0.42991154502E+02 -0.14854116542E+04  0.16913460177E+04  0.50400001928E-02 0.  1.
</event>
<event>
 5   0  0.1843709E-06  0.3057540E+04  0.7818609E-02  0.8227488E-01
       -1   -1    0    0    0  501  0.00000000000E+00  0.00000000000E+00  0.11370532972E+04  0.11370532972E+04  0.50400001928E-02 0. -1.
        1   -1    0    0  501    0  0.00000000000E+00  0.00000000000E+00 -0.20554331482E+04  0.20554331482E+04  0.50400001928E-02 0.  1.
    10030    2    1    2    0    0  0.00000000000E+00  0.00000000000E+00 -0.91837985102E+03  0.31924864454E+04  0.30575395588E+04 0.  0.
        4    1    3    3  502    0 -0.65202689966E+03  0.57387589628E+02 -0.19017242532E+04  0.20112158416E+04  0.12699999809E+01 0.  1.
       -4    1    3    3    0  502  0.65202689966E+03 -0.57387589628E+02  0.98334440219E+03  0.11812706039E+04  0.12699999809E+01 0. -1.
</event>
<event>
 5   0  0.5328368E-06  0.3214992E+04  0.7818609E-02  0.8184869E-01
        2   -1    0    0  501    0  0.00000000000E+00  0.00000000000E+00  0.18979146372E+04  0.18979146372E+04  0.25500000920E-02 0. -1.
       -2   -1    0    0    0  501  0.00000000000E+00  0.00000000000E+00 -0.13615174216E+04  0.13615174216E+04  0.25500000920E-02 0.  1.
    10030    2    1    2    0    0  0.00000000000E+00  0.00000000000E+00  0.53639721565E+03  0.32594320588E+04  0.32149922820E+04 0.  0.
        1    1    3    3  502    0  0.15614799229E+04  0.37184146821E+03  0.18005889127E+03  0.16152110796E+04  0.50400001928E-02 0.  1.
       -1    1    3    3    0  502 -0.15614799229E+04 -0.37184146821E+03  0.35633832438E+03  0.16442209793E+04  0.50400001928E-02 0. -1.
</event>
<event>
 5   0  0.1836401E-06  0.3084589E+04  0.7818609E-02  0.8219980E-01
        1   -1    0    0  501    0  0.00000000000E+00  0.00000000000E+00  0.21396195021E+04  0.21396195021E+04  0.50400001928E-02 0.  1.
       -1   -1    0    0    0  501  0.00000000000E+00  0.00000000000E+00 -0.11117269886E+04  0.11117269886E+04  0.50400001928E-02 0. -1.
    10030    2    1    2    0    0  0.00000000000E+00  0.00000000000E+00  0.10278925135E+04  0.32513464908E+04  0.30845892731E+04 0.  0.
        2    1    3    3  502    0  0.98293326822E+03  0.51437396359E+03 -0.61539303449E+03  0.12686398114E+04  0.25500000920E-02 0. -1.
       -2    1    3    3    0  502 -0.98293326822E+03 -0.51437396359E+03  0.16432855480E+04  0.19827066794E+04  0.25500000920E-02 0.  1.
</event>
<event>
 5   0  0.5001658E-06  0.3103386E+04  0.7818609E-02  0.8214809E-01
        2   -1    0    0  501    0  0.00000000000E+00  0.00000000000E+00  0.21308858152E+04  0.21308858152E+04  0.25500000920E-02 0.  1.
       -2   -1    0    0    0  501  0.00000000000E+00  0.00000000000E+00 -0.11299294945E+04  0.11299294945E+04  0.25500000920E-02 0. -1.
    10030    2    1    2    0    0  0.00000000000E+00  0.00000000000E+00  0.10009563207E+04  0.32608153097E+04  0.31033857201E+04 0.  0.
        3    1    3    3  502    0 -0.75137195581E+03  0.10522717041E+04  0.14018506948E+04  0.19070975161E+04  0.10100000352E+00 0.  1.
       -3    1    3    3    0  502  0.75137195581E+03 -0.10522717041E+04 -0.40089437413E+03  0.13537177936E+04  0.10100000352E+00 0. -1.
</event>
<event>
 5   0  0.1843709E-06  0.3054282E+04  0.7818609E-02  0.8228398E-01
       -1   -1    0    0    0  501  0.00000000000E+00  0.00000000000E+00  0.18295203656E+04  0.18295203656E+04  0.50400001928E-02 0.  1.
        1   -1    0    0  501    0  0.00000000000E+00  0.00000000000E+00 -0.12747381031E+04  0.12747381031E+04  0.50400001928E-02 0. -1.
    10030    2    1    2    0    0  0.00000000000E+00  0.00000000000E+00  0.55478226242E+03  0.31042584687E+04  0.30542817948E+04 0.  0.
        4    1    3    3  502    0 -0.10099007915E+04  0.47054350168E+03  0.13389172252E+04  0.17418414809E+04  0.12699999809E+01 0.  1.
       -4    1    3    3    0  502  0.10099007915E+04 -0.47054350168E+03 -0.78413496282E+03  0.13624169878E+04  0.12699999809E+01 0. -1.
</event>
<event>
 5   0  0.1840431E-06  0.3134458E+04  0.7818609E-02  0.8206344E-01
       -1   -1    0    0    0  501  0.00000000000E+00  0.00000000000E+00  0.24605423344E+04  0.24605423344E+04  0.50400001928E-02 0. -1.
        1   -1    0    0  501    0  0.00000000000E+00  0.00000000000E+00 -0.99823792027E+03  0.99823792028E+03  0.50400001928E-02 0.  1.
    10030    2    1    2    0    0  0.00000000000E+00  0.00000000000E+00  0.14623044141E+04  0.34587802547E+04  0.31344579516E+04 0.  0.
        1    1    3    3  502    0  0.46670224844E+02  0.92027002542E+03  0.21300508456E+04  0.23208170188E+04  0.50400001928E-02 0. -1.
       -1    1    3    3    0  502 -0.46670224844E+02 -0.92027002542E+03 -0.66774643148E+03  0.11379632359E+04  0.50400001928E-02 0.  1.
</event>
<event>
 5   0  0.5328368E-06  0.3036820E+04  0.7818609E-02  0.8233294E-01
       -2   -1    0    0    0  501  0.00000000000E+00  0.00000000000E+00  0.17087146442E+04  0.17087146442E+04  0.25500000920E-02 0. -1.
        2   -1    0    0  501    0  0.00000000000E+00  0.00000000000E+00 -0.13492998224E+04  0.13492998224E+04  0.25500000920E-02 0.  1.
    10030    2    1    2    0    0  0.00000000000E+00  0.00000000000E+00  0.35941482176E+03  0.30580144666E+04  0.30368196298E+04 0.  0.
        1    1    3    3  502    0 -0.40689995425E+03 -0.70497566257E+03  0.14704530169E+04  0.16807112579E+04  0.50400001928E-02 0. -1.
       -1    1    3    3    0  502  0.40689995425E+03  0.70497566257E+03 -0.11110381952E+04  0.13773032087E+04  0.50400001928E-02 0.  1.
</event>
<event>
 5   0  0.4900679E-06  0.3014257E+04  0.7818609E-02  0.8239671E-01
       -2   -1    0    0    0  501  0.00000000000E+00  0.00000000000E+00  0.12018379555E+04  0.12018379555E+04  0.25500000920E-02 0.  1.
        2   -1    0    0  501    0  0.00000000000E+00  0.00000000000E+00 -0.18899689466E+04  0.18899689466E+04  0.25500000920E-02 0. -1.
    10030    2    1    2    0    0  0.00000000000E+00  0.00000000000E+00 -0.68813099103E+03  0.30918069021E+04  0.30142570659E+04 0.  0.
        4    1    3    3  502    0  0.13079977807E+04 -0.85973232148E+02  0.41883404832E+03  0.13761079768E+04  0.12699999809E+01 0.  1.
       -4    1    3    3    0  502 -0.13079977807E+04  0.85973232148E+02 -0.11069650393E+04  0.17156989253E+04  0.12699999809E+01 0. -1.
</event>
<event>
 5   0  0.1649875E-06  0.2291196E+04  0.7818609E-02  0.8481401E-01
       -3   -1    0    0    0  501  0.00000000000E+00  0.00000000000E+00  0.95851888999E+03  0.95851889531E+03  0.10100000352E+00 0.  1.
        3   -1    0    0  501    0  0.00000000000E+00  0.00000000000E+00 -0.13691901411E+04  0.13691901448E+04  0.10100000352E+00 0. -1.
    10030    2    1    2    0    0  0.00000000000E+00  0.00000000000E+00 -0.41067125110E+03  0.23277090401E+04  0.22911958666E+04 0.  0.
        4    1    3    3  502    0  0.10561489001E+04  0.38388269276E+03 -0.43154198268E+03  0.12037634804E+04  0.12699999809E+01 0. -1.
       -4    1    3    3    0  502 -0.10561489001E+04 -0.38388269276E+03  0.20870731577E+02  0.11239455598E+04  0.12699999809E+01 0.  1.
</event>
<event>
 5   0  0.5328368E-06  0.3027455E+04  0.7818609E-02  0.8235934E-01
       -2   -1    0    0    0  501  0.00000000000E+00  0.00000000000E+00  0.80686835499E+03  0.80686835499E+03  0.25500000920E-02 0. -1.
        2   -1    0    0  501    0  0.00000000000E+00  0.00000000000E+00 -0.28398329901E+04  0.28398329901E+04  0.25500000920E-02 0.  1.
    10030    2    1    2    0    0  0.00000000000E+00  0.00000000000E+00 -0.20329646351E+04  0.36467013451E+04  0.30274552833E+04 0.  0.
        1    1    3    3  502    0 -0.12215692436E+03 -0.12303905747E+04  0.35400763959E+02  0.12369464396E+04  0.50400001928E-02 0. -1.
       -1    1    3    3    0  502  0.12215692436E+03  0.12303905747E+04 -0.20683653990E+04  0.24097549054E+04  0.50400001928E-02 0.  1.
</event>
<event>
 5   0  0.5001658E-06  0.3052129E+04  0.7818609E-02  0.8229000E-01
       -2   -1    0    0    0  501  0.00000000000E+00  0.00000000000E+00  0.86979458488E+03  0.86979458488E+03  0.25500000920E-02 0. -1.
        2   -1    0    0  501    0  0.00000000000E+00  0.00000000000E+00 -0.26774978272E+04  0.26774978272E+04  0.25500000920E-02 0.  1.
    10030    2    1    2    0    0  0.00000000000E+00  0.00000000000E+00 -0.18077032423E+04  0.35472924121E+04  0.30521291658E+04 0.  0.
        3    1    3    3  502    0 -0.94218749304E+03  0.11916384260E+04 -0.10728907148E+04  0.18597886725E+04  0.10100000352E+00 0.  1.
       -3    1    3    3    0  502  0.94218749304E+03 -0.11916384260E+04 -0.73481252752E+03  0.16875037396E+04  0.10100000352E+00 0. -1.
</event>
<event>
 5   0  0.1840431E-06  0.2821475E+04  0.7818609E-02  0.8296632E-01
       -1   -1    0    0    0  501  0.00000000000E+00  0.00000000000E+00  0.17911327847E+04  0.17911327847E+04  0.50400001928E-02 0. -1.
        1   -1    0    0  501    0  0.00000000000E+00  0.00000000000E+00 -0.11111294323E+04  0.11111294323E+04  0.50400001928E-02 0.  1.
    10030    2    1    2    0    0  0.00000000000E+00  0.00000000000E+00  0.68000335237E+03  0.29022622171E+04  0.28214750428E+04 0.  0.
        1    1    3    3  502    0  0.33741595443E+03  0.64694840910E+03 -0.90195860611E+03  0.11601383958E+04  0.50400001928E-02 0.  1.
       -1    1    3    3    0  502 -0.33741595443E+03 -0.64694840910E+03  0.15819619585E+04  0.17421238212E+04  0.50400001928E-02 0. -1.
</event>
<event>
 5   0  0.1840431E-06  0.3105472E+04  0.7818609E-02  0.8214238E-01
       -1   -1    0    0    0  501  0.00000000000E+00  0.00000000000E+00  0.88212596190E+03  0.88212596192E+03  0.50400001928E-02 0.  1.
        1   -1    0    0  501    0  0.00000000000E+00  0.00000000000E+00 -0.27331571604E+04  0.27331571604E+04  0.50400001928E-02 0. -1.
    10030    2    1    2    0    0  0.00000000000E+00  0.00000000000E+00 -0.18510311985E+04  0.36152831223E+04  0.31054718734E+04 0.  0.
        1    1    3    3  502    0 -0.10097816338E+04  0.10366203959E+03  0.44235857743E+03  0.11072876218E+04  0.50400001928E-02 0.  1.
       -1    1    3    3    0  502  0.10097816338E+04 -0.10366203959E+03 -0.22933897759E+04  0.25079955005E+04  0.50400001928E-02 0. -1.
</event>
<event>
 5   0  0.1885307E-06  0.3041038E+04  0.7818609E-02  0.8232108E-01
       -1   -1    0    0    0  501  0.00000000000E+00  0.00000000000E+00  0.16453005910E+04  0.16453005911E+04  0.50400001928E-02 0. -1.
        1   -1    0    0  501    0  0.00000000000E+00  0.00000000000E+00 -0.14052011448E+04  0.14052011448E+04  0.50400001928E-02 0.  1.
    10030    2    1    2    0    0  0.00000000000E+00  0.00000000000E+00  0.24009944625E+03  0.30505017359E+04  0.30410381610E+04 0.  0.
        3    1    3    3  502    0 -0.13257535871E+03 -0.16212407208E+03 -0.13906641317E+04  0.14063453267E+04  0.10100000352E+00 0.  1.
       -3    1    3    3    0  502  0.13257535871E+03  0.16212407208E+03  0.16307635779E+04  0.16441564092E+04  0.10100000352E+00 0. -1.
</event>
<event>
 5   0  0.1853742E-06  0.3388756E+04  0.7818609E-02  0.8140671E-01
       -1   -1    0    0    0  501  0.00000000000E+00  0.00000000000E+00  0.23262864445E+04  0.23262864445E+04  0.50400001928E-02 0. -1.
        1   -1    0    0  501    0  0.00000000000E+00  0.00000000000E+00 -0.12341201396E+04  0.12341201396E+04  0.50400001928E-02 0.  1.
    10030    2    1    2    0    0  0.00000000000E+00  0.00000000000E+00  0.10921663049E+04  0.35604065840E+04  0.33887560854E+04 0.  0.
        5    1    3    3  502    0  0.75393362568E+03  0.41723364857E+03  0.20788828403E+04  0.22503945839E+04  0.46999998093E+01 0. -1.
       -5    1    3    3    0  502 -0.75393362568E+03 -0.41723364857E+03 -0.98671653539E+03  0.13100120002E+04  0.46999998093E+01 0.  1.
</event>
<event>
 5   0  0.1853742E-06  0.3069057E+04  0.7818609E-02  0.8224282E-01
        1   -1    0    0  501    0  0.00000000000E+00  0.00000000000E+00  0.24779361523E+04  0.24779361523E+04  0.50400001928E-02 0. -1.
       -1   -1    0    0    0  501  0.00000000000E+00  0.00000000000E+00 -0.95029817926E+03  0.95029817927E+03  0.50400001928E-02 0.  1.
    10030    2    1    2    0    0  0.00000000000E+00  0.00000000000E+00  0.15276379730E+04  0.34282343315E+04  0.30690573236E+04 0.  0.
        5    1    3    3  502    0 -0.13991460967E+04  0.15770719618E+03  0.82269651916E+02  0.14104154513E+04  0.46999998093E+01 0.  1.
       -5    1    3    3    0  502  0.13991460967E+04 -0.15770719618E+03  0.14453683211E+04  0.20178188802E+04  0.46999998093E+01 0. -1.
</event>
<event>
 5   0  0.4900679E-06  0.3085358E+04  0.7818609E-02  0.8219768E-01
       -2   -1    0    0    0  501  0.00000000000E+00  0.00000000000E+00  0.19538948474E+04  0.19538948474E+04  0.25500000920E-02 0.  1.
        2   -1    0    0  501    0  0.00000000000E+00  0.00000000000E+00 -0.12180075904E+04  0.12180075904E+04  0.25500000920E-02 0. -1.
    10030    2    1    2    0    0  0.00000000000E+00  0.00000000000E+00  0.73588725696E+03  0.31719024378E+04  0.30853581672E+04 0.  0.
        4    1    3    3  502    0 -0.12153644433E+04 -0.82424176812E+03 -0.11793581154E+03  0.14732262863E+04  0.12699999809E+01 0. -1.
       -4    1    3    3    0  502  0.12153644433E+04  0.82424176812E+03  0.85382306851E+03  0.16986761514E+04  0.12699999809E+01 0.  1.
</event>
<event>
 5   0  0.5328368E-06  0.3119782E+04  0.7818609E-02  0.8210330E-01
        2   -1    0    0  501    0  0.00000000000E+00  0.00000000000E+00  0.14582700987E+04  0.14582700987E+04  0.25500000920E-02 0. -1.
       -2   -1    0    0    0  501  0.00000000000E+00  0.00000000000E+00 -0.16685937975E+04  0.16685937975E+04  0.25500000920E-02 0.  1.
    10030    2    1    2    0    0  0.00000000000E+00  0.00000000000E+00 -0.21032369880E+03  0.31268638963E+04  0.31197823269E+04 0.  0.
        1    1    3    3  502    0  0.14778203502E+03 -0.12217876078E+04  0.85547917963E+03  0.14988159043E+04  0.50400001928E-02 0. -1.
       -1    1    3    3    0  502 -0.14778203502E+03  0.12217876078E+04 -0.10658028784E+04  0.16280479919E+04  0.50400001928E-02 0.  1.
</event>
<event>
 5   0  0.1836401E-06  0.2836455E+04  0.7818609E-02  0.8292039E-01
       -1   -1    0    0    0  501  0.00000000000E+00  0.00000000000E+00  0.85033391964E+03  0.85033391965E+03  0.50400001928E-02 0. -1.
        1   -1    0    0  501    0  0.00000000000E+00  0.00000000000E+00 -0.23653869122E+04  0.23653869122E+04  0.50400001928E-02 0.  1.
    10030    2    1    2    0    0  0.00000000000E+00  0.00000000000E+00 -0.15150529925E+04  0.32157208318E+04  0.28364546353E+04 0.  0.
        2    1    3    3  502    0  0.37792371223E+03 -0.12655007809E+04 -0.13433933434E+04  0.18838854089E+04  0.25500000920E-02 0.  1.
       -2    1    3    3    0  502 -0.37792371223E+03  0.12655007809E+04 -0.17165964912E+03  0.13318354229E+04  0.25500000920E-02 0. -1.
</event>
<event>
 5   0  0.4927533E-06  0.3073299E+04  0.7818609E-02  0.8223104E-01
        2   -1    0    0  501    0  0.00000000000E+00  0.00000000000E+00  0.14506511597E+04  0.14506511597E+04  0.25500000920E-02 0.  1.
       -2   -1    0    0    0  501  0.00000000000E+00  0.00000000000E+00 -0.16277460014E+04  0.16277460014E+04  0.25500000920E-02 0. -1.
    10030    2    1    2    0    0  0.00000000000E+00  0.00000000000E+00 -0.17709484171E+03  0.30783971612E+04  0.30732989602E+04 0.  0.
        5    1    3    3  502    0  0.75793440206E+03 -0.18031146397E+03  0.12381469165E+04  0.14628761597E+04  0.46999998093E+01 0.  1.
       -5    1    3    3    0  502 -0.75793440206E+03  0.18031146397E+03 -0.14152417582E+04  0.16155210014E+04  0.46999998093E+01 0. -1.
</event>
<event>
 5   0  0.1836401E-06  0.3072548E+04  0.7818609E-02  0.8223313E-01
        1   -1    0    0  501    0  0.00000000000E+00  0.00000000000E+00  0.13374456130E+04  0.13374456130E+04  0.50400001928E-02 0.  1.
       -1   -1    0    0    0  501  0.00000000000E+00  0.00000000000E+00 -0.17646604714E+04  0.17646604714E+04  0.50400001928E-02 0. -1.
    10030    2    1    2    0    0  0.00000000000E+00  0.00000000000E+00 -0.42721485843E+03  0.31021060844E+04  0.30725477414E+04 0.  0.
        2    1    3    3  502    0  0.43887067703E+03  0.34947262720E+03 -0.16575403099E+04  0.17499081311E+04  0.25500000920E-02 0. -1.
       -2    1    3    3    0  502 -0.43887067703E+03 -0.34947262720E+03  0.12303254515E+04  0.13521979533E+04  0.25500000920E-02 0.  1.
</event>
<event>
 5   0  0.5114870E-06  0.3104917E+04  0.7818609E-02  0.8214390E-01
        2   -1    0    0  501    0  0.00000000000E+00  0.00000000000E+00  0.21026944144E+04  0.21026944144E+04  0.25500000920E-02 0. -1.
       -2   -1    0    0    0  501  0.00000000000E+00  0.00000000000E+00 -0.11462089075E+04  0.11462089075E+04  0.25500000920E-02 0.  1.
    10030    2    1    2    0    0  0.00000000000E+00  0.00000000000E+00  0.95648550692E+03  0.32489033219E+04  0.31049167896E+04 0.  0.
        2    1    3    3  502    0 -0.38740089710E+03  0.11163870497E+04  0.15317740731E+04  0.19346139953E+04  0.25500000920E-02 0. -1.
       -2    1    3    3    0  502  0.38740089710E+03 -0.11163870497E+04 -0.57528856618E+03  0.13142893266E+04  0.25500000920E-02 0.  1.
</event>
<event>
 5   0  0.5001658E-06  0.3032015E+04  0.7818609E-02  0.8234647E-01
        2   -1    0    0  501    0  0.00000000000E+00  0.00000000000E+00  0.14092641389E+04  0.14092641389E+04  0.25500000920E-02 0.  1.
       -2   -1    0    0    0  501  0.00000000000E+00  0.00000000000E+00 -0.16308365161E+04  0.16308365161E+04  0.25500000920E-02 0. -1.
    10030    2    1    2    0    0  0.00000000000E+00  0.00000000000E+00 -0.22157237718E+03  0.30401006550E+04  0.30320154476E+04 0.  0.
        3    1    3    3  502    0  0.11774587684E+04 -0.89309485763E+03 -0.44969912026E+03  0.15447513991E+04  0.10100000352E+00 0.  1.
       -3    1    3    3    0  502 -0.11774587684E+04  0.89309485763E+03  0.22812674307E+03  0.14953492559E+04  0.10100000352E+00 0. -1.
</event>
<event>
 5   0  0.5328368E-06  0.3156051E+04  0.7818609E-02  0.8200521E-01
       -2   -1    0    0    0  501  0.00000000000E+00  0.00000000000E+00  0.12000456327E+04  0.12000456327E+04  0.25500000920E-02 0.  1.
        2   -1    0    0  501    0  0.00000000000E+00  0.00000000000E+00 -0.20750581449E+04  0.20750581449E+04  0.25500000920E-02 0. -1.
    10030    2    1    2    0    0  0.00000000000E+00  0.00000000000E+00 -0.87501251221E+03  0.32751037776E+04  0.31560509909E+04 0.  0.
        1    1    3    3  502    0  0.85022263847E+03 -0.51343388737E+02  0.94100500594E+03  0.12692537570E+04  0.50400001928E-02 0.  1.
       -1    1    3    3    0  502 -0.85022263847E+03  0.51343388737E+02 -0.18160175182E+04  0.20058500205E+04  0.50400001928E-02 0. -1.
</event>
<event>
 5   0  0.4900679E-06  0.3115842E+04  0.7818609E-02  0.8211404E-01
        2   -1    0    0  501    0  0.00000000000E+00  0.00000000000E+00  0.15354065609E+04  0.15354065609E+04  0.25500000920E-02 0. -1.
       -2   -1    0    0    0  501  0.00000000000E+00  0.00000000000E+00 -0.15807655432E+04  0.15807655432E+04  0.25500000920E-02 0.  1.
    10030    2    1    2    0    0  0.00000000000E+00  0.00000000000E+00 -0.45358982331E+02  0.31161721041E+04  0.31158419641E+04 0.  0.
        4    1    3    3  502    0 -0.53644772144E+03 -0.41640548678E+03  0.13795912078E+04  0.15376746082E+04  0.12699999809E+01 0. -1.
       -4    1    3    3    0  502  0.53644772144E+03  0.41640548678E+03 -0.14249501901E+04  0.15784974959E+04  0.12699999809E+01 0.  1.
</event>
<event>
 5   0  0.1853742E-06  0.2510461E+04  0.7818609E-02  0.8399268E-01
        1   -1    0    0  501    0  0.00000000000E+00  0.00000000000E+00  0.12477571596E+04  0.12477571596E+04  0.50400001928E-02 0. -1.
       -1   -1    0    0    0  501  0.00000000000E+00  0.00000000000E+00 -0.12627483061E+04  0.12627483061E+04  0.50400001928E-02 0.  1.
    10030    2    1    2    0    0  0.00000000000E+00  0.00000000000E+00 -0.14991146472E+02  0.25105054657E+04  0.25104607065E+04 0.  0.
        5    1    3    3  502    0 -0.78011392870E+03  0.50453897039E+03  0.83658335669E+03  0.12502124288E+04  0.46999998093E+01 0. -1.
       -5    1    3    3    0  502  0.78011392870E+03 -0.50453897039E+03 -0.85157450317E+03  0.12602930369E+04  0.46999998093E+01 0.  1.
</event>
<event>
 5   0  0.1843709E-06  0.3226076E+04  0.7818609E-02  0.8181964E-01
       -1   -1    0    0    0  501  0.00000000000E+00  0.00000000000E+00  0.13149191240E+04  0.13149191240E+04  0.50400001928E-02 0.  1.
        1   -1    0    0  501    0  0.00000000000E+00  0.00000000000E+00 -0.19787464572E+04  0.19787464572E+04  0.50400001928E-02 0. -1.
    10030    2    1    2    0    0  0.00000000000E+00  0.00000000000E+00 -0.66382733326E+03  0.32936655812E+04  0.32260759805E+04 0.  0.
        4    1    3    3  502    0 -0.28077102687E+03 -0.11591308301E+04 -0.14407028122E+04  0.18703055517E+04  0.12699999809E+01 0. -1.
       -4    1    3    3    0  502  0.28077102687E+03  0.11591308301E+04  0.77687547891E+03  0.14233600295E+04  0.12699999809E+01 0.  1.
</event>
<event>
 5   0  0.1649875E-06  0.3191940E+04  0.7818609E-02  0.8190949E-01
        3   -1    0    0  501    0  0.00000000000E+00  0.00000000000E+00  0.92234121969E+03  0.92234122522E+03  0.10100000352E+00 0. -1.
       -3   -1    0    0    0  501  0.00000000000E+00  0.00000000000E+00 -0.27615820398E+04  0.27615820417E+04  0.10100000352E+00 0.  1.
    10030    2    1    2    0    0  0.00000000000E+00  0.00000000000E+00 -0.18392408201E+04  0.36839232669E+04  0.31919404509E+04 0.  0.
        3    1    3    3  502    0 -0.31402425714E+03 -0.12993003505E+04 -0.19259873868E+04  0.23444018553E+04  0.10100000352E+00 0.  1.
       -3    1    3    3    0  502  0.31402425714E+03  0.12993003505E+04  0.86746566699E+02  0.13395214115E+04  0.10100000352E+00 0. -1.
</event>
<event>
 5   0  0.5001658E-06  0.3093981E+04  0.7818609E-02  0.8217392E-01
        2   -1    0    0  501    0  0.00000000000E+00  0.00000000000E+00  0.15388947977E+04  0.15388947977E+04  0.25500000920E-02 0.  1.
       -2   -1    0    0    0  501  0.00000000000E+00  0.00000000000E+00 -0.15551290388E+04  0.15551290388E+04  0.25500000920E-02 0. -1.
    10030    2    1    2    0    0  0.00000000000E+00  0.00000000000E+00 -0.16234241067E+02  0.30940238365E+04  0.30939812459E+04 0.  0.
        3    1    3    3  502    0  0.33179594285E+03  0.34170542239E+03  0.14637485242E+04  0.15392890877E+04  0.10100000352E+00 0.  1.
       -3    1    3    3    0  502 -0.33179594285E+03 -0.34170542239E+03 -0.14799827652E+04  0.15547347488E+04  0.10100000352E+00 0. -1.
</event>
<event>
 5   0  0.5114870E-06  0.3126292E+04  0.7818609E-02  0.8208559E-01
       -2   -1    0    0    0  501  0.00000000000E+00  0.00000000000E+00  0.12718812418E+04  0.12718812418E+04  0.25500000920E-02 0. -1.
        2   -1    0    0  501    0  0.00000000000E+00  0.00000000000E+00 -0.19211111744E+04  0.19211111744E+04  0.25500000920E-02 0.  1.
    10030    2    1    2    0    0  0.00000000000E+00  0.00000000000E+00 -0.64922993260E+03  0.31929924161E+04  0.31262919032E+04 0.  0.
        2    1    3    3  502    0 -0.41684303587E+03 -0.71212524745E+03  0.10313186915E+04  0.13207947335E+04  0.25500000920E-02 0. -1.
       -2    1    3    3    0  502  0.41684303587E+03  0.71212524745E+03 -0.16805486241E+04  0.18721976826E+04  0.25500000920E-02 0.  1.
</event>
<event>
 5   0  0.4927533E-06  0.2849123E+04  0.7818609E-02  0.8288178E-01
       -2   -1    0    0    0  501  0.00000000000E+00  0.00000000000E+00  0.76146444229E+03  0.76146444229E+03  0.25500000920E-02 0.  1.
        2   -1    0    0  501    0  0.00000000000E+00  0.00000000000E+00 -0.26650962443E+04  0.26650962443E+04  0.25500000920E-02 0. -1.
    10030    2    1    2    0    0  0.00000000000E+00  0.00000000000E+00 -0.19036318020E+04  0.34265606866E+04  0.28491233917E+04 0.  0.
        5    1    3    3  502    0 -0.10518318843E+04  0.52731675356E+02 -0.21055180716E+04  0.23542216085E+04  0.46999998093E+01 0. -1.
       -5    1    3    3    0  502  0.10518318843E+04 -0.52731675356E+02  0.20188626959E+03  0.10723390780E+04  0.46999998093E+01 0.  1.
</event>
<event>
 5   0  0.1843709E-06  0.3119907E+04  0.7818609E-02  0.8210296E-01
        1   -1    0    0  501    0  0.00000000000E+00  0.00000000000E+00  0.22656331478E+04  0.22656331478E+04  0.50400001928E-02 0. -1.
       -1   -1    0    0    0  501  0.00000000000E+00  0.00000000000E+00 -0.10740724607E+04  0.10740724607E+04  0.50400001928E-02 0.  1.
    10030    2    1    2    0    0  0.00000000000E+00  0.00000000000E+00  0.11915606871E+04  0.33397056085E+04  0.31199065179E+04 0.  0.
        4    1    3    3  502    0 -0.70233450058E+03 -0.10800980194E+04 -0.34570939933E+03  0.13339423090E+04  0.12699999809E+01 0.  1.
       -4    1    3    3    0  502  0.70233450058E+03  0.10800980194E+04  0.15372700864E+04  0.20057632995E+04  0.12699999809E+01 0. -1.
</event>
<event>
 5   0  0.1840431E-06  0.3101568E+04  0.7818609E-02  0.8215308E-01
        1   -1    0    0  501    0  0.00000000000E+00  0.00000000000E+00  0.17286063457E+04  0.17286063457E+04  0.50400001928E-02 0.  1.
       -1   -1    0    0    0  501  0.00000000000E+00  0.00000000000E+00 -0.13912538725E+04  0.13912538725E+04  0.50400001928E-02 0. -1.
    10030    2    1    2    0    0  0.00000000000E+00  0.00000000000E+00  0.33735247323E+03  0.31198602182E+04  0.31015675214E+04 0.  0.
        1    1    3    3  502    0  0.49061674430E+03  0.14528826173E+04 -0.63678735786E+02  0.15348054179E+04  0.50400001928E-02 0.  1.
       -1    1    3    3    0  502 -0.49061674430E+03 -0.14528826173E+04  0.40103120901E+03  0.15850548003E+04  0.50400001928E-02 0. -1.
</event>
<event>
 5   0  0.5114870E-06  0.3111075E+04  0.7818609E-02  0.8212705E-01
        2   -1    0    0  501    0  0.00000000000E+00  0.00000000000E+00  0.15604491561E+04  0.15604491561E+04  0.25500000920E-02 0.  1.
       -2   -1    0    0    0  501  0.00000000000E+00  0.00000000000E+00 -0.15506416330E+04  0.15506416330E+04  0.25500000920E-02 0. -1.
    10030    2    1    2    0    0  0.00000000000E+00  0.00000000000E+00  0.98075231505E+01  0.31110907891E+04  0.31110753303E+04 0.  0.
        2    1    3    3  502    0 -0.75796304212E+03  0.12947294191E+04  0.41583789736E+03  0.15568408393E+04  0.25500000920E-02 0.  1.
       -2    1    3    3    0  502  0.75796304212E+03 -0.12947294191E+04 -0.40603037421E+03  0.15542499499E+04  0.25500000920E-02 0. -1.
</event>
<event>
 5   0  0.1843709E-06  0.3137181E+04  0.7818609E-02  0.8205607E-01
        1   -1    0    0  501    0  0.00000000000E+00  0.00000000000E+00  0.21764849414E+04  0.21764849414E+04  0.50400001928E-02 0.  1.
       -1   -1    0    0    0  501  0.00000000000E+00  0.00000000000E+00 -0.11304812572E+04  0.11304812572E+04  0.50400001928E-02 0. -1.
    10030    2    1    2    0    0  0.00000000000E+00  0.00000000000E+00  0.10460036842E+04  0.33069661986E+04  0.31371805385E+04 0.  0.
        4    1    3    3  502    0  0.11282477236E+04  0.19434490415E+03 -0.60729892236E+03  0.12959654554E+04  0.12699999809E+01 0. -1.
       -4    1    3    3    0  502 -0.11282477236E+04 -0.19434490415E+03  0.16533026065E+04  0.20110007432E+04  0.12699999809E+01 0.  1.
</event>
<event>
 5   0  0.4900679E-06  0.3100158E+04  0.7818609E-02  0.8215695E-01
        2   -1    0    0  501    0  0.00000000000E+00  0.00000000000E+00  0.21842732923E+04  0.21842732923E+04  0.25500000920E-02 0. -1.
       -2   -1    0    0    0  501  0.00000000000E+00  0.00000000000E+00 -0.11000199454E+04  0.11000199454E+04  0.25500000920E-02 0.  1.
    10030    2    1    2    0    0  0.00000000000E+00  0.00000000000E+00  0.10842533469E+04  0.32842932377E+04  0.31001575365E+04 0.  0.
        4    1    3    3  502    0 -0.13734881365E+04 -0.53924261126E+03  0.39063977294E+02  0.14760690574E+04  0.12699999809E+01 0.  1.
       -4    1    3    3    0  502  0.13734881365E+04  0.53924261126E+03  0.10451893696E+04  0.18082241803E+04  0.12699999809E+01 0. -1.
</event>
<event>
 5   0  0.1853742E-06  0.3117075E+04  0.7818609E-02  0.8211067E-01
       -1   -1    0    0    0  501  0.00000000000E+00  0.00000000000E+00  0.13073861421E+04  0.13073861422E+04  0.50400001928E-02 0.  1.
        1   -1    0    0  501    0  0.00000000000E+00  0.00000000000E+00 -0.18579352980E+04  0.18579352980E+04  0.50400001928E-02 0. -1.
    10030    2    1    2    0    0  0.00000000000E+00  0.00000000000E+00 -0.55054915582E+03  0.31653214401E+04  0.31170748221E+04 0.  0.
        5    1    3    3  502    0  0.84256819703E+03 -0.89345699439E+03 -0.12497263962E+04  0.17521486018E+04  0.46999998093E+01 0. -1.
       -5    1    3    3    0  502 -0.84256819703E+03  0.89345699439E+03  0.69917724038E+03  0.14131728383E+04  0.46999998093E+01 0.  1.
</event>
<event>
 5   0  0.4927533E-06  0.2735595E+04  0.7818609E-02  0.8323547E-01
       -2   -1    0    0    0  501  0.00000000000E+00  0.00000000000E+00  0.10297313106E+04  0.10297313106E+04  0.25500000920E-02 0. -1.
        2   -1    0    0  501    0  0.00000000000E+00  0.00000000000E+00 -0.18168529828E+04  0.18168529828E+04  0.25500000920E-02 0.  1.
    10030    2    1    2    0    0  0.00000000000E+00  0.00000000000E+00 -0.78712167218E+03  0.28465842935E+04  0.27355952941E+04 0.  0.
        5    1    3    3  502    0  0.23362181946E+03  0.12305048069E+02  0.10087497148E+04  0.10355330250E+04  0.46999998093E+01 0. -1.
       -5    1    3    3    0  502 -0.23362181946E+03 -0.12305048069E+02 -0.17958713869E+04  0.18110512685E+04  0.46999998093E+01 0.  1.
</event>
<event>
 5   0  0.5328368E-06  0.3076507E+04  0.7818609E-02  0.8222215E-01
       -2   -1    0    0    0  501  0.00000000000E+00  0.00000000000E+00  0.14459786628E+04  0.14459786628E+04  0.25500000920E-02 0. -1.
        2   -1    0    0  501    0  0.00000000000E+00  0.00000000000E+00 -0.16364172935E+04  0.16364172935E+04  0.25500000920E-02 0.  1.
    10030    2    1    2    0    0  0.00000000000E+00  0.00000000000E+00 -0.19043863065E+03  0.30823959563E+04  0.30765074288E+04 0.  0.
        1    1    3    3  502    0 -0.12411048989E+04 -0.34401250953E+03 -0.93798239297E+03  0.15932661254E+04  0.50400001928E-02 0.  1.
       -1    1    3    3    0  502  0.12411048989E+04  0.34401250953E+03  0.74754376232E+03  0.14891298309E+04  0.50400001928E-02 0. -1.
</event>
<event>
 5   0  0.1885307E-06  0.3880908E+04  0.7818609E-02  0.8029012E-01
       -1   -1    0    0    0  501  0.00000000000E+00  0.00000000000E+00  0.23178193516E+04  0.23178193516E+04  0.50400001928E-02 0. -1.
        1   -1    0    0  501    0  0.00000000000E+00  0.00000000000E+00 -0.16245274752E+04  0.16245274752E+04  0.50400001928E-02 0.  1.
    10030    2    1    2    0    0  0.00000000000E+00  0.00000000000E+00  0.69329187641E+03  0.39423468268E+04  0.38809077387E+04 0.  0.
        3    1    3    3  502    0  0.19045697023E+02  0.19345178350E+04  0.49949127885E+03  0.19980524369E+04  0.10100000352E+00 0. -1.
       -3    1    3    3    0  502 -0.19045697023E+02 -0.19345178350E+04  0.19380059755E+03  0.19442943899E+04  0.10100000352E+00 0.  1.
</event>
<event>
 5   0  0.1843709E-06  0.3120597E+04  0.7818609E-02  0.8210108E-01
       -1   -1    0    0    0  501  0.00000000000E+00  0.00000000000E+00  0.20690395058E+04  0.20690395058E+04  0.50400001928E-02 0.  1.
        1   -1    0    0  501    0  0.00000000000E+00  0.00000000000E+00 -0.11766483289E+04  0.11766483289E+04  0.50400001928E-02 0. -1.
    10030    2    1    2    0    0  0.00000000000E+00  0.00000000000E+00  0.89239117686E+03  0.32456878347E+04  0.31205972998E+04 0.  0.
        4    1    3    3  502    0 -0.89009152700E+02 -0.73874669517E+03  0.18726154089E+04  0.20150333475E+04  0.12699999809E+01 0.  1.
       -4    1    3    3    0  502  0.89009152700E+02  0.73874669517E+03 -0.98022423205E+03  0.12306544872E+04  0.12699999809E+01 0. -1.
</event>
<event>
 5   0  0.1843709E-06  0.3106892E+04  0.7818609E-02  0.8213849E-01
        1   -1    0    0  501    0  0.00000000000E+00  0.00000000000E+00  0.21132476237E+04  0.21132476237E+04  0.50400001928E-02 0.  1.
       -1   -1    0    0    0  501  0.00000000000E+00  0.00000000000E+00 -0.11419361411E+04  0.11419361411E+04  0.50400001928E-02 0. -1.
    10030    2    1    2    0    0  0.00000000000E+00  0.00000000000E+00  0.97131148255E+03  0.32551837648E+04  0.31068915891E+04 0.  0.
        4    1    3    3  502    0 -0.12820437375E+03  0.87661601162E+03  0.18226103221E+04  0.20265246093E+04  0.12699999809E+01 0.  1.
       -4    1    3    3    0  502  0.12820437375E+03 -0.87661601162E+03 -0.85129883950E+03  0.12286591555E+04  0.12699999809E+01 0. -1.
</event>
<event>
 5   0  0.1843709E-06  0.3154335E+04  0.7818609E-02  0.8200982E-01
       -1   -1    0    0    0  501  0.00000000000E+00  0.00000000000E+00  0.11034830277E+04  0.11034830277E+04  0.50400001928E-02 0. -1.
        1   -1    0    0  501    0  0.00000000000E+00  0.00000000000E+00 -0.22541878575E+04  0.22541878575E+04  0.50400001928E-02 0.  1.
    10030    2    1    2    0    0  0.00000000000E+00  0.00000000000E+00 -0.11507048298E+04  0.33576708852E+04  0.31543354558E+04 0.  0.
        4    1    3    3  502    0  0.38767587055E+03  0.15138562363E+04 -0.34853666327E+03  0.16011035892E+04  0.12699999809E+01 0.  1.
       -4    1    3    3    0  502 -0.38767587055E+03 -0.15138562363E+04 -0.80216816650E+03  0.17565672959E+04  0.12699999809E+01 0. -1.
</event>
<event>
 5   0  0.1885307E-06  0.3254346E+04  0.7818609E-02  0.8174610E-01
       -1   -1    0    0    0  501  0.00000000000E+00  0.00000000000E+00  0.17379538414E+04  0.17379538414E+04  0.50400001928E-02 0.  1.
        1   -1    0    0  501    0  0.00000000000E+00  0.00000000000E+00 -0.15234539450E+04  0.15234539450E+04  0.50400001928E-02 0. -1.
    10030    2    1    2    0    0  0.00000000000E+00  0.00000000000E+00  0.21449989636E+03  0.32614077864E+04  0.32543464080E+04 0.  0.
        3    1    3    3  502    0  0.70351571613E+03  0.51968761606E+03 -0.12678362719E+04  0.15402656926E+04  0.10100000352E+00 0. -1.
       -3    1    3    3    0  502 -0.70351571613E+03 -0.51968761606E+03  0.14823361683E+04  0.17211420938E+04  0.10100000352E+00 0.  1.
</event>
<event>
 5   0  0.4927533E-06  0.2896643E+04  0.7818609E-02  0.8273877E-01
       -2   -1    0    0    0  501  0.00000000000E+00  0.00000000000E+00  0.10414966967E+04  0.10414966967E+04  0.25500000920E-02 0.  1.
        2   -1    0    0  501    0  0.00000000000E+00  0.00000000000E+00 -0.20140579964E+04  0.20140579964E+04  0.25500000920E-02 0. -1.
    10030    2    1    2    0    0  0.00000000000E+00  0.00000000000E+00 -0.97256129965E+03  0.30555546931E+04  0.28966427120E+04 0.  0.
        5    1    3    3  502    0  0.81916185765E+03 -0.86722598223E+03  0.38005844629E+03  0.12520277816E+04  0.46999998093E+01 0.  1.
       -5    1    3    3    0  502 -0.81916185765E+03  0.86722598223E+03 -0.13526197459E+04  0.18035269115E+04  0.46999998093E+01 0. -1.
</event>
<event>
 5   0  0.5114870E-06  0.3025486E+04  0.7818609E-02  0.8236491E-01
       -2   -1    0    0    0  501  0.00000000000E+00  0.00000000000E+00  0.22562677473E+04  0.22562677473E+04  0.25500000920E-02 0. -1.
        2   -1    0    0  501    0  0.00000000000E+00  0.00000000000E+00 -0.10142373012E+04  0.10142373013E+04  0.25500000920E-02 0.  1.
    10030    2    1    2    0    0  0.00000000000E+00  0.00000000000E+00  0.12420304460E+04  0.32705050485E+04  0.30254856872E+04 0.  0.
        2    1    3    3  502    0 -0.79986834158E+03  0.91339604606E+03 -0.35445584854E+03  0.12648006362E+04  0.25500000920E-02 0.  1.
       -2    1    3    3    0  502  0.79986834158E+03 -0.91339604606E+03  0.15964862946E+04  0.20057044123E+04  0.25500000920E-02 0. -1.
</event>
<event>
 5   0  0.1836401E-06  0.3063469E+04  0.7818609E-02  0.8225836E-01
        1   -1    0    0  501    0  0.00000000000E+00  0.00000000000E+00  0.15298558179E+04  0.15298558179E+04  0.50400001928E-02 0.  1.
       -1   -1    0    0    0  501  0.00000000000E+00  0.00000000000E+00 -0.15336151829E+04  0.15336151829E+04  0.50400001928E-02 0. -1.
    10030    2    1    2    0    0  0.00000000000E+00  0.00000000000E+00 -0.37593649525E+01  0.30634710008E+04  0.30634686942E+04 0.  0.
        2    1    3    3  502    0 -0.61051561916E+03  0.78123308442E+03  0.11656637683E+04  0.15303027394E+04  0.25500000920E-02 0.  1.
       -2    1    3    3    0  502  0.61051561916E+03 -0.78123308442E+03 -0.11694231332E+04  0.15331682615E+04  0.25500000920E-02 0. -1.
</event>
<event>
 5   0  0.1840431E-06  0.3090114E+04  0.7818609E-02  0.8218456E-01
       -1   -1    0    0    0  501  0.00000000000E+00  0.00000000000E+00  0.16302657781E+04  0.16302657781E+04  0.50400001928E-02 0. -1.
        1   -1    0    0  501    0  0.00000000000E+00  0.00000000000E+00 -0.14643017518E+04  0.14643017518E+04  0.50400001928E-02 0.  1.
    10030    2    1    2    0    0  0.00000000000E+00  0.00000000000E+00  0.16596402625E+03  0.30945675299E+04  0.30901139363E+04 0.  0.
        1    1    3    3  502    0  0.32010704816E+01  0.10599394532E+03  0.16266172192E+04  0.16300701031E+04  0.50400001928E-02 0. -1.
       -1    1    3    3    0  502 -0.32010704816E+01 -0.10599394532E+03 -0.14606531929E+04  0.14644974269E+04  0.50400001928E-02 0.  1.
</event>
<event>
 5   0  0.1885307E-06  0.3164320E+04  0.7818609E-02  0.8198304E-01
        1   -1    0    0  501    0  0.00000000000E+00  0.00000000000E+00  0.28365079500E+04  0.28365079500E+04  0.50400001928E-02 0. -1.
       -1   -1    0    0    0  501  0.00000000000E+00  0.00000000000E+00 -0.88250436141E+03  0.88250436142E+03  0.50400001928E-02 0.  1.
    10030    2    1    2    0    0  0.00000000000E+00  0.00000000000E+00  0.19540035886E+04  0.37190123114E+04  0.31643202348E+04 0.  0.
        3    1    3    3  502    0  0.37326865912E+03 -0.83662563642E+03 -0.53906542112E+03  0.10629503685E+04  0.10100000352E+00 0.  1.
       -3    1    3    3    0  502 -0.37326865912E+03  0.83662563642E+03  0.24930690097E+04  0.26560619429E+04  0.10100000352E+00 0. -1.
</event>
<event>
 5   0  0.1840431E-06  0.3072969E+04  0.7818609E-02  0.8223196E-01
        1   -1    0    0  501    0  0.00000000000E+00  0.00000000000E+00  0.20752976539E+04  0.20752976539E+04  0.50400001928E-02 0. -1.
       -1   -1    0    0    0  501  0.00000000000E+00  0.00000000000E+00 -0.11375646775E+04  0.11375646775E+04  0.50400001928E-02 0.  1.
    10030    2    1    2    0    0  0.00000000000E+00  0.00000000000E+00  0.93773297635E+03  0.32128623314E+04  0.30729694476E+04 0.  0.
        1    1    3    3  502    0 -0.13592094516E+04 -0.41626158370E+03  0.10785612428E+04  0.17843817960E+04  0.50400001928E-02 0.  1.
       -1    1    3    3    0  502  0.13592094516E+04  0.41626158370E+03 -0.14082826647E+03  0.14284805354E+04  0.50400001928E-02 0. -1.
</event>
<event>
 5   0  0.1843709E-06  0.3069527E+04  0.7818609E-02  0.8224151E-01
       -1   -1    0    0    0  501  0.00000000000E+00  0.00000000000E+00  0.15387730712E+04  0.15387730712E+04  0.50400001928E-02 0.  1.
        1   -1    0    0  501    0  0.00000000000E+00  0.00000000000E+00 -0.15307644414E+04  0.15307644414E+04  0.50400001928E-02 0. -1.
    10030    2    1    2    0    0  0.00000000000E+00  0.00000000000E+00  0.80086297689E+01  0.30695375126E+04  0.30695270651E+04 0.  0.
        4    1    3    3  502    0 -0.13727988318E+03  0.12570917946E+04 -0.86569511041E+03  0.15324996520E+04  0.12699999809E+01 0. -1.
       -4    1    3    3    0  502  0.13727988318E+03 -0.12570917946E+04  0.87370374018E+03  0.15370378606E+04  0.12699999809E+01 0.  1.
</event>
<event>
 5   0  0.1843709E-06  0.3093391E+04  0.7818609E-02  0.8217554E-01
        1   -1    0    0  501    0  0.00000000000E+00  0.00000000000E+00  0.10266765943E+04  0.10266765943E+04  0.50400001928E-02 0. -1.
       -1   -1    0    0    0  501  0.00000000000E+00  0.00000000000E+00 -0.23301083672E+04  0.23301083672E+04  0.50400001928E-02 0.  1.
    10030    2    1    2    0    0  0.00000000000E+00  0.00000000000E+00 -0.13034317728E+04  0.33567849615E+04  0.30933914869E+04 0.  0.
        4    1    3    3  502    0  0.98788608766E+03  0.10848371787E+04 -0.11827460178E+04  0.18845902425E+04  0.12699999809E+01 0.  1.
       -4    1    3    3    0  502 -0.98788608766E+03 -0.10848371787E+04 -0.12068575499E+03  0.14721947190E+04  0.12699999809E+01 0. -1.
</event>
<event>
 5   0  0.1885307E-06  0.3107555E+04  0.7818609E-02  0.8213667E-01
       -1   -1    0    0    0  501  0.00000000000E+00  0.00000000000E+00  0.83124411183E+03  0.83124411184E+03  0.50400001928E-02 0.  1.
        1   -1    0    0  501    0  0.00000000000E+00  0.00000000000E+00 -0.29043516795E+04  0.29043516795E+04  0.50400001928E-02 0. -1.
    10030    2    1    2    0    0  0.00000000000E+00  0.00000000000E+00 -0.20731075677E+04  0.37355957913E+04  0.31075554587E+04 0.  0.
        3    1    3    3  502    0  0.68994141598E+03 -0.84916519771E+02  0.63388895144E+03  0.94076840177E+03  0.10100000352E+00 0.  1.
       -3    1    3    3    0  502 -0.68994141598E+03  0.84916519771E+02 -0.27069965191E+04  0.27948273896E+04  0.10100000352E+00 0. -1.
</event>
<event>
 5   0  0.5114870E-06  0.3138919E+04  0.7818609E-02  0.8205137E-01
       -2   -1    0    0    0  501  0.00000000000E+00  0.00000000000E+00  0.11562323106E+04  0.11562323106E+04  0.25500000920E-02 0. -1.
        2   -1    0    0  501    0  0.00000000000E+00  0.00000000000E+00 -0.21303701138E+04  0.21303701138E+04  0.25500000920E-02 0.  1.
    10030    2    1    2    0    0  0.00000000000E+00  0.00000000000E+00 -0.97413780319E+03  0.32866024245E+04  0.31389187688E+04 0.  0.
        2    1    3    3  502    0 -0.49465247978E+03  0.11106105397E+04  0.55213253844E+03  0.13352854327E+04  0.25500000920E-02 0. -1.
       -2    1    3    3    0  502  0.49465247978E+03 -0.11106105397E+04 -0.15262703416E+04  0.19513169918E+04  0.25500000920E-02 0.  1.
</event>
<event>
 5   0  0.1649875E-06  0.3033091E+04  0.7818609E-02  0.8234344E-01
        3   -1    0    0  501    0  0.00000000000E+00  0.00000000000E+00  0.99943294253E+03  0.99943294763E+03  0.10100000352E+00 0.  1.
       -3   -1    0    0    0  501  0.00000000000E+00  0.00000000000E+00 -0.23012148959E+04  0.23012148981E+04  0.10100000352E+00 0. -1.
    10030    2    1    2    0    0  0.00000000000E+00  0.00000000000E+00 -0.13017819534E+04  0.33006478458E+04  0.30330908242E+04 0.  0.
        1    1    3    3  502    0 -0.14852543228E+04  0.21260867483E+03 -0.89110547372E+03  0.17450649894E+04  0.50400001928E-02 0.  1.
       -1    1    3    3    0  502  0.14852543228E+04 -0.21260867483E+03 -0.41067647968E+03  0.15555828564E+04  0.50400001928E-02 0. -1.
</event>
<event>
 5   0  0.5328368E-06  0.3133493E+04  0.7818609E-02  0.8206606E-01
        2   -1    0    0  501    0  0.00000000000E+00  0.00000000000E+00  0.24953434487E+04  0.24953434487E+04  0.25500000920E-02 0.  1.
       -2   -1    0    0    0  501  0.00000000000E+00  0.00000000000E+00 -0.98371020513E+03  0.98371020513E+03  0.25500000920E-02 0. -1.
    10030    2    1    2    0    0  0.00000000000E+00  0.00000000000E+00  0.15116332435E+04  0.34790536538E+04  0.31334931407E+04 0.  0.
        1    1    3    3  502    0  0.13628456839E+04 -0.73485175898E+03  0.48995309572E+03  0.16240103146E+04  0.50400001928E-02 0. -1.
       -1    1    3    3    0  502 -0.13628456839E+04  0.73485175898E+03  0.10216801478E+04  0.18550433392E+04  0.50400001928E-02 0.  1.
</event>
<event>
 5   0  0.1885307E-06  0.2938525E+04  0.7818609E-02  0.8261507E-01
       -1   -1    0    0    0  501  0.00000000000E+00  0.00000000000E+00  0.10078775798E+04  0.10078775798E+04  0.50400001928E-02 0. -1.
        1   -1    0    0  501    0  0.00000000000E+00  0.00000000000E+00 -0.21418593079E+04  0.21418593079E+04  0.50400001928E-02 0.  1.
    10030    2    1    2    0    0  0.00000000000E+00  0.00000000000E+00 -0.11339817281E+04  0.31497368877E+04  0.29385247833E+04 0.  0.
        3    1    3    3  502    0 -0.69275512677E+03 -0.67045528656E+03 -0.17554273616E+04  0.20027344280E+04  0.10100000352E+00 0.  1.
       -3    1    3    3    0  502  0.69275512677E+03  0.67045528656E+03  0.62144563348E+03  0.11470024597E+04  0.10100000352E+00 0. -1.
</event>
<event>
 5   0  0.5328368E-06  0.3159288E+04  0.7818609E-02  0.8199653E-01
       -2   -1    0    0    0  501  0.00000000000E+00  0.00000000000E+00  0.15674272395E+04  0.15674272395E+04  0.25500000920E-02 0.  1.
        2   -1    0    0  501    0  0.00000000000E+00  0.00000000000E+00 -0.15919555177E+04  0.15919555177E+04  0.25500000920E-02 0. -1.
    10030    2    1    2    0    0  0.00000000000E+00  0.00000000000E+00 -0.24528278219E+02  0.31593827572E+04  0.31592875415E+04 0.  0.
        1    1    3    3  502    0  0.55540633362E+03 -0.10900031052E+04  0.98711150425E+03  0.15719325961E+04  0.50400001928E-02 0.  1.
       -1    1    3    3    0  502 -0.55540633362E+03  0.10900031052E+04 -0.10116397825E+04  0.15874501612E+04  0.50400001928E-02 0. -1.
</event>
<event>
 5   0  0.1840431E-06  0.3462767E+04  0.7818609E-02  0.8122671E-01
        1   -1    0    0  501    0  0.00000000000E+00  0.00000000000E+00  0.17602554327E+04  0.17602554328E+04  0.50400001928E-02 0. -1.
       -1   -1    0    0    0  501  0.00000000000E+00  0.00000000000E+00 -0.17029851442E+04  0.17029851442E+04  0.50400001928E-02 0.  1.
    10030    2    1    2    0    0  0.00000000000E+00  0.00000000000E+00  0.57270288555E+02  0.34632405770E+04  0.34627670161E+04 0.  0.
        1    1    3    3  502    0 -0.63118161860E+03 -0.14975445943E+04 -0.56865570843E+03  0.17217431174E+04  0.50400001928E-02 0.  1.
       -1    1    3    3    0  502  0.63118161860E+03  0.14975445943E+04  0.62592599698E+03  0.17414974595E+04  0.50400001928E-02 0. -1.
</event>
<event>
 5   0  0.4927533E-06  0.2869467E+04  0.7818609E-02  0.8282020E-01
       -2   -1    0    0    0  501  0.00000000000E+00  0.00000000000E+00  0.15514307932E+04  0.15514307932E+04  0.25500000920E-02 0. -1.
        2   -1    0    0  501    0  0.00000000000E+00  0.00000000000E+00 -0.13268137830E+04  0.13268137830E+04  0.25500000920E-02 0.  1.
    10030    2    1    2    0    0  0.00000000000E+00  0.00000000000E+00  0.22461701017E+03  0.28782445762E+04  0.28694666820E+04 0.  0.
        5    1    3    3  502    0  0.14997824861E+03 -0.10752135250E+04  0.10531865035E+04  0.15125480159E+04  0.46999998093E+01 0. -1.
       -5    1    3    3    0  502 -0.14997824861E+03  0.10752135250E+04 -0.82856949331E+03  0.13656965603E+04  0.46999998093E+01 0.  1.
</event>
<event>
 5   0  0.1836401E-06  0.3083212E+04  0.7818609E-02  0.8220360E-01
       -1   -1    0    0    0  501  0.00000000000E+00  0.00000000000E+00  0.14212288230E+04  0.14212288230E+04  0.50400001928E-02 0. -1.
        1   -1    0    0  501    0  0.00000000000E+00  0.00000000000E+00 -0.16721787936E+04  0.16721787936E+04  0.50400001928E-02 0.  1.
    10030    2    1    2    0    0  0.00000000000E+00  0.00000000000E+00 -0.25094997065E+03  0.30934076166E+04  0.30832117662E+04 0.  0.
        2    1    3    3  502    0  0.68184790500E+03 -0.81557896406E+03  0.99466811119E+03  0.14558331854E+04  0.25500000920E-02 0. -1.
       -2    1    3    3    0  502 -0.68184790500E+03  0.81557896406E+03 -0.12456180818E+04  0.16375744313E+04  0.25500000920E-02 0.  1.
</event>
<event>
 5   0  0.5001658E-06  0.3059348E+04  0.7818609E-02  0.8226984E-01
        2   -1    0    0  501    0  0.00000000000E+00  0.00000000000E+00  0.24660458198E+04  0.24660458198E+04  0.25500000920E-02 0.  1.
       -2   -1    0    0    0  501  0.00000000000E+00  0.00000000000E+00 -0.94884773797E+03  0.94884773798E+03  0.25500000920E-02 0. -1.
    10030    2    1    2    0    0  0.00000000000E+00  0.00000000000E+00  0.15171980818E+04  0.34148935578E+04  0.30593476415E+04 0.  0.
        3    1    3    3  502    0  0.14293361382E+04  0.52269899502E+03  0.58681066829E+03  0.16311231732E+04  0.10100000352E+00 0. -1.
       -3    1    3    3    0  502 -0.14293361382E+04 -0.52269899502E+03  0.93038741351E+03  0.17837703846E+04  0.10100000352E+00 0.  1.
</event>
<event>
 5   0  0.5114870E-06  0.3092532E+04  0.7818609E-02  0.8217791E-01
        2   -1    0    0  501    0  0.00000000000E+00  0.00000000000E+00  0.16424542732E+04  0.16424542732E+04  0.25500000920E-02 0.  1.
       -2   -1    0    0    0  501  0.00000000000E+00  0.00000000000E+00 -0.14557104918E+04  0.14557104918E+04  0.25500000920E-02 0. -1.
    10030    2    1    2    0    0  0.00000000000E+00  0.00000000000E+00  0.18674378137E+03  0.30981647651E+04  0.30925315959E+04 0.  0.
        2    1    3    3  502    0  0.39901149565E+03  0.39430533334E+03  0.15369167930E+04  0.16360929369E+04  0.25500000920E-02 0.  1.
       -2    1    3    3    0  502 -0.39901149565E+03 -0.39430533334E+03 -0.13501730116E+04  0.14620718282E+04  0.25500000920E-02 0. -1.
</event>
<event>
 5   0  0.1836401E-06  0.3075576E+04  0.7818609E-02  0.8222473E-01
        1   -1    0    0  501    0  0.00000000000E+00  0.00000000000E+00  0.13394542564E+04  0.13394542564E+04  0.50400001928E-02 0. -1.
       -1   -1    0    0    0  501  0.00000000000E+00  0.00000000000E+00 -0.17654892844E+04  0.17654892844E+04  0.50400001928E-02 0.  1.
    10030    2    1    2    0    0  0.00000000000E+00  0.00000000000E+00 -0.42603502808E+03  0.31049435408E+04  0.30755761324E+04 0.  0.
        2    1    3    3  502    0 -0.20447694304E+03 -0.66041268338E+02 -0.17502586658E+04  0.17633994632E+04  0.25500000920E-02 0.  1.
       -2    1    3    3    0  502  0.20447694304E+03  0.66041268338E+02  0.13242236378E+04  0.13415440776E+04  0.25500000920E-02 0. -1.
</event>
<event>
 5   0  0.4927533E-06  0.3093225E+04  0.7818609E-02  0.8217600E-01
       -2   -1    0    0    0  501  0.00000000000E+00  0.00000000000E+00  0.11767209209E+04  0.11767209209E+04  0.25500000920E-02 0.  1.
        2   -1    0    0  501    0  0.00000000000E+00  0.00000000000E+00 -0.20327755665E+04  0.20327755665E+04  0.25500000920E-02 0. -1.
    10030    2    1    2    0    0  0.00000000000E+00  0.00000000000E+00 -0.85605464554E+03  0.32094964874E+04  0.30932245548E+04 0.  0.
        5    1    3    3  502    0  0.49147132125E+03 -0.12493024647E+04  0.36874847941E+03  0.13922277971E+04  0.46999998093E+01 0.  1.
       -5    1    3    3    0  502 -0.49147132125E+03  0.12493024647E+04 -0.12248031250E+04  0.18172686903E+04  0.46999998093E+01 0. -1.
</event>
<event>
 5   0  0.4927533E-06  0.3054515E+04  0.7818609E-02  0.8228333E-01
        2   -1    0    0  501    0  0.00000000000E+00  0.00000000000E+00  0.15211364853E+04  0.15211364853E+04  0.25500000920E-02 0. -1.
       -2   -1    0    0    0  501  0.00000000000E+00  0.00000000000E+00 -0.15334032432E+04  0.15334032432E+04  0.25500000920E-02 0.  1.
    10030    2    1    2    0    0  0.00000000000E+00  0.00000000000E+00 -0.12266757892E+02  0.30545397285E+04  0.30545150973E+04 0.  0.
        5    1    3    3  502    0 -0.13544628794E+04 -0.14667635432E+03  0.68409670485E+03  0.15244979621E+04  0.46999998093E+01 0. -1.
       -5    1    3    3    0  502  0.13544628794E+04  0.14667635432E+03 -0.69636346275E+03  0.15300417664E+04  0.46999998093E+01 0.  1.
</event>
<event>
 5   0  0.5001658E-06  0.3086233E+04  0.7818609E-02  0.8219526E-01
       -2   -1    0    0    0  501  0.00000000000E+00  0.00000000000E+00  0.17346635071E+04  0.17346635071E+04  0.25500000920E-02 0.  1.
        2   -1    0    0  501    0  0.00000000000E+00  0.00000000000E+00 -0.13727204174E+04  0.13727204174E+04  0.25500000920E-02 0. -1.
    10030    2    1    2    0    0  0.00000000000E+00  0.00000000000E+00  0.36194308966E+03  0.31073839245E+04  0.30862326636E+04 0.  0.
        3    1    3    3  502    0 -0.75486776590E+03 -0.12406384022E+03 -0.11683588641E+04  0.13965241230E+04  0.10100000352E+00 0. -1.
       -3    1    3    3    0  502  0.75486776590E+03  0.12406384022E+03  0.15303019538E+04  0.17108598015E+04  0.10100000352E+00 0.  1.
</event>
<event>
 5   0  0.5328368E-06  0.2741585E+04  0.7818609E-02  0.8321637E-01
        2   -1    0    0  501    0  0.00000000000E+00  0.00000000000E+00  0.24298721579E+04  0.24298721579E+04  0.25500000920E-02 0.  1.
       -2   -1    0    0    0  501  0.00000000000E+00  0.00000000000E+00 -0.77332109865E+03  0.77332109865E+03  0.25500000920E-02 0. -1.
    10030    2    1    2    0    0  0.00000000000E+00  0.00000000000E+00  0.16565510593E+04  0.32031932566E+04  0.27415845103E+04 0.  0.
        1    1    3    3  502    0  0.41964227659E+03  0.25682155261E+03 -0.66660939138E+03  0.82850771324E+03  0.50400001928E-02 0. -1.
       -1    1    3    3    0  502 -0.41964227659E+03 -0.25682155261E+03  0.23231604507E+04  0.23746855434E+04  0.50400001928E-02 0.  1.
</event>
<event>
 5   0  0.1853742E-06  0.2671423E+04  0.7818609E-02  0.8344337E-01
        1   -1    0    0  501    0  0.00000000000E+00  0.00000000000E+00  0.16351653545E+04  0.16351653545E+04  0.50400001928E-02 0.  1.
       -1   -1    0    0    0  501  0.00000000000E+00  0.00000000000E+00 -0.10910978378E+04  0.10910978378E+04  0.50400001928E-02 0. -1.
    10030    2    1    2    0    0  0.00000000000E+00  0.00000000000E+00  0.54406751670E+03  0.27262631922E+04  0.26714231283E+04 0.  0.
        5    1    3    3  502    0 -0.38255969845E+02 -0.12990061122E+04  0.58695052688E+03  0.14259780537E+04  0.46999998093E+01 0. -1.
       -5    1    3    3    0  502  0.38255969845E+02  0.12990061122E+04 -0.42883010172E+02  0.13002851385E+04  0.46999998093E+01 0.  1.
</event>
<event>
 5   0  0.1840431E-06  0.3034855E+04  0.7818609E-02  0.8233847E-01
        1   -1    0    0  501    0  0.00000000000E+00  0.00000000000E+00  0.23395873066E+04  0.23395873066E+04  0.50400001928E-02 0. -1.
       -1   -1    0    0    0  501  0.00000000000E+00  0.00000000000E+00 -0.98418479184E+03  0.98418479185E+03  0.50400001928E-02 0.  1.
    10030    2    1    2    0    0  0.00000000000E+00  0.00000000000E+00  0.13554025147E+04  0.33237720984E+04  0.30348550188E+04 0.  0.
        1    1    3    3  502    0  0.65413432432E+03  0.54501803036E+03 -0.69791912858E+03  0.11009211951E+04  0.50400001928E-02 0.  1.
       -1    1    3    3    0  502 -0.65413432432E+03 -0.54501803036E+03  0.20533216433E+04  0.22228509034E+04  0.50400001928E-02 0. -1.
</event>
<event>
 5   0  0.5114870E-06  0.3074607E+04  0.7818609E-02  0.8222742E-01
       -2   -1    0    0    0  501  0.00000000000E+00  0.00000000000E+00  0.16737413276E+04  0.16737413276E+04  0.25500000920E-02 0.  1.
        2   -1    0    0  501    0  0.00000000000E+00  0.00000000000E+00 -0.14119875371E+04  0.14119875371E+04  0.25500000920E-02 0. -1.
    10030    2    1    2    0    0  0.00000000000E+00  0.00000000000E+00  0.26175379053E+03  0.30857288647E+04  0.30746068984E+04 0.  0.
        2    1    3    3  502    0 -0.29479991333E+03  0.15025865987E+04  0.26785658179E+03  0.15544840379E+04  0.25500000920E-02 0. -1.
       -2    1    3    3    0  502  0.29479991333E+03 -0.15025865987E+04 -0.61027912612E+01  0.15312448268E+04  0.25500000920E-02 0.  1.
</event>
<event>
 5   0  0.1836401E-06  0.3069940E+04  0.7818609E-02  0.8224036E-01
        1   -1    0    0  501    0  0.00000000000E+00  0.00000000000E+00  0.10483968817E+04  0.10483968817E+04  0.50400001928E-02 0. -1.
       -1   -1    0    0    0  501  0.00000000000E+00  0.00000000000E+00 -0.22473679264E+04  0.22473679264E+04  0.50400001928E-02 0.  1.
    10030    2    1    2    0    0  0.00000000000E+00  0.00000000000E+00 -0.11989710448E+04  0.32957648081E+04  0.30699404073E+04 0.  0.
        2    1    3    3  502    0 -0.70052880140E+03  0.11687310949E+04 -0.13581973659E+04  0.19238952826E+04  0.25500000920E-02 0.  1.
       -2    1    3    3    0  502  0.70052880140E+03 -0.11687310949E+04  0.15922632111E+03  0.13718695255E+04  0.25500000920E-02 0. -1.
</event>
<event>
 5   0  0.5001658E-06  0.2976873E+04  0.7818609E-02  0.8250366E-01
        2   -1    0    0  501    0  0.00000000000E+00  0.00000000000E+00  0.24887568034E+04  0.24887568034E+04  0.25500000920E-02 0. -1.
       -2   -1    0    0    0  501  0.00000000000E+00  0.00000000000E+00 -0.89018093015E+03  0.89018093015E+03  0.25500000920E-02 0.  1.
    10030    2    1    2    0    0  0.00000000000E+00  0.00000000000E+00  0.15985758733E+04  0.33789377336E+04  0.29768734244E+04 0.  0.
        3    1    3    3  502    0  0.56513081814E+03  0.37204972809E+02 -0.76309876117E+03  0.95030352052E+03  0.10100000352E+00 0.  1.
       -3    1    3    3    0  502 -0.56513081814E+03 -0.37204972809E+02  0.23616746345E+04  0.24286342131E+04  0.10100000352E+00 0. -1.
</event>
<event>
 5   0  0.4927533E-06  0.2472002E+04  0.7818609E-02  0.8413028E-01
        2   -1    0    0  501    0  0.00000000000E+00  0.00000000000E+00  0.92192176150E+03  0.92192176150E+03  0.25500000920E-02 0. -1.
       -2   -1    0    0    0  501  0.00000000000E+00  0.00000000000E+00 -0.16570799428E+04  0.16570799428E+04  0.25500000920E-02 0.  1.
    10030    2    1    2    0    0  0.00000000000E+00  0.00000000000E+00 -0.73515818126E+03  0.25790017043E+04  0.24720016665E+04 0.  0.
        5    1    3    3  502    0 -0.51554503277E+03  0.21282635070E+03 -0.15183152147E+04  0.16175243174E+04  0.46999998093E+01 0.  1.
       -5    1    3    3    0  502  0.51554503277E+03 -0.21282635070E+03  0.78315703343E+03  0.96147738682E+03  0.46999998093E+01 0. -1.
</event>
<event>
 5   0  0.1853742E-06  0.3083381E+04  0.7818609E-02  0.8220314E-01
       -1   -1    0    0    0  501  0.00000000000E+00  0.00000000000E+00  0.13318753262E+04  0.13318753262E+04  0.50400001928E-02 0.  1.
        1   -1    0    0  501    0  0.00000000000E+00  0.00000000000E+00 -0.17845584674E+04  0.17845584674E+04  0.50400001928E-02 0. -1.
    10030    2    1    2    0    0  0.00000000000E+00  0.00000000000E+00 -0.45268314116E+03  0.31164337936E+04  0.30833808658E+04 0.  0.
        5    1    3    3  502    0 -0.80553433061E+03 -0.18328254485E+03  0.10892681486E+04  0.13671156639E+04  0.46999998093E+01 0.  1.
       -5    1    3    3    0  502  0.80553433061E+03  0.18328254485E+03 -0.15419512897E+04  0.17493181297E+04  0.46999998093E+01 0. -1.
</event>
<event>
 5   0  0.1853742E-06  0.3116802E+04  0.7818609E-02  0.8211142E-01
       -1   -1    0    0    0  501  0.00000000000E+00  0.00000000000E+00  0.16068612625E+04  0.16068612625E+04  0.50400001928E-02 0.  1.
        1   -1    0    0  501    0  0.00000000000E+00  0.00000000000E+00 -0.15114026284E+04  0.15114026284E+04  0.50400001928E-02 0. -1.
    10030    2    1    2    0    0  0.00000000000E+00  0.00000000000E+00  0.95458634032E+02  0.31182638909E+04  0.31168024228E+04 0.  0.
        5    1    3    3  502    0  0.32601267316E+02 -0.61864645758E+03 -0.13829083141E+04  0.15153361928E+04  0.46999998093E+01 0. -1.
       -5    1    3    3    0  502 -0.32601267316E+02  0.61864645758E+03  0.14783669481E+04  0.16029276981E+04  0.46999998093E+01 0.  1.
</event>
<event>
 5   0  0.5328368E-06  0.2424755E+04  0.7818609E-02  0.8430293E-01
       -2   -1    0    0    0  501  0.00000000000E+00  0.00000000000E+00  0.95667922977E+03  0.95667922978E+03  0.25500000920E-02 0.  1.
        2   -1    0    0  501    0  0.00000000000E+00  0.00000000000E+00 -0.15364181191E+04  0.15364181191E+04  0.25500000920E-02 0. -1.
    10030    2    1    2    0    0  0.00000000000E+00  0.00000000000E+00 -0.57973888937E+03  0.24930973489E+04  0.24247550828E+04 0.  0.
        1    1    3    3  502    0  0.53570952565E+03 -0.37694472794E+03  0.75907465947E+03  0.10026297235E+04  0.50400001928E-02 0.  1.
       -1    1    3    3    0  502 -0.53570952565E+03  0.37694472794E+03 -0.13388135488E+04  0.14904676254E+04  0.50400001928E-02 0. -1.
</event>
<event>
 5   0  0.4900679E-06  0.3035881E+04  0.7818609E-02  0.8233559E-01
       -2   -1    0    0    0  501  0.00000000000E+00  0.00000000000E+00  0.15660784236E+04  0.15660784236E+04  0.25500000920E-02 0. -1.
        2   -1    0    0  501    0  0.00000000000E+00  0.00000000000E+00 -0.14712820480E+04  0.14712820480E+04  0.25500000920E-02 0.  1.
    10030    2    1    2    0    0  0.00000000000E+00  0.00000000000E+00  0.94796375697E+02  0.30373604716E+04  0.30358808082E+04 0.  0.
        4    1    3    3  502    0 -0.57133836064E+03 -0.61294259613E+03  0.13137225175E+04  0.15582023663E+04  0.12699999809E+01 0. -1.
       -4    1    3    3    0  502  0.57133836064E+03  0.61294259613E+03 -0.12189261418E+04  0.14791581053E+04  0.12699999809E+01 0.  1.
</event>
<event>
 5   0  0.1836401E-06  0.3087056E+04  0.7818609E-02  0.8219299E-01
       -1   -1    0    0    0  501  0.00000000000E+00  0.00000000000E+00  0.14790187371E+04  0.14790187371E+04  0.50400001928E-02 0. -1.
        1   -1    0    0  501    0  0.00000000000E+00  0.00000000000E+00 -0.16108504741E+04  0.16108504741E+04  0.50400001928E-02 0.  1.
    10030    2    1    2    0    0  0.00000000000E+00  0.00000000000E+00 -0.13183173697E+03  0.30898692113E+04  0.30870555770E+04 0.  0.
        2    1    3    3  502    0  0.15433516534E+04 -0.57472384024E+01 -0.88534633140E+02  0.15458996533E+04  0.25500000920E-02 0. -1.
       -2    1    3    3    0  502 -0.15433516534E+04  0.57472384024E+01 -0.43297103829E+02  0.15439695580E+04  0.25500000920E-02 0.  1.
</event>
<event>
 5   0  0.1843709E-06  0.2354895E+04  0.7818609E-02  0.8456586E-01
        1   -1    0    0  501    0  0.00000000000E+00  0.00000000000E+00  0.14080708622E+04  0.14080708622E+04  0.50400001928E-02 0.  1.
       -1   -1    0    0    0  501  0.00000000000E+00  0.00000000000E+00 -0.98459693657E+03  0.98459693658E+03  0.50400001928E-02 0. -1.
    10030    2    1    2    0    0  0.00000000000E+00  0.00000000000E+00  0.42347392564E+03  0.23926677988E+04  0.23548946961E+04 0.  0.
        4    1    3    3  502    0 -0.36140949445E+03  0.11058243200E+04  0.39607588601E+03  0.12289597104E+04  0.12699999809E+01 0.  1.
       -4    1    3    3    0  502  0.36140949445E+03 -0.11058243200E+04  0.27398039630E+02  0.11637080884E+04  0.12699999809E+01 0. -1.
</event>
<event>
 5   0  0.5001658E-06  0.3092370E+04  0.7818609E-02  0.8217835E-01
        2   -1    0    0  501    0  0.00000000000E+00  0.00000000000E+00  0.30755666651E+04  0.30755666651E+04  0.25500000920E-02 0.  1.
       -2   -1    0    0    0  501  0.00000000000E+00  0.00000000000E+00 -0.77731621685E+03  0.77731621686E+03  0.25500000920E-02 0. -1.
    10030    2    1    2    0    0  0.00000000000E+00  0.00000000000E+00  0.22982504483E+04  0.38528828820E+04  0.30923698646E+04 0.  0.
        3    1    3    3  502    0 -0.71994082329E+03 -0.84456986039E+03  0.24904999113E+04  0.27265734643E+04  0.10100000352E+00 0.  1.
       -3    1    3    3    0  502  0.71994082329E+03  0.84456986039E+03 -0.19224946298E+03  0.11263094177E+04  0.10100000352E+00 0. -1.
</event>
<event>
 5   0  0.1840431E-06  0.3151933E+04  0.7818609E-02  0.8201628E-01
        1   -1    0    0  501    0  0.00000000000E+00  0.00000000000E+00  0.18943303415E+04  0.18943303415E+04  0.50400001928E-02 0. -1.
       -1   -1    0    0    0  501  0.00000000000E+00  0.00000000000E+00 -0.13111069245E+04  0.13111069245E+04  0.50400001928E-02 0.  1.
    10030    2    1    2    0    0  0.00000000000E+00  0.00000000000E+00  0.58322341703E+03  0.32054372660E+04  0.31519325044E+04 0.  0.
        1    1    3    3  502    0 -0.10947483760E+03  0.93032987505E+03 -0.99724991189E+03  0.13682126309E+04  0.50400001928E-02 0.  1.
       -1    1    3    3    0  502  0.10947483760E+03 -0.93032987505E+03  0.15804733289E+04  0.18372246351E+04  0.50400001928E-02 0. -1.
</event>
<event>
 5   0  0.4927533E-06  0.3113321E+04  0.7818609E-02  0.8212092E-01
       -2   -1    0    0    0  501  0.00000000000E+00  0.00000000000E+00  0.11977686233E+04  0.11977686233E+04  0.25500000920E-02 0. -1.
        2   -1    0    0  501    0  0.00000000000E+00  0.00000000000E+00 -0.20230884050E+04  0.20230884050E+04  0.25500000920E-02 0.  1.
    10030    2    1    2    0    0  0.00000000000E+00  0.00000000000E+00 -0.82531978168E+03  0.32208570282E+04  0.31133209366E+04 0.  0.
        5    1    3    3  502    0  0.27461331976E+03  0.78146165036E+01  0.11724833078E+04  0.12042477904E+04  0.46999998093E+01 0. -1.
       -5    1    3    3    0  502 -0.27461331976E+03 -0.78146165036E+01 -0.19978030895E+04  0.20166092378E+04  0.46999998093E+01 0.  1.
</event>
<event>
 5   0  0.1836401E-06  0.3113914E+04  0.7818609E-02  0.8211930E-01
       -1   -1    0    0    0  501  0.00000000000E+00  0.00000000000E+00  0.14694095942E+04  0.14694095942E+04  0.50400001928E-02 0. -1.
        1   -1    0    0  501    0  0.00000000000E+00  0.00000000000E+00 -0.16497203114E+04  0.16497203114E+04  0.50400001928E-02 0.  1.
    10030    2    1    2    0    0  0.00000000000E+00  0.00000000000E+00 -0.18031071725E+03  0.31191299056E+04  0.31139138417E+04 0.  0.
        2    1    3    3  502    0  0.24623035510E+03  0.14247967830E+04 -0.66856490757E+03  0.15930016624E+04  0.25500000920E-02 0.  1.
       -2    1    3    3    0  502 -0.24623035510E+03 -0.14247967830E+04  0.48825419032E+03  0.15261282433E+04  0.25500000920E-02 0. -1.
</event>
<event>
 5   0  0.5328368E-06  0.3017700E+04  0.7818609E-02  0.8238694E-01
       -2   -1    0    0    0  501  0.00000000000E+00  0.00000000000E+00  0.97360661934E+03  0.97360661935E+03  0.25500000920E-02 0.  1.
        2   -1    0    0  501    0  0.00000000000E+00  0.00000000000E+00 -0.23383455320E+04  0.23383455320E+04  0.25500000920E-02 0. -1.
    10030    2    1    2    0    0  0.00000000000E+00  0.00000000000E+00 -0.13647389126E+04  0.33119521513E+04  0.30177002424E+04 0.  0.
        1    1    3    3  502    0  0.80710783163E+03 -0.92933619940E+03  0.27538521157E+03  0.12613190866E+04  0.50400001928E-02 0.  1.
       -1    1    3    3    0  502 -0.80710783163E+03  0.92933619940E+03 -0.16401241242E+04  0.20506330647E+04  0.50400001928E-02 0. -1.
</event>
<event>
 5   0  0.5114870E-06  0.3152423E+04  0.7818609E-02  0.8201496E-01
        2   -1    0    0  501    0  0.00000000000E+00  0.00000000000E+00  0.18803043753E+04  0.18803043754E+04  0.25500000920E-02 0. -1.
       -2   -1    0    0    0  501  0.00000000000E+00  0.00000000000E+00 -0.13212981043E+04  0.13212981043E+04  0.25500000920E-02 0.  1.
    10030    2    1    2    0    0  0.00000000000E+00  0.00000000000E+00  0.55900627108E+03  0.32016024796E+04  0.31524229454E+04 0.  0.
        2    1    3    3  502    0  0.84008533232E+02 -0.75351506696E+03 -0.11239378501E+04  0.13557576040E+04  0.25500000920E-02 0.  1.
       -2    1    3    3    0  502 -0.84008533232E+02  0.75351506696E+03  0.16829441212E+04  0.18458448756E+04  0.25500000920E-02 0. -1.
</event>
<event>
 5   0  0.1843709E-06  0.3148488E+04  0.7818609E-02  0.8202555E-01
       -1   -1    0    0    0  501  0.00000000000E+00  0.00000000000E+00  0.14248806475E+04  0.14248806475E+04  0.50400001928E-02 0.  1.
        1   -1    0    0  501    0  0.00000000000E+00  0.00000000000E+00 -0.17392646518E+04  0.17392646518E+04  0.50400001928E-02 0. -1.
    10030    2    1    2    0    0  0.00000000000E+00  0.00000000000E+00 -0.31438400429E+03  0.31641452993E+04  0.31484882361E+04 0.  0.
        4    1    3    3  502    0 -0.49176153180E+03  0.11663426618E+04  0.78344238849E+03  0.14886128435E+04  0.12699999809E+01 0.  1.
       -4    1    3    3    0  502  0.49176153180E+03 -0.11663426618E+04 -0.10978263928E+04  0.16755324558E+04  0.12699999809E+01 0. -1.
</event>
<event>
 5   0  0.4900679E-06  0.3017289E+04  0.7818609E-02  0.8238811E-01
        2   -1    0    0  501    0  0.00000000000E+00  0.00000000000E+00  0.18152792108E+04  0.18152792108E+04  0.25500000920E-02 0.  1.
       -2   -1    0    0    0  501  0.00000000000E+00  0.00000000000E+00 -0.12538063572E+04  0.12538063572E+04  0.25500000920E-02 0. -1.
    10030    2    1    2    0    0  0.00000000000E+00  0.00000000000E+00  0.56147285355E+03  0.30690855680E+04  0.30172892567E+04 0.  0.
        4    1    3    3  502    0 -0.58470892608E+02  0.10586165087E+04  0.13724358161E+04  0.17342633711E+04  0.12699999809E+01 0.  1.
       -4    1    3    3    0  502  0.58470892608E+02 -0.10586165087E+04 -0.81096296259E+03  0.13348221969E+04  0.12699999809E+01 0. -1.
</event>
<event>
 5   0  0.4927533E-06  0.3030356E+04  0.7818609E-02  0.8235115E-01
        2   -1    0    0  501    0  0.00000000000E+00  0.00000000000E+00  0.14684636798E+04  0.14684636798E+04  0.25500000920E-02 0. -1.
       -2   -1    0    0    0  501  0.00000000000E+00  0.00000000000E+00 -0.15633783062E+04  0.15633783062E+04  0.25500000920E-02 0.  1.
    10030    2    1    2    0    0  0.00000000000E+00  0.00000000000E+00 -0.94914626372E+02  0.30318419861E+04  0.30303559266E+04 0.  0.
        5    1    3    3  502    0  0.33659511725E+03  0.26039252778E+03 -0.15023511719E+04  0.15614677952E+04  0.46999998093E+01 0.  1.
       -5    1    3    3    0  502 -0.33659511725E+03 -0.26039252778E+03  0.14074365456E+04  0.14703741909E+04  0.46999998093E+01 0. -1.
</event>
<event>
 5   0  0.1840431E-06  0.2725712E+04  0.7818609E-02  0.8326710E-01
       -1   -1    0    0    0  501  0.00000000000E+00  0.00000000000E+00  0.11809802309E+04  0.11809802309E+04  0.50400001928E-02 0.  1.
        1   -1    0    0  501    0  0.00000000000E+00  0.00000000000E+00 -0.15727409565E+04  0.15727409565E+04  0.50400001928E-02 0. -1.
    10030    2    1    2    0    0  0.00000000000E+00  0.00000000000E+00 -0.39176072563E+03  0.27537211874E+04  0.27257116340E+04 0.  0.
        1    1    3    3  502    0 -0.11200277207E+04  0.46361831841E+03  0.43339425583E+03  0.12873362503E+04  0.50400001928E-02 0.  1.
       -1    1    3    3    0  502  0.11200277207E+04 -0.46361831841E+03 -0.82515498146E+03  0.14663849371E+04  0.50400001928E-02 0. -1.
</event>
<event>
 5   0  0.4900679E-06  0.3118196E+04  0.7818609E-02  0.8210762E-01
        2   -1    0    0  501    0  0.00000000000E+00  0.00000000000E+00  0.10390927848E+04  0.10390927848E+04  0.25500000920E-02 0.  1.
       -2   -1    0    0    0  501  0.00000000000E+00  0.00000000000E+00 -0.23393352115E+04  0.23393352115E+04  0.25500000920E-02 0. -1.
    10030    2    1    2    0    0  0.00000000000E+00  0.00000000000E+00 -0.13002424267E+04  0.33784279963E+04  0.31181958499E+04 0.  0.
        4    1    3    3  502    0  0.23722793351E+03 -0.15374762790E+04 -0.76206023483E+03  0.17322955335E+04  0.12699999809E+01 0. -1.
       -4    1    3    3    0  502 -0.23722793351E+03  0.15374762790E+04 -0.53818219184E+03  0.16461324629E+04  0.12699999809E+01 0.  1.
</event>
<event>
 5   0  0.1885307E-06  0.3110974E+04  0.7818609E-02  0.8212733E-01
       -1   -1    0    0    0  501  0.00000000000E+00  0.00000000000E+00  0.14156575563E+04  0.14156575563E+04  0.50400001928E-02 0. -1.
        1   -1    0    0  501    0  0.00000000000E+00  0.00000000000E+00 -0.17091282163E+04  0.17091282163E+04  0.50400001928E-02 0.  1.
    10030    2    1    2    0    0  0.00000000000E+00  0.00000000000E+00 -0.29347066009E+03  0.31247857726E+04  0.31109743002E+04 0.  0.
        3    1    3    3  502    0  0.10702709224E+04  0.25381593781E+03  0.95798288650E+03  0.14586410109E+04  0.10100000352E+00 0. -1.
       -3    1    3    3    0  502 -0.10702709224E+04 -0.25381593781E+03 -0.12514535466E+04  0.16661447617E+04  0.10100000352E+00 0.  1.
</event>
<event>
 5   0  0.1836401E-06  0.2652969E+04  0.7818609E-02  0.8350428E-01
       -1   -1    0    0    0  501  0.00000000000E+00  0.00000000000E+00  0.11368474799E+04  0.11368474799E+04  0.50400001928E-02 0. -1.
        1   -1    0    0  501    0  0.00000000000E+00  0.00000000000E+00 -0.15477542466E+04  0.15477542467E+04  0.50400001928E-02 0.  1.
    10030    2    1    2    0    0  0.00000000000E+00  0.00000000000E+00 -0.41090676675E+03  0.26846017266E+04  0.26529685372E+04 0.  0.
        2    1    3    3  502    0  0.11921931104E+04  0.51991043415E+03  0.58286708089E+02  0.13019326451E+04  0.25500000920E-02 0. -1.
       -2    1    3    3    0  502 -0.11921931104E+04 -0.51991043415E+03 -0.46919347484E+03  0.13826690815E+04  0.25500000920E-02 0.  1.
</event>
<event>
 5   0  0.1836401E-06  0.3194343E+04  0.7818609E-02  0.8190313E-01
       -1   -1    0    0    0  501  0.00000000000E+00  0.00000000000E+00  0.16639326602E+04  0.16639326602E+04  0.50400001928E-02 0. -1.
        1   -1    0    0  501    0  0.00000000000E+00  0.00000000000E+00 -0.15330890742E+04  0.15330890742E+04  0.50400001928E-02 0.  1.
    10030    2    1    2    0    0  0.00000000000E+00  0.00000000000E+00  0.13084358606E+03  0.31970217344E+04  0.31943431134E+04 0.  0.
        2    1    3    3  502    0 -0.25020098250E+03  0.10911822054E+04 -0.10746900858E+04  0.15518498373E+04  0.25500000920E-02 0.  1.
       -2    1    3    3    0  502  0.25020098250E+03 -0.10911822054E+04  0.12055336719E+04  0.16451718971E+04  0.25500000920E-02 0. -1.
</event>
<event>
 5   0  0.1840431E-06  0.2994081E+04  0.7818609E-02  0.8245423E-01
       -1   -1    0    0    0  501  0.00000000000E+00  0.00000000000E+00  0.23421291293E+04  0.23421291293E+04  0.50400001928E-02 0. -1.
        1   -1    0    0  501    0  0.00000000000E+00  0.00000000000E+00 -0.95687730090E+03  0.95687730091E+03  0.50400001928E-02 0.  1.
    10030    2    1    2    0    0  0.00000000000E+00  0.00000000000E+00  0.13852518284E+04  0.32990064302E+04  0.29940809606E+04 0.  0.
        1    1    3    3  502    0  0.65123396465E+03  0.73905158065E+02 -0.79039163257E+03  0.10267845840E+04  0.50400001928E-02 0.  1.
       -1    1    3    3    0  502 -0.65123396465E+03 -0.73905158065E+02  0.21756434610E+04  0.22722218462E+04  0.50400001928E-02 0. -1.
</event>
<event>
 5   0  0.1853742E-06  0.3510478E+04  0.7818609E-02  0.8111311E-01
        1   -1    0    0  501    0  0.00000000000E+00  0.00000000000E+00  0.18532821468E+04  0.18532821468E+04  0.50400001928E-02 0. -1.
       -1   -1    0    0    0  501  0.00000000000E+00  0.00000000000E+00 -0.16623827259E+04  0.16623827259E+04  0.50400001928E-02 0.  1.
    10030    2    1    2    0    0  0.00000000000E+00  0.00000000000E+00  0.19089942092E+03  0.35156648727E+04  0.35104781595E+04 0.  0.
        5    1    3    3  502    0 -0.10720825325E+04 -0.45236458625E+03 -0.12205875412E+04  0.16863720559E+04  0.46999998093E+01 0.  1.
       -5    1    3    3    0  502  0.10720825325E+04  0.45236458625E+03  0.14114869621E+04  0.18292928168E+04  0.46999998093E+01 0. -1.
</event>
<event>
 5   0  0.1836401E-06  0.3264364E+04  0.7818609E-02  0.8172023E-01
       -1   -1    0    0    0  501  0.00000000000E+00  0.00000000000E+00  0.16276214903E+04  0.16276214903E+04  0.50400001928E-02 0. -1.
        1   -1    0    0  501    0  0.00000000000E+00  0.00000000000E+00 -0.16367554646E+04  0.16367554646E+04  0.50400001928E-02 0.  1.
    10030    2    1    2    0    0  0.00000000000E+00  0.00000000000E+00 -0.91339742562E+01  0.32643769549E+04  0.32643641761E+04 0.  0.
        2    1    3    3  502    0  0.11579403510E+04 -0.13733331311E+02 -0.11547905593E+04  0.16354068902E+04  0.25500000920E-02 0.  1.
       -2    1    3    3    0  502 -0.11579403510E+04  0.13733331311E+02  0.11456565850E+04  0.16289700647E+04  0.25500000920E-02 0. -1.
</event>
<event>
 5   0  0.4900679E-06  0.3099430E+04  0.7818609E-02  0.8215894E-01
       -2   -1    0    0    0  501  0.00000000000E+00  0.00000000000E+00  0.11687079530E+04  0.11687079530E+04  0.25500000920E-02 0. -1.
        2   -1    0    0  501    0  0.00000000000E+00  0.00000000000E+00 -0.20549335783E+04  0.20549335783E+04  0.25500000920E-02 0.  1.
    10030    2    1    2    0    0  0.00000000000E+00  0.00000000000E+00 -0.88622562533E+03  0.32236415314E+04  0.30994304096E+04 0.  0.
        4    1    3    3  502    0  0.12722688731E+04  0.62483379569E+03  0.20851770523E+03  0.14326781229E+04  0.12699999809E+01 0. -1.
       -4    1    3    3    0  502 -0.12722688731E+04 -0.62483379569E+03 -0.10947433306E+04  0.17909634084E+04  0.12699999809E+01 0.  1.
</event>
<event>
 5   0  0.4900679E-06  0.3078784E+04  0.7818609E-02  0.8221585E-01
        2   -1    0    0  501    0  0.00000000000E+00  0.00000000000E+00  0.20285502277E+04  0.20285502277E+04  0.25500000920E-02 0.  1.
       -2   -1    0    0    0  501  0.00000000000E+00  0.00000000000E+00 -0.11681876547E+04  0.11681876548E+04  0.25500000920E-02 0. -1.
    10030    2    1    2    0    0  0.00000000000E+00  0.00000000000E+00  0.86036257290E+03  0.31967378824E+04  0.30787837423E+04 0.  0.
        4    1    3    3  502    0 -0.33422454173E+03 -0.14528521331E+04  0.31761158144E+02  0.14911390777E+04  0.12699999809E+01 0. -1.
       -4    1    3    3    0  502  0.33422454173E+03  0.14528521331E+04  0.82860141476E+03  0.17055988047E+04  0.12699999809E+01 0.  1.
</event>
<event>
 5   0  0.5328368E-06  0.3072762E+04  0.7818609E-02  0.8223253E-01
        2   -1    0    0  501    0  0.00000000000E+00  0.00000000000E+00  0.14100602628E+04  0.14100602628E+04  0.25500000920E-02 0.  1.
       -2   -1    0    0    0  501  0.00000000000E+00  0.00000000000E+00 -0.16740182888E+04  0.16740182889E+04  0.25500000920E-02 0. -1.
    10030    2    1    2    0    0  0.00000000000E+00  0.00000000000E+00 -0.26395802603E+03  0.30840785517E+04  0.30727620594E+04 0.  0.
        1    1    3    3  502    0  0.12888324172E+03 -0.13163935751E+03  0.13989340700E+04  0.14110125239E+04  0.50400001928E-02 0.  1.
       -1    1    3    3    0  502 -0.12888324172E+03  0.13163935751E+03 -0.16628920960E+04  0.16730660278E+04  0.50400001928E-02 0. -1.
</event>
<event>
 5   0  0.1843709E-06  0.3173803E+04  0.7818609E-02  0.8195770E-01
       -1   -1    0    0    0  501  0.00000000000E+00  0.00000000000E+00  0.13152750044E+04  0.13152750044E+04  0.50400001928E-02 0. -1.
        1   -1    0    0  501    0  0.00000000000E+00  0.00000000000E+00 -0.19146238582E+04  0.19146238582E+04  0.50400001928E-02 0.  1.
    10030    2    1    2    0    0  0.00000000000E+00  0.00000000000E+00 -0.59934885383E+03  0.32298988626E+04  0.31738033358E+04 0.  0.
        4    1    3    3  502    0 -0.14107313633E+04  0.54940165152E+03 -0.78373904124E+03  0.17047737831E+04  0.12699999809E+01 0. -1.
       -4    1    3    3    0  502  0.14107313633E+04 -0.54940165152E+03  0.18439018741E+03  0.15251250795E+04  0.12699999809E+01 0.  1.
</event>
<event>
 5   0  0.1843709E-06  0.3091455E+04  0.7818609E-02  0.8218087E-01
       -1   -1    0    0    0  501  0.00000000000E+00  0.00000000000E+00  0.11029258570E+04  0.11029258570E+04  0.50400001928E-02 0.  1.
        1   -1    0    0  501    0  0.00000000000E+00  0.00000000000E+00 -0.21663041637E+04  0.21663041637E+04  0.50400001928E-02 0. -1.
    10030    2    1    2    0    0  0.00000000000E+00  0.00000000000E+00 -0.10633783067E+04  0.32692300208E+04  0.30914545938E+04 0.  0.
        4    1    3    3  502    0  0.95850016966E+03 -0.63695384641E+03 -0.16229397038E+04  0.19895646943E+04  0.12699999809E+01 0. -1.
       -4    1    3    3    0  502 -0.95850016966E+03  0.63695384641E+03  0.55956139711E+03  0.12796653265E+04  0.12699999809E+01 0.  1.
</event>
<event>
 5   0  0.4927533E-06  0.3302880E+04  0.7818609E-02  0.8162163E-01
        2   -1    0    0  501    0  0.00000000000E+00  0.00000000000E+00  0.15026091902E+04  0.15026091902E+04  0.25500000920E-02 0. -1.
       -2   -1    0    0    0  501  0.00000000000E+00  0.00000000000E+00 -0.18150120331E+04  0.18150120331E+04  0.25500000920E-02 0.  1.
    10030    2    1    2    0    0  0.00000000000E+00  0.00000000000E+00 -0.31240284283E+03  0.33176212233E+04  0.33028798109E+04 0.  0.
        5    1    3    3  502    0 -0.12562969227E+04 -0.74504324382E+03  0.61786132927E+03  0.15859212166E+04  0.46999998093E+01 0. -1.
       -5    1    3    3    0  502  0.12562969227E+04  0.74504324382E+03 -0.93026417210E+03  0.17317000067E+04  0.46999998093E+01 0.  1.
</event>
<event>
 5   0  0.1853742E-06  0.3101783E+04  0.7818609E-02  0.8215249E-01
       -1   -1    0    0    0  501  0.00000000000E+00  0.00000000000E+00  0.26407964344E+04  0.26407964344E+04  0.50400001928E-02 0. -1.
        1   -1    0    0  501    0  0.00000000000E+00  0.00000000000E+00 -0.91081030253E+03  0.91081030255E+03  0.50400001928E-02 0.  1.
    10030    2    1    2    0    0  0.00000000000E+00  0.00000000000E+00  0.17299861318E+04  0.35516067369E+04  0.31017830997E+04 0.  0.
        5    1    3    3  502    0  0.53306428969E+03  0.89934588610E+03  0.21766604329E+04  0.24147159853E+04  0.46999998093E+01 0. -1.
       -5    1    3    3    0  502 -0.53306428969E+03 -0.89934588610E+03 -0.44667430105E+03  0.11368907516E+04  0.46999998093E+01 0.  1.
</event>
<event>
 5   0  0.1649875E-06  0.3111309E+04  0.7818609E-02  0.8212641E-01
       -3   -1    0    0    0  501  0.00000000000E+00  0.00000000000E+00  0.10984433007E+04  0.10984433054E+04  0.10100000352E+00 0.  1.
        3   -1    0    0  501    0  0.00000000000E+00  0.00000000000E+00 -0.22031730331E+04  0.22031730354E+04  0.10100000352E+00 0. -1.
    10030    2    1    2    0    0  0.00000000000E+00  0.00000000000E+00 -0.11047297324E+04  0.33016163407E+04  0.31113088371E+04 0.  0.
        3    1    3    3  502    0 -0.40330508313E+03  0.57187267319E+03 -0.20267245974E+04  0.21441329129E+04  0.10100000352E+00 0. -1.
       -3    1    3    3    0  502  0.40330508313E+03 -0.57187267319E+03  0.92199486500E+03  0.11574834278E+04  0.10100000352E+00 0.  1.
</event>
<event>
 5   0  0.5114870E-06  0.3097379E+04  0.7818609E-02  0.8216458E-01
       -2   -1    0    0    0  501  0.00000000000E+00  0.00000000000E+00  0.14195394801E+04  0.14195394801E+04  0.25500000920E-02 0. -1.
        2   -1    0    0  501    0  0.00000000000E+00  0.00000000000E+00 -0.16895895960E+04  0.16895895960E+04  0.25500000920E-02 0.  1.
    10030    2    1    2    0    0  0.00000000000E+00  0.00000000000E+00 -0.27005011584E+03  0.31091290761E+04  0.30973789801E+04 0.  0.
        2    1    3    3  502    0  0.41100463173E+03  0.59966990569E+02 -0.16326360342E+04  0.16846427714E+04  0.25500000920E-02 0.  1.
       -2    1    3    3    0  502 -0.41100463173E+03 -0.59966990569E+02  0.13625859183E+04  0.14244863046E+04  0.25500000920E-02 0. -1.
</event>
<event>
 5   0  0.1885307E-06  0.3203635E+04  0.7818609E-02  0.8187858E-01
       -1   -1    0    0    0  501  0.00000000000E+00  0.00000000000E+00  0.12650642246E+04  0.12650642246E+04  0.50400001928E-02 0.  1.
        1   -1    0    0  501    0  0.00000000000E+00  0.00000000000E+00 -0.20282121568E+04  0.20282121568E+04  0.50400001928E-02 0. -1.
    10030    2    1    2    0    0  0.00000000000E+00  0.00000000000E+00 -0.76314793228E+03  0.32932763814E+04  0.32036345856E+04 0.  0.
        3    1    3    3  502    0 -0.98390702834E+03 -0.12224984719E+04 -0.51268567809E+02  0.15700968220E+04  0.10100000352E+00 0. -1.
       -3    1    3    3    0  502  0.98390702834E+03  0.12224984719E+04 -0.71187936447E+03  0.17231795594E+04  0.10100000352E+00 0.  1.
</event>
<event>
 5   0  0.5001658E-06  0.3098051E+04  0.7818609E-02  0.8216273E-01
        2   -1    0    0  501    0  0.00000000000E+00  0.00000000000E+00  0.16886455950E+04  0.16886455950E+04  0.25500000920E-02 0.  1.
       -2   -1    0    0    0  501  0.00000000000E+00  0.00000000000E+00 -0.14209495150E+04  0.14209495150E+04  0.25500000920E-02 0. -1.
    10030    2    1    2    0    0  0.00000000000E+00  0.00000000000E+00  0.26769608004E+03  0.31095951100E+04  0.30980510901E+04 0.  0.
        3    1    3    3  502    0 -0.14351096162E+04  0.55175344493E+03  0.32298760103E+03  0.15710800346E+04  0.10100000352E+00 0. -1.
       -3    1    3    3    0  502  0.14351096162E+04 -0.55175344493E+03 -0.55291520998E+02  0.15385150753E+04  0.10100000352E+00 0.  1.
</event>
<event>
 5   0  0.4900679E-06  0.3103800E+04  0.7818609E-02  0.8214696E-01
       -2   -1    0    0    0  501  0.00000000000E+00  0.00000000000E+00  0.15237098404E+04  0.15237098404E+04  0.25500000920E-02 0. -1.
        2   -1    0    0  501    0  0.00000000000E+00  0.00000000000E+00 -0.15806120903E+04  0.15806120903E+04  0.25500000920E-02 0.  1.
    10030    2    1    2    0    0  0.00000000000E+00  0.00000000000E+00 -0.56902249973E+02  0.31043219307E+04  0.31038003775E+04 0.  0.
        4    1    3    3  502    0  0.10093407468E+04 -0.86659521242E+03 -0.82773281803E+03  0.15668118062E+04  0.12699999809E+01 0. -1.
       -4    1    3    3    0  502 -0.10093407468E+04  0.86659521242E+03  0.77083056806E+03  0.15375101245E+04  0.12699999809E+01 0.  1.
</event>
<event>
 5   0  0.4900679E-06  0.3121496E+04  0.7818609E-02  0.8209863E-01
       -2   -1    0    0    0  501  0.00000000000E+00  0.00000000000E+00  0.14703067410E+04  0.14703067410E+04  0.25500000920E-02 0. -1.
        2   -1    0    0  501    0  0.00000000000E+00  0.00000000000E+00 -0.16567529441E+04  0.16567529441E+04  0.25500000920E-02 0.  1.
    10030    2    1    2    0    0  0.00000000000E+00  0.00000000000E+00 -0.18644620308E+03  0.31270596851E+04  0.31214964500E+04 0.  0.
        4    1    3    3  502    0  0.28569137045E+02 -0.54068628642E+03 -0.15596542153E+04  0.16509635793E+04  0.12699999809E+01 0.  1.
       -4    1    3    3    0  502 -0.28569137045E+02  0.54068628642E+03  0.13732080122E+04  0.14760961058E+04  0.12699999809E+01 0. -1.
</event>
<event>
 5   0  0.1836401E-06  0.3084729E+04  0.7818609E-02  0.8219941E-01
       -1   -1    0    0    0  501  0.00000000000E+00  0.00000000000E+00  0.12610653853E+04  0.12610653854E+04  0.50400001928E-02 0. -1.
        1   -1    0    0  501    0  0.00000000000E+00  0.00000000000E+00 -0.18864113793E+04  0.18864113793E+04  0.50400001928E-02 0.  1.
    10030    2    1    2    0    0  0.00000000000E+00  0.00000000000E+00 -0.62534599392E+03  0.31474767646E+04  0.30847288976E+04 0.  0.
        2    1    3    3  502    0  0.10996035295E+04  0.99375243845E+03  0.12287808540E+03  0.14872023584E+04  0.25500000920E-02 0. -1.
       -2    1    3    3    0  502 -0.10996035295E+04 -0.99375243845E+03 -0.74822407932E+03  0.16602744062E+04  0.25500000920E-02 0.  1.
</event>
<event>
 5   0  0.5328368E-06  0.3051809E+04  0.7818609E-02  0.8229089E-01
        2   -1    0    0  501    0  0.00000000000E+00  0.00000000000E+00  0.23978487191E+04  0.23978487192E+04  0.25500000920E-02 0. -1.
       -2   -1    0    0    0  501  0.00000000000E+00  0.00000000000E+00 -0.97103031326E+03  0.97103031326E+03  0.25500000920E-02 0.  1.
    10030    2    1    2    0    0  0.00000000000E+00  0.00000000000E+00  0.14268184059E+04  0.33688790324E+04  0.30518085083E+04 0.  0.
        1    1    3    3  502    0  0.11279233391E+04  0.10271890539E+04  0.67754733551E+03  0.16692509707E+04  0.50400001928E-02 0. -1.
       -1    1    3    3    0  502 -0.11279233391E+04 -0.10271890539E+04  0.74927107038E+03  0.16996280617E+04  0.50400001928E-02 0.  1.
</event>
<event>
 5   0  0.1840431E-06  0.3113233E+04  0.7818609E-02  0.8212116E-01
       -1   -1    0    0    0  501  0.00000000000E+00  0.00000000000E+00  0.22083419821E+04  0.22083419821E+04  0.50400001928E-02 0.  1.
        1   -1    0    0  501    0  0.00000000000E+00  0.00000000000E+00 -0.10972282976E+04  0.10972282976E+04  0.50400001928E-02 0. -1.
    10030    2    1    2    0    0  0.00000000000E+00  0.00000000000E+00  0.11111136845E+04  0.33055702797E+04  0.31132332476E+04 0.  0.
        1    1    3    3  502    0  0.80680115939E+03 -0.68163706887E+03 -0.65854542466E+03  0.12446844101E+04  0.50400001928E-02 0. -1.
       -1    1    3    3    0  502 -0.80680115939E+03  0.68163706887E+03  0.17696591092E+04  0.20608858695E+04  0.50400001928E-02 0.  1.
</event>
<event>
 5   0  0.1853742E-06  0.3093060E+04  0.7818609E-02  0.8217645E-01
       -1   -1    0    0    0  501  0.00000000000E+00  0.00000000000E+00  0.17830395306E+04  0.17830395306E+04  0.50400001928E-02 0. -1.
        1   -1    0    0  501    0  0.00000000000E+00  0.00000000000E+00 -0.13413918099E+04  0.13413918099E+04  0.50400001928E-02 0.  1.
    10030    2    1    2    0    0  0.00000000000E+00  0.00000000000E+00  0.44164772068E+03  0.31244313405E+04  0.30930597299E+04 0.  0.
        5    1    3    3  502    0  0.89867344833E+03 -0.95322451645E+03  0.10510366824E+04  0.16795687373E+04  0.46999998093E+01 0. -1.
       -5    1    3    3    0  502 -0.89867344833E+03  0.95322451645E+03 -0.60938896177E+03  0.14448626032E+04  0.46999998093E+01 0.  1.
</event>
<event>
 5   0  0.5328368E-06  0.3005919E+04  0.7818609E-02  0.8242043E-01
        2   -1    0    0  501    0  0.00000000000E+00  0.00000000000E+00  0.28773856441E+04  0.28773856441E+04  0.25500000920E-02 0.  1.
       -2   -1    0    0    0  501  0.00000000000E+00  0.00000000000E+00 -0.78504866916E+03  0.78504866917E+03  0.25500000920E-02 0. -1.
    10030    2    1    2    0    0  0.00000000000E+00  0.00000000000E+00  0.20923369750E+04  0.36624343133E+04  0.30059193406E+04 0.  0.
        1    1    3    3  502    0  0.33363008863E+02  0.11189660665E+04  0.22680370917E+04  0.25292667708E+04  0.50400001928E-02 0.  1.
       -1    1    3    3    0  502 -0.33363008863E+02 -0.11189660665E+04 -0.17570011677E+03  0.11331675425E+04  0.50400001928E-02 0. -1.
</event>
<event>
 5   0  0.1853742E-06  0.3098542E+04  0.7818609E-02  0.8216138E-01
       -1   -1    0    0    0  501  0.00000000000E+00  0.00000000000E+00  0.13789881363E+04  0.13789881363E+04  0.50400001928E-02 0. -1.
        1   -1    0    0  501    0  0.00000000000E+00  0.00000000000E+00 -0.17405814099E+04  0.17405814099E+04  0.50400001928E-02 0.  1.
    10030    2    1    2    0    0  0.00000000000E+00  0.00000000000E+00 -0.36159327361E+03  0.31195695462E+04  0.30985423118E+04 0.  0.
        5    1    3    3  502    0  0.10852622484E+04 -0.21001490596E+03  0.91207363019E+03  0.14331087905E+04  0.46999998093E+01 0. -1.
       -5    1    3    3    0  502 -0.10852622484E+04  0.21001490596E+03 -0.12736669038E+04  0.16864607557E+04  0.46999998093E+01 0.  1.
</event>
<event>
 5   0  0.1853742E-06  0.3150135E+04  0.7818609E-02  0.8202112E-01
        1   -1    0    0  501    0  0.00000000000E+00  0.00000000000E+00  0.10059533657E+04  0.10059533657E+04  0.50400001928E-02 0. -1.
       -1   -1    0    0    0  501  0.00000000000E+00  0.00000000000E+00 -0.24661560870E+04  0.24661560870E+04  0.50400001928E-02 0.  1.
    10030    2    1    2    0    0  0.00000000000E+00  0.00000000000E+00 -0.14602027213E+04  0.34721094526E+04  0.31501352453E+04 0.  0.
        5    1    3    3  502    0 -0.60538237482E+03 -0.34817693202E+03  0.82596764815E+03  0.10816467268E+04  0.46999998093E+01 0. -1.
       -5    1    3    3    0  502  0.60538237482E+03  0.34817693202E+03 -0.22861703694E+04  0.23904627259E+04  0.46999998093E+01 0.  1.
</event>
<event>
 5   0  0.1843709E-06  0.3078283E+04  0.7818609E-02  0.8221723E-01
       -1   -1    0    0    0  501  0.00000000000E+00  0.00000000000E+00  0.14389297839E+04  0.14389297839E+04  0.50400001928E-02 0.  1.
        1   -1    0    0  501    0  0.00000000000E+00  0.00000000000E+00 -0.16463321156E+04  0.16463321156E+04  0.50400001928E-02 0. -1.
    10030    2    1    2    0    0  0.00000000000E+00  0.00000000000E+00 -0.20740233171E+03  0.30852618995E+04  0.30782828429E+04 0.  0.
        4    1    3    3  502    0  0.11435817099E+03  0.60177363957E+03  0.13115006046E+04  0.14474960287E+04  0.12699999809E+01 0.  1.
       -4    1    3    3    0  502 -0.11435817099E+03 -0.60177363957E+03 -0.15189029363E+04  0.16377658707E+04  0.12699999809E+01 0. -1.
</event>
<event>
 5   0  0.4927533E-06  0.2943350E+04  0.7818609E-02  0.8260095E-01
       -2   -1    0    0    0  501  0.00000000000E+00  0.00000000000E+00  0.17312583044E+04  0.17312583044E+04  0.25500000920E-02 0.  1.
        2   -1    0    0  501    0  0.00000000000E+00  0.00000000000E+00 -0.12510133090E+04  0.12510133090E+04  0.25500000920E-02 0. -1.
    10030    2    1    2    0    0  0.00000000000E+00  0.00000000000E+00  0.48024499544E+03  0.29822716134E+04  0.29433499148E+04 0.  0.
        5    1    3    3  502    0  0.63347236900E+03  0.75279161852E+03 -0.86880092206E+03  0.13125622253E+04  0.46999998093E+01 0. -1.
       -5    1    3    3    0  502 -0.63347236900E+03 -0.75279161852E+03  0.13490459175E+04  0.16697093881E+04  0.46999998093E+01 0.  1.
</event>
<event>
 5   0  0.5328368E-06  0.3193671E+04  0.7818609E-02  0.8190491E-01
       -2   -1    0    0    0  501  0.00000000000E+00  0.00000000000E+00  0.11059856944E+04  0.11059856944E+04  0.25500000920E-02 0.  1.
        2   -1    0    0  501    0  0.00000000000E+00  0.00000000000E+00 -0.23055304904E+04  0.23055304904E+04  0.25500000920E-02 0. -1.
    10030    2    1    2    0    0  0.00000000000E+00  0.00000000000E+00 -0.11995447959E+04  0.34115161848E+04  0.31936710791E+04 0.  0.
        1    1    3    3  502    0 -0.10022953825E+04  0.93796731303E+03  0.27165843171E+03  0.13993487834E+04  0.50400001928E-02 0.  1.
       -1    1    3    3    0  502  0.10022953825E+04 -0.93796731303E+03 -0.14712032276E+04  0.20121674014E+04  0.50400001928E-02 0. -1.
</event>
<event>
 5   0  0.1836401E-06  0.2391033E+04  0.7818609E-02  0.8442868E-01
       -1   -1    0    0    0  501  0.00000000000E+00  0.00000000000E+00  0.68290110329E+03  0.68290110331E+03  0.50400001928E-02 0.  1.
        1   -1    0    0  501    0  0.00000000000E+00  0.00000000000E+00 -0.20929238708E+04  0.20929238709E+04  0.50400001928E-02 0. -1.
    10030    2    1    2    0    0  0.00000000000E+00  0.00000000000E+00 -0.14100227676E+04  0.27758249742E+04  0.23910332666E+04 0.  0.
        2    1    3    3  502    0  0.24280004711E+03 -0.82418356450E+03  0.26004966805E+03  0.89769495974E+03  0.25500000920E-02 0.  1.
       -2    1    3    3    0  502 -0.24280004711E+03  0.82418356450E+03 -0.16700724356E+04  0.18781300144E+04  0.25500000920E-02 0. -1.
</event>
<event>
 5   0  0.1853742E-06  0.3089896E+04  0.7818609E-02  0.8218516E-01
       -1   -1    0    0    0  501  0.00000000000E+00  0.00000000000E+00  0.99438903029E+03  0.99438903030E+03  0.50400001928E-02 0.  1.
        1   -1    0    0  501    0  0.00000000000E+00  0.00000000000E+00 -0.24003322538E+04  0.24003322538E+04  0.50400001928E-02 0. -1.
    10030    2    1    2    0    0  0.00000000000E+00  0.00000000000E+00 -0.14059432235E+04  0.33947212841E+04  0.30898958314E+04 0.  0.
        5    1    3    3  502    0 -0.79076723764E+03  0.15481049981E+03 -0.21511782940E+04  0.22971437172E+04  0.46999998093E+01 0. -1.
       -5    1    3    3    0  502  0.79076723764E+03 -0.15481049981E+03  0.74523507051E+03  0.10975775669E+04  0.46999998093E+01 0.  1.
</event>
<event>
 5   0  0.5001658E-06  0.3095769E+04  0.7818609E-02  0.8216900E-01
        2   -1    0    0  501    0  0.00000000000E+00  0.00000000000E+00  0.26983022382E+04  0.26983022382E+04  0.25500000920E-02 0. -1.
       -2   -1    0    0    0  501  0.00000000000E+00  0.00000000000E+00 -0.88794566943E+03  0.88794566943E+03  0.25500000920E-02 0.  1.
    10030    2    1    2    0    0  0.00000000000E+00  0.00000000000E+00  0.18103565688E+04  0.35862479077E+04  0.30957685878E+04 0.  0.
        3    1    3    3  502    0  0.13853011490E+04  0.55427741083E+03  0.13823398563E+04  0.20339975934E+04  0.10100000352E+00 0. -1.
       -3    1    3    3    0  502 -0.13853011490E+04 -0.55427741083E+03  0.42801671256E+03  0.15522503143E+04  0.10100000352E+00 0.  1.
</event>
<event>
 5   0  0.5328368E-06  0.3095085E+04  0.7818609E-02  0.8217088E-01
        2   -1    0    0  501    0  0.00000000000E+00  0.00000000000E+00  0.12038436378E+04  0.12038436378E+04  0.25500000920E-02 0. -1.
       -2   -1    0    0    0  501  0.00000000000E+00  0.00000000000E+00 -0.19893671806E+04  0.19893671806E+04  0.25500000920E-02 0.  1.
    10030    2    1    2    0    0  0.00000000000E+00  0.00000000000E+00 -0.78552354288E+03  0.31932108184E+04  0.30950845052E+04 0.  0.
        1    1    3    3  502    0 -0.91708459061E+03  0.11058431648E+04 -0.98628640495E+03  0.17426112946E+04  0.50400001928E-02 0.  1.
       -1    1    3    3    0  502  0.91708459061E+03 -0.11058431648E+04  0.20076286207E+03  0.14505995238E+04  0.50400001928E-02 0. -1.
</event>
<event>
 5   0  0.1649875E-06  0.3059847E+04  0.7818609E-02  0.8226845E-01
       -3   -1    0    0    0  501  0.00000000000E+00  0.00000000000E+00  0.10710171147E+04  0.10710171195E+04  0.10100000352E+00 0.  1.
        3   -1    0    0  501    0  0.00000000000E+00  0.00000000000E+00 -0.21854605265E+04  0.21854605289E+04  0.10100000352E+00 0. -1.
    10030    2    1    2    0    0  0.00000000000E+00  0.00000000000E+00 -0.11144434118E+04  0.32564776484E+04  0.30598468191E+04 0.  0.
        5    1    3    3  502    0  0.28041736205E+03 -0.62949232954E+03 -0.20109225136E+04  0.21257295067E+04  0.46999998093E+01 0. -1.
       -5    1    3    3    0  502 -0.28041736205E+03  0.62949232954E+03  0.89647910180E+03  0.11307481417E+04  0.46999998093E+01 0.  1.
</event>
<event>
 5   0  0.1836401E-06  0.3080840E+04  0.7818609E-02  0.8221016E-01
       -1   -1    0    0    0  501  0.00000000000E+00  0.00000000000E+00  0.15209819359E+04  0.15209819359E+04  0.50400001928E-02 0.  1.
        1   -1    0    0  501    0  0.00000000000E+00  0.00000000000E+00 -0.15601061916E+04  0.15601061916E+04  0.50400001928E-02 0. -1.
    10030    2    1    2    0    0  0.00000000000E+00  0.00000000000E+00 -0.39124255710E+02  0.30810881275E+04  0.30808397138E+04 0.  0.
        2    1    3    3  502    0 -0.10429784286E+04  0.65515519855E+00 -0.11532711515E+04  0.15549401212E+04  0.25500000920E-02 0. -1.
       -2    1    3    3    0  502  0.10429784286E+04 -0.65515519855E+00  0.11141468958E+04  0.15261480063E+04  0.25500000920E-02 0.  1.
</event>
<event>
 5   0  0.1853742E-06  0.3033691E+04  0.7818609E-02  0.8234175E-01
       -1   -1    0    0    0  501  0.00000000000E+00  0.00000000000E+00  0.90382732373E+03  0.90382732374E+03  0.50400001928E-02 0.  1.
        1   -1    0    0  501    0  0.00000000000E+00  0.00000000000E+00 -0.25456406068E+04  0.25456406068E+04  0.50400001928E-02 0. -1.
    10030    2    1    2    0    0  0.00000000000E+00  0.00000000000E+00 -0.16418132831E+04  0.34494679305E+04  0.30336905161E+04 0.  0.
        5    1    3    3  502    0 -0.11596338843E+04  0.48642817193E+03 -0.17853493147E+04  0.21837713656E+04  0.46999998093E+01 0. -1.
       -5    1    3    3    0  502  0.11596338843E+04 -0.48642817193E+03  0.14353603163E+03  0.12656965649E+04  0.46999998093E+01 0.  1.
</event>
<event>
 5   0  0.1836401E-06  0.3091364E+04  0.7818609E-02  0.8218112E-01
        1   -1    0    0  501    0  0.00000000000E+00  0.00000000000E+00  0.22075535954E+04  0.22075535954E+04  0.50400001928E-02 0. -1.
       -1   -1    0    0    0  501  0.00000000000E+00  0.00000000000E+00 -0.10822534112E+04  0.10822534112E+04  0.50400001928E-02 0.  1.
    10030    2    1    2    0    0  0.00000000000E+00  0.00000000000E+00  0.11253001842E+04  0.32898070066E+04  0.30913637179E+04 0.  0.
        2    1    3    3  502    0 -0.56240462775E+03  0.13035214116E+04 -0.87871540112E+02  0.14223882886E+04  0.25500000920E-02 0.  1.
       -2    1    3    3    0  502  0.56240462775E+03 -0.13035214116E+04  0.12131717243E+04  0.18674187181E+04  0.25500000920E-02 0. -1.
</event>
<event>
 5   0  0.1853742E-06  0.3048477E+04  0.7818609E-02  0.8230022E-01
        1   -1    0    0  501    0  0.00000000000E+00  0.00000000000E+00  0.18140386765E+04  0.18140386765E+04  0.50400001928E-02 0.  1.
       -1   -1    0    0    0  501  0.00000000000E+00  0.00000000000E+00 -0.12807349608E+04  0.12807349608E+04  0.50400001928E-02 0. -1.
    10030    2    1    2    0    0  0.00000000000E+00  0.00000000000E+00  0.53330371574E+03  0.30947736373E+04  0.30484768349E+04 0.  0.
        5    1    3    3  502    0  0.15223375976E+04  0.72398966815E+02  0.24334028813E+03  0.15433696762E+04  0.46999998093E+01 0. -1.
       -5    1    3    3    0  502 -0.15223375976E+04 -0.72398966815E+02  0.28996342761E+03  0.15514039612E+04  0.46999998093E+01 0.  1.
</event>
<event>
 5   0  0.1836401E-06  0.2990028E+04  0.7818609E-02  0.8246584E-01
       -1   -1    0    0    0  501  0.00000000000E+00  0.00000000000E+00  0.12338601260E+04  0.12338601260E+04  0.50400001928E-02 0.  1.
        1   -1    0    0  501    0  0.00000000000E+00  0.00000000000E+00 -0.18114430062E+04  0.18114430062E+04  0.50400001928E-02 0. -1.
    10030    2    1    2    0    0  0.00000000000E+00  0.00000000000E+00 -0.57758288021E+03  0.30453031321E+04  0.29900282914E+04 0.  0.
        2    1    3    3  502    0  0.57826261954E+03  0.12020245079E+04  0.39883150159E+03  0.13922345856E+04  0.25500000920E-02 0.  1.
       -2    1    3    3    0  502 -0.57826261954E+03 -0.12020245079E+04 -0.97641438180E+03  0.16530685466E+04  0.25500000920E-02 0. -1.
</event>
<event>
 5   0  0.5001658E-06  0.2405199E+04  0.7818609E-02  0.8437560E-01
       -2   -1    0    0    0  501  0.00000000000E+00  0.00000000000E+00  0.15428031348E+04  0.15428031348E+04  0.25500000920E-02 0. -1.
        2   -1    0    0  501    0  0.00000000000E+00  0.00000000000E+00 -0.93741403990E+03  0.93741403991E+03  0.25500000920E-02 0.  1.
    10030    2    1    2    0    0  0.00000000000E+00  0.00000000000E+00  0.60538909492E+03  0.24802171747E+04  0.24051988021E+04 0.  0.
        3    1    3    3  502    0  0.20676377911E+03 -0.10974015847E+04 -0.15754883490E+03  0.11277691005E+04  0.10100000352E+00 0.  1.
       -3    1    3    3    0  502 -0.20676377911E+03  0.10974015847E+04  0.76293792982E+03  0.13524480742E+04  0.10100000352E+00 0. -1.
</event>
<event>
 5   0  0.5114870E-06  0.3057232E+04  0.7818609E-02  0.8227574E-01
       -2   -1    0    0    0  501  0.00000000000E+00  0.00000000000E+00  0.11899980864E+04  0.11899980864E+04  0.25500000920E-02 0. -1.
        2   -1    0    0  501    0  0.00000000000E+00  0.00000000000E+00 -0.19635888145E+04  0.19635888145E+04  0.25500000920E-02 0.  1.
    10030    2    1    2    0    0  0.00000000000E+00  0.00000000000E+00 -0.77359072807E+03  0.31535869010E+04  0.30572320369E+04 0.  0.
        2    1    3    3  502    0 -0.11859988759E+04 -0.85267717324E+03 -0.85156817894E+03  0.16908045596E+04  0.25500000920E-02 0.  1.
       -2    1    3    3    0  502  0.11859988759E+04  0.85267717324E+03  0.77977450877E+02  0.14627823414E+04  0.25500000920E-02 0. -1.
</event>
<event>
 5   0  0.5328368E-06  0.3022309E+04  0.7818609E-02  0.8237389E-01
        2   -1    0    0  501    0  0.00000000000E+00  0.00000000000E+00  0.16868973127E+04  0.16868973127E+04  0.25500000920E-02 0.  1.
       -2   -1    0    0    0  501  0.00000000000E+00  0.00000000000E+00 -0.13537207600E+04  0.13537207600E+04  0.25500000920E-02 0. -1.
    10030    2    1    2    0    0  0.00000000000E+00  0.00000000000E+00  0.33317655272E+03  0.30406180727E+04  0.30223089929E+04 0.  0.
        1    1    3    3  502    0 -0.28477183369E+03 -0.14719274399E+04  0.35726884825E+03  0.15412029119E+04  0.50400001928E-02 0.  1.
       -1    1    3    3    0  502  0.28477183369E+03  0.14719274399E+04 -0.24092295525E+02  0.14994151608E+04  0.50400001928E-02 0. -1.
</event>
<event>
 5   0  0.1836401E-06  0.2368872E+04  0.7818609E-02  0.8451250E-01
       -1   -1    0    0    0  501  0.00000000000E+00  0.00000000000E+00  0.76296198167E+03  0.76296198169E+03  0.50400001928E-02 0.  1.
        1   -1    0    0  501    0  0.00000000000E+00  0.00000000000E+00 -0.18387405428E+04  0.18387405429E+04  0.50400001928E-02 0. -1.
    10030    2    1    2    0    0  0.00000000000E+00  0.00000000000E+00 -0.10757785612E+04  0.26017025245E+04  0.23688724139E+04 0.  0.
        2    1    3    3  502    0 -0.79474558365E+03  0.64869544221E+03 -0.11880742666E+04  0.15696963981E+04  0.25500000920E-02 0. -1.
       -2    1    3    3    0  502  0.79474558365E+03 -0.64869544221E+03  0.11229570539E+03  0.10320061264E+04  0.25500000920E-02 0.  1.
</event>
<event>
 5   0  0.4900679E-06  0.3089155E+04  0.7818609E-02  0.8218721E-01
        2   -1    0    0  501    0  0.00000000000E+00  0.00000000000E+00  0.11024068412E+04  0.11024068412E+04  0.25500000920E-02 0. -1.
       -2   -1    0    0    0  501  0.00000000000E+00  0.00000000000E+00 -0.21641002957E+04  0.21641002957E+04  0.25500000920E-02 0.  1.
    10030    2    1    2    0    0  0.00000000000E+00  0.00000000000E+00 -0.10616934545E+04  0.32665071369E+04  0.30891545581E+04 0.  0.
        4    1    3    3  502    0  0.13515419270E+04 -0.57785916211E+03 -0.10325664872E+04  0.17963245684E+04  0.12699999809E+01 0.  1.
       -4    1    3    3    0  502 -0.13515419270E+04  0.57785916211E+03 -0.29126967312E+02  0.14701825685E+04  0.12699999809E+01 0. -1.
</event>
<event>
 5   0  0.1840431E-06  0.3145256E+04  0.7818609E-02  0.8203427E-01
        1   -1    0    0  501    0  0.00000000000E+00  0.00000000000E+00  0.19545031703E+04  0.19545031703E+04  0.50400001928E-02 0. -1.
       -1   -1    0    0    0  501  0.00000000000E+00  0.00000000000E+00 -0.12653640492E+04  0.12653640492E+04  0.50400001928E-02 0.  1.
    10030    2    1    2    0    0  0.00000000000E+00  0.00000000000E+00  0.68913912106E+03  0.32198672195E+04  0.31452555037E+04 0.  0.
        1    1    3    3  502    0  0.23042145015E+03  0.24769626575E+03 -0.12276723089E+04  0.12734311064E+04  0.50400001928E-02 0.  1.
       -1    1    3    3    0  502 -0.23042145015E+03 -0.24769626575E+03  0.19168114299E+04  0.19464361132E+04  0.50400001928E-02 0. -1.
</event>
<event>
 5   0  0.1843709E-06  0.3106771E+04  0.7818609E-02  0.8213882E-01
        1   -1    0    0  501    0  0.00000000000E+00  0.00000000000E+00  0.17884161058E+04  0.17884161058E+04  0.50400001928E-02 0.  1.
       -1   -1    0    0    0  501  0.00000000000E+00  0.00000000000E+00 -0.13492422650E+04  0.13492422650E+04  0.50400001928E-02 0. -1.
    10030    2    1    2    0    0  0.00000000000E+00  0.00000000000E+00  0.43917384087E+03  0.31376583708E+04  0.31067710552E+04 0.  0.
        4    1    3    3  502    0 -0.79468801974E+03  0.58271853981E+03  0.14323228405E+04  0.17385742083E+04  0.12699999809E+01 0.  1.
       -4    1    3    3    0  502  0.79468801974E+03 -0.58271853981E+03 -0.99314899968E+03  0.13990841625E+04  0.12699999809E+01 0. -1.
</event>
<event>
 5   0  0.5001658E-06  0.3070051E+04  0.7818609E-02  0.8224006E-01
        2   -1    0    0  501    0  0.00000000000E+00  0.00000000000E+00  0.19720652974E+04  0.19720652974E+04  0.25500000920E-02 0. -1.
       -2   -1    0    0    0  501  0.00000000000E+00  0.00000000000E+00 -0.11948401835E+04  0.11948401835E+04  0.25500000920E-02 0.  1.
    10030    2    1    2    0    0  0.00000000000E+00  0.00000000000E+00  0.77722511388E+03  0.31669054809E+04  0.30700507239E+04 0.  0.
        3    1    3    3  502    0 -0.72588839930E+03  0.96753313157E+03 -0.58633345217E+03  0.13441805148E+04  0.10100000352E+00 0.  1.
       -3    1    3    3    0  502  0.72588839930E+03 -0.96753313157E+03  0.13635585661E+04  0.18227249661E+04  0.10100000352E+00 0. -1.
</event>
<event>
 5   0  0.1853742E-06  0.3032078E+04  0.7818609E-02  0.8234630E-01
       -1   -1    0    0    0  501  0.00000000000E+00  0.00000000000E+00  0.85845885812E+03  0.85845885814E+03  0.50400001928E-02 0.  1.
        1   -1    0    0  501    0  0.00000000000E+00  0.00000000000E+00 -0.26773258695E+04  0.26773258695E+04  0.50400001928E-02 0. -1.
    10030    2    1    2    0    0  0.00000000000E+00  0.00000000000E+00 -0.18188670114E+04  0.35357847277E+04  0.30320779072E+04 0.  0.
        5    1    3    3  502    0 -0.12570035002E+04  0.64484154221E+03 -0.26809221627E+03  0.14379756398E+04  0.46999998093E+01 0.  1.
       -5    1    3    3    0  502  0.12570035002E+04 -0.64484154221E+03 -0.15507747951E+04  0.20978090879E+04  0.46999998093E+01 0. -1.
</event>
<event>
 5   0  0.5001658E-06  0.3087127E+04  0.7818609E-02  0.8219280E-01
        2   -1    0    0  501    0  0.00000000000E+00  0.00000000000E+00  0.21702591332E+04  0.21702591332E+04  0.25500000920E-02 0.  1.
       -2   -1    0    0    0  501  0.00000000000E+00  0.00000000000E+00 -0.10978356123E+04  0.10978356123E+04  0.25500000920E-02 0. -1.
    10030    2    1    2    0    0  0.00000000000E+00  0.00000000000E+00  0.10724235209E+04  0.32680947455E+04  0.30871266669E+04 0.  0.
        3    1    3    3  502    0  0.13031946466E+04  0.48495138576E+03  0.12456402620E+04  0.18668459514E+04  0.10100000352E+00 0.  1.
       -3    1    3    3    0  502 -0.13031946466E+04 -0.48495138576E+03 -0.17321674116E+03  0.14012487942E+04  0.10100000352E+00 0. -1.
</event>
<event>
 5   0  0.1843709E-06  0.3095416E+04  0.7818609E-02  0.8216997E-01
       -1   -1    0    0    0  501  0.00000000000E+00  0.00000000000E+00  0.16584764989E+04  0.16584764989E+04  0.50400001928E-02 0.  1.
        1   -1    0    0  501    0  0.00000000000E+00  0.00000000000E+00 -0.14443376944E+04  0.14443376945E+04  0.50400001928E-02 0. -1.
    10030    2    1    2    0    0  0.00000000000E+00  0.00000000000E+00  0.21413880442E+03  0.31028141933E+04  0.30954160448E+04 0.  0.
        4    1    3    3  502    0 -0.10637725182E+03 -0.49553018030E+03  0.15729366453E+04  0.16525730187E+04  0.12699999809E+01 0.  1.
       -4    1    3    3    0  502  0.10637725182E+03  0.49553018030E+03 -0.13587978408E+04  0.14502411746E+04  0.12699999809E+01 0. -1.
</event>
<event>
 5   0  0.1853742E-06  0.3102075E+04  0.7818609E-02  0.8215169E-01
       -1   -1    0    0    0  501  0.00000000000E+00  0.00000000000E+00  0.32147285131E+04  0.32147285131E+04  0.50400001928E-02 0. -1.
        1   -1    0    0  501    0  0.00000000000E+00  0.00000000000E+00 -0.74834214786E+03  0.74834214788E+03  0.50400001928E-02 0.  1.
    10030    2    1    2    0    0  0.00000000000E+00  0.00000000000E+00  0.24663863652E+04  0.39630706610E+04  0.31020746866E+04 0.  0.
        5    1    3    3  502    0 -0.11406486607E+04  0.64888695882E+03  0.22894468632E+04  0.26388866368E+04  0.46999998093E+01 0. -1.
       -5    1    3    3    0  502  0.11406486607E+04 -0.64888695882E+03  0.17693950200E+03  0.13241840242E+04  0.46999998093E+01 0.  1.
</event>
<event>
 5   0  0.4927533E-06  0.3044415E+04  0.7818609E-02  0.8231161E-01
       -2   -1    0    0    0  501  0.00000000000E+00  0.00000000000E+00  0.19834915276E+04  0.19834915276E+04  0.25500000920E-02 0. -1.
        2   -1    0    0  501    0  0.00000000000E+00  0.00000000000E+00 -0.11682001809E+04  0.11682001809E+04  0.25500000920E-02 0.  1.
    10030    2    1    2    0    0  0.00000000000E+00  0.00000000000E+00  0.81529134667E+03  0.31516917085E+04  0.30444146638E+04 0.  0.
        5    1    3    3  502    0 -0.69947648569E+03 -0.11748265983E+04  0.11002559513E+04  0.17550128599E+04  0.46999998093E+01 0.  1.
       -5    1    3    3    0  502  0.69947648569E+03  0.11748265983E+04 -0.28496460460E+03  0.13966788486E+04  0.46999998093E+01 0. -1.
</event>
<event>
 5   0  0.1840431E-06  0.3121035E+04  0.7818609E-02  0.8209989E-01
       -1   -1    0    0    0  501  0.00000000000E+00  0.00000000000E+00  0.16559658581E+04  0.16559658581E+04  0.50400001928E-02 0.  1.
        1   -1    0    0  501    0  0.00000000000E+00  0.00000000000E+00 -0.14705705582E+04  0.14705705582E+04  0.50400001928E-02 0. -1.
    10030    2    1    2    0    0  0.00000000000E+00  0.00000000000E+00  0.18539529996E+03  0.31265364163E+04  0.31210348517E+04 0.  0.
        1    1    3    3  502    0  0.52705129340E+03 -0.10132992835E+04  0.11578951646E+04  0.16264315898E+04  0.50400001928E-02 0.  1.
       -1    1    3    3    0  502 -0.52705129340E+03  0.10132992835E+04 -0.97249986467E+03  0.15001048266E+04  0.50400001928E-02 0. -1.
</event>
<event>
 5   0  0.4927533E-06  0.3109577E+04  0.7818609E-02  0.8213114E-01
        2   -1    0    0  501    0  0.00000000000E+00  0.00000000000E+00  0.19630599663E+04  0.19630599663E+04  0.25500000920E-02 0. -1.
       -2   -1    0    0    0  501  0.00000000000E+00  0.00000000000E+00 -0.12314283572E+04  0.12314283572E+04  0.25500000920E-02 0.  1.
    10030    2    1    2    0    0  0.00000000000E+00  0.00000000000E+00  0.73163160915E+03  0.31944883235E+04  0.31095772764E+04 0.  0.
        5    1    3    3  502    0 -0.12564591757E+04  0.43779514494E+03 -0.46050596622E+03  0.14079922173E+04  0.46999998093E+01 0. -1.
       -5    1    3    3    0  502  0.12564591757E+04 -0.43779514494E+03  0.11921375754E+04  0.17864961062E+04  0.46999998093E+01 0.  1.
</event>
<event>
 5   0  0.1836401E-06  0.3080436E+04  0.7818609E-02  0.8221128E-01
       -1   -1    0    0    0  501  0.00000000000E+00  0.00000000000E+00  0.15062526987E+04  0.15062526987E+04  0.50400001928E-02 0. -1.
        1   -1    0    0  501    0  0.00000000000E+00  0.00000000000E+00 -0.15749495000E+04  0.15749495000E+04  0.50400001928E-02 0.  1.
    10030    2    1    2    0    0  0.00000000000E+00  0.00000000000E+00 -0.68696801289E+02  0.30812021988E+04  0.30804362904E+04 0.  0.
        2    1    3    3  502    0  0.60180773730E+03  0.11697189963E+04 -0.83570728992E+03  0.15584677595E+04  0.25500000920E-02 0. -1.
       -2    1    3    3    0  502 -0.60180773730E+03 -0.11697189963E+04  0.76701048863E+03  0.15227344393E+04  0.25500000920E-02 0.  1.
</event>
<event>
 5   0  0.1885307E-06  0.3011443E+04  0.7818609E-02  0.8240471E-01
        1   -1    0    0  501    0  0.00000000000E+00  0.00000000000E+00  0.17441318236E+04  0.17441318236E+04  0.50400001928E-02 0.  1.
       -1   -1    0    0    0  501  0.00000000000E+00  0.00000000000E+00 -0.12998998847E+04  0.12998998847E+04  0.50400001928E-02 0. -1.
    10030    2    1    2    0    0  0.00000000000E+00  0.00000000000E+00  0.44423193888E+03  0.30440317082E+04  0.30114426817E+04 0.  0.
        3    1    3    3  502    0 -0.11315925260E+04  0.55999454913E+03  0.10514218690E+04  0.16430409297E+04  0.10100000352E+00 0.  1.
       -3    1    3    3    0  502  0.11315925260E+04 -0.55999454913E+03 -0.60718993015E+03  0.14009907785E+04  0.10100000352E+00 0. -1.
</event>
<event>
 5   0  0.1853742E-06  0.3037814E+04  0.7818609E-02  0.8233015E-01
        1   -1    0    0  501    0  0.00000000000E+00  0.00000000000E+00  0.12367842463E+04  0.12367842464E+04  0.50400001928E-02 0. -1.
       -1   -1    0    0    0  501  0.00000000000E+00  0.00000000000E+00 -0.18653846529E+04  0.18653846529E+04  0.50400001928E-02 0.  1.
    10030    2    1    2    0    0  0.00000000000E+00  0.00000000000E+00 -0.62860040652E+03  0.31021688992E+04  0.30378139193E+04 0.  0.
        5    1    3    3  502    0 -0.11113396663E+04  0.10169081310E+04 -0.11555379509E+03  0.15108119574E+04  0.46999998093E+01 0. -1.
       -5    1    3    3    0  502  0.11113396663E+04 -0.10169081310E+04 -0.51304661143E+03  0.15913569419E+04  0.46999998093E+01 0.  1.
</event>
<event>
 5   0  0.5114870E-06  0.3135842E+04  0.7818609E-02  0.8205970E-01
       -2   -1    0    0    0  501  0.00000000000E+00  0.00000000000E+00  0.98566277939E+03  0.98566277939E+03  0.25500000920E-02 0. -1.
        2   -1    0    0  501    0  0.00000000000E+00  0.00000000000E+00 -0.24941356416E+04  0.24941356416E+04  0.25500000920E-02 0.  1.
    10030    2    1    2    0    0  0.00000000000E+00  0.00000000000E+00 -0.15084728622E+04  0.34797984210E+04  0.31358422592E+04 0.  0.
        2    1    3    3  502    0 -0.83304778700E+02 -0.85112723747E+03  0.70406898026E+03  0.11077320928E+04  0.25500000920E-02 0. -1.
       -2    1    3    3    0  502  0.83304778700E+02  0.85112723747E+03 -0.22125418424E+04  0.23720663281E+04  0.25500000920E-02 0.  1.
</event>
<event>
 5   0  0.5328368E-06  0.3026447E+04  0.7818609E-02  0.8236219E-01
        2   -1    0    0  501    0  0.00000000000E+00  0.00000000000E+00  0.14489849014E+04  0.14489849014E+04  0.25500000920E-02 0.  1.
       -2   -1    0    0    0  501  0.00000000000E+00  0.00000000000E+00 -0.15803100490E+04  0.15803100490E+04  0.25500000920E-02 0. -1.
    10030    2    1    2    0    0  0.00000000000E+00  0.00000000000E+00 -0.13132514760E+03  0.30292949504E+04  0.30264470262E+04 0.  0.
        1    1    3    3  502    0 -0.13103330167E+04 -0.74670883629E+03 -0.18946687780E+03  0.15200146048E+04  0.50400001928E-02 0. -1.
       -1    1    3    3    0  502  0.13103330167E+04  0.74670883629E+03  0.58141730202E+02  0.15092803457E+04  0.50400001928E-02 0.  1.
</event>
<event>
 5   0  0.1840431E-06  0.3132231E+04  0.7818609E-02  0.8206948E-01
       -1   -1    0    0    0  501  0.00000000000E+00  0.00000000000E+00  0.17232018114E+04  0.17232018114E+04  0.50400001928E-02 0.  1.
        1   -1    0    0  501    0  0.00000000000E+00  0.00000000000E+00 -0.14233495431E+04  0.14233495431E+04  0.50400001928E-02 0. -1.
    10030    2    1    2    0    0  0.00000000000E+00  0.00000000000E+00  0.29985226824E+03  0.31465513545E+04  0.31322314799E+04 0.  0.
        1    1    3    3  502    0  0.26365339950E+03  0.13047095769E+04  0.97888858751E+03  0.16522720908E+04  0.50400001928E-02 0.  1.
       -1    1    3    3    0  502 -0.26365339950E+03 -0.13047095769E+04 -0.67903631927E+03  0.14942792637E+04  0.50400001928E-02 0. -1.
</event>
<event>
 5   0  0.1885307E-06  0.3066465E+04  0.7818609E-02  0.8225002E-01
        1   -1    0    0  501    0  0.00000000000E+00  0.00000000000E+00  0.27192498930E+04  0.27192498930E+04  0.50400001928E-02 0. -1.
       -1   -1    0    0    0  501  0.00000000000E+00  0.00000000000E+00 -0.86450376549E+03  0.86450376551E+03  0.50400001928E-02 0.  1.
    10030    2    1    2    0    0  0.00000000000E+00  0.00000000000E+00  0.18547461275E+04  0.35837536585E+04  0.30664649170E+04 0.  0.
        3    1    3    3  502    0  0.11015953948E+04 -0.37345451032E+03  0.20947913332E+04  0.23960658224E+04  0.10100000352E+00 0. -1.
       -3    1    3    3    0  502 -0.11015953948E+04  0.37345451032E+03 -0.24004520578E+03  0.11876878361E+04  0.10100000352E+00 0.  1.
</event>
<event>
 5   0  0.1885307E-06  0.3120031E+04  0.7818609E-02  0.8210262E-01
        1   -1    0    0  501    0  0.00000000000E+00  0.00000000000E+00  0.89113285487E+03  0.89113285489E+03  0.50400001928E-02 0.  1.
       -1   -1    0    0    0  501  0.00000000000E+00  0.00000000000E+00 -0.27309600308E+04  0.27309600308E+04  0.50400001928E-02 0. -1.
    10030    2    1    2    0    0  0.00000000000E+00  0.00000000000E+00 -0.18398271759E+04  0.36220928857E+04  0.31200309029E+04 0.  0.
        3    1    3    3  502    0  0.37431296404E+02  0.71011355371E+03  0.69204027498E+03  0.99226111156E+03  0.10100000352E+00 0.  1.
       -3    1    3    3    0  502 -0.37431296404E+02 -0.71011355371E+03 -0.25318674509E+04  0.26298317741E+04  0.10100000352E+00 0. -1.
</event>
<event>
 5   0  0.1843709E-06  0.2919162E+04  0.7818609E-02  0.8267199E-01
        1   -1    0    0  501    0  0.00000000000E+00  0.00000000000E+00  0.18550262630E+04  0.18550262630E+04  0.50400001928E-02 0.  1.
       -1   -1    0    0    0  501  0.00000000000E+00  0.00000000000E+00 -0.11484350154E+04  0.11484350154E+04  0.50400001928E-02 0. -1.
    10030    2    1    2    0    0  0.00000000000E+00  0.00000000000E+00  0.70659124759E+03  0.30034612784E+04  0.29191622873E+04 0.  0.
        4    1    3    3  502    0 -0.13760830690E+04 -0.25983917261E+03  0.77658162077E+03  0.16013124726E+04  0.12699999809E+01 0.  1.
       -4    1    3    3    0  502  0.13760830690E+04  0.25983917261E+03 -0.69990373175E+02  0.14021488058E+04  0.12699999809E+01 0. -1.
</event>
<event>
 5   0  0.5328368E-06  0.3108188E+04  0.7818609E-02  0.8213494E-01
        2   -1    0    0  501    0  0.00000000000E+00  0.00000000000E+00  0.19524961733E+04  0.19524961733E+04  0.25500000920E-02 0. -1.
       -2   -1    0    0    0  501  0.00000000000E+00  0.00000000000E+00 -0.12369846626E+04  0.12369846626E+04  0.25500000920E-02 0.  1.
    10030    2    1    2    0    0  0.00000000000E+00  0.00000000000E+00  0.71551151066E+03  0.31894808359E+04  0.31081877808E+04 0.  0.
        1    1    3    3  502    0  0.10412769741E+04 -0.42696204034E+03 -0.74202791836E+03  0.13480206795E+04  0.50400001928E-02 0.  1.
       -1    1    3    3    0  502 -0.10412769741E+04  0.42696204034E+03  0.14575394290E+04  0.18414601564E+04  0.50400001928E-02 0. -1.
</event>
<event>
 5   0  0.5001658E-06  0.3087679E+04  0.7818609E-02  0.8219128E-01
       -2   -1    0    0    0  501  0.00000000000E+00  0.00000000000E+00  0.19917649927E+04  0.19917649927E+04  0.25500000920E-02 0. -1.
        2   -1    0    0  501    0  0.00000000000E+00  0.00000000000E+00 -0.11966471111E+04  0.11966471111E+04  0.25500000920E-02 0.  1.
    10030    2    1    2    0    0  0.00000000000E+00  0.00000000000E+00  0.79511788155E+03  0.31884121038E+04  0.30876786261E+04 0.  0.
        3    1    3    3  502    0 -0.89493975973E+03 -0.91200066605E+03  0.12923012222E+04  0.18173345448E+04  0.10100000352E+00 0. -1.
       -3    1    3    3    0  502  0.89493975973E+03  0.91200066605E+03 -0.49718334069E+03  0.13710775590E+04  0.10100000352E+00 0.  1.
</event>
<event>
 5   0  0.1885307E-06  0.3123086E+04  0.7818609E-02  0.8209431E-01
        1   -1    0    0  501    0  0.00000000000E+00  0.00000000000E+00  0.10378935807E+04  0.10378935807E+04  0.50400001928E-02 0.  1.
       -1   -1    0    0    0  501  0.00000000000E+00  0.00000000000E+00 -0.23493896572E+04  0.23493896573E+04  0.50400001928E-02 0. -1.
    10030    2    1    2    0    0  0.00000000000E+00  0.00000000000E+00 -0.13114960766E+04  0.33872832380E+04  0.31230859379E+04 0.  0.
        3    1    3    3  502    0 -0.11686177639E+02 -0.55721030931E+02 -0.23482635959E+04  0.23489536663E+04  0.10100000352E+00 0. -1.
       -3    1    3    3    0  502  0.11686177639E+02  0.55721030931E+02  0.10367675194E+04  0.10383295717E+04  0.10100000352E+00 0.  1.
</event>
<event>
 5   0  0.4900679E-06  0.3104942E+04  0.7818609E-02  0.8214383E-01
       -2   -1    0    0    0  501  0.00000000000E+00  0.00000000000E+00  0.12706571824E+04  0.12706571824E+04  0.25500000920E-02 0.  1.
        2   -1    0    0  501    0  0.00000000000E+00  0.00000000000E+00 -0.18967873862E+04  0.18967873862E+04  0.25500000920E-02 0. -1.
    10030    2    1    2    0    0  0.00000000000E+00  0.00000000000E+00 -0.62613020382E+03  0.31674445686E+04  0.31049421996E+04 0.  0.
        4    1    3    3  502    0 -0.90744494606E+03  0.31353337564E+03  0.93149570752E+03  0.13377015264E+04  0.12699999809E+01 0.  1.
       -4    1    3    3    0  502  0.90744494606E+03 -0.31353337564E+03 -0.15576259113E+04  0.18297430422E+04  0.12699999809E+01 0. -1.
</event>
<event>
 5   0  0.1885307E-06  0.3108973E+04  0.7818609E-02  0.8213280E-01
       -1   -1    0    0    0  501  0.00000000000E+00  0.00000000000E+00  0.15304528020E+04  0.15304528020E+04  0.50400001928E-02 0. -1.
        1   -1    0    0  501    0  0.00000000000E+00  0.00000000000E+00 -0.15788974655E+04  0.15788974655E+04  0.50400001928E-02 0.  1.
    10030    2    1    2    0    0  0.00000000000E+00  0.00000000000E+00 -0.48444663498E+02  0.31093502675E+04  0.31089728530E+04 0.  0.
        3    1    3    3  502    0  0.64003940892E+03 -0.14071180677E+04  0.13949341256E+03  0.15521243905E+04  0.10100000352E+00 0. -1.
       -3    1    3    3    0  502 -0.64003940892E+03  0.14071180677E+04 -0.18793807606E+03  0.15572258770E+04  0.10100000352E+00 0.  1.
</event>
<event>
 5   0  0.1885307E-06  0.3229717E+04  0.7818609E-02  0.8181013E-01
       -1   -1    0    0    0  501  0.00000000000E+00  0.00000000000E+00  0.17415915019E+04  0.17415915019E+04  0.50400001928E-02 0.  1.
        1   -1    0    0  501    0  0.00000000000E+00  0.00000000000E+00 -0.14973476269E+04  0.14973476269E+04  0.50400001928E-02 0. -1.
    10030    2    1    2    0    0  0.00000000000E+00  0.00000000000E+00  0.24424387503E+03  0.32389391288E+04  0.32297169550E+04 0.  0.
        3    1    3    3  502    0 -0.70690157876E+03 -0.14105098955E+04 -0.22312825819E+03  0.15934347295E+04  0.10100000352E+00 0. -1.
       -3    1    3    3    0  502  0.70690157876E+03  0.14105098955E+04  0.46737213321E+03  0.16455043994E+04  0.10100000352E+00 0.  1.
</event>
<event>
 5   0  0.4927533E-06  0.3151822E+04  0.7818609E-02  0.8201658E-01
        2   -1    0    0  501    0  0.00000000000E+00  0.00000000000E+00  0.25017365337E+04  0.25017365337E+04  0.25500000920E-02 0.  1.
       -2   -1    0    0    0  501  0.00000000000E+00  0.00000000000E+00 -0.99270870761E+03  0.99270870761E+03  0.25500000920E-02 0. -1.
    10030    2    1    2    0    0  0.00000000000E+00  0.00000000000E+00  0.15090278261E+04  0.34944452413E+04  0.31518221023E+04 0.  0.
        5    1    3    3  502    0 -0.41879456872E+03 -0.10907916012E+04  0.19269457855E+04  0.22535211023E+04  0.46999998093E+01 0.  1.
       -5    1    3    3    0  502  0.41879456872E+03  0.10907916012E+04 -0.41791795941E+03  0.12409241391E+04  0.46999998093E+01 0. -1.
</event>
<event>
 5   0  0.1843709E-06  0.3137016E+04  0.7818609E-02  0.8205652E-01
        1   -1    0    0  501    0  0.00000000000E+00  0.00000000000E+00  0.19946329839E+04  0.19946329839E+04  0.50400001928E-02 0.  1.
       -1   -1    0    0    0  501  0.00000000000E+00  0.00000000000E+00 -0.12334187855E+04  0.12334187855E+04  0.50400001928E-02 0. -1.
    10030    2    1    2    0    0  0.00000000000E+00  0.00000000000E+00  0.76121419842E+03  0.32280517693E+04  0.31370162846E+04 0.  0.
        4    1    3    3  502    0 -0.45801897839E+03  0.14079969328E+04  0.91329698278E+03  0.17396406925E+04  0.12699999809E+01 0.  1.
       -4    1    3    3    0  502  0.45801897839E+03 -0.14079969328E+04 -0.15208278436E+03  0.14884110768E+04  0.12699999809E+01 0. -1.
</event>
<event>
 5   0  0.1885307E-06  0.3070450E+04  0.7818609E-02  0.8223895E-01
       -1   -1    0    0    0  501  0.00000000000E+00  0.00000000000E+00  0.19534376325E+04  0.19534376325E+04  0.50400001928E-02 0. -1.
        1   -1    0    0  501    0  0.00000000000E+00  0.00000000000E+00 -0.12065477754E+04  0.12065477755E+04  0.50400001928E-02 0.  1.
    10030    2    1    2    0    0  0.00000000000E+00  0.00000000000E+00  0.74688985701E+03  0.31599854079E+04  0.30704500191E+04 0.  0.
        3    1    3    3  502    0  0.61914877552E+03 -0.49066223990E+03 -0.98130743898E+03  0.12597852753E+04  0.10100000352E+00 0.  1.
       -3    1    3    3    0  502 -0.61914877552E+03  0.49066223990E+03  0.17281972960E+04  0.19002001326E+04  0.10100000352E+00 0. -1.
</event>
<event>
 5   0  0.5114870E-06  0.2655630E+04  0.7818609E-02  0.8349547E-01
       -2   -1    0    0    0  501  0.00000000000E+00  0.00000000000E+00  0.12510521337E+04  0.12510521337E+04  0.25500000920E-02 0.  1.
        2   -1    0    0  501    0  0.00000000000E+00  0.00000000000E+00 -0.14092882729E+04  0.14092882729E+04  0.25500000920E-02 0. -1.
    10030    2    1    2    0    0  0.00000000000E+00  0.00000000000E+00 -0.15823613925E+03  0.26603404066E+04  0.26556303213E+04 0.  0.
        2    1    3    3  502    0 -0.62403739354E+02 -0.61995214257E+03 -0.12537412001E+04  0.14000363861E+04  0.25500000920E-02 0. -1.
       -2    1    3    3    0  502  0.62403739354E+02  0.61995214257E+03  0.10955050608E+04  0.12603040205E+04  0.25500000920E-02 0.  1.
</event>
<event>
 5   0  0.1840431E-06  0.2983162E+04  0.7818609E-02  0.8248555E-01
        1   -1    0    0  501    0  0.00000000000E+00  0.00000000000E+00  0.21034466933E+04  0.21034466933E+04  0.50400001928E-02 0.  1.
       -1   -1    0    0    0  501  0.00000000000E+00  0.00000000000E+00 -0.10576993176E+04  0.10576993177E+04  0.50400001928E-02 0. -1.
    10030    2    1    2    0    0  0.00000000000E+00  0.00000000000E+00  0.10457473756E+04  0.31611460109E+04  0.29831621694E+04 0.  0.
        1    1    3    3  502    0  0.40884328174E+03  0.50718675711E+02  0.20419619286E+04  0.20831067497E+04  0.50400001928E-02 0.  1.
       -1    1    3    3    0  502 -0.40884328174E+03 -0.50718675711E+02 -0.99621455295E+03  0.10780392612E+04  0.50400001928E-02 0. -1.
</event>
<event>
 5   0  0.5328368E-06  0.3162496E+04  0.7818609E-02  0.8198793E-01
        2   -1    0    0  501    0  0.00000000000E+00  0.00000000000E+00  0.14424092953E+04  0.14424092953E+04  0.25500000920E-02 0.  1.
       -2   -1    0    0    0  501  0.00000000000E+00  0.00000000000E+00 -0.17334507982E+04  0.17334507982E+04  0.25500000920E-02 0. -1.
    10030    2    1    2    0    0  0.00000000000E+00  0.00000000000E+00 -0.29104150296E+03  0.31758600935E+04  0.31624961940E+04 0.  0.
        1    1    3    3  502    0  0.13197601206E+04  0.29045581698E+03  0.67905449623E+03  0.15123644953E+04  0.50400001928E-02 0.  1.
       -1    1    3    3    0  502 -0.13197601206E+04 -0.29045581698E+03 -0.97009599919E+03  0.16634955982E+04  0.50400001928E-02 0. -1.
</event>
<event>
 5   0  0.1836401E-06  0.2980935E+04  0.7818609E-02  0.8249196E-01
       -1   -1    0    0    0  501  0.00000000000E+00  0.00000000000E+00  0.12523981734E+04  0.12523981734E+04  0.50400001928E-02 0.  1.
        1   -1    0    0  501    0  0.00000000000E+00  0.00000000000E+00 -0.17737916578E+04  0.17737916578E+04  0.50400001928E-02 0. -1.
    10030    2    1    2    0    0  0.00000000000E+00  0.00000000000E+00 -0.52139348442E+03  0.30261898313E+04  0.29809350428E+04 0.  0.
        2    1    3    3  502    0 -0.11887069103E+04 -0.31391715646E+03 -0.11160588197E+04  0.16604684245E+04  0.25500000920E-02 0. -1.
       -2    1    3    3    0  502  0.11887069103E+04  0.31391715646E+03  0.59466533528E+03  0.13657214067E+04  0.25500000920E-02 0.  1.
</event>
<event>
 5   0  0.1843709E-06  0.2979951E+04  0.7818609E-02  0.8249479E-01
        1   -1    0    0  501    0  0.00000000000E+00  0.00000000000E+00  0.28007442777E+04  0.28007442777E+04  0.50400001928E-02 0. -1.
       -1   -1    0    0    0  501  0.00000000000E+00  0.00000000000E+00 -0.79265618870E+03  0.79265618872E+03  0.50400001928E-02 0.  1.
    10030    2    1    2    0    0  0.00000000000E+00  0.00000000000E+00  0.20080880890E+04  0.35934004664E+04  0.29799511974E+04 0.  0.
        4    1    3    3  502    0 -0.87637743942E+02 -0.10949320980E+04 -0.20990847927E+03  0.11183111624E+04  0.12699999809E+01 0.  1.
       -4    1    3    3    0  502  0.87637743942E+02  0.10949320980E+04  0.22179965683E+04  0.24750893041E+04  0.12699999809E+01 0. -1.
</event>
<event>
 5   0  0.5001658E-06  0.3133829E+04  0.7818609E-02  0.8206515E-01
        2   -1    0    0  501    0  0.00000000000E+00  0.00000000000E+00  0.23829084769E+04  0.23829084769E+04  0.25500000920E-02 0.  1.
       -2   -1    0    0    0  501  0.00000000000E+00  0.00000000000E+00 -0.10303462035E+04  0.10303462036E+04  0.25500000920E-02 0. -1.
    10030    2    1    2    0    0  0.00000000000E+00  0.00000000000E+00  0.13525622733E+04  0.34132546804E+04  0.31338287781E+04 0.  0.
        3    1    3    3  502    0 -0.37541371241E+02 -0.87447483462E+03 -0.73925762726E+03  0.11456951779E+04  0.10100000352E+00 0. -1.
       -3    1    3    3    0  502  0.37541371241E+02  0.87447483462E+03  0.20918199006E+04  0.22675595025E+04  0.10100000352E+00 0.  1.
</event>
<event>
 5   0  0.1885307E-06  0.3164453E+04  0.7818609E-02  0.8198269E-01
       -1   -1    0    0    0  501  0.00000000000E+00  0.00000000000E+00  0.17999277061E+04  0.17999277061E+04  0.50400001928E-02 0. -1.
        1   -1    0    0  501    0  0.00000000000E+00  0.00000000000E+00 -0.13908558267E+04  0.13908558268E+04  0.50400001928E-02 0.  1.
    10030    2    1    2    0    0  0.00000000000E+00  0.00000000000E+00  0.40907187937E+03  0.31907835329E+04  0.31644525200E+04 0.  0.
        3    1    3    3  502    0 -0.13785345678E+04 -0.27825528787E+03  0.93559038639E+03  0.16891160236E+04  0.10100000352E+00 0. -1.
       -3    1    3    3    0  502  0.13785345678E+04  0.27825528787E+03 -0.52651850702E+03  0.15016675093E+04  0.10100000352E+00 0.  1.
</event>
<event>
 5   0  0.5114870E-06  0.3110804E+04  0.7818609E-02  0.8212779E-01
        2   -1    0    0  501    0  0.00000000000E+00  0.00000000000E+00  0.18680759217E+04  0.18680759217E+04  0.25500000920E-02 0. -1.
       -2   -1    0    0    0  501  0.00000000000E+00  0.00000000000E+00 -0.12950624266E+04  0.12950624266E+04  0.25500000920E-02 0.  1.
    10030    2    1    2    0    0  0.00000000000E+00  0.00000000000E+00  0.57301349508E+03  0.31631383483E+04  0.31108037137E+04 0.  0.
        2    1    3    3  502    0  0.19967219739E+03 -0.61481988048E+03  0.17250164442E+04  0.18421602006E+04  0.25500000920E-02 0. -1.
       -2    1    3    3    0  502 -0.19967219739E+03  0.61481988048E+03 -0.11520029492E+04  0.13209781477E+04  0.25500000920E-02 0.  1.
</event>
<event>
 5   0  0.5001658E-06  0.3340448E+04  0.7818609E-02  0.8152679E-01
       -2   -1    0    0    0  501  0.00000000000E+00  0.00000000000E+00  0.15973674383E+04  0.15973674383E+04  0.25500000920E-02 0. -1.
        2   -1    0    0  501    0  0.00000000000E+00  0.00000000000E+00 -0.17464030606E+04  0.17464030606E+04  0.25500000920E-02 0.  1.
    10030    2    1    2    0    0  0.00000000000E+00  0.00000000000E+00 -0.14903562236E+03  0.33437704989E+04  0.33404475048E+04 0.  0.
        3    1    3    3  502    0  0.10399717122E+04 -0.11692408798E+04  0.50999969405E+03  0.16458326450E+04  0.10100000352E+00 0. -1.
       -3    1    3    3    0  502 -0.10399717122E+04  0.11692408798E+04 -0.65903531640E+03  0.16979378539E+04  0.10100000352E+00 0.  1.
</event>
<event>
 5   0  0.5114870E-06  0.3016297E+04  0.7818609E-02  0.8239092E-01
       -2   -1    0    0    0  501  0.00000000000E+00  0.00000000000E+00  0.94266932689E+03  0.94266932689E+03  0.25500000920E-02 0.  1.
        2   -1    0    0  501    0  0.00000000000E+00  0.00000000000E+00 -0.24128416210E+04  0.24128416210E+04  0.25500000920E-02 0. -1.
    10030    2    1    2    0    0  0.00000000000E+00  0.00000000000E+00 -0.14701722941E+04  0.33555109479E+04  0.30162969262E+04 0.  0.
        2    1    3    3  502    0 -0.83230296032E+03  0.44379440862E+03  0.57404397154E+03  0.11041776017E+04  0.25500000920E-02 0.  1.
       -2    1    3    3    0  502  0.83230296032E+03 -0.44379440862E+03 -0.20442162657E+04  0.22513333462E+04  0.25500000920E-02 0. -1.
</event>
<event>
 5   0  0.5114870E-06  0.3095250E+04  0.7818609E-02  0.8217043E-01
        2   -1    0    0  501    0  0.00000000000E+00  0.00000000000E+00  0.14791766451E+04  0.14791766451E+04  0.25500000920E-02 0.  1.
       -2   -1    0    0    0  501  0.00000000000E+00  0.00000000000E+00 -0.16192411759E+04  0.16192411759E+04  0.25500000920E-02 0. -1.
    10030    2    1    2    0    0  0.00000000000E+00  0.00000000000E+00 -0.14006453083E+03  0.30984178211E+04  0.30952503810E+04 0.  0.
        2    1    3    3  502    0 -0.56647850704E+02  0.49896816006E+03 -0.15354174234E+04  0.16154519082E+04  0.25500000920E-02 0. -1.
       -2    1    3    3    0  502  0.56647850704E+02 -0.49896816006E+03  0.13953528926E+04  0.14829659128E+04  0.25500000920E-02 0.  1.
</event>
<event>
 5   0  0.1853742E-06  0.3095309E+04  0.7818609E-02  0.8217026E-01
       -1   -1    0    0    0  501  0.00000000000E+00  0.00000000000E+00  0.85531414505E+03  0.85531414506E+03  0.50400001928E-02 0. -1.
        1   -1    0    0  501    0  0.00000000000E+00  0.00000000000E+00 -0.28004148388E+04  0.28004148389E+04  0.50400001928E-02 0.  1.
    10030    2    1    2    0    0  0.00000000000E+00  0.00000000000E+00 -0.19451006938E+04  0.36557289839E+04  0.30953089821E+04 0.  0.
        5    1    3    3  502    0  0.98437134163E+03  0.66783951206E+03  0.19676279097E+03  0.12057090188E+04  0.46999998093E+01 0. -1.
       -5    1    3    3    0  502 -0.98437134163E+03 -0.66783951206E+03 -0.21418634848E+04  0.24500199651E+04  0.46999998093E+01 0.  1.
</event>
<event>
 5   0  0.1840431E-06  0.3122491E+04  0.7818609E-02  0.8209592E-01
        1   -1    0    0  501    0  0.00000000000E+00  0.00000000000E+00  0.14561354819E+04  0.14561354819E+04  0.50400001928E-02 0. -1.
       -1   -1    0    0    0  501  0.00000000000E+00  0.00000000000E+00 -0.16739428040E+04  0.16739428040E+04  0.50400001928E-02 0.  1.
    10030    2    1    2    0    0  0.00000000000E+00  0.00000000000E+00 -0.21780732212E+03  0.31300782860E+04  0.31224910003E+04 0.  0.
        1    1    3    3  502    0 -0.22864762900E+03  0.48703144192E+03 -0.15780733737E+04  0.16672717045E+04  0.50400001928E-02 0.  1.
       -1    1    3    3    0  502  0.22864762900E+03 -0.48703144192E+03  0.13602660516E+04  0.14628065815E+04  0.50400001928E-02 0. -1.
</event>
<event>
 5   0  0.5114870E-06  0.3410152E+04  0.7818609E-02  0.8135419E-01
       -2   -1    0    0    0  501  0.00000000000E+00  0.00000000000E+00  0.20953500519E+04  0.20953500519E+04  0.25500000920E-02 0. -1.
        2   -1    0    0  501    0  0.00000000000E+00  0.00000000000E+00 -0.13874935975E+04  0.13874935975E+04  0.25500000920E-02 0.  1.
    10030    2    1    2    0    0  0.00000000000E+00  0.00000000000E+00  0.70785645440E+03  0.34828436494E+04  0.34101523611E+04 0.  0.
        2    1    3    3  502    0 -0.15092323749E+04  0.76697103974E+03  0.56137823831E+03  0.17835841622E+04  0.25500000920E-02 0. -1.
       -2    1    3    3    0  502  0.15092323749E+04 -0.76697103974E+03  0.14647821608E+03  0.16992594872E+04  0.25500000920E-02 0.  1.
</event>
<event>
 5   0  0.5114870E-06  0.3217152E+04  0.7818609E-02  0.8184302E-01
        2   -1    0    0  501    0  0.00000000000E+00  0.00000000000E+00  0.20747162070E+04  0.20747162070E+04  0.25500000920E-02 0. -1.
       -2   -1    0    0    0  501  0.00000000000E+00  0.00000000000E+00 -0.12471664376E+04  0.12471664376E+04  0.25500000920E-02 0.  1.
    10030    2    1    2    0    0  0.00000000000E+00  0.00000000000E+00  0.82754976935E+03  0.33218826446E+04  0.32171517968E+04 0.  0.
        2    1    3    3  502    0 -0.41756304873E+03  0.15520573258E+04  0.34625834467E+03  0.16441215538E+04  0.25500000920E-02 0. -1.
       -2    1    3    3    0  502  0.41756304873E+03 -0.15520573258E+04  0.48129142469E+03  0.16777610908E+04  0.25500000920E-02 0.  1.
</event>
<event>
 5   0  0.5001658E-06  0.2855810E+04  0.7818609E-02  0.8286148E-01
        2   -1    0    0  501    0  0.00000000000E+00  0.00000000000E+00  0.14033574065E+04  0.14033574065E+04  0.25500000920E-02 0.  1.
       -2   -1    0    0    0  501  0.00000000000E+00  0.00000000000E+00 -0.14528817256E+04  0.14528817256E+04  0.25500000920E-02 0. -1.
    10030    2    1    2    0    0  0.00000000000E+00  0.00000000000E+00 -0.49524319111E+02  0.28562391320E+04  0.28558097488E+04 0.  0.
        3    1    3    3  502    0  0.69290660221E+03 -0.33418413498E+03 -0.12279034301E+04  0.14489808278E+04  0.10100000352E+00 0. -1.
       -3    1    3    3    0  502 -0.69290660221E+03  0.33418413498E+03  0.11783791110E+04  0.14072583042E+04  0.10100000352E+00 0.  1.
</event>
<event>
 5   0  0.1836401E-06  0.3123821E+04  0.7818609E-02  0.8209231E-01
       -1   -1    0    0    0  501  0.00000000000E+00  0.00000000000E+00  0.12095466460E+04  0.12095466460E+04  0.50400001928E-02 0.  1.
        1   -1    0    0  501    0  0.00000000000E+00  0.00000000000E+00 -0.20169249119E+04  0.20169249119E+04  0.50400001928E-02 0. -1.
    10030    2    1    2    0    0  0.00000000000E+00  0.00000000000E+00 -0.80737826590E+03  0.32264715578E+04  0.31238212256E+04 0.  0.
        2    1    3    3  502    0 -0.12066135798E+04  0.50535353864E+03  0.47773869213E+03  0.13926710982E+04  0.25500000920E-02 0.  1.
       -2    1    3    3    0  502  0.12066135798E+04 -0.50535353864E+03 -0.12851169580E+04  0.18338004596E+04  0.25500000920E-02 0. -1.
</event>
<event>
 5   0  0.1840431E-06  0.3113448E+04  0.7818609E-02  0.8212057E-01
        1   -1    0    0  501    0  0.00000000000E+00  0.00000000000E+00  0.11256239285E+04  0.11256239285E+04  0.50400001928E-02 0. -1.
       -1   -1    0    0    0  501  0.00000000000E+00  0.00000000000E+00 -0.21529301607E+04  0.21529301607E+04  0.50400001928E-02 0.  1.
    10030    2    1    2    0    0  0.00000000000E+00  0.00000000000E+00 -0.10273062322E+04  0.32785540892E+04  0.31134480598E+04 0.  0.
        1    1    3    3  502    0  0.13941767064E+03  0.15466635711E+04 -0.62796491945E+03  0.16750956478E+04  0.50400001928E-02 0.  1.
       -1    1    3    3    0  502 -0.13941767064E+03 -0.15466635711E+04 -0.39934131275E+03  0.16034584414E+04  0.50400001928E-02 0. -1.
</event>
<event>
 5   0  0.5114870E-06  0.3123710E+04  0.7818609E-02  0.8209261E-01
        2   -1    0    0  501    0  0.00000000000E+00  0.00000000000E+00  0.11835813099E+04  0.11835813099E+04  0.25500000920E-02 0. -1.
       -2   -1    0    0    0  501  0.00000000000E+00  0.00000000000E+00 -0.20610247375E+04  0.20610247375E+04  0.25500000920E-02 0.  1.
    10030    2    1    2    0    0  0.00000000000E+00  0.00000000000E+00 -0.87744342754E+03  0.32446060474E+04  0.31237095630E+04 0.  0.
        2    1    3    3  502    0  0.83411752417E+03 -0.45793914519E+03 -0.17251752479E+04  0.19702004824E+04  0.25500000920E-02 0.  1.
       -2    1    3    3    0  502 -0.83411752417E+03  0.45793914519E+03  0.84773182037E+03  0.12744055650E+04  0.25500000920E-02 0. -1.
</event>
<event>
 5   0  0.4927533E-06  0.2542447E+04  0.7818609E-02  0.8388018E-01
        2   -1    0    0  501    0  0.00000000000E+00  0.00000000000E+00  0.12219591378E+04  0.12219591378E+04  0.25500000920E-02 0. -1.
       -2   -1    0    0    0  501  0.00000000000E+00  0.00000000000E+00 -0.13224736186E+04  0.13224736186E+04  0.25500000920E-02 0.  1.
    10030    2    1    2    0    0  0.00000000000E+00  0.00000000000E+00 -0.10051448079E+03  0.25444327564E+04  0.25424466349E+04 0.  0.
        5    1    3    3  502    0 -0.25312755351E+03  0.78609697283E+03  0.91691616303E+03  0.12340094607E+04  0.46999998093E+01 0. -1.
       -5    1    3    3    0  502  0.25312755351E+03 -0.78609697283E+03 -0.10174306438E+04  0.13104232957E+04  0.46999998093E+01 0.  1.
</event>
<event>
 5   0  0.1836401E-06  0.3181682E+04  0.7818609E-02  0.8193672E-01
        1   -1    0    0  501    0  0.00000000000E+00  0.00000000000E+00  0.19197958071E+04  0.19197958071E+04  0.50400001928E-02 0.  1.
       -1   -1    0    0    0  501  0.00000000000E+00  0.00000000000E+00 -0.13182523474E+04  0.13182523474E+04  0.50400001928E-02 0. -1.
    10030    2    1    2    0    0  0.00000000000E+00  0.00000000000E+00  0.60154345968E+03  0.32380481546E+04  0.31816821522E+04 0.  0.
        2    1    3    3  502    0  0.12681221744E+04 -0.40343219287E+03  0.11879280400E+04  0.17838341884E+04  0.25500000920E-02 0.  1.
       -2    1    3    3    0  502 -0.12681221744E+04  0.40343219287E+03 -0.58638458036E+03  0.14542139662E+04  0.25500000920E-02 0. -1.
</event>
<event>
 5   0  0.1853742E-06  0.2988263E+04  0.7818609E-02  0.8247090E-01
       -1   -1    0    0    0  501  0.00000000000E+00  0.00000000000E+00  0.19574470021E+04  0.19574470021E+04  0.50400001928E-02 0.  1.
        1   -1    0    0  501    0  0.00000000000E+00  0.00000000000E+00 -0.11404800548E+04  0.11404800549E+04  0.50400001928E-02 0. -1.
    10030    2    1    2    0    0  0.00000000000E+00  0.00000000000E+00  0.81696694728E+03  0.30979270570E+04  0.29882632176E+04 0.  0.
        5    1    3    3  502    0 -0.12319219434E+04 -0.84346844519E+03  0.34860141594E+03  0.15331717874E+04  0.46999998093E+01 0.  1.
       -5    1    3    3    0  502  0.12319219434E+04  0.84346844519E+03  0.46836553134E+03  0.15647552695E+04  0.46999998093E+01 0. -1.
</event>
<event>
 5   0  0.4900679E-06  0.2984371E+04  0.7818609E-02  0.8248208E-01
       -2   -1    0    0    0  501  0.00000000000E+00  0.00000000000E+00  0.11027860908E+04  0.11027860908E+04  0.25500000920E-02 0.  1.
        2   -1    0    0  501    0  0.00000000000E+00  0.00000000000E+00 -0.20190835826E+04  0.20190835826E+04  0.25500000920E-02 0. -1.
    10030    2    1    2    0    0  0.00000000000E+00  0.00000000000E+00 -0.91629749179E+03  0.31218696734E+04  0.29843708154E+04 0.  0.
        4    1    3    3  502    0 -0.44093283981E+03  0.23336935645E+03  0.10129633842E+04  0.11291498822E+04  0.12699999809E+01 0.  1.
       -4    1    3    3    0  502  0.44093283981E+03 -0.23336935645E+03 -0.19292608760E+04  0.19927197912E+04  0.12699999809E+01 0. -1.
</event>
<event>
 5   0  0.1885307E-06  0.3102452E+04  0.7818609E-02  0.8215065E-01
       -1   -1    0    0    0  501  0.00000000000E+00  0.00000000000E+00  0.10529149354E+04  0.10529149354E+04  0.50400001928E-02 0. -1.
        1   -1    0    0  501    0  0.00000000000E+00  0.00000000000E+00 -0.22853722103E+04  0.22853722103E+04  0.50400001928E-02 0.  1.
    10030    2    1    2    0    0  0.00000000000E+00  0.00000000000E+00 -0.12324572749E+04  0.33382871458E+04  0.31024522773E+04 0.  0.
        3    1    3    3  502    0  0.17450555417E+03  0.14257531864E+04  0.14024669295E+02  0.14364612903E+04  0.10100000352E+00 0. -1.
       -3    1    3    3    0  502 -0.17450555417E+03 -0.14257531864E+04 -0.12464819442E+04  0.19018258554E+04  0.10100000352E+00 0.  1.
</event>
<event>
 5   0  0.1836401E-06  0.3060099E+04  0.7818609E-02  0.8226774E-01
        1   -1    0    0  501    0  0.00000000000E+00  0.00000000000E+00  0.18908109041E+04  0.18908109041E+04  0.50400001928E-02 0.  1.
       -1   -1    0    0    0  501  0.00000000000E+00  0.00000000000E+00 -0.12381206457E+04  0.12381206457E+04  0.50400001928E-02 0. -1.
    10030    2    1    2    0    0  0.00000000000E+00  0.00000000000E+00  0.65269025842E+03  0.31289315498E+04  0.30600993562E+04 0.  0.
        2    1    3    3  502    0 -0.22847358061E+03  0.35397712229E+03  0.18303325625E+04  0.18781952160E+04  0.25500000920E-02 0.  1.
       -2    1    3    3    0  502  0.22847358061E+03 -0.35397712229E+03 -0.11776423041E+04  0.12507363337E+04  0.25500000920E-02 0. -1.
</event>
<event>
 5   0  0.5114870E-06  0.3130011E+04  0.7818609E-02  0.8207550E-01
        2   -1    0    0  501    0  0.00000000000E+00  0.00000000000E+00  0.26010746002E+04  0.26010746002E+04  0.25500000920E-02 0.  1.
       -2   -1    0    0    0  501  0.00000000000E+00  0.00000000000E+00 -0.94162680911E+03  0.94162680911E+03  0.25500000920E-02 0. -1.
    10030    2    1    2    0    0  0.00000000000E+00  0.00000000000E+00  0.16594477911E+04  0.35427014093E+04  0.31300105917E+04 0.  0.
        2    1    3    3  502    0 -0.47636154575E+03  0.57635194651E+03 -0.72636962194E+03  0.10424560980E+04  0.25500000920E-02 0. -1.
       -2    1    3    3    0  502  0.47636154575E+03 -0.57635194651E+03  0.23858174130E+04  0.25002453113E+04  0.25500000920E-02 0.  1.
</event>
<event>
 5   0  0.4927533E-06  0.3106913E+04  0.7818609E-02  0.8213843E-01
       -2   -1    0    0    0  501  0.00000000000E+00  0.00000000000E+00  0.23284991207E+04  0.23284991207E+04  0.25500000920E-02 0. -1.
        2   -1    0    0  501    0  0.00000000000E+00  0.00000000000E+00 -0.10363873993E+04  0.10363873993E+04  0.25500000920E-02 0.  1.
    10030    2    1    2    0    0  0.00000000000E+00  0.00000000000E+00  0.12921117214E+04  0.33648865201E+04  0.31069130326E+04 0.  0.
        5    1    3    3  502    0 -0.34836962474E+03 -0.52262136317E+03 -0.89273059267E+03  0.10915514123E+04  0.46999998093E+01 0.  1.
       -5    1    3    3    0  502  0.34836962474E+03  0.52262136317E+03  0.21848423141E+04  0.22733351077E+04  0.46999998093E+01 0. -1.
</event>
<event>
 5   0  0.1843709E-06  0.2883284E+04  0.7818609E-02  0.8277868E-01
        1   -1    0    0  501    0  0.00000000000E+00  0.00000000000E+00  0.11767346914E+04  0.11767346914E+04  0.50400001928E-02 0. -1.
       -1   -1    0    0    0  501  0.00000000000E+00  0.00000000000E+00 -0.17661858341E+04  0.17661858341E+04  0.50400001928E-02 0.  1.
    10030    2    1    2    0    0  0.00000000000E+00  0.00000000000E+00 -0.58945114276E+03  0.29429205255E+04  0.28832843373E+04 0.  0.
        4    1    3    3  502    0 -0.19834183584E+03 -0.11804488635E+04 -0.11147934283E+04  0.16357154410E+04  0.12699999809E+01 0.  1.
       -4    1    3    3    0  502  0.19834183584E+03  0.11804488635E+04  0.52534228555E+03  0.13072050846E+04  0.12699999809E+01 0. -1.
</event>
<event>
 5   0  0.4927533E-06  0.3109412E+04  0.7818609E-02  0.8213160E-01
        2   -1    0    0  501    0  0.00000000000E+00  0.00000000000E+00  0.21321484824E+04  0.21321484824E+04  0.25500000920E-02 0.  1.
       -2   -1    0    0    0  501  0.00000000000E+00  0.00000000000E+00 -0.11336503683E+04  0.11336503683E+04  0.25500000920E-02 0. -1.
    10030    2    1    2    0    0  0.00000000000E+00  0.00000000000E+00  0.99849811412E+03  0.32657988507E+04  0.31094121067E+04 0.  0.
        5    1    3    3  502    0 -0.35017555824E+03 -0.11108711741E+04 -0.58231533808E+03  0.13022176969E+04  0.46999998093E+01 0. -1.
       -5    1    3    3    0  502  0.35017555824E+03  0.11108711741E+04  0.15808134522E+04  0.19635811539E+04  0.46999998093E+01 0.  1.
</event>
<event>
 5   0  0.1885307E-06  0.2951701E+04  0.7818609E-02  0.8257659E-01
       -1   -1    0    0    0  501  0.00000000000E+00  0.00000000000E+00  0.10700214598E+04  0.10700214598E+04  0.50400001928E-02 0.  1.
        1   -1    0    0  501    0  0.00000000000E+00  0.00000000000E+00 -0.20355994987E+04  0.20355994988E+04  0.50400001928E-02 0. -1.
    10030    2    1    2    0    0  0.00000000000E+00  0.00000000000E+00 -0.96557803899E+03  0.31056209585E+04  0.29517013041E+04 0.  0.
        3    1    3    3  502    0  0.11527485473E+04  0.78106886538E+03 -0.99741361006E+03  0.17128139728E+04  0.10100000352E+00 0. -1.
       -3    1    3    3    0  502 -0.11527485473E+04 -0.78106886538E+03  0.31835571074E+02  0.13928069857E+04  0.10100000352E+00 0.  1.
</event>
<event>
 5   0  0.5114870E-06  0.3062637E+04  0.7818609E-02  0.8226067E-01
        2   -1    0    0  501    0  0.00000000000E+00  0.00000000000E+00  0.15931165300E+04  0.15931165300E+04  0.25500000920E-02 0.  1.
       -2   -1    0    0    0  501  0.00000000000E+00  0.00000000000E+00 -0.14719177342E+04  0.14719177342E+04  0.25500000920E-02 0. -1.
    10030    2    1    2    0    0  0.00000000000E+00  0.00000000000E+00  0.12119879578E+03  0.30650342642E+04  0.30626370815E+04 0.  0.
        2    1    3    3  502    0 -0.10162615470E+04  0.78279044009E+03  0.89754822827E+03  0.15656120934E+04  0.25500000920E-02 0.  1.
       -2    1    3    3    0  502  0.10162615470E+04 -0.78279044009E+03 -0.77634943249E+03  0.14994221708E+04  0.25500000920E-02 0. -1.
</event>
<event>
 5   0  0.5001658E-06  0.2621985E+04  0.7818609E-02  0.8360772E-01
        2   -1    0    0  501    0  0.00000000000E+00  0.00000000000E+00  0.19390925194E+04  0.19390925194E+04  0.25500000920E-02 0. -1.
       -2   -1    0    0    0  501  0.00000000000E+00  0.00000000000E+00 -0.88634284252E+03  0.88634284252E+03  0.25500000920E-02 0.  1.
    10030    2    1    2    0    0  0.00000000000E+00  0.00000000000E+00  0.10527496769E+04  0.28254353619E+04  0.26219845732E+04 0.  0.
        3    1    3    3  502    0  0.92766105398E+03 -0.36291885964E+03  0.14448212347E+04  0.17549283576E+04  0.10100000352E+00 0. -1.
       -3    1    3    3    0  502 -0.92766105398E+03  0.36291885964E+03 -0.39207155781E+03  0.10705070044E+04  0.10100000352E+00 0.  1.
</event>
<event>
 5   0  0.5328368E-06  0.3088966E+04  0.7818609E-02  0.8218773E-01
        2   -1    0    0  501    0  0.00000000000E+00  0.00000000000E+00  0.15261652538E+04  0.15261652538E+04  0.25500000920E-02 0.  1.
       -2   -1    0    0    0  501  0.00000000000E+00  0.00000000000E+00 -0.15630203830E+04  0.15630203830E+04  0.25500000920E-02 0. -1.
    10030    2    1    2    0    0  0.00000000000E+00  0.00000000000E+00 -0.36855129158E+02  0.30891856368E+04  0.30889657813E+04 0.  0.
        1    1    3    3  502    0 -0.11992610947E+04 -0.36499165712E+03  0.88384578096E+03  0.15338283631E+04  0.50400001928E-02 0.  1.
       -1    1    3    3    0  502  0.11992610947E+04  0.36499165712E+03 -0.92070091012E+03  0.15553572737E+04  0.50400001928E-02 0. -1.
</event>
<event>
 5   0  0.1840431E-06  0.3062618E+04  0.7818609E-02  0.8226073E-01
        1   -1    0    0  501    0  0.00000000000E+00  0.00000000000E+00  0.12013860586E+04  0.12013860586E+04  0.50400001928E-02 0. -1.
       -1   -1    0    0    0  501  0.00000000000E+00  0.00000000000E+00 -0.19518351958E+04  0.19518351958E+04  0.50400001928E-02 0.  1.
    10030    2    1    2    0    0  0.00000000000E+00  0.00000000000E+00 -0.75044913721E+03  0.31532212545E+04  0.30626182218E+04 0.  0.
        1    1    3    3  502    0  0.12604222541E+03  0.96078716265E+03  0.84556324518E+03  0.12860699111E+04  0.50400001928E-02 0. -1.
       -1    1    3    3    0  502 -0.12604222541E+03 -0.96078716265E+03 -0.15960123824E+04  0.18671513434E+04  0.50400001928E-02 0.  1.
</event>
<event>
 5   0  0.5001658E-06  0.3058350E+04  0.7818609E-02  0.8227262E-01
        2   -1    0    0  501    0  0.00000000000E+00  0.00000000000E+00  0.19690479114E+04  0.19690479114E+04  0.25500000920E-02 0. -1.
       -2   -1    0    0    0  501  0.00000000000E+00  0.00000000000E+00 -0.11875672247E+04  0.11875672247E+04  0.25500000920E-02 0.  1.
    10030    2    1    2    0    0  0.00000000000E+00  0.00000000000E+00  0.78148068673E+03  0.31566151361E+04  0.30583503812E+04 0.  0.
        3    1    3    3  502    0 -0.21137159517E+02  0.50898088409E+03 -0.10974137318E+04  0.12098864529E+04  0.10100000352E+00 0.  1.
       -3    1    3    3    0  502  0.21137159517E+02 -0.50898088409E+03  0.18788944186E+04  0.19467286833E+04  0.10100000352E+00 0. -1.
</event>
<event>
 5   0  0.1843709E-06  0.3117809E+04  0.7818609E-02  0.8210867E-01
       -1   -1    0    0    0  501  0.00000000000E+00  0.00000000000E+00  0.88699982796E+03  0.88699982797E+03  0.50400001928E-02 0. -1.
        1   -1    0    0  501    0  0.00000000000E+00  0.00000000000E+00 -0.27397786991E+04  0.27397786991E+04  0.50400001928E-02 0.  1.
    10030    2    1    2    0    0  0.00000000000E+00  0.00000000000E+00 -0.18527788712E+04  0.36267785271E+04  0.31178089966E+04 0.  0.
        4    1    3    3  502    0 -0.10795295023E+04  0.11244215992E+04 -0.95170821646E+03  0.18263236354E+04  0.12699999809E+01 0.  1.
       -4    1    3    3    0  502  0.10795295023E+04 -0.11244215992E+04 -0.90107065469E+03  0.18004548916E+04  0.12699999809E+01 0. -1.
</event>
<event>
 5   0  0.4927533E-06  0.3020200E+04  0.7818609E-02  0.8237986E-01
        2   -1    0    0  501    0  0.00000000000E+00  0.00000000000E+00  0.14236693964E+04  0.14236693964E+04  0.25500000920E-02 0.  1.
       -2   -1    0    0    0  501  0.00000000000E+00  0.00000000000E+00 -0.16017780585E+04  0.16017780585E+04  0.25500000920E-02 0. -1.
    10030    2    1    2    0    0  0.00000000000E+00  0.00000000000E+00 -0.17810866218E+03  0.30254474549E+04  0.30202002594E+04 0.  0.
        5    1    3    3  502    0 -0.44611982835E+03  0.14211534369E+04  0.15973238104E+03  0.14980776068E+04  0.46999998093E+01 0.  1.
       -5    1    3    3    0  502  0.44611982835E+03 -0.14211534369E+04 -0.33784104321E+03  0.15273698481E+04  0.46999998093E+01 0. -1.
</event>
<event>
 5   0  0.1843709E-06  0.3093443E+04  0.7818609E-02  0.8217540E-01
        1   -1    0    0  501    0  0.00000000000E+00  0.00000000000E+00  0.12726947474E+04  0.12726947475E+04  0.50400001928E-02 0. -1.
       -1   -1    0    0    0  501  0.00000000000E+00  0.00000000000E+00 -0.18797489755E+04  0.18797489755E+04  0.50400001928E-02 0.  1.
    10030    2    1    2    0    0  0.00000000000E+00  0.00000000000E+00 -0.60705422807E+03  0.31524437230E+04  0.30934425145E+04 0.  0.
        4    1    3    3  502    0 -0.21607285173E+02  0.14596373711E+03 -0.18725596021E+04  0.18783645449E+04  0.12699999809E+01 0.  1.
       -4    1    3    3    0  502  0.21607285173E+02 -0.14596373711E+03  0.12655053740E+04  0.12740791780E+04  0.12699999809E+01 0. -1.
</event>
<event>
 5   0  0.1853742E-06  0.2976821E+04  0.7818609E-02  0.8250381E-01
       -1   -1    0    0    0  501  0.00000000000E+00  0.00000000000E+00  0.78844817303E+03  0.78844817305E+03  0.50400001928E-02 0.  1.
        1   -1    0    0  501    0  0.00000000000E+00  0.00000000000E+00 -0.28097799737E+04  0.28097799737E+04  0.50400001928E-02 0. -1.
    10030    2    1    2    0    0  0.00000000000E+00  0.00000000000E+00 -0.20213318006E+04  0.35982281467E+04  0.29768210473E+04 0.  0.
        5    1    3    3  502    0 -0.56775832129E+03 -0.86034439236E+03  0.28715060773E+03  0.10700558613E+04  0.46999998093E+01 0. -1.
       -5    1    3    3    0  502  0.56775832129E+03  0.86034439236E+03 -0.23084824084E+04  0.25281722854E+04  0.46999998093E+01 0.  1.
</event>
<event>
 5   0  0.5328368E-06  0.3018193E+04  0.7818609E-02  0.8238555E-01
       -2   -1    0    0    0  501  0.00000000000E+00  0.00000000000E+00  0.15973509744E+04  0.15973509744E+04  0.25500000920E-02 0. -1.
        2   -1    0    0  501    0  0.00000000000E+00  0.00000000000E+00 -0.14257180966E+04  0.14257180966E+04  0.25500000920E-02 0.  1.
    10030    2    1    2    0    0  0.00000000000E+00  0.00000000000E+00  0.17163287773E+03  0.30230690710E+04  0.30181929632E+04 0.  0.
        1    1    3    3  502    0  0.14426532541E+04  0.42064123343E+03  0.22454916994E+03  0.15194110005E+04  0.50400001928E-02 0. -1.
       -1    1    3    3    0  502 -0.14426532541E+04 -0.42064123343E+03 -0.52916292205E+02  0.15036580704E+04  0.50400001928E-02 0.  1.
</event>
<event>
 5   0  0.4900679E-06  0.2971257E+04  0.7818609E-02  0.8251987E-01
        2   -1    0    0  501    0  0.00000000000E+00  0.00000000000E+00  0.12956368722E+04  0.12956368722E+04  0.25500000920E-02 0.  1.
       -2   -1    0    0    0  501  0.00000000000E+00  0.00000000000E+00 -0.17034805473E+04  0.17034805473E+04  0.25500000920E-02 0. -1.
    10030    2    1    2    0    0  0.00000000000E+00  0.00000000000E+00 -0.40784367513E+03  0.29991174195E+04  0.29712571132E+04 0.  0.
        4    1    3    3  502    0  0.11931453199E+04  0.78116979083E+03  0.21623667462E+03  0.14424222367E+04  0.12699999809E+01 0.  1.
       -4    1    3    3    0  502 -0.11931453199E+04 -0.78116979083E+03 -0.62408034975E+03  0.15566951829E+04  0.12699999809E+01 0. -1.
</event>
<event>
 5   0  0.5001658E-06  0.3091420E+04  0.7818609E-02  0.8218097E-01
        2   -1    0    0  501    0  0.00000000000E+00  0.00000000000E+00  0.28916160161E+04  0.28916160161E+04  0.25500000920E-02 0.  1.
       -2   -1    0    0    0  501  0.00000000000E+00  0.00000000000E+00 -0.82625731475E+03  0.82625731476E+03  0.25500000920E-02 0. -1.
    10030    2    1    2    0    0  0.00000000000E+00  0.00000000000E+00  0.20653587013E+04  0.37178733309E+04  0.30914196640E+04 0.  0.
        3    1    3    3  502    0  0.85707028915E+03  0.15808816712E+02 -0.51420133146E+03  0.99961113374E+03  0.10100000352E+00 0. -1.
       -3    1    3    3    0  502 -0.85707028915E+03 -0.15808816712E+02  0.25795600328E+04  0.27182621971E+04  0.10100000352E+00 0.  1.
</event>
<event>
 5   0  0.1843709E-06  0.3082898E+04  0.7818609E-02  0.8220447E-01
       -1   -1    0    0    0  501  0.00000000000E+00  0.00000000000E+00  0.97322263358E+03  0.97322263359E+03  0.50400001928E-02 0. -1.
        1   -1    0    0  501    0  0.00000000000E+00  0.00000000000E+00 -0.24414398212E+04  0.24414398212E+04  0.50400001928E-02 0.  1.
    10030    2    1    2    0    0  0.00000000000E+00  0.00000000000E+00 -0.14682171876E+04  0.34146624548E+04  0.30828976581E+04 0.  0.
        4    1    3    3  502    0 -0.38873578555E+03 -0.87371508870E+03  0.60494629521E+03  0.11315720040E+04  0.12699999809E+01 0. -1.
       -4    1    3    3    0  502  0.38873578555E+03  0.87371508870E+03 -0.20731634828E+04  0.22830904508E+04  0.12699999809E+01 0.  1.
</event>
<event>
 5   0  0.1836401E-06  0.2850308E+04  0.7818609E-02  0.8287818E-01
        1   -1    0    0  501    0  0.00000000000E+00  0.00000000000E+00  0.23614270483E+04  0.23614270483E+04  0.50400001928E-02 0.  1.
       -1   -1    0    0    0  501  0.00000000000E+00  0.00000000000E+00 -0.86010039578E+03  0.86010039579E+03  0.50400001928E-02 0. -1.
    10030    2    1    2    0    0  0.00000000000E+00  0.00000000000E+00  0.15013266525E+04  0.32215274441E+04  0.28503082913E+04 0.  0.
        2    1    3    3  502    0  0.88127336729E+03  0.27874486458E+03  0.19767102736E+04  0.21821377026E+04  0.25500000920E-02 0.  1.
       -2    1    3    3    0  502 -0.88127336729E+03 -0.27874486458E+03 -0.47538362111E+03  0.10393897415E+04  0.25500000920E-02 0. -1.
</event>
<event>
 5   0  0.4927533E-06  0.2989130E+04  0.7818609E-02  0.8246842E-01
       -2   -1    0    0    0  501  0.00000000000E+00  0.00000000000E+00  0.12946894885E+04  0.12946894885E+04  0.25500000920E-02 0. -1.
        2   -1    0    0  501    0  0.00000000000E+00  0.00000000000E+00 -0.17252978400E+04  0.17252978400E+04  0.25500000920E-02 0.  1.
    10030    2    1    2    0    0  0.00000000000E+00  0.00000000000E+00 -0.43060835155E+03  0.30199873285E+04  0.29891302936E+04 0.  0.
        5    1    3    3  502    0  0.11461523167E+03 -0.13109723460E+04 -0.93107921537E+03  0.16120532680E+04  0.46999998093E+01 0.  1.
       -5    1    3    3    0  502 -0.11461523167E+03  0.13109723460E+04  0.50047086383E+03  0.14079340606E+04  0.46999998093E+01 0. -1.
</event>
<event>
 5   0  0.1840431E-06  0.3107587E+04  0.7818609E-02  0.8213659E-01
       -1   -1    0    0    0  501  0.00000000000E+00  0.00000000000E+00  0.11050564077E+04  0.11050564077E+04  0.50400001928E-02 0. -1.
        1   -1    0    0  501    0  0.00000000000E+00  0.00000000000E+00 -0.21847516526E+04  0.21847516526E+04  0.50400001928E-02 0.  1.
    10030    2    1    2    0    0  0.00000000000E+00  0.00000000000E+00 -0.10796952449E+04  0.32898080604E+04  0.31075867248E+04 0.  0.
        1    1    3    3  502    0 -0.11151861661E+04 -0.10542104859E+04 -0.79758593366E+03  0.17294921958E+04  0.50400001928E-02 0. -1.
       -1    1    3    3    0  502  0.11151861661E+04  0.10542104859E+04 -0.28210931122E+03  0.15603158646E+04  0.50400001928E-02 0.  1.
</event>
<event>
 5   0  0.5001658E-06  0.3191235E+04  0.7818609E-02  0.8191136E-01
        2   -1    0    0  501    0  0.00000000000E+00  0.00000000000E+00  0.29960374079E+04  0.29960374079E+04  0.25500000920E-02 0.  1.
       -2   -1    0    0    0  501  0.00000000000E+00  0.00000000000E+00 -0.84978769070E+03  0.84978769071E+03  0.25500000920E-02 0. -1.
    10030    2    1    2    0    0  0.00000000000E+00  0.00000000000E+00  0.21462497172E+04  0.38458250986E+04  0.31912353158E+04 0.  0.
        3    1    3    3  502    0 -0.15140782743E+04  0.29082950579E+03  0.15685174196E+04  0.21993775774E+04  0.10100000352E+00 0.  1.
       -3    1    3    3    0  502  0.15140782743E+04 -0.29082950579E+03  0.57773229763E+03  0.16464475212E+04  0.10100000352E+00 0. -1.
</event>
<event>
 5   0  0.1836401E-06  0.2352705E+04  0.7818609E-02  0.8457425E-01
       -1   -1    0    0    0  501  0.00000000000E+00  0.00000000000E+00  0.14839604618E+04  0.14839604618E+04  0.50400001928E-02 0. -1.
        1   -1    0    0  501    0  0.00000000000E+00  0.00000000000E+00 -0.93250836315E+03  0.93250836317E+03  0.50400001928E-02 0.  1.
    10030    2    1    2    0    0  0.00000000000E+00  0.00000000000E+00  0.55145209862E+03  0.24164688250E+04  0.23527052864E+04 0.  0.
        2    1    3    3  502    0  0.38245845519E+03  0.55058663187E+03 -0.71710807954E+03  0.98166394805E+03  0.25500000920E-02 0.  1.
       -2    1    3    3    0  502 -0.38245845519E+03 -0.55058663187E+03  0.12685601782E+04  0.14348048769E+04  0.25500000920E-02 0. -1.
</event>
<event>
 5   0  0.1843709E-06  0.2367086E+04  0.7818609E-02  0.8451930E-01
       -1   -1    0    0    0  501  0.00000000000E+00  0.00000000000E+00  0.12370509329E+04  0.12370509329E+04  0.50400001928E-02 0.  1.
        1   -1    0    0  501    0  0.00000000000E+00  0.00000000000E+00 -0.11323498448E+04  0.11323498448E+04  0.50400001928E-02 0. -1.
    10030    2    1    2    0    0  0.00000000000E+00  0.00000000000E+00  0.10470108806E+03  0.23694007777E+04  0.23670863371E+04 0.  0.
        4    1    3    3  502    0  0.37867973033E+03 -0.12817840161E+03 -0.10627156670E+04  0.11354268988E+04  0.12699999809E+01 0. -1.
       -4    1    3    3    0  502 -0.37867973033E+03  0.12817840161E+03  0.11674167551E+04  0.12339738788E+04  0.12699999809E+01 0.  1.
</event>
<event>
 5   0  0.4900679E-06  0.2876310E+04  0.7818609E-02  0.8279961E-01
        2   -1    0    0  501    0  0.00000000000E+00  0.00000000000E+00  0.24612812271E+04  0.24612812271E+04  0.25500000920E-02 0.  1.
       -2   -1    0    0    0  501  0.00000000000E+00  0.00000000000E+00 -0.84033070429E+03  0.84033070430E+03  0.25500000920E-02 0. -1.
    10030    2    1    2    0    0  0.00000000000E+00  0.00000000000E+00  0.16209505228E+04  0.33016119314E+04  0.28763102663E+04 0.  0.
        4    1    3    3  502    0 -0.74893416506E+03  0.82744318597E+03  0.18516350051E+04  0.21619709560E+04  0.12699999809E+01 0.  1.
       -4    1    3    3    0  502  0.74893416506E+03 -0.82744318597E+03 -0.23068448227E+03  0.11396409754E+04  0.12699999809E+01 0. -1.
</event>
<event>
 5   0  0.1853742E-06  0.3332466E+04  0.7818609E-02  0.8154683E-01
        1   -1    0    0  501    0  0.00000000000E+00  0.00000000000E+00  0.17933802819E+04  0.17933802819E+04  0.50400001928E-02 0. -1.
       -1   -1    0    0    0  501  0.00000000000E+00  0.00000000000E+00 -0.15481006106E+04  0.15481006106E+04  0.50400001928E-02 0.  1.
    10030    2    1    2    0    0  0.00000000000E+00  0.00000000000E+00  0.24527967121E+03  0.33414808925E+04  0.33324664196E+04 0.  0.
        5    1    3    3  502    0  0.65649492790E+03 -0.23245196972E+03 -0.13951560571E+04  0.15593274262E+04  0.46999998093E+01 0.  1.
       -5    1    3    3    0  502 -0.65649492790E+03  0.23245196972E+03  0.16404357283E+04  0.17821534663E+04  0.46999998093E+01 0. -1.
</event>
<event>
 5   0  0.5114870E-06  0.3128652E+04  0.7818609E-02  0.8207918E-01
       -2   -1    0    0    0  501  0.00000000000E+00  0.00000000000E+00  0.95521991568E+03  0.95521991568E+03  0.25500000920E-02 0. -1.
        2   -1    0    0  501    0  0.00000000000E+00  0.00000000000E+00 -0.25618352667E+04  0.25618352667E+04  0.25500000920E-02 0.  1.
    10030    2    1    2    0    0  0.00000000000E+00  0.00000000000E+00 -0.16066153510E+04  0.35170551824E+04  0.31286521491E+04 0.  0.
        2    1    3    3  502    0 -0.76866209110E+03 -0.99593620181E+02 -0.23308019682E+04  0.24562976437E+04  0.25500000920E-02 0.  1.
       -2    1    3    3    0  502  0.76866209110E+03  0.99593620181E+02  0.72418661714E+03  0.10607575387E+04  0.25500000920E-02 0. -1.
</event>
<event>
 5   0  0.1843709E-06  0.2854695E+04  0.7818609E-02  0.8286486E-01
       -1   -1    0    0    0  501  0.00000000000E+00  0.00000000000E+00  0.12741897501E+04  0.12741897501E+04  0.50400001928E-02 0.  1.
        1   -1    0    0  501    0  0.00000000000E+00  0.00000000000E+00 -0.15989151224E+04  0.15989151224E+04  0.50400001928E-02 0. -1.
    10030    2    1    2    0    0  0.00000000000E+00  0.00000000000E+00 -0.32472537237E+03  0.28731048725E+04  0.28546952624E+04 0.  0.
        4    1    3    3  502    0 -0.72091774597E+03  0.55160839374E+03 -0.12709767266E+04  0.15618507191E+04  0.12699999809E+01 0. -1.
       -4    1    3    3    0  502  0.72091774597E+03 -0.55160839374E+03  0.94625135421E+03  0.13112541534E+04  0.12699999809E+01 0.  1.
</event>
<event>
 5   0  0.1840431E-06  0.2926770E+04  0.7818609E-02  0.8264957E-01
        1   -1    0    0  501    0  0.00000000000E+00  0.00000000000E+00  0.12427615825E+04  0.12427615825E+04  0.50400001928E-02 0.  1.
       -1   -1    0    0    0  501  0.00000000000E+00  0.00000000000E+00 -0.17231745278E+04  0.17231745278E+04  0.50400001928E-02 0. -1.
    10030    2    1    2    0    0  0.00000000000E+00  0.00000000000E+00 -0.48041294524E+03  0.29659361103E+04  0.29267696207E+04 0.  0.
        1    1    3    3  502    0 -0.75915153738E+03 -0.11887303978E+04 -0.63543082466E+03  0.15469852450E+04  0.50400001928E-02 0. -1.
       -1    1    3    3    0  502  0.75915153738E+03  0.11887303978E+04  0.15501787942E+03  0.14189508653E+04  0.50400001928E-02 0.  1.
</event>
<event>
 5   0  0.5114870E-06  0.3120811E+04  0.7818609E-02  0.8210050E-01
       -2   -1    0    0    0  501  0.00000000000E+00  0.00000000000E+00  0.15512107064E+04  0.15512107064E+04  0.25500000920E-02 0. -1.
        2   -1    0    0  501    0  0.00000000000E+00  0.00000000000E+00 -0.15696548821E+04  0.15696548821E+04  0.25500000920E-02 0.  1.
    10030    2    1    2    0    0  0.00000000000E+00  0.00000000000E+00 -0.18444175683E+02  0.31208655885E+04  0.31208110859E+04 0.  0.
        2    1    3    3  502    0  0.96196362337E+03 -0.73155805896E+03  0.97786873056E+03  0.15545991318E+04  0.25500000920E-02 0. -1.
       -2    1    3    3    0  502 -0.96196362337E+03  0.73155805896E+03 -0.99631290624E+03  0.15662664567E+04  0.25500000920E-02 0.  1.
</event>
<event>
 5   0  0.4900679E-06  0.2890228E+04  0.7818609E-02  0.8275791E-01
       -2   -1    0    0    0  501  0.00000000000E+00  0.00000000000E+00  0.10360057803E+04  0.10360057803E+04  0.25500000920E-02 0.  1.
        2   -1    0    0  501    0  0.00000000000E+00  0.00000000000E+00 -0.20157743312E+04  0.20157743312E+04  0.25500000920E-02 0. -1.
    10030    2    1    2    0    0  0.00000000000E+00  0.00000000000E+00 -0.97976855087E+03  0.30517801114E+04  0.28902275750E+04 0.  0.
        4    1    3    3  502    0 -0.16446680387E+03  0.14060388364E+04 -0.79656295226E+03  0.16243486968E+04  0.12699999809E+01 0.  1.
       -4    1    3    3    0  502  0.16446680387E+03 -0.14060388364E+04 -0.18320559861E+03  0.14274314146E+04  0.12699999809E+01 0. -1.
</event>
<event>
 5   0  0.1836401E-06  0.3061538E+04  0.7818609E-02  0.8226373E-01
        1   -1    0    0  501    0  0.00000000000E+00  0.00000000000E+00  0.16446761217E+04  0.16446761217E+04  0.50400001928E-02 0.  1.
       -1   -1    0    0    0  501  0.00000000000E+00  0.00000000000E+00 -0.14247510377E+04  0.14247510377E+04  0.50400001928E-02 0. -1.
    10030    2    1    2    0    0  0.00000000000E+00  0.00000000000E+00  0.21992508404E+03  0.30694271594E+04  0.30615381828E+04 0.  0.
        2    1    3    3  502    0  0.16975923720E+03 -0.13330912228E+04 -0.62493624112E+03  0.14820579315E+04  0.25500000920E-02 0. -1.
       -2    1    3    3    0  502 -0.16975923720E+03  0.13330912228E+04  0.84486132516E+03  0.15873692279E+04  0.25500000920E-02 0.  1.
</event>
<event>
 5   0  0.1840431E-06  0.3079288E+04  0.7818609E-02  0.8221445E-01
        1   -1    0    0  501    0  0.00000000000E+00  0.00000000000E+00  0.16083283938E+04  0.16083283938E+04  0.50400001928E-02 0.  1.
       -1   -1    0    0    0  501  0.00000000000E+00  0.00000000000E+00 -0.14738930785E+04  0.14738930785E+04  0.50400001928E-02 0. -1.
    10030    2    1    2    0    0  0.00000000000E+00  0.00000000000E+00  0.13443531524E+03  0.30822214723E+04  0.30792882863E+04 0.  0.
        1    1    3    3  502    0  0.42772482487E+03 -0.14783438833E+04  0.11259211428E+03  0.15430898053E+04  0.50400001928E-02 0. -1.
       -1    1    3    3    0  502 -0.42772482487E+03  0.14783438833E+04  0.21843200958E+02  0.15391316670E+04  0.50400001928E-02 0.  1.
</event>
<event>
 5   0  0.1840431E-06  0.3086688E+04  0.7818609E-02  0.8219401E-01
        1   -1    0    0  501    0  0.00000000000E+00  0.00000000000E+00  0.11359504480E+04  0.11359504481E+04  0.50400001928E-02 0. -1.
       -1   -1    0    0    0  501  0.00000000000E+00  0.00000000000E+00 -0.20968431677E+04  0.20968431677E+04  0.50400001928E-02 0.  1.
    10030    2    1    2    0    0  0.00000000000E+00  0.00000000000E+00 -0.96089271970E+03  0.32327936158E+04  0.30866875034E+04 0.  0.
        1    1    3    3  502    0 -0.18125277993E+03 -0.10012115670E+04 -0.16958202563E+04  0.19776459526E+04  0.50400001928E-02 0.  1.
       -1    1    3    3    0  502  0.18125277993E+03  0.10012115670E+04  0.73492753663E+03  0.12551476632E+04  0.50400001928E-02 0. -1.
</event>
<event>
 5   0  0.4900679E-06  0.3072994E+04  0.7818609E-02  0.8223189E-01
        2   -1    0    0  501    0  0.00000000000E+00  0.00000000000E+00  0.25300043616E+04  0.25300043616E+04  0.25500000920E-02 0.  1.
       -2   -1    0    0    0  501  0.00000000000E+00  0.00000000000E+00 -0.93313012466E+03  0.93313012467E+03  0.25500000920E-02 0. -1.
    10030    2    1    2    0    0  0.00000000000E+00  0.00000000000E+00  0.15968742370E+04  0.34631344863E+04  0.30729941656E+04 0.  0.
        4    1    3    3  502    0 -0.25039635360E+03  0.11584059685E+04 -0.30357480794E+03  0.12234222488E+04  0.12699999809E+01 0. -1.
       -4    1    3    3    0  502  0.25039635360E+03 -0.11584059685E+04  0.19004490449E+04  0.22397122376E+04  0.12699999809E+01 0.  1.
</event>
<event>
 5   0  0.1885307E-06  0.3085088E+04  0.7818609E-02  0.8219842E-01
       -1   -1    0    0    0  501  0.00000000000E+00  0.00000000000E+00  0.13130769666E+04  0.13130769666E+04  0.50400001928E-02 0. -1.
        1   -1    0    0  501    0  0.00000000000E+00  0.00000000000E+00 -0.18121117415E+04  0.18121117415E+04  0.50400001928E-02 0.  1.
    10030    2    1    2    0    0  0.00000000000E+00  0.00000000000E+00 -0.49903477482E+03  0.31251887081E+04  0.30850881276E+04 0.  0.
        3    1    3    3  502    0 -0.52765708369E+03 -0.11965219334E+04  0.57925843258E+03  0.14302542001E+04  0.10100000352E+00 0. -1.
       -3    1    3    3    0  502  0.52765708369E+03  0.11965219334E+04 -0.10782932074E+04  0.16949345080E+04  0.10100000352E+00 0.  1.
</event>
<event>
 5   0  0.1840431E-06  0.2798310E+04  0.7818609E-02  0.8303793E-01
        1   -1    0    0  501    0  0.00000000000E+00  0.00000000000E+00  0.18426109819E+04  0.18426109819E+04  0.50400001928E-02 0. -1.
       -1   -1    0    0    0  501  0.00000000000E+00  0.00000000000E+00 -0.10624243314E+04  0.10624243314E+04  0.50400001928E-02 0.  1.
    10030    2    1    2    0    0  0.00000000000E+00  0.00000000000E+00  0.78018665055E+03  0.29050353133E+04  0.27983100189E+04 0.  0.
        1    1    3    3  502    0  0.85427220693E+03  0.11080569700E+04  0.38182148735E+03  0.14502961424E+04  0.50400001928E-02 0. -1.
       -1    1    3    3    0  502 -0.85427220693E+03 -0.11080569700E+04  0.39836516320E+03  0.14547391710E+04  0.50400001928E-02 0.  1.
</event>
<event>
 5   0  0.1840431E-06  0.3097959E+04  0.7818609E-02  0.8216298E-01
       -1   -1    0    0    0  501  0.00000000000E+00  0.00000000000E+00  0.15904234149E+04  0.15904234149E+04  0.50400001928E-02 0.  1.
        1   -1    0    0  501    0  0.00000000000E+00  0.00000000000E+00 -0.15086154295E+04  0.15086154295E+04  0.50400001928E-02 0. -1.
    10030    2    1    2    0    0  0.00000000000E+00  0.00000000000E+00  0.81807985369E+02  0.30990388444E+04  0.30979588784E+04 0.  0.
        1    1    3    3  502    0  0.12877002854E+04  0.22779174815E+03 -0.78961202300E+03  0.15275955789E+04  0.50400001928E-02 0. -1.
       -1    1    3    3    0  502 -0.12877002854E+04 -0.22779174815E+03  0.87142000837E+03  0.15714432655E+04  0.50400001928E-02 0.  1.
</event>
<event>
 5   0  0.4900679E-06  0.3060121E+04  0.7818609E-02  0.8226768E-01
        2   -1    0    0  501    0  0.00000000000E+00  0.00000000000E+00  0.18492404917E+04  0.18492404917E+04  0.25500000920E-02 0.  1.
       -2   -1    0    0    0  501  0.00000000000E+00  0.00000000000E+00 -0.12659710095E+04  0.12659710095E+04  0.25500000920E-02 0. -1.
    10030    2    1    2    0    0  0.00000000000E+00  0.00000000000E+00  0.58326948226E+03  0.31152115012E+04  0.30601208160E+04 0.  0.
        4    1    3    3  502    0 -0.78989222329E+02  0.65033727528E+03 -0.11159746674E+04  0.12940552306E+04  0.12699999809E+01 0. -1.
       -4    1    3    3    0  502  0.78989222329E+02 -0.65033727528E+03  0.16992441496E+04  0.18211562706E+04  0.12699999809E+01 0.  1.
</event>
<event>
 5   0  0.5001658E-06  0.3099797E+04  0.7818609E-02  0.8215794E-01
       -2   -1    0    0    0  501  0.00000000000E+00  0.00000000000E+00  0.88950210400E+03  0.88950210400E+03  0.25500000920E-02 0. -1.
        2   -1    0    0  501    0  0.00000000000E+00  0.00000000000E+00 -0.27005952172E+04  0.27005952172E+04  0.25500000920E-02 0.  1.
    10030    2    1    2    0    0  0.00000000000E+00  0.00000000000E+00 -0.18110931132E+04  0.35900973212E+04  0.30997968499E+04 0.  0.
        3    1    3    3  502    0 -0.14747134853E+04 -0.20324258258E+03 -0.40592231782E+03  0.15430036777E+04  0.10100000352E+00 0.  1.
       -3    1    3    3    0  502  0.14747134853E+04  0.20324258258E+03 -0.14051707954E+04  0.20470936435E+04  0.10100000352E+00 0. -1.
</event>
<event>
 5   0  0.4927533E-06  0.2929054E+04  0.7818609E-02  0.8264285E-01
        2   -1    0    0  501    0  0.00000000000E+00  0.00000000000E+00  0.19029227074E+04  0.19029227074E+04  0.25500000920E-02 0.  1.
       -2   -1    0    0    0  501  0.00000000000E+00  0.00000000000E+00 -0.11271292462E+04  0.11271292462E+04  0.25500000920E-02 0. -1.
    10030    2    1    2    0    0  0.00000000000E+00  0.00000000000E+00  0.77579346117E+03  0.30300519536E+04  0.29290543435E+04 0.  0.
        5    1    3    3  502    0  0.13161545104E+04 -0.63452963850E+03  0.28482589409E+03  0.14886364355E+04  0.46999998093E+01 0.  1.
       -5    1    3    3    0  502 -0.13161545104E+04  0.63452963850E+03  0.49096756708E+03  0.15414155180E+04  0.46999998093E+01 0. -1.
</event>
<event>
 5   0  0.5001658E-06  0.3115186E+04  0.7818609E-02  0.8211583E-01
       -2   -1    0    0    0  501  0.00000000000E+00  0.00000000000E+00  0.10012803423E+04  0.10012803423E+04  0.25500000920E-02 0. -1.
        2   -1    0    0  501    0  0.00000000000E+00  0.00000000000E+00 -0.24229929362E+04  0.24229929362E+04  0.25500000920E-02 0.  1.
    10030    2    1    2    0    0  0.00000000000E+00  0.00000000000E+00 -0.14217125939E+04  0.34242732785E+04  0.31151855140E+04 0.  0.
        3    1    3    3  502    0 -0.12483656026E+04 -0.81251600227E+03 -0.12115701801E+04  0.19200263653E+04  0.10100000352E+00 0.  1.
       -3    1    3    3    0  502  0.12483656026E+04  0.81251600227E+03 -0.21014241376E+03  0.15042469133E+04  0.10100000352E+00 0. -1.
</event>
<event>
 5   0  0.1853742E-06  0.3035838E+04  0.7818609E-02  0.8233571E-01
        1   -1    0    0  501    0  0.00000000000E+00  0.00000000000E+00  0.13773125973E+04  0.13773125973E+04  0.50400001928E-02 0. -1.
       -1   -1    0    0    0  501  0.00000000000E+00  0.00000000000E+00 -0.16728796195E+04  0.16728796195E+04  0.50400001928E-02 0.  1.
    10030    2    1    2    0    0  0.00000000000E+00  0.00000000000E+00 -0.29556702222E+03  0.30501922168E+04  0.30358380548E+04 0.  0.
        5    1    3    3  502    0 -0.10143720371E+04 -0.26802215603E+02  0.98644168448E+03  0.14151884240E+04  0.46999998093E+01 0. -1.
       -5    1    3    3    0  502  0.10143720371E+04  0.26802215603E+02 -0.12820087067E+04  0.16350037928E+04  0.46999998093E+01 0.  1.
</event>
<event>
 5   0  0.4927533E-06  0.3100418E+04  0.7818609E-02  0.8215623E-01
       -2   -1    0    0    0  501  0.00000000000E+00  0.00000000000E+00  0.15388651250E+04  0.15388651250E+04  0.25500000920E-02 0. -1.
        2   -1    0    0  501    0  0.00000000000E+00  0.00000000000E+00 -0.15616368373E+04  0.15616368373E+04  0.25500000920E-02 0.  1.
    10030    2    1    2    0    0  0.00000000000E+00  0.00000000000E+00 -0.22771712380E+02  0.31005019623E+04  0.31004183375E+04 0.  0.
        5    1    3    3  502    0  0.15004960033E+03  0.71816466339E+03  0.13542464552E+04  0.15402210613E+04  0.46999998093E+01 0. -1.
       -5    1    3    3    0  502 -0.15004960033E+03 -0.71816466339E+03 -0.13770181676E+04  0.15602809010E+04  0.46999998093E+01 0.  1.
</event>
<event>
 5   0  0.5114870E-06  0.3171591E+04  0.7818609E-02  0.8196361E-01
       -2   -1    0    0    0  501  0.00000000000E+00  0.00000000000E+00  0.99227750395E+03  0.99227750395E+03  0.25500000920E-02 0. -1.
        2   -1    0    0  501    0  0.00000000000E+00  0.00000000000E+00 -0.25343178394E+04  0.25343178394E+04  0.25500000920E-02 0.  1.
    10030    2    1    2    0    0  0.00000000000E+00  0.00000000000E+00 -0.15420403354E+04  0.35265953433E+04  0.31715905031E+04 0.  0.
        2    1    3    3  502    0 -0.15669369166E+04 -0.38341059756E+02 -0.10387749641E+04  0.18803762293E+04  0.25500000920E-02 0.  1.
       -2    1    3    3    0  502  0.15669369166E+04  0.38341059756E+02 -0.50326537128E+03  0.16462191140E+04  0.25500000920E-02 0. -1.
</event>
<event>
 5   0  0.4927533E-06  0.3136283E+04  0.7818609E-02  0.8205850E-01
        2   -1    0    0  501    0  0.00000000000E+00  0.00000000000E+00  0.27662883593E+04  0.27662883594E+04  0.25500000920E-02 0. -1.
       -2   -1    0    0    0  501  0.00000000000E+00  0.00000000000E+00 -0.88894098297E+03  0.88894098298E+03  0.25500000920E-02 0.  1.
    10030    2    1    2    0    0  0.00000000000E+00  0.00000000000E+00  0.18773473764E+04  0.36552293423E+04  0.31362825723E+04 0.  0.
        5    1    3    3  502    0 -0.69527155673E+03 -0.88177446851E+03  0.22143747773E+04  0.24828222842E+04  0.46999998093E+01 0. -1.
       -5    1    3    3    0  502  0.69527155673E+03  0.88177446851E+03 -0.33702740089E+03  0.11724070581E+04  0.46999998093E+01 0.  1.
</event>
<event>
 5   0  0.1840431E-06  0.3147178E+04  0.7818609E-02  0.8202908E-01
       -1   -1    0    0    0  501  0.00000000000E+00  0.00000000000E+00  0.13047777386E+04  0.13047777387E+04  0.50400001928E-02 0.  1.
        1   -1    0    0  501    0  0.00000000000E+00  0.00000000000E+00 -0.18977812695E+04  0.18977812695E+04  0.50400001928E-02 0. -1.
    10030    2    1    2    0    0  0.00000000000E+00  0.00000000000E+00 -0.59300353088E+03  0.32025590082E+04  0.31471782621E+04 0.  0.
        1    1    3    3  502    0  0.31348577090E+03  0.11506914786E+04  0.74811914823E+03  0.14078517207E+04  0.50400001928E-02 0.  1.
       -1    1    3    3    0  502 -0.31348577090E+03 -0.11506914786E+04 -0.13411226791E+04  0.17947072875E+04  0.50400001928E-02 0. -1.
</event>
<event>
 5   0  0.5114870E-06  0.2988602E+04  0.7818609E-02  0.8246993E-01
       -2   -1    0    0    0  501  0.00000000000E+00  0.00000000000E+00  0.97406888842E+03  0.97406888843E+03  0.25500000920E-02 0. -1.
        2   -1    0    0  501    0  0.00000000000E+00  0.00000000000E+00 -0.22923795066E+04  0.22923795066E+04  0.25500000920E-02 0.  1.
    10030    2    1    2    0    0  0.00000000000E+00  0.00000000000E+00 -0.13183106182E+04  0.32664483951E+04  0.29886020531E+04 0.  0.
        2    1    3    3  502    0  0.14842834533E+04 -0.15824314097E+03 -0.73485707162E+03  0.16637767810E+04  0.25500000920E-02 0. -1.
       -2    1    3    3    0  502 -0.14842834533E+04  0.15824314097E+03 -0.58345354660E+03  0.16026716140E+04  0.25500000920E-02 0.  1.
</event>
<event>
 5   0  0.1853742E-06  0.3074729E+04  0.7818609E-02  0.8222708E-01
       -1   -1    0    0    0  501  0.00000000000E+00  0.00000000000E+00  0.11506625390E+04  0.11506625390E+04  0.50400001928E-02 0. -1.
        1   -1    0    0  501    0  0.00000000000E+00  0.00000000000E+00 -0.20540255031E+04  0.20540255032E+04  0.50400001928E-02 0.  1.
    10030    2    1    2    0    0  0.00000000000E+00  0.00000000000E+00 -0.90336296416E+03  0.32046880422E+04  0.30747293869E+04 0.  0.
        5    1    3    3  502    0 -0.12201306976E+03  0.10787758934E+04  0.68282162520E+03  0.12825412583E+04  0.46999998093E+01 0. -1.
       -5    1    3    3    0  502  0.12201306976E+03 -0.10787758934E+04 -0.15861845894E+04  0.19221467839E+04  0.46999998093E+01 0.  1.
</event>
<event>
 5   0  0.1885307E-06  0.3075051E+04  0.7818609E-02  0.8222618E-01
        1   -1    0    0  501    0  0.00000000000E+00  0.00000000000E+00  0.87982939468E+03  0.87982939469E+03  0.50400001928E-02 0. -1.
       -1   -1    0    0    0  501  0.00000000000E+00  0.00000000000E+00 -0.26868677952E+04  0.26868677952E+04  0.50400001928E-02 0.  1.
    10030    2    1    2    0    0  0.00000000000E+00  0.00000000000E+00 -0.18070384005E+04  0.35666971899E+04  0.30750513920E+04 0.  0.
        3    1    3    3  502    0 -0.91374388302E+03 -0.77685807452E+03  0.21235065814E+03  0.12180021198E+04  0.10100000352E+00 0. -1.
       -3    1    3    3    0  502  0.91374388302E+03  0.77685807452E+03 -0.20193890587E+04  0.23486950701E+04  0.10100000352E+00 0.  1.
</event>
<event>
 5   0  0.4900679E-06  0.3093830E+04  0.7818609E-02  0.8217433E-01
        2   -1    0    0  501    0  0.00000000000E+00  0.00000000000E+00  0.15881133594E+04  0.15881133594E+04  0.25500000920E-02 0. -1.
       -2   -1    0    0    0  501  0.00000000000E+00  0.00000000000E+00 -0.15067851363E+04  0.15067851363E+04  0.25500000920E-02 0.  1.
    10030    2    1    2    0    0  0.00000000000E+00  0.00000000000E+00  0.81328223121E+02  0.30948984957E+04  0.30938297333E+04 0.  0.
        4    1    3    3  502    0  0.69731587129E+03 -0.27260669940E+03  0.13947861015E+04  0.15830330757E+04  0.12699999809E+01 0. -1.
       -4    1    3    3    0  502 -0.69731587129E+03  0.27260669940E+03 -0.13134578784E+04  0.15118654200E+04  0.12699999809E+01 0.  1.
</event>
<event>
 5   0  0.1853742E-06  0.2954546E+04  0.7818609E-02  0.8256831E-01
        1   -1    0    0  501    0  0.00000000000E+00  0.00000000000E+00  0.82653489645E+03  0.82653489647E+03  0.50400001928E-02 0.  1.
       -1   -1    0    0    0  501  0.00000000000E+00  0.00000000000E+00 -0.26403429754E+04  0.26403429754E+04  0.50400001928E-02 0. -1.
    10030    2    1    2    0    0  0.00000000000E+00  0.00000000000E+00 -0.18138080789E+04  0.34668778718E+04  0.29545460618E+04 0.  0.
        5    1    3    3  502    0  0.29824796020E+03 -0.12624306805E+04 -0.77488387339E+02  0.12995036010E+04  0.46999998093E+01 0.  1.
       -5    1    3    3    0  502 -0.29824796020E+03  0.12624306805E+04 -0.17363196916E+04  0.21673742709E+04  0.46999998093E+01 0. -1.
</event>
<event>
 5   0  0.1840431E-06  0.2464044E+04  0.7818609E-02  0.8415908E-01
        1   -1    0    0  501    0  0.00000000000E+00  0.00000000000E+00  0.14642064605E+04  0.14642064605E+04  0.50400001928E-02 0. -1.
       -1   -1    0    0    0  501  0.00000000000E+00  0.00000000000E+00 -0.10366561510E+04  0.10366561511E+04  0.50400001928E-02 0.  1.
    10030    2    1    2    0    0  0.00000000000E+00  0.00000000000E+00  0.42755030945E+03  0.25008626115E+04  0.24640443451E+04 0.  0.
        1    1    3    3  502    0  0.52739285732E+03  0.11015890746E+04  0.49376701601E+02  0.12223255597E+04  0.50400001928E-02 0. -1.
       -1    1    3    3    0  502 -0.52739285732E+03 -0.11015890746E+04  0.37817360785E+03  0.12785370518E+04  0.50400001928E-02 0.  1.
</event>
<event>
 5   0  0.1853742E-06  0.3109239E+04  0.7818609E-02  0.8213207E-01
       -1   -1    0    0    0  501  0.00000000000E+00  0.00000000000E+00  0.10001627088E+04  0.10001627089E+04  0.50400001928E-02 0.  1.
        1   -1    0    0  501    0  0.00000000000E+00  0.00000000000E+00 -0.24164482242E+04  0.24164482242E+04  0.50400001928E-02 0. -1.
    10030    2    1    2    0    0  0.00000000000E+00  0.00000000000E+00 -0.14162855154E+04  0.34166109331E+04  0.31092387504E+04 0.  0.
        5    1    3    3  502    0 -0.15138604022E+04 -0.27952971009E+03 -0.47014647705E+03  0.16096490226E+04  0.46999998093E+01 0. -1.
       -5    1    3    3    0  502  0.15138604022E+04  0.27952971009E+03 -0.94613903832E+03  0.18069619105E+04  0.46999998093E+01 0.  1.
</event>
<event>
 5   0  0.4927533E-06  0.3128500E+04  0.7818609E-02  0.8207960E-01
        2   -1    0    0  501    0  0.00000000000E+00  0.00000000000E+00  0.16288960658E+04  0.16288960658E+04  0.25500000920E-02 0.  1.
       -2   -1    0    0    0  501  0.00000000000E+00  0.00000000000E+00 -0.15021694288E+04  0.15021694288E+04  0.25500000920E-02 0. -1.
    10030    2    1    2    0    0  0.00000000000E+00  0.00000000000E+00  0.12672663706E+03  0.31310654946E+04  0.31284998787E+04 0.  0.
        5    1    3    3  502    0 -0.43271613051E+03 -0.46373740375E+03 -0.13676904641E+04  0.15076123257E+04  0.46999998093E+01 0. -1.
       -5    1    3    3    0  502  0.43271613051E+03  0.46373740375E+03  0.14944171011E+04  0.16234531688E+04  0.46999998093E+01 0.  1.
</event>
<event>
 5   0  0.1840431E-06  0.3139616E+04  0.7818609E-02  0.8204949E-01
        1   -1    0    0  501    0  0.00000000000E+00  0.00000000000E+00  0.18973758459E+04  0.18973758459E+04  0.50400001928E-02 0.  1.
       -1   -1    0    0    0  501  0.00000000000E+00  0.00000000000E+00 -0.12987923078E+04  0.12987923078E+04  0.50400001928E-02 0. -1.
    10030    2    1    2    0    0  0.00000000000E+00  0.00000000000E+00  0.59858353813E+03  0.31961681538E+04  0.31396159980E+04 0.  0.
        1    1    3    3  502    0 -0.29797897440E+03 -0.20576127032E+03 -0.12556928254E+04  0.13068640485E+04  0.50400001928E-02 0. -1.
       -1    1    3    3    0  502  0.29797897440E+03  0.20576127032E+03  0.18542763635E+04  0.18893041052E+04  0.50400001928E-02 0.  1.
</event>
<event>
 5   0  0.1649875E-06  0.3070220E+04  0.7818609E-02  0.8223958E-01
        3   -1    0    0  501    0  0.00000000000E+00  0.00000000000E+00  0.10147253074E+04  0.10147253125E+04  0.10100000352E+00 0.  1.
       -3   -1    0    0    0  501  0.00000000000E+00  0.00000000000E+00 -0.23223659041E+04  0.23223659063E+04  0.10100000352E+00 0. -1.
    10030    2    1    2    0    0  0.00000000000E+00  0.00000000000E+00 -0.13076405966E+04  0.33370912187E+04  0.30702204924E+04 0.  0.
        3    1    3    3  502    0  0.45897528611E+03  0.80522130657E+02 -0.22436356007E+04  0.22915154038E+04  0.10100000352E+00 0. -1.
       -3    1    3    3    0  502 -0.45897528611E+03 -0.80522130657E+02  0.93599500411E+03  0.10455758149E+04  0.10100000352E+00 0.  1.
</event>
<event>
 5   0  0.4927533E-06  0.3068430E+04  0.7818609E-02  0.8224456E-01
        2   -1    0    0  501    0  0.00000000000E+00  0.00000000000E+00  0.17607905381E+04  0.17607905381E+04  0.25500000920E-02 0.  1.
       -2   -1    0    0    0  501  0.00000000000E+00  0.00000000000E+00 -0.13367951770E+04  0.13367951770E+04  0.25500000920E-02 0. -1.
    10030    2    1    2    0    0  0.00000000000E+00  0.00000000000E+00  0.42399536108E+03  0.30975857151E+04  0.30684304125E+04 0.  0.
        5    1    3    3  502    0 -0.24842673504E+02  0.10050366336E+04  0.13819219200E+04  0.17089312673E+04  0.46999998093E+01 0.  1.
       -5    1    3    3    0  502  0.24842673504E+02 -0.10050366336E+04 -0.95792655888E+03  0.13886544479E+04  0.46999998093E+01 0. -1.
</event>
<event>
 5   0  0.1853742E-06  0.3134089E+04  0.7818609E-02  0.8206444E-01
        1   -1    0    0  501    0  0.00000000000E+00  0.00000000000E+00  0.16415659713E+04  0.16415659713E+04  0.50400001928E-02 0. -1.
       -1   -1    0    0    0  501  0.00000000000E+00  0.00000000000E+00 -0.14959064300E+04  0.14959064300E+04  0.50400001928E-02 0.  1.
    10030    2    1    2    0    0  0.00000000000E+00  0.00000000000E+00  0.14565954130E+03  0.31374724014E+04  0.31340894000E+04 0.  0.
        5    1    3    3  502    0  0.69269582510E+01 -0.15596014713E+04  0.22531710366E+03  0.15758155410E+04  0.46999998093E+01 0. -1.
       -5    1    3    3    0  502 -0.69269582510E+01  0.15596014713E+04 -0.79657562352E+02  0.15616568603E+04  0.46999998093E+01 0.  1.
</event>
<event>
 5   0  0.4900679E-06  0.3096472E+04  0.7818609E-02  0.8216707E-01
       -2   -1    0    0    0  501  0.00000000000E+00  0.00000000000E+00  0.10905900642E+04  0.10905900642E+04  0.25500000920E-02 0.  1.
        2   -1    0    0  501    0  0.00000000000E+00  0.00000000000E+00 -0.21979240931E+04  0.21979240931E+04  0.25500000920E-02 0. -1.
    10030    2    1    2    0    0  0.00000000000E+00  0.00000000000E+00 -0.11073340289E+04  0.32885141573E+04  0.30964716551E+04 0.  0.
        4    1    3    3  502    0 -0.13253115098E+04  0.58020848066E+03 -0.11391666080E+04  0.18414110493E+04  0.12699999809E+01 0. -1.
       -4    1    3    3    0  502  0.13253115098E+04 -0.58020848066E+03  0.31832579163E+02  0.14471031079E+04  0.12699999809E+01 0.  1.
</event>
<event>
 5   0  0.1843709E-06  0.3044798E+04  0.7818609E-02  0.8231053E-01
       -1   -1    0    0    0  501  0.00000000000E+00  0.00000000000E+00  0.10950829256E+04  0.10950829256E+04  0.50400001928E-02 0.  1.
        1   -1    0    0  501    0  0.00000000000E+00  0.00000000000E+00 -0.21164601278E+04  0.21164601278E+04  0.50400001928E-02 0. -1.
    10030    2    1    2    0    0  0.00000000000E+00  0.00000000000E+00 -0.10213772022E+04  0.32115430534E+04  0.30447984160E+04 0.  0.
        4    1    3    3  502    0  0.71424881778E+03  0.11483778125E+04 -0.12480995638E+04  0.18402926691E+04  0.12699999809E+01 0. -1.
       -4    1    3    3    0  502 -0.71424881778E+03 -0.11483778125E+04  0.22672236160E+03  0.13712503842E+04  0.12699999809E+01 0.  1.
</event>
<event>
 5   0  0.1836401E-06  0.3086382E+04  0.7818609E-02  0.8219485E-01
        1   -1    0    0  501    0  0.00000000000E+00  0.00000000000E+00  0.21155458778E+04  0.21155458778E+04  0.50400001928E-02 0.  1.
       -1   -1    0    0    0  501  0.00000000000E+00  0.00000000000E+00 -0.11256850222E+04  0.11256850223E+04  0.50400001928E-02 0. -1.
    10030    2    1    2    0    0  0.00000000000E+00  0.00000000000E+00  0.98986085552E+03  0.32412309000E+04  0.30863819002E+04 0.  0.
        2    1    3    3  502    0 -0.12172673303E+04 -0.48423666680E+02 -0.49988414141E+03  0.13168024756E+04  0.25500000920E-02 0. -1.
       -2    1    3    3    0  502  0.12172673303E+04  0.48423666680E+02  0.14897449969E+04  0.19244284244E+04  0.25500000920E-02 0.  1.
</event>
<event>
 5   0  0.1885307E-06  0.3111183E+04  0.7818609E-02  0.8212675E-01
       -1   -1    0    0    0  501  0.00000000000E+00  0.00000000000E+00  0.14833877674E+04  0.14833877674E+04  0.50400001928E-02 0.  1.
        1   -1    0    0  501    0  0.00000000000E+00  0.00000000000E+00 -0.16313100401E+04  0.16313100401E+04  0.50400001928E-02 0. -1.
    10030    2    1    2    0    0  0.00000000000E+00  0.00000000000E+00 -0.14792227271E+03  0.31146978075E+04  0.31111832851E+04 0.  0.
        3    1    3    3  502    0  0.83091553057E+03  0.81596735871E+03 -0.11064563784E+04  0.16063838510E+04  0.10100000352E+00 0. -1.
       -3    1    3    3    0  502 -0.83091553057E+03 -0.81596735871E+03  0.95853410566E+03  0.15083139565E+04  0.10100000352E+00 0.  1.
</event>
<event>
 5   0  0.5001658E-06  0.3105299E+04  0.7818609E-02  0.8214285E-01
        2   -1    0    0  501    0  0.00000000000E+00  0.00000000000E+00  0.24132769423E+04  0.24132769423E+04  0.25500000920E-02 0.  1.
       -2   -1    0    0    0  501  0.00000000000E+00  0.00000000000E+00 -0.99894045987E+03  0.99894045988E+03  0.25500000920E-02 0. -1.
    10030    2    1    2    0    0  0.00000000000E+00  0.00000000000E+00  0.14143364824E+04  0.34122174021E+04  0.31052986836E+04 0.  0.
        3    1    3    3  502    0  0.11360690891E+04 -0.33903018511E+03 -0.39448131973E+03  0.12494838788E+04  0.10100000352E+00 0. -1.
       -3    1    3    3    0  502 -0.11360690891E+04  0.33903018511E+03  0.18088178021E+04  0.21627335234E+04  0.10100000352E+00 0.  1.
</event>
<event>
 5   0  0.1836401E-06  0.3073251E+04  0.7818609E-02  0.8223117E-01
        1   -1    0    0  501    0  0.00000000000E+00  0.00000000000E+00  0.18685687172E+04  0.18685687172E+04  0.50400001928E-02 0. -1.
       -1   -1    0    0    0  501  0.00000000000E+00  0.00000000000E+00 -0.12636508867E+04  0.12636508867E+04  0.50400001928E-02 0.  1.
    10030    2    1    2    0    0  0.00000000000E+00  0.00000000000E+00  0.60491783050E+03  0.31322196038E+04  0.30732513833E+04 0.  0.
        2    1    3    3  502    0  0.19485685792E+03 -0.43706894584E+02 -0.12503692662E+04  0.12662159332E+04  0.25500000920E-02 0.  1.
       -2    1    3    3    0  502 -0.19485685792E+03  0.43706894584E+02  0.18552870967E+04  0.18660036706E+04  0.25500000920E-02 0. -1.
</event>
<event>
 5   0  0.1836401E-06  0.3122979E+04  0.7818609E-02  0.8209460E-01
        1   -1    0    0  501    0  0.00000000000E+00  0.00000000000E+00  0.20513306048E+04  0.20513306048E+04  0.50400001928E-02 0. -1.
       -1   -1    0    0    0  501  0.00000000000E+00  0.00000000000E+00 -0.11886181205E+04  0.11886181206E+04  0.50400001928E-02 0.  1.
    10030    2    1    2    0    0  0.00000000000E+00  0.00000000000E+00  0.86271248422E+03  0.32399487253E+04  0.31229785321E+04 0.  0.
        2    1    3    3  502    0  0.11537790483E+04 -0.69397437048E+03  0.12518262909E+04  0.18384437935E+04  0.25500000920E-02 0. -1.
       -2    1    3    3    0  502 -0.11537790483E+04  0.69397437048E+03 -0.38911380673E+03  0.14015049318E+04  0.25500000920E-02 0.  1.
</event>
<event>
 5   0  0.4927533E-06  0.3089290E+04  0.7818609E-02  0.8218683E-01
        2   -1    0    0  501    0  0.00000000000E+00  0.00000000000E+00  0.27602430747E+04  0.27602430747E+04  0.25500000920E-02 0.  1.
       -2   -1    0    0    0  501  0.00000000000E+00  0.00000000000E+00 -0.86439068293E+03  0.86439068293E+03  0.25500000920E-02 0. -1.
    10030    2    1    2    0    0  0.00000000000E+00  0.00000000000E+00  0.18958523918E+04  0.36246337577E+04  0.30892901427E+04 0.  0.
        5    1    3    3  502    0 -0.60795953499E+03 -0.35862269397E+03  0.25599437471E+04  0.26554771908E+04  0.46999998093E+01 0.  1.
       -5    1    3    3    0  502  0.60795953499E+03  0.35862269397E+03 -0.66409135530E+03  0.96915656681E+03  0.46999998093E+01 0. -1.
</event>
<event>
 5   0  0.4900679E-06  0.3069974E+04  0.7818609E-02  0.8224027E-01
       -2   -1    0    0    0  501  0.00000000000E+00  0.00000000000E+00  0.12499079779E+04  0.12499079779E+04  0.25500000920E-02 0.  1.
        2   -1    0    0  501    0  0.00000000000E+00  0.00000000000E+00 -0.18850865287E+04  0.18850865287E+04  0.25500000920E-02 0. -1.
    10030    2    1    2    0    0  0.00000000000E+00  0.00000000000E+00 -0.63517855088E+03  0.31349945066E+04  0.30699737401E+04 0.  0.
        4    1    3    3  502    0 -0.21253947878E+03 -0.20739506131E+03 -0.18554726205E+04  0.18790864802E+04  0.12699999809E+01 0. -1.
       -4    1    3    3    0  502  0.21253947878E+03  0.20739506131E+03  0.12202940697E+04  0.12559080264E+04  0.12699999809E+01 0.  1.
</event>
<event>
 5   0  0.1836401E-06  0.2754060E+04  0.7818609E-02  0.8317674E-01
       -1   -1    0    0    0  501  0.00000000000E+00  0.00000000000E+00  0.81767340277E+03  0.81767340278E+03  0.50400001928E-02 0.  1.
        1   -1    0    0  501    0  0.00000000000E+00  0.00000000000E+00 -0.23190335158E+04  0.23190335158E+04  0.50400001928E-02 0. -1.
    10030    2    1    2    0    0  0.00000000000E+00  0.00000000000E+00 -0.15013601131E+04  0.31367069186E+04  0.27540602942E+04 0.  0.
        2    1    3    3  502    0 -0.11714970554E+04  0.34382603161E+03 -0.14760245138E+04  0.19155338828E+04  0.25500000920E-02 0. -1.
       -2    1    3    3    0  502  0.11714970554E+04 -0.34382603161E+03 -0.25335599258E+02  0.12211730358E+04  0.25500000920E-02 0.  1.
</event>
<event>
 5   0  0.1885307E-06  0.3117041E+04  0.7818609E-02  0.8211077E-01
        1   -1    0    0  501    0  0.00000000000E+00  0.00000000000E+00  0.21596766933E+04  0.21596766933E+04  0.50400001928E-02 0.  1.
       -1   -1    0    0    0  501  0.00000000000E+00  0.00000000000E+00 -0.11246990464E+04  0.11246990464E+04  0.50400001928E-02 0. -1.
    10030    2    1    2    0    0  0.00000000000E+00  0.00000000000E+00  0.10349776468E+04  0.32843757397E+04  0.31170411082E+04 0.  0.
        3    1    3    3  502    0 -0.14705726183E+04 -0.45490493661E+03  0.77443212137E+03  0.17231562459E+04  0.10100000352E+00 0. -1.
       -3    1    3    3    0  502  0.14705726183E+04  0.45490493661E+03  0.26054552547E+03  0.15612194938E+04  0.10100000352E+00 0.  1.
</event>
<event>
 5   0  0.1853742E-06  0.2230982E+04  0.7818609E-02  0.8505642E-01
       -1   -1    0    0    0  501  0.00000000000E+00  0.00000000000E+00  0.78215165973E+03  0.78215165974E+03  0.50400001928E-02 0. -1.
        1   -1    0    0  501    0  0.00000000000E+00  0.00000000000E+00 -0.15908936360E+04  0.15908936360E+04  0.50400001928E-02 0.  1.
    10030    2    1    2    0    0  0.00000000000E+00  0.00000000000E+00 -0.80874197623E+03  0.23730452957E+04  0.22309819343E+04 0.  0.
        5    1    3    3  502    0 -0.55997858787E+03 -0.22568512736E+03  0.59332687905E+03  0.84650379266E+03  0.46999998093E+01 0. -1.
       -5    1    3    3    0  502  0.55997858787E+03  0.22568512736E+03 -0.14020688553E+04  0.15265415030E+04  0.46999998093E+01 0.  1.
</event>
<event>
 5   0  0.5114870E-06  0.3101482E+04  0.7818609E-02  0.8215331E-01
        2   -1    0    0  501    0  0.00000000000E+00  0.00000000000E+00  0.16255146870E+04  0.16255146870E+04  0.25500000920E-02 0.  1.
       -2   -1    0    0    0  501  0.00000000000E+00  0.00000000000E+00 -0.14794064703E+04  0.14794064703E+04  0.25500000920E-02 0. -1.
    10030    2    1    2    0    0  0.00000000000E+00  0.00000000000E+00  0.14610821671E+03  0.31049211572E+04  0.31014815462E+04 0.  0.
        2    1    3    3  502    0 -0.86866400654E+03  0.83356720398E+03  0.10515763450E+04  0.15985068812E+04  0.25500000920E-02 0.  1.
       -2    1    3    3    0  502  0.86866400654E+03 -0.83356720398E+03 -0.90546812828E+03  0.15064142761E+04  0.25500000920E-02 0. -1.
</event>
<event>
 5   0  0.1840431E-06  0.3068831E+04  0.7818609E-02  0.8224344E-01
        1   -1    0    0  501    0  0.00000000000E+00  0.00000000000E+00  0.16776337611E+04  0.16776337611E+04  0.50400001928E-02 0.  1.
       -1   -1    0    0    0  501  0.00000000000E+00  0.00000000000E+00 -0.14034238563E+04  0.14034238563E+04  0.50400001928E-02 0. -1.
    10030    2    1    2    0    0  0.00000000000E+00  0.00000000000E+00  0.27420990475E+03  0.30810576174E+04  0.30688312058E+04 0.  0.
        1    1    3    3  502    0  0.94454923528E+02  0.12438793230E+04 -0.75991631455E+03  0.14606951455E+04  0.50400001928E-02 0. -1.
       -1    1    3    3    0  502 -0.94454923528E+02 -0.12438793230E+04  0.10341262193E+04  0.16203624719E+04  0.50400001928E-02 0.  1.
</event>
<event>
 5   0  0.4927533E-06  0.3086006E+04  0.7818609E-02  0.8219589E-01
       -2   -1    0    0    0  501  0.00000000000E+00  0.00000000000E+00  0.16698337025E+04  0.16698337025E+04  0.25500000920E-02 0.  1.
        2   -1    0    0  501    0  0.00000000000E+00  0.00000000000E+00 -0.14258058832E+04  0.14258058832E+04  0.25500000920E-02 0. -1.
    10030    2    1    2    0    0  0.00000000000E+00  0.00000000000E+00  0.24402781930E+03  0.30956395856E+04  0.30860062974E+04 0.  0.
        5    1    3    3  502    0 -0.23505138998E+03 -0.13515636058E+04  0.83052125495E+03  0.16036710952E+04  0.46999998093E+01 0.  1.
       -5    1    3    3    0  502  0.23505138998E+03  0.13515636058E+04 -0.58649343565E+03  0.14919684905E+04  0.46999998093E+01 0. -1.
</event>
<event>
 5   0  0.1885307E-06  0.3094722E+04  0.7818609E-02  0.8217188E-01
       -1   -1    0    0    0  501  0.00000000000E+00  0.00000000000E+00  0.18745673190E+04  0.18745673190E+04  0.50400001928E-02 0. -1.
        1   -1    0    0  501    0  0.00000000000E+00  0.00000000000E+00 -0.12772686429E+04  0.12772686429E+04  0.50400001928E-02 0.  1.
    10030    2    1    2    0    0  0.00000000000E+00  0.00000000000E+00  0.59729867613E+03  0.31518359619E+04  0.30947219943E+04 0.  0.
        3    1    3    3  502    0 -0.23953257375E+03  0.30263514307E+03 -0.12274582960E+04  0.12867081107E+04  0.10100000352E+00 0.  1.
       -3    1    3    3    0  502  0.23953257375E+03 -0.30263514307E+03  0.18247569721E+04  0.18651278512E+04  0.10100000352E+00 0. -1.
</event>
<event>
 5   0  0.5114870E-06  0.3122897E+04  0.7818609E-02  0.8209482E-01
       -2   -1    0    0    0  501  0.00000000000E+00  0.00000000000E+00  0.11319018195E+04  0.11319018196E+04  0.25500000920E-02 0. -1.
        2   -1    0    0  501    0  0.00000000000E+00  0.00000000000E+00 -0.21540043645E+04  0.21540043645E+04  0.25500000920E-02 0.  1.
    10030    2    1    2    0    0  0.00000000000E+00  0.00000000000E+00 -0.10221025450E+04  0.32859061841E+04  0.31228970265E+04 0.  0.
        2    1    3    3  502    0 -0.12938085045E+04  0.64186122975E+03  0.11338654404E+03  0.14487176374E+04  0.25500000920E-02 0. -1.
       -2    1    3    3    0  502  0.12938085045E+04 -0.64186122975E+03 -0.11354890890E+04  0.18371885467E+04  0.25500000920E-02 0.  1.
</event>
<event>
 5   0  0.4927533E-06  0.3119991E+04  0.7818609E-02  0.8210273E-01
       -2   -1    0    0    0  501  0.00000000000E+00  0.00000000000E+00  0.14197063643E+04  0.14197063643E+04  0.25500000920E-02 0.  1.
        2   -1    0    0  501    0  0.00000000000E+00  0.00000000000E+00 -0.17141469035E+04  0.17141469035E+04  0.25500000920E-02 0. -1.
    10030    2    1    2    0    0  0.00000000000E+00  0.00000000000E+00 -0.29444053921E+03  0.31338532677E+04  0.31199905565E+04 0.  0.
        5    1    3    3  502    0  0.83648921049E+03 -0.38866657234E+03 -0.14108989358E+04  0.16856553030E+04  0.46999998093E+01 0. -1.
       -5    1    3    3    0  502 -0.83648921049E+03  0.38866657234E+03  0.11164583966E+04  0.14481979647E+04  0.46999998093E+01 0.  1.
</event>
<event>
 5   0  0.1840431E-06  0.3096334E+04  0.7818609E-02  0.8216745E-01
        1   -1    0    0  501    0  0.00000000000E+00  0.00000000000E+00  0.20443678290E+04  0.20443678290E+04  0.50400001928E-02 0. -1.
       -1   -1    0    0    0  501  0.00000000000E+00  0.00000000000E+00 -0.11724023855E+04  0.11724023855E+04  0.50400001928E-02 0.  1.
    10030    2    1    2    0    0  0.00000000000E+00  0.00000000000E+00  0.87196544347E+03  0.32167702146E+04  0.30963344262E+04 0.  0.
        1    1    3    3  502    0 -0.79680559688E+03  0.56066300778E+03 -0.81396945524E+03  0.12695623032E+04  0.50400001928E-02 0.  1.
       -1    1    3    3    0  502  0.79680559688E+03 -0.56066300778E+03  0.16859348987E+04  0.19472079114E+04  0.50400001928E-02 0. -1.
</event>
<event>
 5   0  0.1843709E-06  0.3027222E+04  0.7818609E-02  0.8236000E-01
        1   -1    0    0  501    0  0.00000000000E+00  0.00000000000E+00  0.20214184419E+04  0.20214184419E+04  0.50400001928E-02 0.  1.
       -1   -1    0    0    0  501  0.00000000000E+00  0.00000000000E+00 -0.11333714226E+04  0.11333714226E+04  0.50400001928E-02 0. -1.
    10030    2    1    2    0    0  0.00000000000E+00  0.00000000000E+00  0.88804701935E+03  0.31547898645E+04  0.30272217594E+04 0.  0.
        4    1    3    3  502    0  0.15007219803E+04 -0.15863979237E+03  0.56592825598E+03  0.16117101010E+04  0.12699999809E+01 0. -1.
       -4    1    3    3    0  502 -0.15007219803E+04  0.15863979237E+03  0.32211876338E+03  0.15430797635E+04  0.12699999809E+01 0.  1.
</event>
<event>
 5   0  0.5001658E-06  0.3093647E+04  0.7818609E-02  0.8217484E-01
       -2   -1    0    0    0  501  0.00000000000E+00  0.00000000000E+00  0.15625178397E+04  0.15625178397E+04  0.25500000920E-02 0. -1.
        2   -1    0    0  501    0  0.00000000000E+00  0.00000000000E+00 -0.15312865835E+04  0.15312865835E+04  0.25500000920E-02 0.  1.
    10030    2    1    2    0    0  0.00000000000E+00  0.00000000000E+00  0.31231256142E+02  0.30938044232E+04  0.30936467829E+04 0.  0.
        3    1    3    3  502    0  0.10303915063E+04 -0.10821711348E+04  0.41546293054E+03  0.15509385797E+04  0.10100000352E+00 0.  1.
       -3    1    3    3    0  502 -0.10303915063E+04  0.10821711348E+04 -0.38423167440E+03  0.15428658435E+04  0.10100000352E+00 0. -1.
</event>
<event>
 5   0  0.1853742E-06  0.3078759E+04  0.7818609E-02  0.8221592E-01
       -1   -1    0    0    0  501  0.00000000000E+00  0.00000000000E+00  0.15847236655E+04  0.15847236655E+04  0.50400001928E-02 0.  1.
        1   -1    0    0  501    0  0.00000000000E+00  0.00000000000E+00 -0.14953326820E+04  0.14953326820E+04  0.50400001928E-02 0. -1.
    10030    2    1    2    0    0  0.00000000000E+00  0.00000000000E+00  0.89390983477E+02  0.30800563475E+04  0.30787588987E+04 0.  0.
        5    1    3    3  502    0  0.10870860472E+04  0.44233628504E+03  0.10412325049E+04  0.15689501848E+04  0.46999998093E+01 0.  1.
       -5    1    3    3    0  502 -0.10870860472E+04 -0.44233628504E+03 -0.95184152142E+03  0.15111061627E+04  0.46999998093E+01 0. -1.
</event>
<event>
 5   0  0.5328368E-06  0.3053802E+04  0.7818609E-02  0.8228532E-01
        2   -1    0    0  501    0  0.00000000000E+00  0.00000000000E+00  0.24820022224E+04  0.24820022224E+04  0.25500000920E-02 0. -1.
       -2   -1    0    0    0  501  0.00000000000E+00  0.00000000000E+00 -0.93933307560E+03  0.93933307560E+03  0.25500000920E-02 0.  1.
    10030    2    1    2    0    0  0.00000000000E+00  0.00000000000E+00  0.15426691468E+04  0.34213352980E+04  0.30538020769E+04 0.  0.
        1    1    3    3  502    0 -0.91663282835E+02  0.14937812866E+04  0.43217643090E+03  0.15577423269E+04  0.50400001928E-02 0. -1.
       -1    1    3    3    0  502  0.91663282835E+02 -0.14937812866E+04  0.11104927159E+04  0.18635929710E+04  0.50400001928E-02 0.  1.
</event>
<event>
 5   0  0.1840431E-06  0.3075473E+04  0.7818609E-02  0.8222502E-01
        1   -1    0    0  501    0  0.00000000000E+00  0.00000000000E+00  0.17244555159E+04  0.17244555160E+04  0.50400001928E-02 0. -1.
       -1   -1    0    0    0  501  0.00000000000E+00  0.00000000000E+00 -0.13712346449E+04  0.13712346449E+04  0.50400001928E-02 0.  1.
    10030    2    1    2    0    0  0.00000000000E+00  0.00000000000E+00  0.35322087106E+03  0.30956901608E+04  0.30754727422E+04 0.  0.
        1    1    3    3  502    0 -0.10131187891E+04  0.86463141379E+03 -0.59697013971E+03  0.14595788812E+04  0.50400001928E-02 0.  1.
       -1    1    3    3    0  502  0.10131187891E+04 -0.86463141379E+03  0.95019101076E+03  0.16361112797E+04  0.50400001928E-02 0. -1.
</event>
<event>
 5   0  0.5114870E-06  0.3058509E+04  0.7818609E-02  0.8227218E-01
       -2   -1    0    0    0  501  0.00000000000E+00  0.00000000000E+00  0.23912860958E+04  0.23912860958E+04  0.25500000920E-02 0.  1.
        2   -1    0    0  501    0  0.00000000000E+00  0.00000000000E+00 -0.97797568957E+03  0.97797568958E+03  0.25500000920E-02 0. -1.
    10030    2    1    2    0    0  0.00000000000E+00  0.00000000000E+00  0.14133104062E+04  0.33692617854E+04  0.30585092241E+04 0.  0.
        2    1    3    3  502    0  0.49913811358E+03 -0.14173991558E+04  0.10191308508E+04  0.18157056244E+04  0.25500000920E-02 0. -1.
       -2    1    3    3    0  502 -0.49913811358E+03  0.14173991558E+04  0.39417955545E+03  0.15535561610E+04  0.25500000920E-02 0.  1.
</event>
<event>
 5   0  0.1885307E-06  0.3105436E+04  0.7818609E-02  0.8214248E-01
       -1   -1    0    0    0  501  0.00000000000E+00  0.00000000000E+00  0.96788902341E+03  0.96788902342E+03  0.50400001928E-02 0.  1.
        1   -1    0    0  501    0  0.00000000000E+00  0.00000000000E+00 -0.24909187485E+04  0.24909187485E+04  0.50400001928E-02 0. -1.
    10030    2    1    2    0    0  0.00000000000E+00  0.00000000000E+00 -0.15230297251E+04  0.34588077719E+04  0.31054358244E+04 0.  0.
        3    1    3    3  502    0  0.13670303876E+04  0.59313620803E+03 -0.27557714685E+03  0.15154291194E+04  0.10100000352E+00 0.  1.
       -3    1    3    3    0  502 -0.13670303876E+04 -0.59313620803E+03 -0.12474525782E+04  0.19433786525E+04  0.10100000352E+00 0. -1.
</event>
<event>
 5   0  0.4900679E-06  0.2996319E+04  0.7818609E-02  0.8244783E-01
       -2   -1    0    0    0  501  0.00000000000E+00  0.00000000000E+00  0.11933877512E+04  0.11933877512E+04  0.25500000920E-02 0. -1.
        2   -1    0    0  501    0  0.00000000000E+00  0.00000000000E+00 -0.18807644683E+04  0.18807644683E+04  0.25500000920E-02 0.  1.
    10030    2    1    2    0    0  0.00000000000E+00  0.00000000000E+00 -0.68737671714E+03  0.30741522195E+04  0.29963185941E+04 0.  0.
        4    1    3    3  502    0 -0.70350861379E+03 -0.86856098565E+03  0.67980069965E+03  0.13082251945E+04  0.12699999809E+01 0. -1.
       -4    1    3    3    0  502  0.70350861379E+03  0.86856098565E+03 -0.13671774168E+04  0.17659270249E+04  0.12699999809E+01 0.  1.
</event>
<event>
 5   0  0.5328368E-06  0.3096442E+04  0.7818609E-02  0.8216715E-01
       -2   -1    0    0    0  501  0.00000000000E+00  0.00000000000E+00  0.86452208234E+03  0.86452208235E+03  0.25500000920E-02 0.  1.
        2   -1    0    0  501    0  0.00000000000E+00  0.00000000000E+00 -0.27726165387E+04  0.27726165387E+04  0.25500000920E-02 0. -1.
    10030    2    1    2    0    0  0.00000000000E+00  0.00000000000E+00 -0.19080944564E+04  0.36371386211E+04  0.30964419734E+04 0.  0.
        1    1    3    3  502    0  0.28598095710E+03 -0.30965173262E+03 -0.27039211763E+04  0.27365779782E+04  0.50400001928E-02 0. -1.
       -1    1    3    3    0  502 -0.28598095710E+03  0.30965173262E+03  0.79582671989E+03  0.90056064286E+03  0.50400001928E-02 0.  1.
</event>
<event>
 5   0  0.1885307E-06  0.3096500E+04  0.7818609E-02  0.8216699E-01
       -1   -1    0    0    0  501  0.00000000000E+00  0.00000000000E+00  0.12224761356E+04  0.12224761356E+04  0.50400001928E-02 0. -1.
        1   -1    0    0  501    0  0.00000000000E+00  0.00000000000E+00 -0.19608378640E+04  0.19608378641E+04  0.50400001928E-02 0.  1.
    10030    2    1    2    0    0  0.00000000000E+00  0.00000000000E+00 -0.73836172848E+03  0.31833139996E+04  0.30964996332E+04 0.  0.
        3    1    3    3  502    0  0.90797489700E+03  0.45090879065E+03  0.83381503369E+03  0.13126251071E+04  0.10100000352E+00 0. -1.
       -3    1    3    3    0  502 -0.90797489700E+03 -0.45090879065E+03 -0.15721767622E+04  0.18706888926E+04  0.10100000352E+00 0.  1.
</event>
<event>
 5   0  0.1853742E-06  0.2997475E+04  0.7818609E-02  0.8244452E-01
       -1   -1    0    0    0  501  0.00000000000E+00  0.00000000000E+00  0.16285563984E+04  0.16285563984E+04  0.50400001928E-02 0. -1.
        1   -1    0    0  501    0  0.00000000000E+00  0.00000000000E+00 -0.13792671717E+04  0.13792671717E+04  0.50400001928E-02 0.  1.
    10030    2    1    2    0    0  0.00000000000E+00  0.00000000000E+00  0.24928922670E+03  0.30078235701E+04  0.29974751893E+04 0.  0.
        5    1    3    3  502    0  0.14338980209E+04 -0.43368985749E+03  0.16998756939E+03  0.15076698214E+04  0.46999998093E+01 0.  1.
       -5    1    3    3    0  502 -0.14338980209E+04  0.43368985749E+03  0.79301657303E+02  0.15001537487E+04  0.46999998093E+01 0. -1.
</event>
<event>
 5   0  0.1885307E-06  0.2887911E+04  0.7818609E-02  0.8276483E-01
       -1   -1    0    0    0  501  0.00000000000E+00  0.00000000000E+00  0.15379995176E+04  0.15379995176E+04  0.50400001928E-02 0.  1.
        1   -1    0    0  501    0  0.00000000000E+00  0.00000000000E+00 -0.13556621212E+04  0.13556621212E+04  0.50400001928E-02 0. -1.
    10030    2    1    2    0    0  0.00000000000E+00  0.00000000000E+00  0.18233739644E+03  0.28936616388E+04  0.28879111402E+04 0.  0.
        3    1    3    3  502    0  0.82100967523E+03 -0.84036413167E+03 -0.74999020949E+03  0.13938271360E+04  0.10100000352E+00 0. -1.
       -3    1    3    3    0  502 -0.82100967523E+03  0.84036413167E+03  0.93232760593E+03  0.14998345027E+04  0.10100000352E+00 0.  1.
</event>
<event>
 5   0  0.1649875E-06  0.2980952E+04  0.7818609E-02  0.8249191E-01
       -3   -1    0    0    0  501  0.00000000000E+00  0.00000000000E+00  0.18609653356E+04  0.18609653383E+04  0.10100000352E+00 0.  1.
        3   -1    0    0  501    0  0.00000000000E+00  0.00000000000E+00 -0.11937454294E+04  0.11937454336E+04  0.10100000352E+00 0. -1.
    10030    2    1    2    0    0  0.00000000000E+00  0.00000000000E+00  0.66721990623E+03  0.30547107720E+04  0.29809521125E+04 0.  0.
        3    1    3    3  502    0  0.14602016914E+04 -0.91181694570E+02  0.62528542821E+03  0.15910640961E+04  0.10100000352E+00 0.  1.
       -3    1    3    3    0  502 -0.14602016914E+04  0.91181694570E+02  0.41934478019E+02  0.14636466758E+04  0.10100000352E+00 0. -1.
</event>
<event>
 5   0  0.5114870E-06  0.3116679E+04  0.7818609E-02  0.8211175E-01
        2   -1    0    0  501    0  0.00000000000E+00  0.00000000000E+00  0.17731036695E+04  0.17731036695E+04  0.25500000920E-02 0.  1.
       -2   -1    0    0    0  501  0.00000000000E+00  0.00000000000E+00 -0.13695884594E+04  0.13695884594E+04  0.25500000920E-02 0. -1.
    10030    2    1    2    0    0  0.00000000000E+00  0.00000000000E+00  0.40351521010E+03  0.31426921289E+04  0.31166792091E+04 0.  0.
        2    1    3    3  502    0  0.43400938719E+03 -0.86207276289E+03 -0.10319279870E+04  0.14129433701E+04  0.25500000920E-02 0. -1.
       -2    1    3    3    0  502 -0.43400938719E+03  0.86207276289E+03  0.14354431971E+04  0.17297487589E+04  0.25500000920E-02 0.  1.
</event>
<event>
 5   0  0.1885307E-06  0.3109401E+04  0.7818609E-02  0.8213163E-01
        1   -1    0    0  501    0  0.00000000000E+00  0.00000000000E+00  0.18540877021E+04  0.18540877021E+04  0.50400001928E-02 0.  1.
       -1   -1    0    0    0  501  0.00000000000E+00  0.00000000000E+00 -0.13036569532E+04  0.13036569532E+04  0.50400001928E-02 0. -1.
    10030    2    1    2    0    0  0.00000000000E+00  0.00000000000E+00  0.55043074898E+03  0.31577446553E+04  0.31094014374E+04 0.  0.
        3    1    3    3  502    0 -0.44398632852E+03 -0.55628684168E+02 -0.12368511727E+04  0.13153019593E+04  0.10100000352E+00 0. -1.
       -3    1    3    3    0  502  0.44398632852E+03  0.55628684168E+02  0.17872819217E+04  0.18424426960E+04  0.10100000352E+00 0.  1.
</event>
<event>
 5   0  0.5328368E-06  0.3082142E+04  0.7818609E-02  0.8220656E-01
        2   -1    0    0  501    0  0.00000000000E+00  0.00000000000E+00  0.21352892402E+04  0.21352892402E+04  0.25500000920E-02 0. -1.
       -2   -1    0    0    0  501  0.00000000000E+00  0.00000000000E+00 -0.11122146776E+04  0.11122146776E+04  0.25500000920E-02 0.  1.
    10030    2    1    2    0    0  0.00000000000E+00  0.00000000000E+00  0.10230745626E+04  0.32475039178E+04  0.30821421342E+04 0.  0.
        1    1    3    3  502    0  0.26316598553E+03 -0.86090421814E+03 -0.80636462845E+03  0.12085678809E+04  0.50400001928E-02 0. -1.
       -1    1    3    3    0  502 -0.26316598553E+03  0.86090421814E+03  0.18294391910E+04  0.20389360369E+04  0.50400001928E-02 0.  1.
</event>
<event>
 5   0  0.4900679E-06  0.2912836E+04  0.7818609E-02  0.8269069E-01
       -2   -1    0    0    0  501  0.00000000000E+00  0.00000000000E+00  0.69482930538E+03  0.69482930539E+03  0.25500000920E-02 0.  1.
        2   -1    0    0  501    0  0.00000000000E+00  0.00000000000E+00 -0.30527683072E+04  0.30527683072E+04  0.25500000920E-02 0. -1.
    10030    2    1    2    0    0  0.00000000000E+00  0.00000000000E+00 -0.23579390018E+04  0.37475976126E+04  0.29128356510E+04 0.  0.
        4    1    3    3  502    0 -0.93614086343E+03 -0.95581467776E+03 -0.43853167402E+03  0.14079250891E+04  0.12699999809E+01 0. -1.
       -4    1    3    3    0  502  0.93614086343E+03  0.95581467776E+03 -0.19194073278E+04  0.23396725235E+04  0.12699999809E+01 0.  1.
</event>
<event>
 5   0  0.1853742E-06  0.3075037E+04  0.7818609E-02  0.8222622E-01
       -1   -1    0    0    0  501  0.00000000000E+00  0.00000000000E+00  0.99245754464E+03  0.99245754465E+03  0.50400001928E-02 0.  1.
        1   -1    0    0  501    0  0.00000000000E+00  0.00000000000E+00 -0.23819281299E+04  0.23819281299E+04  0.50400001928E-02 0. -1.
    10030    2    1    2    0    0  0.00000000000E+00  0.00000000000E+00 -0.13894705852E+04  0.33743856745E+04  0.30750366133E+04 0.  0.
        5    1    3    3  502    0 -0.12971465707E+04  0.68531444958E+03 -0.18984145621E+03  0.14792927328E+04  0.46999998093E+01 0.  1.
       -5    1    3    3    0  502  0.12971465707E+04 -0.68531444958E+03 -0.11996291290E+04  0.18950929418E+04  0.46999998093E+01 0. -1.
</event>
<event>
 5   0  0.5001658E-06  0.3121057E+04  0.7818609E-02  0.8209983E-01
       -2   -1    0    0    0  501  0.00000000000E+00  0.00000000000E+00  0.11034908852E+04  0.11034908852E+04  0.25500000920E-02 0.  1.
        2   -1    0    0  501    0  0.00000000000E+00  0.00000000000E+00 -0.22068600581E+04  0.22068600581E+04  0.25500000920E-02 0. -1.
    10030    2    1    2    0    0  0.00000000000E+00  0.00000000000E+00 -0.11033691729E+04  0.33103509432E+04  0.31210574867E+04 0.  0.
        3    1    3    3  502    0  0.10237173499E+04 -0.36996696758E+03 -0.17377067060E+04  0.20504871070E+04  0.10100000352E+00 0. -1.
       -3    1    3    3    0  502 -0.10237173499E+04  0.36996696758E+03  0.63433753314E+03  0.12598638362E+04  0.10100000352E+00 0.  1.
</event>
<event>
 5   0  0.5001658E-06  0.3131142E+04  0.7818609E-02  0.8207243E-01
       -2   -1    0    0    0  501  0.00000000000E+00  0.00000000000E+00  0.11248311248E+04  0.11248311248E+04  0.25500000920E-02 0.  1.
        2   -1    0    0  501    0  0.00000000000E+00  0.00000000000E+00 -0.21790056105E+04  0.21790056105E+04  0.25500000920E-02 0. -1.
    10030    2    1    2    0    0  0.00000000000E+00  0.00000000000E+00 -0.10541744857E+04  0.33038367352E+04  0.31311424954E+04 0.  0.
        3    1    3    3  502    0 -0.10912730251E+04 -0.84488985122E+03  0.25279747404E+03  0.14030759955E+04  0.10100000352E+00 0.  1.
       -3    1    3    3    0  502  0.10912730251E+04  0.84488985122E+03 -0.13069719597E+04  0.19007607397E+04  0.10100000352E+00 0. -1.
</event>
<event>
 5   0  0.1836401E-06  0.3106268E+04  0.7818609E-02  0.8214020E-01
        1   -1    0    0  501    0  0.00000000000E+00  0.00000000000E+00  0.17915711838E+04  0.17915711838E+04  0.50400001928E-02 0.  1.
       -1   -1    0    0    0  501  0.00000000000E+00  0.00000000000E+00 -0.13464302550E+04  0.13464302550E+04  0.50400001928E-02 0. -1.
    10030    2    1    2    0    0  0.00000000000E+00  0.00000000000E+00  0.44514092883E+03  0.31380014388E+04  0.31062682729E+04 0.  0.
        2    1    3    3  502    0 -0.52382079000E+03  0.14513530313E+04  0.43526114918E+02  0.15436023983E+04  0.25500000920E-02 0. -1.
       -2    1    3    3    0  502  0.52382079000E+03 -0.14513530313E+04  0.40161481392E+03  0.15943990404E+04  0.25500000920E-02 0.  1.
</event>
<event>
 5   0  0.1853742E-06  0.2274331E+04  0.7818609E-02  0.8488111E-01
        1   -1    0    0  501    0  0.00000000000E+00  0.00000000000E+00  0.14492011967E+04  0.14492011967E+04  0.50400001928E-02 0. -1.
       -1   -1    0    0    0  501  0.00000000000E+00  0.00000000000E+00 -0.89231627313E+03  0.89231627315E+03  0.50400001928E-02 0.  1.
    10030    2    1    2    0    0  0.00000000000E+00  0.00000000000E+00  0.55688492355E+03  0.23415174698E+04  0.22743313838E+04 0.  0.
        5    1    3    3  502    0  0.32816026587E+03  0.84381764786E+03 -0.42992840567E+03  0.10022863398E+04  0.46999998093E+01 0.  1.
       -5    1    3    3    0  502 -0.32816026587E+03 -0.84381764786E+03  0.98681332922E+03  0.13392311300E+04  0.46999998093E+01 0. -1.
</event>
<event>
 5   0  0.1840431E-06  0.3074238E+04  0.7818609E-02  0.8222844E-01
       -1   -1    0    0    0  501  0.00000000000E+00  0.00000000000E+00  0.14583382882E+04  0.14583382882E+04  0.50400001928E-02 0. -1.
        1   -1    0    0  501    0  0.00000000000E+00  0.00000000000E+00 -0.16201555601E+04  0.16201555601E+04  0.50400001928E-02 0.  1.
    10030    2    1    2    0    0  0.00000000000E+00  0.00000000000E+00 -0.16181727190E+03  0.30784938483E+04  0.30742380430E+04 0.  0.
        1    1    3    3  502    0 -0.49779665886E+03 -0.12936155470E+04  0.58445997623E+03  0.15042726351E+04  0.50400001928E-02 0. -1.
       -1    1    3    3    0  502  0.49779665886E+03  0.12936155470E+04 -0.74627724813E+03  0.15742212132E+04  0.50400001928E-02 0.  1.
</event>
<event>
 5   0  0.4927533E-06  0.3130545E+04  0.7818609E-02  0.8207405E-01
        2   -1    0    0  501    0  0.00000000000E+00  0.00000000000E+00  0.19274080047E+04  0.19274080047E+04  0.25500000920E-02 0. -1.
       -2   -1    0    0    0  501  0.00000000000E+00  0.00000000000E+00 -0.12711774398E+04  0.12711774398E+04  0.25500000920E-02 0.  1.
    10030    2    1    2    0    0  0.00000000000E+00  0.00000000000E+00  0.65623056492E+03  0.31985854445E+04  0.31305447276E+04 0.  0.
        5    1    3    3  502    0  0.15000528802E+04 -0.74446716299E+02 -0.12232308186E+03  0.15068795517E+04  0.46999998093E+01 0.  1.
       -5    1    3    3    0  502 -0.15000528802E+04  0.74446716299E+02  0.77855364678E+03  0.16917058928E+04  0.46999998093E+01 0. -1.
</event>
<event>
 5   0  0.5001658E-06  0.3099490E+04  0.7818609E-02  0.8215878E-01
        2   -1    0    0  501    0  0.00000000000E+00  0.00000000000E+00  0.19116318798E+04  0.19116318798E+04  0.25500000920E-02 0.  1.
       -2   -1    0    0    0  501  0.00000000000E+00  0.00000000000E+00 -0.12563659717E+04  0.12563659717E+04  0.25500000920E-02 0. -1.
    10030    2    1    2    0    0  0.00000000000E+00  0.00000000000E+00  0.65526590819E+03  0.31679978515E+04  0.30994897930E+04 0.  0.
        3    1    3    3  502    0  0.11843345302E+03 -0.64085974668E+03  0.17647626867E+04  0.18812535842E+04  0.10100000352E+00 0.  1.
       -3    1    3    3    0  502 -0.11843345302E+03  0.64085974668E+03 -0.11094967785E+04  0.12867442673E+04  0.10100000352E+00 0. -1.
</event>
<event>
 5   0  0.4900679E-06  0.3059392E+04  0.7818609E-02  0.8226972E-01
        2   -1    0    0  501    0  0.00000000000E+00  0.00000000000E+00  0.24155620112E+04  0.24155620112E+04  0.25500000920E-02 0. -1.
       -2   -1    0    0    0  501  0.00000000000E+00  0.00000000000E+00 -0.96870610642E+03  0.96870610642E+03  0.25500000920E-02 0.  1.
    10030    2    1    2    0    0  0.00000000000E+00  0.00000000000E+00  0.14468559048E+04  0.33842681177E+04  0.30593918812E+04 0.  0.
        4    1    3    3  502    0 -0.48385267514E+03 -0.12547007716E+04  0.15299462460E+04  0.20369400006E+04  0.12699999809E+01 0. -1.
       -4    1    3    3    0  502  0.48385267514E+03  0.12547007716E+04 -0.83090341190E+02  0.13473281171E+04  0.12699999809E+01 0.  1.
</event>
<event>
 5   0  0.5001658E-06  0.3002270E+04  0.7818609E-02  0.8243083E-01
       -2   -1    0    0    0  501  0.00000000000E+00  0.00000000000E+00  0.13124808127E+04  0.13124808127E+04  0.25500000920E-02 0.  1.
        2   -1    0    0  501    0  0.00000000000E+00  0.00000000000E+00 -0.17169063700E+04  0.17169063700E+04  0.25500000920E-02 0. -1.
    10030    2    1    2    0    0  0.00000000000E+00  0.00000000000E+00 -0.40442555729E+03  0.30293871827E+04  0.30022702528E+04 0.  0.
        3    1    3    3  502    0 -0.14674437811E+03  0.10549079820E+04  0.86518961740E+03  0.13721945369E+04  0.10100000352E+00 0.  1.
       -3    1    3    3    0  502  0.14674437811E+03 -0.10549079820E+04 -0.12696151747E+04  0.16571926457E+04  0.10100000352E+00 0. -1.
</event>
<event>
 5   0  0.1853742E-06  0.3104681E+04  0.7818609E-02  0.8214454E-01
        1   -1    0    0  501    0  0.00000000000E+00  0.00000000000E+00  0.14007236303E+04  0.14007236303E+04  0.50400001928E-02 0.  1.
       -1   -1    0    0    0  501  0.00000000000E+00  0.00000000000E+00 -0.17203685680E+04  0.17203685680E+04  0.50400001928E-02 0. -1.
    10030    2    1    2    0    0  0.00000000000E+00  0.00000000000E+00 -0.31964493774E+03  0.31210921983E+04  0.31046809214E+04 0.  0.
        5    1    3    3  502    0 -0.51538999245E+03 -0.93674321271E+03 -0.12912155096E+04  0.16764170940E+04  0.46999998093E+01 0. -1.
       -5    1    3    3    0  502  0.51538999245E+03  0.93674321271E+03  0.97157057182E+03  0.14446751043E+04  0.46999998093E+01 0.  1.
</event>
<event>
 5   0  0.1843709E-06  0.3092025E+04  0.7818609E-02  0.8217930E-01
        1   -1    0    0  501    0  0.00000000000E+00  0.00000000000E+00  0.15848540744E+04  0.15848540744E+04  0.50400001928E-02 0.  1.
       -1   -1    0    0    0  501  0.00000000000E+00  0.00000000000E+00 -0.15081227113E+04  0.15081227113E+04  0.50400001928E-02 0. -1.
    10030    2    1    2    0    0  0.00000000000E+00  0.00000000000E+00  0.76731363084E+02  0.30929767856E+04  0.30920248535E+04 0.  0.
        4    1    3    3  502    0  0.38844069339E+03  0.13905236761E+04  0.59144687792E+03  0.15602093733E+04  0.12699999809E+01 0.  1.
       -4    1    3    3    0  502 -0.38844069339E+03 -0.13905236761E+04 -0.51471551484E+03  0.15327674123E+04  0.12699999809E+01 0. -1.
</event>
<event>
 5   0  0.1853742E-06  0.3086188E+04  0.7818609E-02  0.8219539E-01
       -1   -1    0    0    0  501  0.00000000000E+00  0.00000000000E+00  0.19779955549E+04  0.19779955549E+04  0.50400001928E-02 0.  1.
        1   -1    0    0  501    0  0.00000000000E+00  0.00000000000E+00 -0.12038144691E+04  0.12038144691E+04  0.50400001928E-02 0. -1.
    10030    2    1    2    0    0  0.00000000000E+00  0.00000000000E+00  0.77418108578E+03  0.31818100240E+04  0.30861883733E+04 0.  0.
        5    1    3    3  502    0 -0.14424399333E+04  0.44586996420E+03  0.71585086078E+03  0.16708972233E+04  0.46999998093E+01 0. -1.
       -5    1    3    3    0  502  0.14424399333E+04 -0.44586996420E+03  0.58330224991E+02  0.15109128007E+04  0.46999998093E+01 0.  1.
</event>
<event>
 5   0  0.1843709E-06  0.3127835E+04  0.7818609E-02  0.8208140E-01
       -1   -1    0    0    0  501  0.00000000000E+00  0.00000000000E+00  0.13487309780E+04  0.13487309780E+04  0.50400001928E-02 0. -1.
        1   -1    0    0  501    0  0.00000000000E+00  0.00000000000E+00 -0.18134359251E+04  0.18134359252E+04  0.50400001928E-02 0.  1.
    10030    2    1    2    0    0  0.00000000000E+00  0.00000000000E+00 -0.46470494712E+03  0.31621669032E+04  0.31278345282E+04 0.  0.
        4    1    3    3  502    0 -0.13914151591E+04  0.63250336702E+02 -0.95135420517E+03  0.16867463315E+04  0.12699999809E+01 0.  1.
       -4    1    3    3    0  502  0.13914151591E+04 -0.63250336702E+02  0.48664925805E+03  0.14754205717E+04  0.12699999809E+01 0. -1.
</event>
<event>
 5   0  0.5001658E-06  0.2857575E+04  0.7818609E-02  0.8285613E-01
       -2   -1    0    0    0  501  0.00000000000E+00  0.00000000000E+00  0.12365358817E+04  0.12365358817E+04  0.25500000920E-02 0.  1.
        2   -1    0    0  501    0  0.00000000000E+00  0.00000000000E+00 -0.16509298135E+04  0.16509298135E+04  0.25500000920E-02 0. -1.
    10030    2    1    2    0    0  0.00000000000E+00  0.00000000000E+00 -0.41439393179E+03  0.28874656952E+04  0.28575751627E+04 0.  0.
        3    1    3    3  502    0  0.58012523988E+03  0.12993016683E+04 -0.33779213541E+03  0.14624751814E+04  0.10100000352E+00 0. -1.
       -3    1    3    3    0  502 -0.58012523988E+03 -0.12993016683E+04 -0.76601796384E+02  0.14249905139E+04  0.10100000352E+00 0.  1.
</event>
<event>
 5   0  0.1885307E-06  0.3087575E+04  0.7818609E-02  0.8219156E-01
       -1   -1    0    0    0  501  0.00000000000E+00  0.00000000000E+00  0.18358123201E+04  0.18358123201E+04  0.50400001928E-02 0. -1.
        1   -1    0    0  501    0  0.00000000000E+00  0.00000000000E+00 -0.12982156578E+04  0.12982156578E+04  0.50400001928E-02 0.  1.
    10030    2    1    2    0    0  0.00000000000E+00  0.00000000000E+00  0.53759666229E+03  0.31340279779E+04  0.30875752939E+04 0.  0.
        3    1    3    3  502    0  0.24819797897E+03 -0.15407586258E+03  0.18075003719E+04  0.18309558195E+04  0.10100000352E+00 0. -1.
       -3    1    3    3    0  502 -0.24819797897E+03  0.15407586258E+03 -0.12699037096E+04  0.13030721585E+04  0.10100000352E+00 0.  1.
</event>
<event>
 5   0  0.4927533E-06  0.2982860E+04  0.7818609E-02  0.8248642E-01
       -2   -1    0    0    0  501  0.00000000000E+00  0.00000000000E+00  0.10235612288E+04  0.10235612288E+04  0.25500000920E-02 0.  1.
        2   -1    0    0  501    0  0.00000000000E+00  0.00000000000E+00 -0.21731613384E+04  0.21731613384E+04  0.25500000920E-02 0. -1.
    10030    2    1    2    0    0  0.00000000000E+00  0.00000000000E+00 -0.11496001096E+04  0.31967225672E+04  0.29828601643E+04 0.  0.
        5    1    3    3  502    0 -0.14525414880E+04  0.28844426023E+03 -0.76429578317E+03  0.16665074256E+04  0.46999998093E+01 0. -1.
       -5    1    3    3    0  502  0.14525414880E+04 -0.28844426023E+03 -0.38530432646E+03  0.15302151416E+04  0.46999998093E+01 0.  1.
</event>
<event>
 5   0  0.5001658E-06  0.2670646E+04  0.7818609E-02  0.8344593E-01
        2   -1    0    0  501    0  0.00000000000E+00  0.00000000000E+00  0.22091627470E+04  0.22091627470E+04  0.25500000920E-02 0. -1.
       -2   -1    0    0    0  501  0.00000000000E+00  0.00000000000E+00 -0.80713255748E+03  0.80713255749E+03  0.25500000920E-02 0.  1.
    10030    2    1    2    0    0  0.00000000000E+00  0.00000000000E+00  0.14020301895E+04  0.30162953045E+04  0.26706457480E+04 0.  0.
        3    1    3    3  502    0 -0.64560567807E+03  0.67002548638E+03  0.17827584503E+04  0.20109620947E+04  0.10100000352E+00 0. -1.
       -3    1    3    3    0  502  0.64560567807E+03 -0.67002548638E+03 -0.38072826079E+03  0.10053332098E+04  0.10100000352E+00 0.  1.
</event>
<event>
 5   0  0.1885307E-06  0.3077327E+04  0.7818609E-02  0.8221988E-01
        1   -1    0    0  501    0  0.00000000000E+00  0.00000000000E+00  0.15095083852E+04  0.15095083852E+04  0.50400001928E-02 0. -1.
       -1   -1    0    0    0  501  0.00000000000E+00  0.00000000000E+00 -0.15683821439E+04  0.15683821439E+04  0.50400001928E-02 0.  1.
    10030    2    1    2    0    0  0.00000000000E+00  0.00000000000E+00 -0.58873758703E+02  0.30778905291E+04  0.30773274102E+04 0.  0.
        3    1    3    3  502    0  0.66830137944E+03 -0.10808060364E+04  0.83831485322E+03  0.15223469464E+04  0.10100000352E+00 0. -1.
       -3    1    3    3    0  502 -0.66830137944E+03  0.10808060364E+04 -0.89718861192E+03  0.15555435827E+04  0.10100000352E+00 0.  1.
</event>
<event>
 5   0  0.4900679E-06  0.3101691E+04  0.7818609E-02  0.8215274E-01
       -2   -1    0    0    0  501  0.00000000000E+00  0.00000000000E+00  0.16754973323E+04  0.16754973323E+04  0.25500000920E-02 0. -1.
        2   -1    0    0  501    0  0.00000000000E+00  0.00000000000E+00 -0.14354676457E+04  0.14354676457E+04  0.25500000920E-02 0.  1.
    10030    2    1    2    0    0  0.00000000000E+00  0.00000000000E+00  0.24002968664E+03  0.31109649780E+04  0.31016912876E+04 0.  0.
        4    1    3    3  502    0  0.11404477327E+03  0.14741177045E+04 -0.34945661939E+03  0.15192599378E+04  0.12699999809E+01 0.  1.
       -4    1    3    3    0  502 -0.11404477327E+03 -0.14741177045E+04  0.58948630603E+03  0.15917050401E+04  0.12699999809E+01 0. -1.
</event>
<event>
 5   0  0.1649875E-06  0.3113703E+04  0.7818609E-02  0.8211987E-01
       -4   -1    0    0    0  501  0.00000000000E+00  0.00000000000E+00  0.15303808483E+04  0.15303813753E+04  0.12699999809E+01 0. -1.
        4   -1    0    0  501    0  0.00000000000E+00  0.00000000000E+00 -0.15837790408E+04  0.15837795500E+04  0.12699999809E+01 0.  1.
    10030    2    1    2    0    0  0.00000000000E+00  0.00000000000E+00 -0.53398192449E+02  0.31141609253E+04  0.31137030850E+04 0.  0.
        1    1    3    3  502    0 -0.25538056945E+03  0.12915169813E+04 -0.85781549605E+03  0.15713315288E+04  0.50400001928E-02 0.  1.
       -1    1    3    3    0  502  0.25538056945E+03 -0.12915169813E+04  0.80441730360E+03  0.15428293964E+04  0.50400001928E-02 0. -1.
</event>
<event>
 5   0  0.1836401E-06  0.3081247E+04  0.7818609E-02  0.8220903E-01
        1   -1    0    0  501    0  0.00000000000E+00  0.00000000000E+00  0.10768796927E+04  0.10768796927E+04  0.50400001928E-02 0. -1.
       -1   -1    0    0    0  501  0.00000000000E+00  0.00000000000E+00 -0.22040722387E+04  0.22040722387E+04  0.50400001928E-02 0.  1.
    10030    2    1    2    0    0  0.00000000000E+00  0.00000000000E+00 -0.11271925460E+04  0.32809519315E+04  0.30812469133E+04 0.  0.
        2    1    3    3  502    0  0.46336674740E+03  0.17335584486E+03  0.98999466845E+03  0.11067296125E+04  0.25500000920E-02 0. -1.
       -2    1    3    3    0  502 -0.46336674740E+03 -0.17335584486E+03 -0.21171872144E+04  0.21742223190E+04  0.25500000920E-02 0.  1.
</event>
<event>
 5   0  0.1843709E-06  0.2965728E+04  0.7818609E-02  0.8253586E-01
        1   -1    0    0  501    0  0.00000000000E+00  0.00000000000E+00  0.64520150323E+03  0.64520150325E+03  0.50400001928E-02 0.  1.
       -1   -1    0    0    0  501  0.00000000000E+00  0.00000000000E+00 -0.34080614550E+04  0.34080614550E+04  0.50400001928E-02 0. -1.
    10030    2    1    2    0    0  0.00000000000E+00  0.00000000000E+00 -0.27628599517E+04  0.40532629582E+04  0.29657284932E+04 0.  0.
        4    1    3    3  502    0 -0.10040060248E+04  0.88906352286E+03 -0.22462639525E+04  0.26161355857E+04  0.12699999809E+01 0. -1.
       -4    1    3    3    0  502  0.10040060248E+04 -0.88906352286E+03 -0.51659599920E+03  0.14371273725E+04  0.12699999809E+01 0.  1.
</event>
<event>
 5   0  0.1885307E-06  0.3111873E+04  0.7818609E-02  0.8212487E-01
        1   -1    0    0  501    0  0.00000000000E+00  0.00000000000E+00  0.16543274853E+04  0.16543274853E+04  0.50400001928E-02 0.  1.
       -1   -1    0    0    0  501  0.00000000000E+00  0.00000000000E+00 -0.14633971606E+04  0.14633971606E+04  0.50400001928E-02 0. -1.
    10030    2    1    2    0    0  0.00000000000E+00  0.00000000000E+00  0.19093032466E+03  0.31177246460E+04  0.31118728411E+04 0.  0.
        3    1    3    3  502    0  0.38015613064E+02 -0.87716737320E+03 -0.11915010456E+04  0.14800481544E+04  0.10100000352E+00 0. -1.
       -3    1    3    3    0  502 -0.38015613064E+02  0.87716737320E+03  0.13824313702E+04  0.16376764916E+04  0.10100000352E+00 0.  1.
</event>
<event>
 5   0  0.1853742E-06  0.3162144E+04  0.7818609E-02  0.8198887E-01
        1   -1    0    0  501    0  0.00000000000E+00  0.00000000000E+00  0.26075042967E+04  0.26075042967E+04  0.50400001928E-02 0.  1.
       -1   -1    0    0    0  501  0.00000000000E+00  0.00000000000E+00 -0.95869030973E+03  0.95869030974E+03  0.50400001928E-02 0. -1.
    10030    2    1    2    0    0  0.00000000000E+00  0.00000000000E+00  0.16488139870E+04  0.35661946064E+04  0.31621442736E+04 0.  0.
        5    1    3    3  502    0  0.90143064290E+03 -0.10682107699E+04  0.16578302841E+04  0.21684268015E+04  0.46999998093E+01 0.  1.
       -5    1    3    3    0  502 -0.90143064290E+03  0.10682107699E+04 -0.90162970856E+01  0.13977678049E+04  0.46999998093E+01 0. -1.
</event>
<event>
 5   0  0.5001658E-06  0.3065731E+04  0.7818609E-02  0.8225206E-01
       -2   -1    0    0    0  501  0.00000000000E+00  0.00000000000E+00  0.21942342174E+04  0.21942342174E+04  0.25500000920E-02 0.  1.
        2   -1    0    0  501    0  0.00000000000E+00  0.00000000000E+00 -0.10708410996E+04  0.10708410996E+04  0.25500000920E-02 0. -1.
    10030    2    1    2    0    0  0.00000000000E+00  0.00000000000E+00  0.11233931178E+04  0.32650753170E+04  0.30657307006E+04 0.  0.
        3    1    3    3  502    0  0.17811203790E+03 -0.13156160260E+04 -0.25435525807E+03  0.13517640451E+04  0.10100000352E+00 0. -1.
       -3    1    3    3    0  502 -0.17811203790E+03  0.13156160260E+04  0.13777483758E+04  0.19133112719E+04  0.10100000352E+00 0.  1.
</event>
<event>
 5   0  0.1840431E-06  0.2929078E+04  0.7818609E-02  0.8264278E-01
       -1   -1    0    0    0  501  0.00000000000E+00  0.00000000000E+00  0.17690375154E+04  0.17690375154E+04  0.50400001928E-02 0.  1.
        1   -1    0    0  501    0  0.00000000000E+00  0.00000000000E+00 -0.12124525772E+04  0.12124525772E+04  0.50400001928E-02 0. -1.
    10030    2    1    2    0    0  0.00000000000E+00  0.00000000000E+00  0.55658493825E+03  0.29814900926E+04  0.29290777352E+04 0.  0.
        1    1    3    3  502    0  0.43990330251E+03  0.46848970773E+02 -0.11428142833E+04  0.12254526624E+04  0.50400001928E-02 0. -1.
       -1    1    3    3    0  502 -0.43990330251E+03 -0.46848970773E+02  0.16993992216E+04  0.17560374301E+04  0.50400001928E-02 0.  1.
</event>
<event>
 5   0  0.5328368E-06  0.3076941E+04  0.7818609E-02  0.8222095E-01
        2   -1    0    0  501    0  0.00000000000E+00  0.00000000000E+00  0.20959029523E+04  0.20959029523E+04  0.25500000920E-02 0. -1.
       -2   -1    0    0    0  501  0.00000000000E+00  0.00000000000E+00 -0.11292943249E+04  0.11292943249E+04  0.25500000920E-02 0.  1.
    10030    2    1    2    0    0  0.00000000000E+00  0.00000000000E+00  0.96660862741E+03  0.32251972772E+04  0.30769408896E+04 0.  0.
        1    1    3    3  502    0 -0.34852979569E+03  0.10416964439E+04 -0.64576293254E+03  0.12742112324E+04  0.50400001928E-02 0.  1.
       -1    1    3    3    0  502  0.34852979569E+03 -0.10416964439E+04  0.16123715599E+04  0.19509860448E+04  0.50400001928E-02 0. -1.
</event>
<event>
 5   0  0.1885307E-06  0.2753518E+04  0.7818609E-02  0.8317846E-01
        1   -1    0    0  501    0  0.00000000000E+00  0.00000000000E+00  0.12926950531E+04  0.12926950531E+04  0.50400001928E-02 0. -1.
       -1   -1    0    0    0  501  0.00000000000E+00  0.00000000000E+00 -0.14662897134E+04  0.14662897134E+04  0.50400001928E-02 0.  1.
    10030    2    1    2    0    0  0.00000000000E+00  0.00000000000E+00 -0.17359466027E+03  0.27589847665E+04  0.27535180834E+04 0.  0.
        3    1    3    3  502    0  0.93973861173E+03 -0.85461275141E+03 -0.61888252728E+03  0.14129710563E+04  0.10100000352E+00 0.  1.
       -3    1    3    3    0  502 -0.93973861173E+03  0.85461275141E+03  0.44528786701E+03  0.13460137102E+04  0.10100000352E+00 0. -1.
</event>
<event>
 5   0  0.1836401E-06  0.2633082E+04  0.7818609E-02  0.8357050E-01
        1   -1    0    0  501    0  0.00000000000E+00  0.00000000000E+00  0.82952264877E+03  0.82952264879E+03  0.50400001928E-02 0. -1.
       -1   -1    0    0    0  501  0.00000000000E+00  0.00000000000E+00 -0.20894917907E+04  0.20894917907E+04  0.50400001928E-02 0.  1.
    10030    2    1    2    0    0  0.00000000000E+00  0.00000000000E+00 -0.12599691419E+04  0.29190144395E+04  0.26330824255E+04 0.  0.
        2    1    3    3  502    0 -0.13111794863E+03 -0.84094808787E+03  0.48352719052E+03  0.97886880986E+03  0.25500000920E-02 0. -1.
       -2    1    3    3    0  502  0.13111794863E+03  0.84094808787E+03 -0.17434963325E+04  0.19401456296E+04  0.25500000920E-02 0.  1.
</event>
<event>
 5   0  0.1649875E-06  0.3083678E+04  0.7818609E-02  0.8220232E-01
        3   -1    0    0  501    0  0.00000000000E+00  0.00000000000E+00  0.21161852209E+04  0.21161852233E+04  0.10100000352E+00 0.  1.
       -3   -1    0    0    0  501  0.00000000000E+00  0.00000000000E+00 -0.11233741343E+04  0.11233741388E+04  0.10100000352E+00 0. -1.
    10030    2    1    2    0    0  0.00000000000E+00  0.00000000000E+00  0.99281108657E+03  0.32395593621E+04  0.30836781620E+04 0.  0.
        2    1    3    3  502    0  0.12756706926E+04  0.41295172983E+01  0.14061573202E+04  0.18985866264E+04  0.25500000920E-02 0.  1.
       -2    1    3    3    0  502 -0.12756706926E+04 -0.41295172983E+01 -0.41334623359E+03  0.13409727357E+04  0.25500000920E-02 0. -1.
</event>
<event>
 5   0  0.4927533E-06  0.3090347E+04  0.7818609E-02  0.8218392E-01
        2   -1    0    0  501    0  0.00000000000E+00  0.00000000000E+00  0.16754236476E+04  0.16754236476E+04  0.25500000920E-02 0.  1.
       -2   -1    0    0    0  501  0.00000000000E+00  0.00000000000E+00 -0.14250490749E+04  0.14250490749E+04  0.25500000920E-02 0. -1.
    10030    2    1    2    0    0  0.00000000000E+00  0.00000000000E+00  0.25037457269E+03  0.31004727224E+04  0.30903468537E+04 0.  0.
        5    1    3    3  502    0 -0.64236979966E+03  0.43430942910E+03 -0.12157080227E+04  0.14419541346E+04  0.46999998093E+01 0. -1.
       -5    1    3    3    0  502  0.64236979966E+03 -0.43430942910E+03  0.14660825954E+04  0.16585185879E+04  0.46999998093E+01 0.  1.
</event>
<event>
 5   0  0.4927533E-06  0.3004320E+04  0.7818609E-02  0.8242498E-01
       -2   -1    0    0    0  501  0.00000000000E+00  0.00000000000E+00  0.12235555150E+04  0.12235555150E+04  0.25500000920E-02 0.  1.
        2   -1    0    0  501    0  0.00000000000E+00  0.00000000000E+00 -0.18442034756E+04  0.18442034756E+04  0.25500000920E-02 0. -1.
    10030    2    1    2    0    0  0.00000000000E+00  0.00000000000E+00 -0.62064796064E+03  0.30677589906E+04  0.30043204445E+04 0.  0.
        5    1    3    3  502    0 -0.64792774715E+03  0.11622276377E+04 -0.10220935303E+04  0.16778798294E+04  0.46999998093E+01 0.  1.
       -5    1    3    3    0  502  0.64792774715E+03 -0.11622276377E+04  0.40144556963E+03  0.13898791612E+04  0.46999998093E+01 0. -1.
</event>
<event>
 5   0  0.4927533E-06  0.3124739E+04  0.7818609E-02  0.8208981E-01
        2   -1    0    0  501    0  0.00000000000E+00  0.00000000000E+00  0.23777643831E+04  0.23777643831E+04  0.25500000920E-02 0. -1.
       -2   -1    0    0    0  501  0.00000000000E+00  0.00000000000E+00 -0.10265941303E+04  0.10265941303E+04  0.25500000920E-02 0.  1.
    10030    2    1    2    0    0  0.00000000000E+00  0.00000000000E+00  0.13511702528E+04  0.34043585134E+04  0.31247393228E+04 0.  0.
        5    1    3    3  502    0 -0.10966389799E+04 -0.32340032529E+03 -0.48448533661E+03  0.12417539829E+04  0.46999998093E+01 0.  1.
       -5    1    3    3    0  502  0.10966389799E+04  0.32340032529E+03  0.18356555894E+04  0.21626045305E+04  0.46999998093E+01 0. -1.
</event>
<event>
 5   0  0.1843709E-06  0.3190174E+04  0.7818609E-02  0.8191417E-01
        1   -1    0    0  501    0  0.00000000000E+00  0.00000000000E+00  0.21988108478E+04  0.21988108478E+04  0.50400001928E-02 0.  1.
       -1   -1    0    0    0  501  0.00000000000E+00  0.00000000000E+00 -0.11571269237E+04  0.11571269237E+04  0.50400001928E-02 0. -1.
    10030    2    1    2    0    0  0.00000000000E+00  0.00000000000E+00  0.10416839240E+04  0.33559377715E+04  0.31901744355E+04 0.  0.
        4    1    3    3  502    0 -0.20177449292E+03  0.11055232655E+04 -0.66996951533E+03  0.13083407052E+04  0.12699999809E+01 0. -1.
       -4    1    3    3    0  502  0.20177449292E+03 -0.11055232655E+04  0.17116534394E+04  0.20475970663E+04  0.12699999809E+01 0.  1.
</event>
<event>
 5   0  0.5114870E-06  0.2999650E+04  0.7818609E-02  0.8243831E-01
        2   -1    0    0  501    0  0.00000000000E+00  0.00000000000E+00  0.15960215455E+04  0.15960215455E+04  0.25500000920E-02 0. -1.
       -2   -1    0    0    0  501  0.00000000000E+00  0.00000000000E+00 -0.14094261100E+04  0.14094261100E+04  0.25500000920E-02 0.  1.
    10030    2    1    2    0    0  0.00000000000E+00  0.00000000000E+00  0.18659543559E+03  0.30054476555E+04  0.29996496051E+04 0.  0.
        2    1    3    3  502    0  0.86944162422E+03  0.18293859674E+03 -0.11173752464E+04  0.14275583033E+04  0.25500000920E-02 0.  1.
       -2    1    3    3    0  502 -0.86944162422E+03 -0.18293859674E+03  0.13039706820E+04  0.15778893522E+04  0.25500000920E-02 0. -1.
</event>
<event>
 5   0  0.5001658E-06  0.3090385E+04  0.7818609E-02  0.8218382E-01
        2   -1    0    0  501    0  0.00000000000E+00  0.00000000000E+00  0.15411683817E+04  0.15411683818E+04  0.25500000920E-02 0.  1.
       -2   -1    0    0    0  501  0.00000000000E+00  0.00000000000E+00 -0.15492274001E+04  0.15492274001E+04  0.25500000920E-02 0. -1.
    10030    2    1    2    0    0  0.00000000000E+00  0.00000000000E+00 -0.80590183739E+01  0.30903957819E+04  0.30903852739E+04 0.  0.
        3    1    3    3  502    0 -0.21705205861E+03 -0.15287778198E+04  0.53824438959E+02  0.15450470216E+04  0.10100000352E+00 0.  1.
       -3    1    3    3    0  502  0.21705205861E+03  0.15287778198E+04 -0.61883457333E+02  0.15453487603E+04  0.10100000352E+00 0. -1.
</event>
<event>
 5   0  0.1885307E-06  0.3104527E+04  0.7818609E-02  0.8214497E-01
        1   -1    0    0  501    0  0.00000000000E+00  0.00000000000E+00  0.22630561710E+04  0.22630561710E+04  0.50400001928E-02 0. -1.
       -1   -1    0    0    0  501  0.00000000000E+00  0.00000000000E+00 -0.10647200945E+04  0.10647200945E+04  0.50400001928E-02 0.  1.
    10030    2    1    2    0    0  0.00000000000E+00  0.00000000000E+00  0.11983360766E+04  0.33277762655E+04  0.31045266178E+04 0.  0.
        3    1    3    3  502    0 -0.10741960711E+04  0.12228999108E+03 -0.59478365314E+03  0.12339447497E+04  0.10100000352E+00 0.  1.
       -3    1    3    3    0  502  0.10741960711E+04 -0.12228999108E+03  0.17931197297E+04  0.20938315158E+04  0.10100000352E+00 0. -1.
</event>
<event>
 5   0  0.5001658E-06  0.3060604E+04  0.7818609E-02  0.8226634E-01
        2   -1    0    0  501    0  0.00000000000E+00  0.00000000000E+00  0.25814251280E+04  0.25814251280E+04  0.25500000920E-02 0.  1.
       -2   -1    0    0    0  501  0.00000000000E+00  0.00000000000E+00 -0.90718279925E+03  0.90718279925E+03  0.25500000920E-02 0. -1.
    10030    2    1    2    0    0  0.00000000000E+00  0.00000000000E+00  0.16742423288E+04  0.34886079273E+04  0.30606041715E+04 0.  0.
        3    1    3    3  502    0  0.49485339445E+03 -0.10890724537E+04  0.19249791118E+04  0.22663855106E+04  0.10100000352E+00 0.  1.
       -3    1    3    3    0  502 -0.49485339445E+03  0.10890724537E+04 -0.25073678303E+03  0.12222224167E+04  0.10100000352E+00 0. -1.
</event>
<event>
 5   0  0.1840431E-06  0.3243278E+04  0.7818609E-02  0.8177480E-01
       -1   -1    0    0    0  501  0.00000000000E+00  0.00000000000E+00  0.16787807601E+04  0.16787807601E+04  0.50400001928E-02 0.  1.
        1   -1    0    0  501    0  0.00000000000E+00  0.00000000000E+00 -0.15664425847E+04  0.15664425847E+04  0.50400001928E-02 0. -1.
    10030    2    1    2    0    0  0.00000000000E+00  0.00000000000E+00  0.11233817545E+03  0.32452233448E+04  0.32432783865E+04 0.  0.
        1    1    3    3  502    0  0.36169471331E+03  0.15077046835E+04 -0.41921286004E+03  0.16061556276E+04  0.50400001928E-02 0. -1.
       -1    1    3    3    0  502 -0.36169471331E+03 -0.15077046835E+04  0.53155103549E+03  0.16390677172E+04  0.50400001928E-02 0.  1.
</event>
<event>
 5   0  0.4927533E-06  0.3088123E+04  0.7818609E-02  0.8219005E-01
       -2   -1    0    0    0  501  0.00000000000E+00  0.00000000000E+00  0.16388984235E+04  0.16388984235E+04  0.25500000920E-02 0. -1.
        2   -1    0    0  501    0  0.00000000000E+00  0.00000000000E+00 -0.14547126209E+04  0.14547126209E+04  0.25500000920E-02 0.  1.
    10030    2    1    2    0    0  0.00000000000E+00  0.00000000000E+00  0.18418580262E+03  0.30936110444E+04  0.30881231977E+04 0.  0.
        5    1    3    3  502    0  0.84101726717E+03  0.72446913186E+03 -0.98309842105E+03  0.14827913414E+04  0.46999998093E+01 0.  1.
       -5    1    3    3    0  502 -0.84101726717E+03 -0.72446913186E+03  0.11672842237E+04  0.16108197030E+04  0.46999998093E+01 0. -1.
</event>
<event>
 5   0  0.1885307E-06  0.3119335E+04  0.7818609E-02  0.8210452E-01
        1   -1    0    0  501    0  0.00000000000E+00  0.00000000000E+00  0.22414625705E+04  0.22414625705E+04  0.50400001928E-02 0.  1.
       -1   -1    0    0    0  501  0.00000000000E+00  0.00000000000E+00 -0.10852567941E+04  0.10852567941E+04  0.50400001928E-02 0. -1.
    10030    2    1    2    0    0  0.00000000000E+00  0.00000000000E+00  0.11562057764E+04  0.33267193646E+04  0.31193348543E+04 0.  0.
        3    1    3    3  502    0 -0.96722108458E+03 -0.11932523503E+04  0.28957093742E+03  0.15630800159E+04  0.10100000352E+00 0. -1.
       -3    1    3    3    0  502  0.96722108458E+03  0.11932523503E+04  0.86663483899E+03  0.17636393487E+04  0.10100000352E+00 0.  1.
</event>
<event>
 5   0  0.5114870E-06  0.3158833E+04  0.7818609E-02  0.8199775E-01
       -2   -1    0    0    0  501  0.00000000000E+00  0.00000000000E+00  0.26742663130E+04  0.26742663130E+04  0.25500000920E-02 0. -1.
        2   -1    0    0  501    0  0.00000000000E+00  0.00000000000E+00 -0.93280055280E+03  0.93280055280E+03  0.25500000920E-02 0.  1.
    10030    2    1    2    0    0  0.00000000000E+00  0.00000000000E+00  0.17414657602E+04  0.36070668658E+04  0.31588333891E+04 0.  0.
        2    1    3    3  502    0 -0.30046861885E+03 -0.15502703081E+04  0.83576624225E+03  0.17866517934E+04  0.25500000920E-02 0.  1.
       -2    1    3    3    0  502  0.30046861885E+03  0.15502703081E+04  0.90569951793E+03  0.18204150724E+04  0.25500000920E-02 0. -1.
</event>
<event>
 5   0  0.1853742E-06  0.3065001E+04  0.7818609E-02  0.8225409E-01
        1   -1    0    0  501    0  0.00000000000E+00  0.00000000000E+00  0.17847836976E+04  0.17847836976E+04  0.50400001928E-02 0. -1.
       -1   -1    0    0    0  501  0.00000000000E+00  0.00000000000E+00 -0.13158782198E+04  0.13158782198E+04  0.50400001928E-02 0.  1.
    10030    2    1    2    0    0  0.00000000000E+00  0.00000000000E+00  0.46890547778E+03  0.31006619174E+04  0.30650011385E+04 0.  0.
        5    1    3    3  502    0  0.73977612830E+03 -0.12626652869E+04 -0.22575056371E+03  0.14807355448E+04  0.46999998093E+01 0.  1.
       -5    1    3    3    0  502 -0.73977612830E+03  0.12626652869E+04  0.69465604149E+03  0.16199263726E+04  0.46999998093E+01 0. -1.
</event>
<event>
 5   0  0.1836401E-06  0.3070110E+04  0.7818609E-02  0.8223989E-01
       -1   -1    0    0    0  501  0.00000000000E+00  0.00000000000E+00  0.16985997240E+04  0.16985997240E+04  0.50400001928E-02 0.  1.
        1   -1    0    0  501    0  0.00000000000E+00  0.00000000000E+00 -0.13872563445E+04  0.13872563445E+04  0.50400001928E-02 0. -1.
    10030    2    1    2    0    0  0.00000000000E+00  0.00000000000E+00  0.31134337947E+03  0.30858560685E+04  0.30701096032E+04 0.  0.
        2    1    3    3  502    0 -0.67446310452E+03  0.13782781550E+04  0.19881142229E+03  0.15472805607E+04  0.25500000920E-02 0. -1.
       -2    1    3    3    0  502  0.67446310452E+03 -0.13782781550E+04  0.11253195718E+03  0.15385755078E+04  0.25500000920E-02 0.  1.
</event>
<event>
 5   0  0.1649875E-06  0.3169271E+04  0.7818609E-02  0.8196980E-01
       -3   -1    0    0    0  501  0.00000000000E+00  0.00000000000E+00  0.19587293867E+04  0.19587293893E+04  0.10100000352E+00 0. -1.
        3   -1    0    0  501    0  0.00000000000E+00  0.00000000000E+00 -0.12819887925E+04  0.12819887965E+04  0.10100000352E+00 0.  1.
    10030    2    1    2    0    0  0.00000000000E+00  0.00000000000E+00  0.67674059419E+03  0.32407181857E+04  0.31692706617E+04 0.  0.
        4    1    3    3  502    0 -0.93892307037E+03  0.12661118439E+04  0.17206371658E+03  0.15856302434E+04  0.12699999809E+01 0.  1.
       -4    1    3    3    0  502  0.93892307037E+03 -0.12661118439E+04  0.50467687761E+03  0.16550879424E+04  0.12699999809E+01 0. -1.
</event>
<event>
 5   0  0.4927533E-06  0.2227470E+04  0.7818609E-02  0.8507081E-01
       -2   -1    0    0    0  501  0.00000000000E+00  0.00000000000E+00  0.11686202170E+04  0.11686202170E+04  0.25500000920E-02 0.  1.
        2   -1    0    0  501    0  0.00000000000E+00  0.00000000000E+00 -0.10614276807E+04  0.10614276807E+04  0.25500000920E-02 0. -1.
    10030    2    1    2    0    0  0.00000000000E+00  0.00000000000E+00  0.10719253631E+03  0.22300478978E+04  0.22274701763E+04 0.  0.
        5    1    3    3  502    0 -0.35661801407E+03  0.38789276687E+03  0.10359282387E+04  0.11622420627E+04  0.46999998093E+01 0.  1.
       -5    1    3    3    0  502  0.35661801407E+03 -0.38789276687E+03 -0.92873570238E+03  0.10678058351E+04  0.46999998093E+01 0. -1.
</event>
<event>
 5   0  0.1853742E-06  0.3139550E+04  0.7818609E-02  0.8204967E-01
        1   -1    0    0  501    0  0.00000000000E+00  0.00000000000E+00  0.14581869069E+04  0.14581869069E+04  0.50400001928E-02 0. -1.
       -1   -1    0    0    0  501  0.00000000000E+00  0.00000000000E+00 -0.16899028007E+04  0.16899028007E+04  0.50400001928E-02 0.  1.
    10030    2    1    2    0    0  0.00000000000E+00  0.00000000000E+00 -0.23171589376E+03  0.31480897076E+04  0.31395503742E+04 0.  0.
        5    1    3    3  502    0  0.61015060983E+03  0.19651220762E+03  0.13209635106E+04  0.14682872678E+04  0.46999998093E+01 0. -1.
       -5    1    3    3    0  502 -0.61015060983E+03 -0.19651220762E+03 -0.15526794043E+04  0.16798024399E+04  0.46999998093E+01 0.  1.
</event>
<event>
 5   0  0.5328368E-06  0.3159074E+04  0.7818609E-02  0.8199710E-01
       -2   -1    0    0    0  501  0.00000000000E+00  0.00000000000E+00  0.19249442377E+04  0.19249442377E+04  0.25500000920E-02 0. -1.
        2   -1    0    0  501    0  0.00000000000E+00  0.00000000000E+00 -0.12961091368E+04  0.12961091368E+04  0.25500000920E-02 0.  1.
    10030    2    1    2    0    0  0.00000000000E+00  0.00000000000E+00  0.62883510095E+03  0.32210533745E+04  0.31590744304E+04 0.  0.
        1    1    3    3  502    0 -0.80076493370E+02  0.53351506442E+03 -0.11992578351E+04  0.13150170812E+04  0.50400001928E-02 0.  1.
       -1    1    3    3    0  502  0.80076493370E+02 -0.53351506442E+03  0.18280929360E+04  0.19060362933E+04  0.50400001928E-02 0. -1.
</event>
<event>
 5   0  0.4927533E-06  0.3088044E+04  0.7818609E-02  0.8219027E-01
       -2   -1    0    0    0  501  0.00000000000E+00  0.00000000000E+00  0.12795739031E+04  0.12795739031E+04  0.25500000920E-02 0.  1.
        2   -1    0    0  501    0  0.00000000000E+00  0.00000000000E+00 -0.18631231006E+04  0.18631231006E+04  0.25500000920E-02 0. -1.
    10030    2    1    2    0    0  0.00000000000E+00  0.00000000000E+00 -0.58354919748E+03  0.31426970037E+04  0.30880438454E+04 0.  0.
        5    1    3    3  502    0  0.11054988183E+04 -0.10541604104E+04 -0.62849477594E+02  0.15288407225E+04  0.46999998093E+01 0.  1.
       -5    1    3    3    0  502 -0.11054988183E+04  0.10541604104E+04 -0.52069971989E+03  0.16138562812E+04  0.46999998093E+01 0. -1.
</event>
<event>
 5   0  0.4927533E-06  0.3005770E+04  0.7818609E-02  0.8242085E-01
       -2   -1    0    0    0  501  0.00000000000E+00  0.00000000000E+00  0.10105031244E+04  0.10105031244E+04  0.25500000920E-02 0.  1.
        2   -1    0    0  501    0  0.00000000000E+00  0.00000000000E+00 -0.22351873155E+04  0.22351873155E+04  0.25500000920E-02 0. -1.
    10030    2    1    2    0    0  0.00000000000E+00  0.00000000000E+00 -0.12246841911E+04  0.32456904399E+04  0.30057702946E+04 0.  0.
        5    1    3    3  502    0 -0.45339694691E+03  0.11259788450E+04 -0.15692139200E+04  0.19838980739E+04  0.46999998093E+01 0. -1.
       -5    1    3    3    0  502  0.45339694691E+03 -0.11259788450E+04  0.34452972890E+03  0.12617923660E+04  0.46999998093E+01 0.  1.
</event>
<event>
 5   0  0.1853742E-06  0.3115716E+04  0.7818609E-02  0.8211438E-01
       -1   -1    0    0    0  501  0.00000000000E+00  0.00000000000E+00  0.33351676546E+04  0.33351676546E+04  0.50400001928E-02 0.  1.
        1   -1    0    0  501    0  0.00000000000E+00  0.00000000000E+00 -0.72767604744E+03  0.72767604745E+03  0.50400001928E-02 0. -1.
    10030    2    1    2    0    0  0.00000000000E+00  0.00000000000E+00  0.26074916072E+04  0.40628437021E+04  0.31157160438E+04 0.  0.
        5    1    3    3  502    0 -0.40219833657E+03  0.28328761618E+03  0.32312105871E+04  0.32684490701E+04  0.46999998093E+01 0.  1.
       -5    1    3    3    0  502  0.40219833657E+03 -0.28328761618E+03 -0.62371897993E+03  0.79439463200E+03  0.46999998093E+01 0. -1.
</event>
<event>
 5   0  0.1649875E-06  0.3135786E+04  0.7818609E-02  0.8205985E-01
       -3   -1    0    0    0  501  0.00000000000E+00  0.00000000000E+00  0.94955810855E+03  0.94955811393E+03  0.10100000352E+00 0. -1.
        3   -1    0    0  501    0  0.00000000000E+00  0.00000000000E+00 -0.25888767137E+04  0.25888767157E+04  0.10100000352E+00 0.  1.
    10030    2    1    2    0    0  0.00000000000E+00  0.00000000000E+00 -0.16393186052E+04  0.35384348296E+04  0.31357862737E+04 0.  0.
        2    1    3    3  502    0  0.37877779845E+03  0.53507016344E+02 -0.25354103477E+04  0.25641063263E+04  0.25500000920E-02 0.  1.
       -2    1    3    3    0  502 -0.37877779845E+03 -0.53507016344E+02  0.89609174251E+03  0.97432850333E+03  0.25500000920E-02 0. -1.
</event>
<event>
 5   0  0.4927533E-06  0.2898015E+04  0.7818609E-02  0.8273468E-01
       -2   -1    0    0    0  501  0.00000000000E+00  0.00000000000E+00  0.98420165349E+03  0.98420165350E+03  0.25500000920E-02 0. -1.
        2   -1    0    0  501    0  0.00000000000E+00  0.00000000000E+00 -0.21333255361E+04  0.21333255362E+04  0.25500000920E-02 0.  1.
    10030    2    1    2    0    0  0.00000000000E+00  0.00000000000E+00 -0.11491238827E+04  0.31175271896E+04  0.28980148517E+04 0.  0.
        5    1    3    3  502    0 -0.18987821891E+03 -0.10341054985E+04 -0.16471686729E+04  0.19541275923E+04  0.46999998093E+01 0.  1.
       -5    1    3    3    0  502  0.18987821891E+03  0.10341054985E+04  0.49804479020E+03  0.11633995974E+04  0.46999998093E+01 0. -1.
</event>
<event>
 5   0  0.1843709E-06  0.3088622E+04  0.7818609E-02  0.8218868E-01
       -1   -1    0    0    0  501  0.00000000000E+00  0.00000000000E+00  0.11740103548E+04  0.11740103548E+04  0.50400001928E-02 0.  1.
        1   -1    0    0  501    0  0.00000000000E+00  0.00000000000E+00 -0.20314095001E+04  0.20314095001E+04  0.50400001928E-02 0. -1.
    10030    2    1    2    0    0  0.00000000000E+00  0.00000000000E+00 -0.85739914524E+03  0.32054198549E+04  0.30886215618E+04 0.  0.
        4    1    3    3  502    0  0.13615728319E+04  0.23662770038E+03  0.28658127503E+03  0.14113836067E+04  0.12699999809E+01 0.  1.
       -4    1    3    3    0  502 -0.13615728319E+04 -0.23662770038E+03 -0.11439804203E+04  0.17940362482E+04  0.12699999809E+01 0. -1.
</event>
<event>
 5   0  0.5328368E-06  0.3055303E+04  0.7818609E-02  0.8228113E-01
        2   -1    0    0  501    0  0.00000000000E+00  0.00000000000E+00  0.19651595448E+04  0.19651595448E+04  0.25500000920E-02 0. -1.
       -2   -1    0    0    0  501  0.00000000000E+00  0.00000000000E+00 -0.11875465608E+04  0.11875465608E+04  0.25500000920E-02 0.  1.
    10030    2    1    2    0    0  0.00000000000E+00  0.00000000000E+00  0.77761298402E+03  0.31527061057E+04  0.30553025768E+04 0.  0.
        1    1    3    3  502    0 -0.10375307695E+04  0.46948025824E+03  0.14395202799E+04  0.18355109497E+04  0.50400001928E-02 0. -1.
       -1    1    3    3    0  502  0.10375307695E+04 -0.46948025824E+03 -0.66190729585E+03  0.13171951559E+04  0.50400001928E-02 0.  1.
</event>
<event>
 5   0  0.1853742E-06  0.3109192E+04  0.7818609E-02  0.8213220E-01
        1   -1    0    0  501    0  0.00000000000E+00  0.00000000000E+00  0.11373464394E+04  0.11373464394E+04  0.50400001928E-02 0.  1.
       -1   -1    0    0    0  501  0.00000000000E+00  0.00000000000E+00 -0.21249192091E+04  0.21249192091E+04  0.50400001928E-02 0. -1.
    10030    2    1    2    0    0  0.00000000000E+00  0.00000000000E+00 -0.98757276977E+03  0.32622656485E+04  0.31091923687E+04 0.  0.
        5    1    3    3  502    0  0.84663057518E+03 -0.10514571429E+04 -0.13027179280E+04  0.18760174691E+04  0.46999998093E+01 0. -1.
       -5    1    3    3    0  502 -0.84663057518E+03  0.10514571429E+04  0.31514515823E+03  0.13862481795E+04  0.46999998093E+01 0.  1.
</event>
<event>
 5   0  0.1840431E-06  0.3096269E+04  0.7818609E-02  0.8216763E-01
        1   -1    0    0  501    0  0.00000000000E+00  0.00000000000E+00  0.13359813218E+04  0.13359813218E+04  0.50400001928E-02 0. -1.
       -1   -1    0    0    0  501  0.00000000000E+00  0.00000000000E+00 -0.17939775126E+04  0.17939775126E+04  0.50400001928E-02 0.  1.
    10030    2    1    2    0    0  0.00000000000E+00  0.00000000000E+00 -0.45799619085E+03  0.31299588344E+04  0.30962690120E+04 0.  0.
        1    1    3    3  502    0 -0.12731636049E+04 -0.85433923731E+03 -0.44552335793E+03  0.15966628197E+04  0.50400001928E-02 0. -1.
       -1    1    3    3    0  502  0.12731636049E+04  0.85433923731E+03 -0.12472832913E+02  0.15332960148E+04  0.50400001928E-02 0.  1.
</event>
<event>
 5   0  0.1840431E-06  0.3122889E+04  0.7818609E-02  0.8209484E-01
       -1   -1    0    0    0  501  0.00000000000E+00  0.00000000000E+00  0.10336051973E+04  0.10336051973E+04  0.50400001928E-02 0. -1.
        1   -1    0    0  501    0  0.00000000000E+00  0.00000000000E+00 -0.23588393158E+04  0.23588393158E+04  0.50400001928E-02 0.  1.
    10030    2    1    2    0    0  0.00000000000E+00  0.00000000000E+00 -0.13252341185E+04  0.33924445132E+04  0.31228887758E+04 0.  0.
        1    1    3    3  502    0  0.58378717781E+03  0.82203611793E+03 -0.19578219829E+04  0.22021847708E+04  0.50400001928E-02 0.  1.
       -1    1    3    3    0  502 -0.58378717781E+03 -0.82203611793E+03  0.63258786434E+03  0.11902597424E+04  0.50400001928E-02 0. -1.
</event>
<event>
 5   0  0.1843709E-06  0.3107055E+04  0.7818609E-02  0.8213804E-01
       -1   -1    0    0    0  501  0.00000000000E+00  0.00000000000E+00  0.11883379388E+04  0.11883379388E+04  0.50400001928E-02 0. -1.
        1   -1    0    0  501    0  0.00000000000E+00  0.00000000000E+00 -0.20309437390E+04  0.20309437390E+04  0.50400001928E-02 0.  1.
    10030    2    1    2    0    0  0.00000000000E+00  0.00000000000E+00 -0.84260580027E+03  0.32192816778E+04  0.31070548734E+04 0.  0.
        4    1    3    3  502    0 -0.65813942506E+03  0.12344359830E+04 -0.11213292048E+04  0.17928637699E+04  0.12699999809E+01 0.  1.
       -4    1    3    3    0  502  0.65813942506E+03 -0.12344359830E+04  0.27872340455E+03  0.14264179079E+04  0.12699999809E+01 0. -1.
</event>
<event>
 5   0  0.4900679E-06  0.3048880E+04  0.7818609E-02  0.8229909E-01
       -2   -1    0    0    0  501  0.00000000000E+00  0.00000000000E+00  0.86696553314E+03  0.86696553315E+03  0.25500000920E-02 0.  1.
        2   -1    0    0  501    0  0.00000000000E+00  0.00000000000E+00 -0.26805184177E+04  0.26805184177E+04  0.25500000920E-02 0. -1.
    10030    2    1    2    0    0  0.00000000000E+00  0.00000000000E+00 -0.18135528845E+04  0.35474839508E+04  0.30488798462E+04 0.  0.
        4    1    3    3  502    0  0.14524166876E+04 -0.36528507645E+03 -0.12378594984E+04  0.19429990150E+04  0.12699999809E+01 0.  1.
       -4    1    3    3    0  502 -0.14524166876E+04  0.36528507645E+03 -0.57569338616E+03  0.16044849358E+04  0.12699999809E+01 0. -1.
</event>
<event>
 5   0  0.5001658E-06  0.3113987E+04  0.7818609E-02  0.8211910E-01
       -2   -1    0    0    0  501  0.00000000000E+00  0.00000000000E+00  0.18795837797E+04  0.18795837797E+04  0.25500000920E-02 0.  1.
        2   -1    0    0  501    0  0.00000000000E+00  0.00000000000E+00 -0.12897686386E+04  0.12897686386E+04  0.25500000920E-02 0. -1.
    10030    2    1    2    0    0  0.00000000000E+00  0.00000000000E+00  0.58981514113E+03  0.31693524182E+04  0.31139866490E+04 0.  0.
        3    1    3    3  502    0  0.10360345156E+04 -0.97280868467E+03  0.94222182338E+03  0.17051411171E+04  0.10100000352E+00 0.  1.
       -3    1    3    3    0  502 -0.10360345156E+04  0.97280868467E+03 -0.35240668225E+03  0.14642113012E+04  0.10100000352E+00 0. -1.
</event>
<event>
 5   0  0.1840431E-06  0.2499355E+04  0.7818609E-02  0.8403215E-01
        1   -1    0    0  501    0  0.00000000000E+00  0.00000000000E+00  0.27947373042E+04  0.27947373042E+04  0.50400001928E-02 0. -1.
       -1   -1    0    0    0  501  0.00000000000E+00  0.00000000000E+00 -0.55879794046E+03  0.55879794049E+03  0.50400001928E-02 0.  1.
    10030    2    1    2    0    0  0.00000000000E+00  0.00000000000E+00  0.22359393637E+04  0.33535352447E+04  0.24993546765E+04 0.  0.
        1    1    3    3  502    0  0.19665459108E+03  0.91346002204E+03  0.22313974012E+04  0.24191355072E+04  0.50400001928E-02 0. -1.
       -1    1    3    3    0  502 -0.19665459108E+03 -0.91346002204E+03  0.45419625762E+01  0.93439973754E+03  0.50400001928E-02 0.  1.
</event>
<event>
 5   0  0.4927533E-06  0.3078899E+04  0.7818609E-02  0.8221553E-01
        2   -1    0    0  501    0  0.00000000000E+00  0.00000000000E+00  0.21404170760E+04  0.21404170760E+04  0.25500000920E-02 0. -1.
       -2   -1    0    0    0  501  0.00000000000E+00  0.00000000000E+00 -0.11072167006E+04  0.11072167006E+04  0.25500000920E-02 0.  1.
    10030    2    1    2    0    0  0.00000000000E+00  0.00000000000E+00  0.10332003754E+04  0.32476337765E+04  0.30788994999E+04 0.  0.
        5    1    3    3  502    0  0.69663399280E+03 -0.36304918683E+03 -0.87988141149E+03  0.11795410210E+04  0.46999998093E+01 0.  1.
       -5    1    3    3    0  502 -0.69663399280E+03  0.36304918683E+03  0.19130817869E+04  0.20680927555E+04  0.46999998093E+01 0. -1.
</event>
<event>
 5   0  0.5001658E-06  0.3088471E+04  0.7818609E-02  0.8218909E-01
       -2   -1    0    0    0  501  0.00000000000E+00  0.00000000000E+00  0.16391652479E+04  0.16391652479E+04  0.25500000920E-02 0. -1.
        2   -1    0    0  501    0  0.00000000000E+00  0.00000000000E+00 -0.14548031218E+04  0.14548031218E+04  0.25500000920E-02 0.  1.
    10030    2    1    2    0    0  0.00000000000E+00  0.00000000000E+00  0.18436212608E+03  0.30939683696E+04  0.30884706375E+04 0.  0.
        3    1    3    3  502    0  0.65445727945E+03 -0.13984160163E+04  0.12017762247E+03  0.15486524324E+04  0.10100000352E+00 0.  1.
       -3    1    3    3    0  502 -0.65445727945E+03  0.13984160163E+04  0.64184503616E+02  0.15453159372E+04  0.10100000352E+00 0. -1.
</event>
<event>
 5   0  0.4900679E-06  0.3097037E+04  0.7818609E-02  0.8216552E-01
       -2   -1    0    0    0  501  0.00000000000E+00  0.00000000000E+00  0.80145753717E+03  0.80145753718E+03  0.25500000920E-02 0.  1.
        2   -1    0    0  501    0  0.00000000000E+00  0.00000000000E+00 -0.29919351099E+04  0.29919351099E+04  0.25500000920E-02 0. -1.
    10030    2    1    2    0    0  0.00000000000E+00  0.00000000000E+00 -0.21904775727E+04  0.37933926470E+04  0.30970366123E+04 0.  0.
        4    1    3    3  502    0 -0.20860275984E+03 -0.14975470879E+04 -0.68579395645E+03  0.16602642426E+04  0.12699999809E+01 0.  1.
       -4    1    3    3    0  502  0.20860275984E+03  0.14975470879E+04 -0.15046836162E+04  0.21331284044E+04  0.12699999809E+01 0. -1.
</event>
<event>
 5   0  0.5114870E-06  0.3082119E+04  0.7818609E-02  0.8220662E-01
       -2   -1    0    0    0  501  0.00000000000E+00  0.00000000000E+00  0.84819963664E+03  0.84819963664E+03  0.25500000920E-02 0.  1.
        2   -1    0    0  501    0  0.00000000000E+00  0.00000000000E+00 -0.27998876950E+04  0.27998876950E+04  0.25500000920E-02 0. -1.
    10030    2    1    2    0    0  0.00000000000E+00  0.00000000000E+00 -0.19516880584E+04  0.36480873317E+04  0.30821185737E+04 0.  0.
        2    1    3    3  502    0 -0.10517008392E+04 -0.53460697689E+03 -0.21493605492E+04  0.24518625666E+04  0.25500000920E-02 0. -1.
       -2    1    3    3    0  502  0.10517008392E+04  0.53460697689E+03  0.19767249080E+03  0.11962247651E+04  0.25500000920E-02 0.  1.
</event>
<event>
 5   0  0.5114870E-06  0.2983277E+04  0.7818609E-02  0.8248522E-01
        2   -1    0    0  501    0  0.00000000000E+00  0.00000000000E+00  0.20045282092E+04  0.20045282092E+04  0.25500000920E-02 0.  1.
       -2   -1    0    0    0  501  0.00000000000E+00  0.00000000000E+00 -0.11099795711E+04  0.11099795711E+04  0.25500000920E-02 0. -1.
    10030    2    1    2    0    0  0.00000000000E+00  0.00000000000E+00  0.89454863805E+03  0.31145077803E+04  0.29832769646E+04 0.  0.
        2    1    3    3  502    0 -0.37568195737E+03 -0.14348125413E+04  0.28167320740E+03  0.15096899541E+04  0.25500000920E-02 0. -1.
       -2    1    3    3    0  502  0.37568195737E+03  0.14348125413E+04  0.61287543065E+03  0.16048178262E+04  0.25500000920E-02 0.  1.
</event>
<event>
 5   0  0.5114870E-06  0.3155306E+04  0.7818609E-02  0.8200721E-01
       -2   -1    0    0    0  501  0.00000000000E+00  0.00000000000E+00  0.11204560080E+04  0.11204560080E+04  0.25500000920E-02 0. -1.
        2   -1    0    0  501    0  0.00000000000E+00  0.00000000000E+00 -0.22214078177E+04  0.22214078177E+04  0.25500000920E-02 0.  1.
    10030    2    1    2    0    0  0.00000000000E+00  0.00000000000E+00 -0.11009518097E+04  0.33418638257E+04  0.31553064736E+04 0.  0.
        2    1    3    3  502    0  0.95065817302E+03  0.76133093879E+03  0.51161783957E+03  0.13210331465E+04  0.25500000920E-02 0. -1.
       -2    1    3    3    0  502 -0.95065817302E+03 -0.76133093879E+03 -0.16125696493E+04  0.20208306792E+04  0.25500000920E-02 0.  1.
</event>
<event>
 5   0  0.5001658E-06  0.3156977E+04  0.7818609E-02  0.8200273E-01
        2   -1    0    0  501    0  0.00000000000E+00  0.00000000000E+00  0.18644303354E+04  0.18644303354E+04  0.25500000920E-02 0. -1.
       -2   -1    0    0    0  501  0.00000000000E+00  0.00000000000E+00 -0.13364005747E+04  0.13364005747E+04  0.25500000920E-02 0.  1.
    10030    2    1    2    0    0  0.00000000000E+00  0.00000000000E+00  0.52802976064E+03  0.32008309101E+04  0.31569768905E+04 0.  0.
        3    1    3    3  502    0 -0.14254690102E+04 -0.52892775304E+03 -0.16602235372E+03  0.15294737327E+04  0.10100000352E+00 0. -1.
       -3    1    3    3    0  502  0.14254690102E+04  0.52892775304E+03  0.69405211436E+03  0.16713571774E+04  0.10100000352E+00 0.  1.
</event>
<event>
 5   0  0.4900679E-06  0.3093448E+04  0.7818609E-02  0.8217538E-01
       -2   -1    0    0    0  501  0.00000000000E+00  0.00000000000E+00  0.12652963665E+04  0.12652963665E+04  0.25500000920E-02 0.  1.
        2   -1    0    0  501    0  0.00000000000E+00  0.00000000000E+00 -0.18907466973E+04  0.18907466973E+04  0.25500000920E-02 0. -1.
    10030    2    1    2    0    0  0.00000000000E+00  0.00000000000E+00 -0.62545033076E+03  0.31560430638E+04  0.30934478667E+04 0.  0.
        4    1    3    3  502    0 -0.13383314041E+04 -0.74722002971E+03 -0.52400145775E+03  0.16198913113E+04  0.12699999809E+01 0. -1.
       -4    1    3    3    0  502  0.13383314041E+04  0.74722002971E+03 -0.10144887301E+03  0.15361517525E+04  0.12699999809E+01 0.  1.
</event>
<event>
 5   0  0.5328368E-06  0.3104091E+04  0.7818609E-02  0.8214616E-01
       -2   -1    0    0    0  501  0.00000000000E+00  0.00000000000E+00  0.14991453178E+04  0.14991453178E+04  0.25500000920E-02 0. -1.
        2   -1    0    0  501    0  0.00000000000E+00  0.00000000000E+00 -0.16068122576E+04  0.16068122576E+04  0.25500000920E-02 0.  1.
    10030    2    1    2    0    0  0.00000000000E+00  0.00000000000E+00 -0.10766693973E+03  0.31059575754E+04  0.31040908960E+04 0.  0.
        1    1    3    3  502    0 -0.14235909189E+04  0.53854668329E+03 -0.35766296835E+03  0.15635109317E+04  0.50400001928E-02 0.  1.
       -1    1    3    3    0  502  0.14235909189E+04 -0.53854668329E+03  0.24999602862E+03  0.15424466438E+04  0.50400001928E-02 0. -1.
</event>
<event>
 5   0  0.1840431E-06  0.3089287E+04  0.7818609E-02  0.8218684E-01
        1   -1    0    0  501    0  0.00000000000E+00  0.00000000000E+00  0.20958800610E+04  0.20958800610E+04  0.50400001928E-02 0.  1.
       -1   -1    0    0    0  501  0.00000000000E+00  0.00000000000E+00 -0.11383872532E+04  0.11383872532E+04  0.50400001928E-02 0. -1.
    10030    2    1    2    0    0  0.00000000000E+00  0.00000000000E+00  0.95749280779E+03  0.32342673141E+04  0.30892867433E+04 0.  0.
        1    1    3    3  502    0  0.58795717706E+03  0.25990658651E+03 -0.99168848709E+03  0.11818168772E+04  0.50400001928E-02 0. -1.
       -1    1    3    3    0  502 -0.58795717706E+03 -0.25990658651E+03  0.19491812949E+04  0.20524504369E+04  0.50400001928E-02 0.  1.
</event>
<event>
 5   0  0.1885307E-06  0.2680746E+04  0.7818609E-02  0.8341279E-01
        1   -1    0    0  501    0  0.00000000000E+00  0.00000000000E+00  0.74748191751E+03  0.74748191752E+03  0.50400001928E-02 0. -1.
       -1   -1    0    0    0  501  0.00000000000E+00  0.00000000000E+00 -0.24035358312E+04  0.24035358312E+04  0.50400001928E-02 0.  1.
    10030    2    1    2    0    0  0.00000000000E+00  0.00000000000E+00 -0.16560539137E+04  0.31510177488E+04  0.26807458454E+04 0.  0.
        3    1    3    3  502    0 -0.35452247768E+03  0.97894902024E+03  0.16419684847E+03  0.10540341487E+04  0.10100000352E+00 0. -1.
       -3    1    3    3    0  502  0.35452247768E+03 -0.97894902024E+03 -0.18202507622E+04  0.20969836001E+04  0.10100000352E+00 0.  1.
</event>
<event>
 5   0  0.1840431E-06  0.3105701E+04  0.7818609E-02  0.8214175E-01
       -1   -1    0    0    0  501  0.00000000000E+00  0.00000000000E+00  0.11104186027E+04  0.11104186027E+04  0.50400001928E-02 0. -1.
        1   -1    0    0  501    0  0.00000000000E+00  0.00000000000E+00 -0.21715633854E+04  0.21715633854E+04  0.50400001928E-02 0.  1.
    10030    2    1    2    0    0  0.00000000000E+00  0.00000000000E+00 -0.10611447827E+04  0.32819819881E+04  0.31057008099E+04 0.  0.
        1    1    3    3  502    0 -0.88666221061E+03 -0.42644637827E+03 -0.18001451364E+04  0.20514748113E+04  0.50400001928E-02 0.  1.
       -1    1    3    3    0  502  0.88666221061E+03  0.42644637827E+03  0.73900035373E+03  0.12305071768E+04  0.50400001928E-02 0. -1.
</event>
<event>
 5   0  0.4900679E-06  0.3098479E+04  0.7818609E-02  0.8216156E-01
        2   -1    0    0  501    0  0.00000000000E+00  0.00000000000E+00  0.15537081178E+04  0.15537081178E+04  0.25500000920E-02 0. -1.
       -2   -1    0    0    0  501  0.00000000000E+00  0.00000000000E+00 -0.15447832524E+04  0.15447832524E+04  0.25500000920E-02 0.  1.
    10030    2    1    2    0    0  0.00000000000E+00  0.00000000000E+00  0.89248653994E+01  0.30984913702E+04  0.30984785166E+04 0.  0.
        4    1    3    3  502    0 -0.47269502801E+03  0.14335790497E+04  0.35310579460E+03  0.15502499141E+04  0.12699999809E+01 0.  1.
       -4    1    3    3    0  502  0.47269502801E+03 -0.14335790497E+04 -0.34418092920E+03  0.15482414560E+04  0.12699999809E+01 0. -1.
</event>
<event>
 5   0  0.5114870E-06  0.3107156E+04  0.7818609E-02  0.8213777E-01
       -2   -1    0    0    0  501  0.00000000000E+00  0.00000000000E+00  0.11158594155E+04  0.11158594155E+04  0.25500000920E-02 0. -1.
        2   -1    0    0  501    0  0.00000000000E+00  0.00000000000E+00 -0.21630009711E+04  0.21630009711E+04  0.25500000920E-02 0.  1.
    10030    2    1    2    0    0  0.00000000000E+00  0.00000000000E+00 -0.10471415556E+04  0.32788603866E+04  0.31071562557E+04 0.  0.
        2    1    3    3  502    0  0.47236548300E+03  0.10183541079E+04 -0.16568987177E+04  0.20013714296E+04  0.25500000920E-02 0.  1.
       -2    1    3    3    0  502 -0.47236548300E+03 -0.10183541079E+04  0.60975716207E+03  0.12774889570E+04  0.25500000920E-02 0. -1.
</event>
<event>
 5   0  0.5114870E-06  0.2629092E+04  0.7818609E-02  0.8358386E-01
       -2   -1    0    0    0  501  0.00000000000E+00  0.00000000000E+00  0.93443368614E+03  0.93443368614E+03  0.25500000920E-02 0. -1.
        2   -1    0    0  501    0  0.00000000000E+00  0.00000000000E+00 -0.18492814221E+04  0.18492814221E+04  0.25500000920E-02 0.  1.
    10030    2    1    2    0    0  0.00000000000E+00  0.00000000000E+00 -0.91484773601E+03  0.27837151083E+04  0.26290917489E+04 0.  0.
        2    1    3    3  502    0  0.98934536261E+03  0.60128777383E+03 -0.11166820543E+04  0.16085179650E+04  0.25500000920E-02 0.  1.
       -2    1    3    3    0  502 -0.98934536261E+03 -0.60128777383E+03  0.20183431827E+03  0.11751971433E+04  0.25500000920E-02 0. -1.
</event>
<event>
 5   0  0.5328368E-06  0.3011565E+04  0.7818609E-02  0.8240436E-01
        2   -1    0    0  501    0  0.00000000000E+00  0.00000000000E+00  0.25999831309E+04  0.25999831309E+04  0.25500000920E-02 0. -1.
       -2   -1    0    0    0  501  0.00000000000E+00  0.00000000000E+00 -0.87207540321E+03  0.87207540321E+03  0.25500000920E-02 0.  1.
    10030    2    1    2    0    0  0.00000000000E+00  0.00000000000E+00  0.17279077277E+04  0.34720585341E+04  0.30115652656E+04 0.  0.
        1    1    3    3  502    0 -0.10930446244E+03  0.59452530037E+03  0.24539533865E+04  0.25273098389E+04  0.50400001928E-02 0. -1.
       -1    1    3    3    0  502  0.10930446244E+03 -0.59452530037E+03 -0.72604565889E+03  0.94474869521E+03  0.50400001928E-02 0.  1.
</event>
<event>
 5   0  0.4927533E-06  0.3088594E+04  0.7818609E-02  0.8218875E-01
       -2   -1    0    0    0  501  0.00000000000E+00  0.00000000000E+00  0.11697334114E+04  0.11697334114E+04  0.25500000920E-02 0.  1.
        2   -1    0    0  501    0  0.00000000000E+00  0.00000000000E+00 -0.20388006438E+04  0.20388006438E+04  0.25500000920E-02 0. -1.
    10030    2    1    2    0    0  0.00000000000E+00  0.00000000000E+00 -0.86906723241E+03  0.32085340552E+04  0.30885940052E+04 0.  0.
        5    1    3    3  502    0 -0.12819816325E+04 -0.29769840794E+03 -0.12738246444E+04  0.18315983629E+04  0.46999998093E+01 0. -1.
       -5    1    3    3    0  502  0.12819816325E+04  0.29769840794E+03  0.40475741197E+03  0.13769356923E+04  0.46999998093E+01 0.  1.
</event>
<event>
 5   0  0.1836401E-06  0.3078659E+04  0.7818609E-02  0.8221619E-01
        1   -1    0    0  501    0  0.00000000000E+00  0.00000000000E+00  0.22872174585E+04  0.22872174585E+04  0.50400001928E-02 0.  1.
       -1   -1    0    0    0  501  0.00000000000E+00  0.00000000000E+00 -0.10359904644E+04  0.10359904644E+04  0.50400001928E-02 0. -1.
    10030    2    1    2    0    0  0.00000000000E+00  0.00000000000E+00  0.12512269941E+04  0.33232079230E+04  0.30786591089E+04 0.  0.
        2    1    3    3  502    0 -0.39120386846E+03  0.12915553187E+04 -0.17373592082E+03  0.13606394740E+04  0.25500000920E-02 0. -1.
       -2    1    3    3    0  502  0.39120386846E+03 -0.12915553187E+04  0.14249629149E+04  0.19625684490E+04  0.25500000920E-02 0.  1.
</event>
<event>
 5   0  0.1885307E-06  0.3121533E+04  0.7818609E-02  0.8209853E-01
       -1   -1    0    0    0  501  0.00000000000E+00  0.00000000000E+00  0.13260294677E+04  0.13260294677E+04  0.50400001928E-02 0.  1.
        1   -1    0    0  501    0  0.00000000000E+00  0.00000000000E+00 -0.18370574810E+04  0.18370574810E+04  0.50400001928E-02 0. -1.
    10030    2    1    2    0    0  0.00000000000E+00  0.00000000000E+00 -0.51102801327E+03  0.31630869487E+04  0.31215331833E+04 0.  0.
        3    1    3    3  502    0 -0.91792571152E+03 -0.37723781823E+03 -0.14761644144E+04  0.17787516330E+04  0.10100000352E+00 0. -1.
       -3    1    3    3    0  502  0.91792571152E+03  0.37723781823E+03  0.96513640111E+03  0.13843353157E+04  0.10100000352E+00 0.  1.
</event>
<event>
 5   0  0.1840431E-06  0.2993171E+04  0.7818609E-02  0.8245684E-01
       -1   -1    0    0    0  501  0.00000000000E+00  0.00000000000E+00  0.13038447923E+04  0.13038447923E+04  0.50400001928E-02 0.  1.
        1   -1    0    0  501    0  0.00000000000E+00  0.00000000000E+00 -0.17178181122E+04  0.17178181122E+04  0.50400001928E-02 0. -1.
    10030    2    1    2    0    0  0.00000000000E+00  0.00000000000E+00 -0.41397331989E+03  0.30216629045E+04  0.29931710273E+04 0.  0.
        1    1    3    3  502    0 -0.64252627234E+03  0.30854399188E+03 -0.15354648207E+04  0.16928353792E+04  0.50400001928E-02 0. -1.
       -1    1    3    3    0  502  0.64252627234E+03 -0.30854399188E+03  0.11214915008E+04  0.13288275253E+04  0.50400001928E-02 0.  1.
</event>
<event>
 5   0  0.1836401E-06  0.3164950E+04  0.7818609E-02  0.8198136E-01
       -1   -1    0    0    0  501  0.00000000000E+00  0.00000000000E+00  0.14247235175E+04  0.14247235175E+04  0.50400001928E-02 0.  1.
        1   -1    0    0  501    0  0.00000000000E+00  0.00000000000E+00 -0.17576936476E+04  0.17576936476E+04  0.50400001928E-02 0. -1.
    10030    2    1    2    0    0  0.00000000000E+00  0.00000000000E+00 -0.33297013015E+03  0.31824171651E+04  0.31649502216E+04 0.  0.
        2    1    3    3  502    0 -0.14486065224E+04 -0.81039560302E+02  0.46882401224E+03  0.15247374271E+04  0.25500000920E-02 0.  1.
       -2    1    3    3    0  502  0.14486065224E+04  0.81039560302E+02 -0.80179414239E+03  0.16576797380E+04  0.25500000920E-02 0. -1.
</event>
<event>
 5   0  0.5001658E-06  0.3223181E+04  0.7818609E-02  0.8182722E-01
        2   -1    0    0  501    0  0.00000000000E+00  0.00000000000E+00  0.15921905170E+04  0.15921905170E+04  0.25500000920E-02 0.  1.
       -2   -1    0    0    0  501  0.00000000000E+00  0.00000000000E+00 -0.16312263675E+04  0.16312263675E+04  0.25500000920E-02 0. -1.
    10030    2    1    2    0    0  0.00000000000E+00  0.00000000000E+00 -0.39035850479E+02  0.32234168845E+04  0.32231805121E+04 0.  0.
        3    1    3    3  502    0  0.29654517167E+03 -0.84747961474E+03  0.13188860169E+04  0.15955002576E+04  0.10100000352E+00 0.  1.
       -3    1    3    3    0  502 -0.29654517167E+03  0.84747961474E+03 -0.13579218673E+04  0.16279166269E+04  0.10100000352E+00 0. -1.
</event>
<event>
 5   0  0.1836401E-06  0.3145082E+04  0.7818609E-02  0.8203473E-01
       -1   -1    0    0    0  501  0.00000000000E+00  0.00000000000E+00  0.14400353314E+04  0.14400353314E+04  0.50400001928E-02 0. -1.
        1   -1    0    0  501    0  0.00000000000E+00  0.00000000000E+00 -0.17172397404E+04  0.17172397404E+04  0.50400001928E-02 0.  1.
    10030    2    1    2    0    0  0.00000000000E+00  0.00000000000E+00 -0.27720440908E+03  0.31572750718E+04  0.31450824464E+04 0.  0.
        2    1    3    3  502    0  0.88736073437E+03  0.12981652956E+04 -0.15427332696E+03  0.15800134389E+04  0.25500000920E-02 0.  1.
       -2    1    3    3    0  502 -0.88736073437E+03 -0.12981652956E+04 -0.12293108212E+03  0.15772616329E+04  0.25500000920E-02 0. -1.
</event>
<event>
 5   0  0.4927533E-06  0.2532356E+04  0.7818609E-02  0.8391549E-01
        2   -1    0    0  501    0  0.00000000000E+00  0.00000000000E+00  0.14286871518E+04  0.14286871518E+04  0.25500000920E-02 0. -1.
       -2   -1    0    0    0  501  0.00000000000E+00  0.00000000000E+00 -0.11221533738E+04  0.11221533738E+04  0.25500000920E-02 0.  1.
    10030    2    1    2    0    0  0.00000000000E+00  0.00000000000E+00  0.30653377795E+03  0.25508405256E+04  0.25323555102E+04 0.  0.
        5    1    3    3  502    0  0.10088765997E+03  0.37442994044E+03  0.13673900168E+04  0.14213210926E+04  0.46999998093E+01 0. -1.
       -5    1    3    3    0  502 -0.10088765997E+03 -0.37442994044E+03 -0.10608562388E+04  0.11295194331E+04  0.46999998093E+01 0.  1.
</event>
<event>
 5   0  0.5328368E-06  0.3129985E+04  0.7818609E-02  0.8207557E-01
       -2   -1    0    0    0  501  0.00000000000E+00  0.00000000000E+00  0.15331318892E+04  0.15331318892E+04  0.25500000920E-02 0. -1.
        2   -1    0    0  501    0  0.00000000000E+00  0.00000000000E+00 -0.15975153217E+04  0.15975153217E+04  0.25500000920E-02 0.  1.
    10030    2    1    2    0    0  0.00000000000E+00  0.00000000000E+00 -0.64383432481E+02  0.31306472108E+04  0.31299851010E+04 0.  0.
        1    1    3    3  502    0 -0.84096547843E+03 -0.59952593147E+03  0.11438747735E+04  0.15411371697E+04  0.50400001928E-02 0. -1.
       -1    1    3    3    0  502  0.84096547843E+03  0.59952593147E+03 -0.12082582060E+04  0.15895100411E+04  0.50400001928E-02 0.  1.
</event>
<event>
 5   0  0.1853742E-06  0.3104898E+04  0.7818609E-02  0.8214395E-01
       -1   -1    0    0    0  501  0.00000000000E+00  0.00000000000E+00  0.15950389545E+04  0.15950389545E+04  0.50400001928E-02 0.  1.
        1   -1    0    0  501    0  0.00000000000E+00  0.00000000000E+00 -0.15109962091E+04  0.15109962091E+04  0.50400001928E-02 0. -1.
    10030    2    1    2    0    0  0.00000000000E+00  0.00000000000E+00  0.84042745371E+02  0.31060351636E+04  0.31048979459E+04 0.  0.
        5    1    3    3  502    0 -0.68751203238E+03  0.66139362199E+03 -0.11831563189E+04  0.15198668635E+04  0.46999998093E+01 0. -1.
       -5    1    3    3    0  502  0.68751203238E+03 -0.66139362199E+03  0.12671990642E+04  0.15861683001E+04  0.46999998093E+01 0.  1.
</event>
<event>
 5   0  0.1885307E-06  0.3067912E+04  0.7818609E-02  0.8224600E-01
        1   -1    0    0  501    0  0.00000000000E+00  0.00000000000E+00  0.17819404119E+04  0.17819404119E+04  0.50400001928E-02 0.  1.
       -1   -1    0    0    0  501  0.00000000000E+00  0.00000000000E+00 -0.13204823458E+04  0.13204823458E+04  0.50400001928E-02 0. -1.
    10030    2    1    2    0    0  0.00000000000E+00  0.00000000000E+00  0.46145806603E+03  0.31024227577E+04  0.30679118991E+04 0.  0.
        3    1    3    3  502    0  0.11214225328E+04  0.10414484608E+04  0.12555208337E+03  0.15355672338E+04  0.10100000352E+00 0. -1.
       -3    1    3    3    0  502 -0.11214225328E+04 -0.10414484608E+04  0.33590598266E+03  0.15668555239E+04  0.10100000352E+00 0.  1.
</event>
<event>
 5   0  0.1840431E-06  0.3078772E+04  0.7818609E-02  0.8221588E-01
       -1   -1    0    0    0  501  0.00000000000E+00  0.00000000000E+00  0.93231443363E+03  0.93231443364E+03  0.50400001928E-02 0. -1.
        1   -1    0    0  501    0  0.00000000000E+00  0.00000000000E+00 -0.25417493326E+04  0.25417493326E+04  0.50400001928E-02 0.  1.
    10030    2    1    2    0    0  0.00000000000E+00  0.00000000000E+00 -0.16094348989E+04  0.34740637662E+04  0.30787722160E+04 0.  0.
        1    1    3    3  502    0  0.77686494888E+03 -0.53774495976E+03  0.56664903854E+03  0.11017168073E+04  0.50400001928E-02 0. -1.
       -1    1    3    3    0  502 -0.77686494888E+03  0.53774495976E+03 -0.21760839375E+04  0.23723469589E+04  0.50400001928E-02 0.  1.
</event>
<event>
 5   0  0.1853742E-06  0.3102222E+04  0.7818609E-02  0.8215128E-01
        1   -1    0    0  501    0  0.00000000000E+00  0.00000000000E+00  0.18840241809E+04  0.18840241809E+04  0.50400001928E-02 0.  1.
       -1   -1    0    0    0  501  0.00000000000E+00  0.00000000000E+00 -0.12770249017E+04  0.12770249017E+04  0.50400001928E-02 0. -1.
    10030    2    1    2    0    0  0.00000000000E+00  0.00000000000E+00  0.60699927920E+03  0.31610490827E+04  0.31022222967E+04 0.  0.
        5    1    3    3  502    0  0.83585667121E+03  0.39447914780E+03  0.15727745676E+04  0.18242565892E+04  0.46999998093E+01 0.  1.
       -5    1    3    3    0  502 -0.83585667121E+03 -0.39447914780E+03 -0.96577528839E+03  0.13367924934E+04  0.46999998093E+01 0. -1.
</event>
<event>
 5   0  0.5114870E-06  0.3026960E+04  0.7818609E-02  0.8236074E-01
        2   -1    0    0  501    0  0.00000000000E+00  0.00000000000E+00  0.18957866372E+04  0.18957866372E+04  0.25500000920E-02 0.  1.
       -2   -1    0    0    0  501  0.00000000000E+00  0.00000000000E+00 -0.12082695146E+04  0.12082695146E+04  0.25500000920E-02 0. -1.
    10030    2    1    2    0    0  0.00000000000E+00  0.00000000000E+00  0.68751712261E+03  0.31040561518E+04  0.30269596627E+04 0.  0.
        2    1    3    3  502    0  0.95964045961E+03 -0.78904567729E+03  0.12301338189E+04  0.17483512533E+04  0.25500000920E-02 0.  1.
       -2    1    3    3    0  502 -0.95964045961E+03  0.78904567729E+03 -0.54261669630E+03  0.13557048984E+04  0.25500000920E-02 0. -1.
</event>
<event>
 5   0  0.1836401E-06  0.3187921E+04  0.7818609E-02  0.8192014E-01
       -1   -1    0    0    0  501  0.00000000000E+00  0.00000000000E+00  0.90703351862E+03  0.90703351863E+03  0.50400001928E-02 0. -1.
        1   -1    0    0  501    0  0.00000000000E+00  0.00000000000E+00 -0.28011208225E+04  0.28011208225E+04  0.50400001928E-02 0.  1.
    10030    2    1    2    0    0  0.00000000000E+00  0.00000000000E+00 -0.18940873039E+04  0.37081543411E+04  0.31879212510E+04 0.  0.
        2    1    3    3  502    0 -0.40353587441E+03  0.13465321804E+04 -0.18211553665E+04  0.23005644924E+04  0.25500000920E-02 0.  1.
       -2    1    3    3    0  502  0.40353587441E+03 -0.13465321804E+04 -0.72931937365E+02  0.14075898487E+04  0.25500000920E-02 0. -1.
</event>
<event>
 5   0  0.4927533E-06  0.2930989E+04  0.7818609E-02  0.8263717E-01
       -2   -1    0    0    0  501  0.00000000000E+00  0.00000000000E+00  0.84630774905E+03  0.84630774905E+03  0.25500000920E-02 0.  1.
        2   -1    0    0  501    0  0.00000000000E+00  0.00000000000E+00 -0.25376979682E+04  0.25376979682E+04  0.25500000920E-02 0. -1.
    10030    2    1    2    0    0  0.00000000000E+00  0.00000000000E+00 -0.16913902191E+04  0.33840057172E+04  0.29309885399E+04 0.  0.
        5    1    3    3  502    0  0.73383908537E+03  0.77497921050E+03  0.31378491220E+03  0.11124727597E+04  0.46999998093E+01 0.  1.
       -5    1    3    3    0  502 -0.73383908537E+03 -0.77497921050E+03 -0.20051751313E+04  0.22715329575E+04  0.46999998093E+01 0. -1.
</event>
<event>
 5   0  0.1840431E-06  0.3130841E+04  0.7818609E-02  0.8207324E-01
        1   -1    0    0  501    0  0.00000000000E+00  0.00000000000E+00  0.17515076840E+04  0.17515076840E+04  0.50400001928E-02 0. -1.
       -1   -1    0    0    0  501  0.00000000000E+00  0.00000000000E+00 -0.13991042018E+04  0.13991042018E+04  0.50400001928E-02 0.  1.
    10030    2    1    2    0    0  0.00000000000E+00  0.00000000000E+00  0.35240348219E+03  0.31506118857E+04  0.31308412672E+04 0.  0.
        1    1    3    3  502    0  0.71132733527E+03 -0.78811995978E+03  0.13338671338E+04  0.17047935886E+04  0.50400001928E-02 0. -1.
       -1    1    3    3    0  502 -0.71132733527E+03  0.78811995978E+03 -0.98146365164E+03  0.14458182972E+04  0.50400001928E-02 0.  1.
</event>
<event>
 5   0  0.5001658E-06  0.2682706E+04  0.7818609E-02  0.8340638E-01
        2   -1    0    0  501    0  0.00000000000E+00  0.00000000000E+00  0.16378773453E+04  0.16378773453E+04  0.25500000920E-02 0.  1.
       -2   -1    0    0    0  501  0.00000000000E+00  0.00000000000E+00 -0.10985118330E+04  0.10985118330E+04  0.25500000920E-02 0. -1.
    10030    2    1    2    0    0  0.00000000000E+00  0.00000000000E+00  0.53936551233E+03  0.27363891783E+04  0.26827058317E+04 0.  0.
        3    1    3    3  502    0 -0.47203310569E+03 -0.87883383932E+03 -0.64495679079E+03  0.11879113781E+04  0.10100000352E+00 0. -1.
       -3    1    3    3    0  502  0.47203310569E+03  0.87883383932E+03  0.11843223031E+04  0.15484778003E+04  0.10100000352E+00 0.  1.
</event>
<event>
 5   0  0.4927533E-06  0.3042239E+04  0.7818609E-02  0.8231771E-01
        2   -1    0    0  501    0  0.00000000000E+00  0.00000000000E+00  0.14882779469E+04  0.14882779469E+04  0.25500000920E-02 0. -1.
       -2   -1    0    0    0  501  0.00000000000E+00  0.00000000000E+00 -0.15546861384E+04  0.15546861384E+04  0.25500000920E-02 0.  1.
    10030    2    1    2    0    0  0.00000000000E+00  0.00000000000E+00 -0.66408191433E+02  0.30429640853E+04  0.30422393687E+04 0.  0.
        5    1    3    3  502    0  0.91918725951E+02  0.61311878387E+03 -0.14225703770E+04  0.15518029073E+04  0.46999998093E+01 0.  1.
       -5    1    3    3    0  502 -0.91918725951E+02 -0.61311878387E+03  0.13561621856E+04  0.14911611781E+04  0.46999998093E+01 0. -1.
</event>
<event>
 5   0  0.4927533E-06  0.2970283E+04  0.7818609E-02  0.8252268E-01
       -2   -1    0    0    0  501  0.00000000000E+00  0.00000000000E+00  0.70697214584E+03  0.70697214584E+03  0.25500000920E-02 0.  1.
        2   -1    0    0  501    0  0.00000000000E+00  0.00000000000E+00 -0.31198476903E+04  0.31198476903E+04  0.25500000920E-02 0. -1.
    10030    2    1    2    0    0  0.00000000000E+00  0.00000000000E+00 -0.24128755445E+04  0.38268198362E+04  0.29702830951E+04 0.  0.
        5    1    3    3  502    0 -0.83906342124E+03 -0.16885986804E+03  0.35726307198E+03  0.92746971513E+03  0.46999998093E+01 0.  1.
       -5    1    3    3    0  502  0.83906342124E+03  0.16885986804E+03 -0.27701386165E+04  0.28993501210E+04  0.46999998093E+01 0. -1.
</event>
<event>
 5   0  0.5001658E-06  0.2536372E+04  0.7818609E-02  0.8390141E-01
        2   -1    0    0  501    0  0.00000000000E+00  0.00000000000E+00  0.73572352418E+03  0.73572352418E+03  0.25500000920E-02 0.  1.
       -2   -1    0    0    0  501  0.00000000000E+00  0.00000000000E+00 -0.21860062557E+04  0.21860062557E+04  0.25500000920E-02 0. -1.
    10030    2    1    2    0    0  0.00000000000E+00  0.00000000000E+00 -0.14502827316E+04  0.29217297799E+04  0.25363723909E+04 0.  0.
        3    1    3    3  502    0  0.10980655966E+04 -0.51526417639E+03 -0.29869136574E+03  0.12491844412E+04  0.10100000352E+00 0.  1.
       -3    1    3    3    0  502 -0.10980655966E+04  0.51526417639E+03 -0.11515913658E+04  0.16725453387E+04  0.10100000352E+00 0. -1.
</event>
<event>
 5   0  0.1840431E-06  0.3058631E+04  0.7818609E-02  0.8227184E-01
        1   -1    0    0  501    0  0.00000000000E+00  0.00000000000E+00  0.17174314736E+04  0.17174314736E+04  0.50400001928E-02 0. -1.
       -1   -1    0    0    0  501  0.00000000000E+00  0.00000000000E+00 -0.13618045688E+04  0.13618045688E+04  0.50400001928E-02 0.  1.
    10030    2    1    2    0    0  0.00000000000E+00  0.00000000000E+00  0.35562690481E+03  0.30792360425E+04  0.30586310843E+04 0.  0.
        1    1    3    3  502    0  0.36125242647E+03 -0.73622330062E+02  0.16720231358E+04  0.17121871772E+04  0.50400001928E-02 0. -1.
       -1    1    3    3    0  502 -0.36125242647E+03  0.73622330062E+02 -0.13163962310E+04  0.13670488653E+04  0.50400001928E-02 0.  1.
</event>
<event>
 5   0  0.1843709E-06  0.3098770E+04  0.7818609E-02  0.8216076E-01
       -1   -1    0    0    0  501  0.00000000000E+00  0.00000000000E+00  0.22166716130E+04  0.22166716130E+04  0.50400001928E-02 0. -1.
        1   -1    0    0  501    0  0.00000000000E+00  0.00000000000E+00 -0.10829721175E+04  0.10829721176E+04  0.50400001928E-02 0.  1.
    10030    2    1    2    0    0  0.00000000000E+00  0.00000000000E+00  0.11336994954E+04  0.32996437305E+04  0.30987697886E+04 0.  0.
        4    1    3    3  502    0 -0.43840705668E+03  0.13229870882E+04  0.12875524584E+04  0.18974426287E+04  0.12699999809E+01 0. -1.
       -4    1    3    3    0  502  0.43840705668E+03 -0.13229870882E+04 -0.15385296301E+03  0.14022011019E+04  0.12699999809E+01 0.  1.
</event>
<event>
 5   0  0.1853742E-06  0.3074519E+04  0.7818609E-02  0.8222766E-01
        1   -1    0    0  501    0  0.00000000000E+00  0.00000000000E+00  0.21418717420E+04  0.21418717420E+04  0.50400001928E-02 0.  1.
       -1   -1    0    0    0  501  0.00000000000E+00  0.00000000000E+00 -0.11033185885E+04  0.11033185885E+04  0.50400001928E-02 0. -1.
    10030    2    1    2    0    0  0.00000000000E+00  0.00000000000E+00  0.10385531535E+04  0.32451903305E+04  0.30745190890E+04 0.  0.
        5    1    3    3  502    0 -0.11150758745E+04 -0.81667643231E+03  0.12295269923E+04  0.18498954878E+04  0.46999998093E+01 0.  1.
       -5    1    3    3    0  502  0.11150758745E+04  0.81667643231E+03 -0.19097383876E+03  0.13952948427E+04  0.46999998093E+01 0. -1.
</event>
<event>
 5   0  0.5114870E-06  0.3123540E+04  0.7818609E-02  0.8209307E-01
       -2   -1    0    0    0  501  0.00000000000E+00  0.00000000000E+00  0.14122998588E+04  0.14122998588E+04  0.25500000920E-02 0.  1.
        2   -1    0    0  501    0  0.00000000000E+00  0.00000000000E+00 -0.17270589298E+04  0.17270589298E+04  0.25500000920E-02 0. -1.
    10030    2    1    2    0    0  0.00000000000E+00  0.00000000000E+00 -0.31475907105E+03  0.31393587886E+04  0.31235397117E+04 0.  0.
        2    1    3    3  502    0 -0.11481469757E+04  0.10517259630E+04 -0.27946944487E+03  0.15819203992E+04  0.25500000920E-02 0. -1.
       -2    1    3    3    0  502  0.11481469757E+04 -0.10517259630E+04 -0.35289626180E+02  0.15574383893E+04  0.25500000920E-02 0.  1.
</event>
<event>
 5   0  0.1885307E-06  0.3108105E+04  0.7818609E-02  0.8213517E-01
       -1   -1    0    0    0  501  0.00000000000E+00  0.00000000000E+00  0.14587593111E+04  0.14587593111E+04  0.50400001928E-02 0. -1.
        1   -1    0    0  501    0  0.00000000000E+00  0.00000000000E+00 -0.16555710311E+04  0.16555710311E+04  0.50400001928E-02 0.  1.
    10030    2    1    2    0    0  0.00000000000E+00  0.00000000000E+00 -0.19681172000E+03  0.31143303422E+04  0.31081053114E+04 0.  0.
        3    1    3    3  502    0  0.13648442859E+04  0.34824773823E+03  0.55941738581E+03  0.15155936901E+04  0.10100000352E+00 0. -1.
       -3    1    3    3    0  502 -0.13648442859E+04 -0.34824773823E+03 -0.75622910581E+03  0.15987366520E+04  0.10100000352E+00 0.  1.
</event>
<event>
 5   0  0.1843709E-06  0.3033699E+04  0.7818609E-02  0.8234173E-01
        1   -1    0    0  501    0  0.00000000000E+00  0.00000000000E+00  0.79694142601E+03  0.79694142603E+03  0.50400001928E-02 0. -1.
       -1   -1    0    0    0  501  0.00000000000E+00  0.00000000000E+00 -0.28870792768E+04  0.28870792768E+04  0.50400001928E-02 0.  1.
    10030    2    1    2    0    0  0.00000000000E+00  0.00000000000E+00 -0.20901378508E+04  0.36840207028E+04  0.30336994419E+04 0.  0.
        4    1    3    3  502    0  0.10394391323E+01 -0.59316291072E+03 -0.27403983861E+04  0.28038595269E+04  0.12699999809E+01 0.  1.
       -4    1    3    3    0  502 -0.10394391323E+01  0.59316291072E+03  0.65026053527E+03  0.88016117598E+03  0.12699999809E+01 0. -1.
</event>
<event>
 5   0  0.4900679E-06  0.3039741E+04  0.7818609E-02  0.8232473E-01
        2   -1    0    0  501    0  0.00000000000E+00  0.00000000000E+00  0.22883163641E+04  0.22883163641E+04  0.25500000920E-02 0.  1.
       -2   -1    0    0    0  501  0.00000000000E+00  0.00000000000E+00 -0.10094788704E+04  0.10094788704E+04  0.25500000920E-02 0. -1.
    10030    2    1    2    0    0  0.00000000000E+00  0.00000000000E+00  0.12788374936E+04  0.32977952345E+04  0.30397414485E+04 0.  0.
        4    1    3    3  502    0  0.12464469504E+04  0.46963820677E+03 -0.15471677107E+03  0.13409433014E+04  0.12699999809E+01 0. -1.
       -4    1    3    3    0  502 -0.12464469504E+04 -0.46963820677E+03  0.14335542647E+04  0.19568519331E+04  0.12699999809E+01 0.  1.
</event>
<event>
 5   0  0.1843709E-06  0.3092573E+04  0.7818609E-02  0.8217779E-01
       -1   -1    0    0    0  501  0.00000000000E+00  0.00000000000E+00  0.16402628388E+04  0.16402628388E+04  0.50400001928E-02 0.  1.
        1   -1    0    0  501    0  0.00000000000E+00  0.00000000000E+00 -0.14576940349E+04  0.14576940349E+04  0.50400001928E-02 0. -1.
    10030    2    1    2    0    0  0.00000000000E+00  0.00000000000E+00  0.18256880389E+03  0.30979568737E+04  0.30925726222E+04 0.  0.
        4    1    3    3  502    0 -0.37552708611E+03 -0.11750406004E+04  0.10252480940E+04  0.16040187880E+04  0.12699999809E+01 0.  1.
       -4    1    3    3    0  502  0.37552708611E+03  0.11750406004E+04 -0.84267929015E+03  0.14939380857E+04  0.12699999809E+01 0. -1.
</event>
<event>
 5   0  0.1843709E-06  0.2985467E+04  0.7818609E-02  0.8247893E-01
        1   -1    0    0  501    0  0.00000000000E+00  0.00000000000E+00  0.14316625859E+04  0.14316625859E+04  0.50400001928E-02 0.  1.
       -1   -1    0    0    0  501  0.00000000000E+00  0.00000000000E+00 -0.15564096171E+04  0.15564096172E+04  0.50400001928E-02 0. -1.
    10030    2    1    2    0    0  0.00000000000E+00  0.00000000000E+00 -0.12474703126E+03  0.29880722030E+04  0.29854670772E+04 0.  0.
        4    1    3    3  502    0  0.69602177905E+03  0.89540313519E+03  0.90907052068E+03  0.14534799331E+04  0.12699999809E+01 0.  1.
       -4    1    3    3    0  502 -0.69602177905E+03 -0.89540313519E+03 -0.10338175519E+04  0.15345922700E+04  0.12699999809E+01 0. -1.
</event>
<event>
 5   0  0.1840431E-06  0.3103137E+04  0.7818609E-02  0.8214878E-01
        1   -1    0    0  501    0  0.00000000000E+00  0.00000000000E+00  0.22550423754E+04  0.22550423754E+04  0.50400001928E-02 0.  1.
       -1   -1    0    0    0  501  0.00000000000E+00  0.00000000000E+00 -0.10675473825E+04  0.10675473825E+04  0.50400001928E-02 0. -1.
    10030    2    1    2    0    0  0.00000000000E+00  0.00000000000E+00  0.11874949929E+04  0.33225897580E+04  0.31031368551E+04 0.  0.
        1    1    3    3  502    0 -0.78749866143E+03 -0.52388061733E+03  0.19106715898E+04  0.21319641102E+04  0.50400001928E-02 0.  1.
       -1    1    3    3    0  502  0.78749866143E+03  0.52388061733E+03 -0.72317659686E+03  0.11906256478E+04  0.50400001928E-02 0. -1.
</event>
<event>
 5   0  0.5328368E-06  0.3099483E+04  0.7818609E-02  0.8215880E-01
        2   -1    0    0  501    0  0.00000000000E+00  0.00000000000E+00  0.16610037731E+04  0.16610037731E+04  0.25500000920E-02 0. -1.
       -2   -1    0    0    0  501  0.00000000000E+00  0.00000000000E+00 -0.14459316948E+04  0.14459316948E+04  0.25500000920E-02 0.  1.
    10030    2    1    2    0    0  0.00000000000E+00  0.00000000000E+00  0.21507207832E+03  0.31069354679E+04  0.30994825379E+04 0.  0.
        1    1    3    3  502    0 -0.98024563267E+03  0.90589447459E+03  0.89693947371E+03  0.16081127818E+04  0.50400001928E-02 0. -1.
       -1    1    3    3    0  502  0.98024563267E+03 -0.90589447459E+03 -0.68186739539E+03  0.14988226861E+04  0.50400001928E-02 0.  1.
</event>
<event>
 5   0  0.1885307E-06  0.3038508E+04  0.7818609E-02  0.8232819E-01
       -1   -1    0    0    0  501  0.00000000000E+00  0.00000000000E+00  0.88520948735E+03  0.88520948736E+03  0.50400001928E-02 0.  1.
        1   -1    0    0  501    0  0.00000000000E+00  0.00000000000E+00 -0.26074424637E+04  0.26074424638E+04  0.50400001928E-02 0. -1.
    10030    2    1    2    0    0  0.00000000000E+00  0.00000000000E+00 -0.17222329764E+04  0.34926519511E+04  0.30385080593E+04 0.  0.
        3    1    3    3  502    0 -0.99940409017E+03 -0.11434322792E+04 -0.81118580654E+03  0.17217050664E+04  0.10100000352E+00 0.  1.
       -3    1    3    3    0  502  0.99940409017E+03  0.11434322792E+04 -0.91104716987E+03  0.17709468847E+04  0.10100000352E+00 0. -1.
</event>
<event>
 5   0  0.5114870E-06  0.3123285E+04  0.7818609E-02  0.8209376E-01
       -2   -1    0    0    0  501  0.00000000000E+00  0.00000000000E+00  0.16232345961E+04  0.16232345961E+04  0.25500000920E-02 0.  1.
        2   -1    0    0  501    0  0.00000000000E+00  0.00000000000E+00 -0.15023877284E+04  0.15023877284E+04  0.25500000920E-02 0. -1.
    10030    2    1    2    0    0  0.00000000000E+00  0.00000000000E+00  0.12084686768E+03  0.31256223245E+04  0.31232852815E+04 0.  0.
        2    1    3    3  502    0  0.66484063895E+03 -0.11491309664E+04 -0.76251340123E+03  0.15309937101E+04  0.25500000920E-02 0. -1.
       -2    1    3    3    0  502 -0.66484063895E+03  0.11491309664E+04  0.88336026891E+03  0.15946286144E+04  0.25500000920E-02 0.  1.
</event>
<event>
 5   0  0.5001658E-06  0.3008652E+04  0.7818609E-02  0.8241264E-01
       -2   -1    0    0    0  501  0.00000000000E+00  0.00000000000E+00  0.19755759233E+04  0.19755759233E+04  0.25500000920E-02 0.  1.
        2   -1    0    0  501    0  0.00000000000E+00  0.00000000000E+00 -0.11454873051E+04  0.11454873051E+04  0.25500000920E-02 0. -1.
    10030    2    1    2    0    0  0.00000000000E+00  0.00000000000E+00  0.83008861822E+03  0.31210632284E+04  0.30086522833E+04 0.  0.
        3    1    3    3  502    0 -0.75128241342E+03 -0.18473534214E+02  0.17668955343E+04  0.19200745755E+04  0.10100000352E+00 0.  1.
       -3    1    3    3    0  502  0.75128241342E+03  0.18473534214E+02 -0.93680691608E+03  0.12009886529E+04  0.10100000352E+00 0. -1.
</event>
<event>
 5   0  0.1853742E-06  0.2752227E+04  0.7818609E-02  0.8318255E-01
        1   -1    0    0  501    0  0.00000000000E+00  0.00000000000E+00  0.20608026158E+04  0.20608026158E+04  0.50400001928E-02 0.  1.
       -1   -1    0    0    0  501  0.00000000000E+00  0.00000000000E+00 -0.91890848352E+03  0.91890848354E+03  0.50400001928E-02 0. -1.
    10030    2    1    2    0    0  0.00000000000E+00  0.00000000000E+00  0.11418941323E+04  0.29797110993E+04  0.27522274663E+04 0.  0.
        5    1    3    3  502    0 -0.10533842437E+04  0.72723053446E+03  0.11178582582E+04  0.16994445535E+04  0.46999998093E+01 0.  1.
       -5    1    3    3    0  502  0.10533842437E+04 -0.72723053446E+03  0.24035874071E+02  0.12802665458E+04  0.46999998093E+01 0. -1.
</event>
<event>
 5   0  0.4900679E-06  0.3012210E+04  0.7818609E-02  0.8240253E-01
       -2   -1    0    0    0  501  0.00000000000E+00  0.00000000000E+00  0.12257869787E+04  0.12257869787E+04  0.25500000920E-02 0. -1.
        2   -1    0    0  501    0  0.00000000000E+00  0.00000000000E+00 -0.18505272650E+04  0.18505272650E+04  0.25500000920E-02 0.  1.
    10030    2    1    2    0    0  0.00000000000E+00  0.00000000000E+00 -0.62474028627E+03  0.30763142438E+04  0.30122099696E+04 0.  0.
        4    1    3    3  502    0 -0.76812313889E+03  0.12851810536E+04 -0.47908356097E+03  0.15720134123E+04  0.12699999809E+01 0. -1.
       -4    1    3    3    0  502  0.76812313889E+03 -0.12851810536E+04 -0.14565672530E+03  0.15043008315E+04  0.12699999809E+01 0.  1.
</event>
<event>
 5   0  0.4900679E-06  0.2954263E+04  0.7818609E-02  0.8256913E-01
       -2   -1    0    0    0  501  0.00000000000E+00  0.00000000000E+00  0.21257885390E+04  0.21257885390E+04  0.25500000920E-02 0.  1.
        2   -1    0    0  501    0  0.00000000000E+00  0.00000000000E+00 -0.10264039098E+04  0.10264039098E+04  0.25500000920E-02 0. -1.
    10030    2    1    2    0    0  0.00000000000E+00  0.00000000000E+00  0.10993846292E+04  0.31521924488E+04  0.29542631351E+04 0.  0.
        4    1    3    3  502    0  0.55859458490E+03 -0.11302963151E+04  0.13708775939E+04  0.18624995733E+04  0.12699999809E+01 0.  1.
       -4    1    3    3    0  502 -0.55859458490E+03  0.11302963151E+04 -0.27149296472E+03  0.12896928755E+04  0.12699999809E+01 0. -1.
</event>
<event>
 5   0  0.5114870E-06  0.3072698E+04  0.7818609E-02  0.8223271E-01
       -2   -1    0    0    0  501  0.00000000000E+00  0.00000000000E+00  0.18000230426E+04  0.18000230426E+04  0.25500000920E-02 0.  1.
        2   -1    0    0  501    0  0.00000000000E+00  0.00000000000E+00 -0.13112989656E+04  0.13112989656E+04  0.25500000920E-02 0. -1.
    10030    2    1    2    0    0  0.00000000000E+00  0.00000000000E+00  0.48872407701E+03  0.31113220082E+04  0.30726980677E+04 0.  0.
        2    1    3    3  502    0 -0.57657803066E+03 -0.98332114008E+03  0.12873611173E+04  0.17194945002E+04  0.25500000920E-02 0.  1.
       -2    1    3    3    0  502  0.57657803066E+03  0.98332114008E+03 -0.79863704026E+03  0.13918275080E+04  0.25500000920E-02 0. -1.
</event>
<event>
 5   0  0.1853742E-06  0.3114810E+04  0.7818609E-02  0.8211685E-01
        1   -1    0    0  501    0  0.00000000000E+00  0.00000000000E+00  0.22569645161E+04  0.22569645161E+04  0.50400001928E-02 0.  1.
       -1   -1    0    0    0  501  0.00000000000E+00  0.00000000000E+00 -0.10746783294E+04  0.10746783294E+04  0.50400001928E-02 0. -1.
    10030    2    1    2    0    0  0.00000000000E+00  0.00000000000E+00  0.11822861867E+04  0.33316428455E+04  0.31148103350E+04 0.  0.
        5    1    3    3  502    0 -0.68938942251E+03 -0.11982822161E+04  0.13582510860E+04  0.19380418334E+04  0.46999998093E+01 0.  1.
       -5    1    3    3    0  502  0.68938942251E+03  0.11982822161E+04 -0.17596489932E+03  0.13936010121E+04  0.46999998093E+01 0. -1.
</event>
<event>
 5   0  0.5001658E-06  0.3089161E+04  0.7818609E-02  0.8218719E-01
       -2   -1    0    0    0  501  0.00000000000E+00  0.00000000000E+00  0.13599086530E+04  0.13599086530E+04  0.25500000920E-02 0. -1.
        2   -1    0    0  501    0  0.00000000000E+00  0.00000000000E+00 -0.17543302882E+04  0.17543302882E+04  0.25500000920E-02 0.  1.
    10030    2    1    2    0    0  0.00000000000E+00  0.00000000000E+00 -0.39442163521E+03  0.31142389412E+04  0.30891610118E+04 0.  0.
        3    1    3    3  502    0  0.85270976018E+03 -0.38196205943E+03 -0.14371222300E+04  0.17141555542E+04  0.10100000352E+00 0.  1.
       -3    1    3    3    0  502 -0.85270976018E+03  0.38196205943E+03  0.10427005948E+04  0.14000833870E+04  0.10100000352E+00 0. -1.
</event>
<event>
 5   0  0.1885307E-06  0.3086890E+04  0.7818609E-02  0.8219345E-01
        1   -1    0    0  501    0  0.00000000000E+00  0.00000000000E+00  0.12085397129E+04  0.12085397129E+04  0.50400001928E-02 0.  1.
       -1   -1    0    0    0  501  0.00000000000E+00  0.00000000000E+00 -0.19711583332E+04  0.19711583332E+04  0.50400001928E-02 0. -1.
    10030    2    1    2    0    0  0.00000000000E+00  0.00000000000E+00 -0.76261862027E+03  0.31796980461E+04  0.30868904263E+04 0.  0.
        3    1    3    3  502    0  0.32081096681E+03  0.61850362640E+03  0.10373250679E+04  0.12496038248E+04  0.10100000352E+00 0.  1.
       -3    1    3    3    0  502 -0.32081096681E+03 -0.61850362640E+03 -0.17999436881E+04  0.19300942213E+04  0.10100000352E+00 0. -1.
</event>
<event>
 5   0  0.4900679E-06  0.3088974E+04  0.7818609E-02  0.8218770E-01
        2   -1    0    0  501    0  0.00000000000E+00  0.00000000000E+00  0.12528208739E+04  0.12528208739E+04  0.25500000920E-02 0.  1.
       -2   -1    0    0    0  501  0.00000000000E+00  0.00000000000E+00 -0.19040552094E+04  0.19040552094E+04  0.25500000920E-02 0. -1.
    10030    2    1    2    0    0  0.00000000000E+00  0.00000000000E+00 -0.65123433545E+03  0.31568760833E+04  0.30889740118E+04 0.  0.
        4    1    3    3  502    0  0.90288059728E+03 -0.23717943757E+03  0.93187396954E+03  0.13190292516E+04  0.12699999809E+01 0.  1.
       -4    1    3    3    0  502 -0.90288059728E+03  0.23717943757E+03 -0.15831083050E+04  0.18378468317E+04  0.12699999809E+01 0. -1.
</event>
<event>
 5   0  0.1843709E-06  0.2996050E+04  0.7818609E-02  0.8244860E-01
       -1   -1    0    0    0  501  0.00000000000E+00  0.00000000000E+00  0.15696911218E+04  0.15696911219E+04  0.50400001928E-02 0. -1.
        1   -1    0    0  501    0  0.00000000000E+00  0.00000000000E+00 -0.14296313367E+04  0.14296313367E+04  0.50400001928E-02 0.  1.
    10030    2    1    2    0    0  0.00000000000E+00  0.00000000000E+00  0.14005978511E+03  0.29993224586E+04  0.29960504781E+04 0.  0.
        4    1    3    3  502    0 -0.86337097408E+03  0.12013089676E+04  0.30592536495E+03  0.15106768735E+04  0.12699999809E+01 0. -1.
       -4    1    3    3    0  502  0.86337097408E+03 -0.12013089676E+04 -0.16586557984E+03  0.14886455851E+04  0.12699999809E+01 0.  1.
</event>
<event>
 5   0  0.1885307E-06  0.3104192E+04  0.7818609E-02  0.8214589E-01
       -1   -1    0    0    0  501  0.00000000000E+00  0.00000000000E+00  0.16905731590E+04  0.16905731590E+04  0.50400001928E-02 0.  1.
        1   -1    0    0  501    0  0.00000000000E+00  0.00000000000E+00 -0.14249612572E+04  0.14249612572E+04  0.50400001928E-02 0. -1.
    10030    2    1    2    0    0  0.00000000000E+00  0.00000000000E+00  0.26561190180E+03  0.31155344162E+04  0.31041915237E+04 0.  0.
        3    1    3    3  502    0  0.10211766187E+04  0.27302887603E+03  0.12734687392E+04  0.16550133213E+04  0.10100000352E+00 0.  1.
       -3    1    3    3    0  502 -0.10211766187E+04 -0.27302887603E+03 -0.10078568374E+04  0.14605210949E+04  0.10100000352E+00 0. -1.
</event>
<event>
 5   0  0.5114870E-06  0.3102030E+04  0.7818609E-02  0.8215181E-01
        2   -1    0    0  501    0  0.00000000000E+00  0.00000000000E+00  0.15599796778E+04  0.15599796778E+04  0.25500000920E-02 0. -1.
       -2   -1    0    0    0  501  0.00000000000E+00  0.00000000000E+00 -0.15421015580E+04  0.15421015580E+04  0.25500000920E-02 0.  1.
    10030    2    1    2    0    0  0.00000000000E+00  0.00000000000E+00  0.17878119825E+02  0.31020812358E+04  0.31020297172E+04 0.  0.
        2    1    3    3  502    0 -0.12472242203E+04 -0.85225940431E+03  0.36070155582E+03  0.15530679188E+04  0.25500000920E-02 0. -1.
       -2    1    3    3    0  502  0.12472242203E+04  0.85225940431E+03 -0.34282343599E+03  0.15490133170E+04  0.25500000920E-02 0.  1.
</event>
<event>
 5   0  0.1885307E-06  0.3089641E+04  0.7818609E-02  0.8218587E-01
       -1   -1    0    0    0  501  0.00000000000E+00  0.00000000000E+00  0.22924803105E+04  0.22924803105E+04  0.50400001928E-02 0. -1.
        1   -1    0    0  501    0  0.00000000000E+00  0.00000000000E+00 -0.10409991316E+04  0.10409991316E+04  0.50400001928E-02 0.  1.
    10030    2    1    2    0    0  0.00000000000E+00  0.00000000000E+00  0.12514811789E+04  0.33334794422E+04  0.30896407640E+04 0.  0.
        3    1    3    3  502    0 -0.12488010235E+04 -0.21295517285E+03  0.15796047758E+04  0.20248469472E+04  0.10100000352E+00 0. -1.
       -3    1    3    3    0  502  0.12488010235E+04  0.21295517285E+03 -0.32812359686E+03  0.13086324950E+04  0.10100000352E+00 0.  1.
</event>
<event>
 5   0  0.4900679E-06  0.2974064E+04  0.7818609E-02  0.8251176E-01
        2   -1    0    0  501    0  0.00000000000E+00  0.00000000000E+00  0.13725072266E+04  0.13725072266E+04  0.25500000920E-02 0. -1.
       -2   -1    0    0    0  501  0.00000000000E+00  0.00000000000E+00 -0.16111126496E+04  0.16111126496E+04  0.25500000920E-02 0.  1.
    10030    2    1    2    0    0  0.00000000000E+00  0.00000000000E+00 -0.23860542304E+03  0.29836198763E+04  0.29740637213E+04 0.  0.
        4    1    3    3  502    0  0.63464905531E+03 -0.69479337229E+03 -0.12744123373E+04  0.15841861229E+04  0.12699999809E+01 0.  1.
       -4    1    3    3    0  502 -0.63464905531E+03  0.69479337229E+03  0.10358069143E+04  0.13994337534E+04  0.12699999809E+01 0. -1.
</event>
<event>
 5   0  0.5328368E-06  0.3113749E+04  0.7818609E-02  0.8211975E-01
        2   -1    0    0  501    0  0.00000000000E+00  0.00000000000E+00  0.10109752354E+04  0.10109752354E+04  0.25500000920E-02 0.  1.
       -2   -1    0    0    0  501  0.00000000000E+00  0.00000000000E+00 -0.23975441005E+04  0.23975441005E+04  0.25500000920E-02 0. -1.
    10030    2    1    2    0    0  0.00000000000E+00  0.00000000000E+00 -0.13865688651E+04  0.34085193359E+04  0.31137486806E+04 0.  0.
        1    1    3    3  502    0 -0.25614647298E+03 -0.88253086709E+03  0.68242382032E+03  0.11446283316E+04  0.50400001928E-02 0.  1.
       -1    1    3    3    0  502  0.25614647298E+03  0.88253086709E+03 -0.20689926854E+04  0.22638910043E+04  0.50400001928E-02 0. -1.
</event>
<event>
 5   0  0.5001658E-06  0.3115532E+04  0.7818609E-02  0.8211488E-01
        2   -1    0    0  501    0  0.00000000000E+00  0.00000000000E+00  0.18103840471E+04  0.18103840471E+04  0.25500000920E-02 0.  1.
       -2   -1    0    0    0  501  0.00000000000E+00  0.00000000000E+00 -0.13403976176E+04  0.13403976176E+04  0.25500000920E-02 0. -1.
    10030    2    1    2    0    0  0.00000000000E+00  0.00000000000E+00  0.46998642958E+03  0.31507816647E+04  0.31155317130E+04 0.  0.
        3    1    3    3  502    0 -0.10731925575E+04  0.22196011412E+03  0.13545989060E+04  0.17423968446E+04  0.10100000352E+00 0.  1.
       -3    1    3    3    0  502  0.10731925575E+04 -0.22196011412E+03 -0.88461247645E+03  0.14083848201E+04  0.10100000352E+00 0. -1.
</event>
<event>
 5   0  0.5001658E-06  0.3132138E+04  0.7818609E-02  0.8206973E-01
        2   -1    0    0  501    0  0.00000000000E+00  0.00000000000E+00  0.25374206738E+04  0.25374206738E+04  0.25500000920E-02 0. -1.
       -2   -1    0    0    0  501  0.00000000000E+00  0.00000000000E+00 -0.96656087795E+03  0.96656087796E+03  0.25500000920E-02 0.  1.
    10030    2    1    2    0    0  0.00000000000E+00  0.00000000000E+00  0.15708597958E+04  0.35039815517E+04  0.31321376433E+04 0.  0.
        3    1    3    3  502    0  0.18860418447E+03 -0.10336236868E+03 -0.94996102568E+03  0.97400270953E+03  0.10100000352E+00 0.  1.
       -3    1    3    3    0  502 -0.18860418447E+03  0.10336236868E+03  0.25208208215E+04  0.25299788422E+04  0.10100000352E+00 0. -1.
</event>
<event>
 5   0  0.4927533E-06  0.2965123E+04  0.7818609E-02  0.8253761E-01
        2   -1    0    0  501    0  0.00000000000E+00  0.00000000000E+00  0.14944322944E+04  0.14944322944E+04  0.25500000920E-02 0.  1.
       -2   -1    0    0    0  501  0.00000000000E+00  0.00000000000E+00 -0.14707847305E+04  0.14707847305E+04  0.25500000920E-02 0. -1.
    10030    2    1    2    0    0  0.00000000000E+00  0.00000000000E+00  0.23647563909E+02  0.29652170248E+04  0.29651227288E+04 0.  0.
        5    1    3    3  502    0 -0.21867681916E+02 -0.19193546465E+03 -0.14581374822E+04  0.14708855921E+04  0.46999998093E+01 0. -1.
       -5    1    3    3    0  502  0.21867681916E+02  0.19193546465E+03  0.14817850461E+04  0.14943314327E+04  0.46999998093E+01 0.  1.
</event>
<event>
 5   0  0.1885307E-06  0.3098184E+04  0.7818609E-02  0.8216237E-01
       -1   -1    0    0    0  501  0.00000000000E+00  0.00000000000E+00  0.18073576623E+04  0.18073576623E+04  0.50400001928E-02 0.  1.
        1   -1    0    0  501    0  0.00000000000E+00  0.00000000000E+00 -0.13277315249E+04  0.13277315250E+04  0.50400001928E-02 0. -1.
    10030    2    1    2    0    0  0.00000000000E+00  0.00000000000E+00  0.47962613739E+03  0.31350891873E+04  0.30981838197E+04 0.  0.
        3    1    3    3  502    0 -0.44162057324E+02  0.47963689638E+03  0.17296567186E+04  0.17954704715E+04  0.10100000352E+00 0.  1.
       -3    1    3    3    0  502  0.44162057324E+02 -0.47963689638E+03 -0.12500305812E+04  0.13396187158E+04  0.10100000352E+00 0. -1.
</event>
<event>
 5   0  0.1843709E-06  0.2916587E+04  0.7818609E-02  0.8267959E-01
       -1   -1    0    0    0  501  0.00000000000E+00  0.00000000000E+00  0.12892711498E+04  0.12892711498E+04  0.50400001928E-02 0. -1.
        1   -1    0    0  501    0  0.00000000000E+00  0.00000000000E+00 -0.16494750922E+04  0.16494750923E+04  0.50400001928E-02 0.  1.
    10030    2    1    2    0    0  0.00000000000E+00  0.00000000000E+00 -0.36020394243E+03  0.29387462421E+04  0.29165874914E+04 0.  0.
        4    1    3    3  502    0 -0.78067096518E+02  0.91639784418E+03  0.96019373593E+03  0.13296063718E+04  0.12699999809E+01 0. -1.
       -4    1    3    3    0  502  0.78067096518E+02 -0.91639784418E+03 -0.13203976784E+04  0.16091398703E+04  0.12699999809E+01 0.  1.
</event>
<event>
 5   0  0.4900679E-06  0.3092145E+04  0.7818609E-02  0.8217897E-01
        2   -1    0    0  501    0  0.00000000000E+00  0.00000000000E+00  0.28567637678E+04  0.28567637678E+04  0.25500000920E-02 0. -1.
       -2   -1    0    0    0  501  0.00000000000E+00  0.00000000000E+00 -0.83673011344E+03  0.83673011345E+03  0.25500000920E-02 0.  1.
    10030    2    1    2    0    0  0.00000000000E+00  0.00000000000E+00  0.20200336543E+04  0.36934938812E+04  0.30921450622E+04 0.  0.
        4    1    3    3  502    0 -0.11999119947E+04 -0.38212798076E+03 -0.61374495470E+02  0.12607850849E+04  0.12699999809E+01 0.  1.
       -4    1    3    3    0  502  0.11999119947E+04  0.38212798076E+03  0.20814081498E+04  0.24327087963E+04  0.12699999809E+01 0. -1.
</event>
<event>
 5   0  0.1885307E-06  0.3104696E+04  0.7818609E-02  0.8214450E-01
        1   -1    0    0  501    0  0.00000000000E+00  0.00000000000E+00  0.22803609318E+04  0.22803609318E+04  0.50400001928E-02 0.  1.
       -1   -1    0    0    0  501  0.00000000000E+00  0.00000000000E+00 -0.10567556571E+04  0.10567556571E+04  0.50400001928E-02 0. -1.
    10030    2    1    2    0    0  0.00000000000E+00  0.00000000000E+00  0.12236052747E+04  0.33371165889E+04  0.31046960012E+04 0.  0.
        3    1    3    3  502    0  0.12667526572E+04 -0.18913640586E+03  0.15545907887E+04  0.20142461133E+04  0.10100000352E+00 0.  1.
       -3    1    3    3    0  502 -0.12667526572E+04  0.18913640586E+03 -0.33098551404E+03  0.13228704756E+04  0.10100000352E+00 0. -1.
</event>
<event>
 5   0  0.1843709E-06  0.3093104E+04  0.7818609E-02  0.8217633E-01
       -1   -1    0    0    0  501  0.00000000000E+00  0.00000000000E+00  0.12116040059E+04  0.12116040059E+04  0.50400001928E-02 0.  1.
        1   -1    0    0  501    0  0.00000000000E+00  0.00000000000E+00 -0.19740963503E+04  0.19740963503E+04  0.50400001928E-02 0. -1.
    10030    2    1    2    0    0  0.00000000000E+00  0.00000000000E+00 -0.76249234441E+03  0.31857003562E+04  0.30931039724E+04 0.  0.
        4    1    3    3  502    0  0.55836379365E+03 -0.13846297070E+04  0.34383740180E+02  0.14933698156E+04  0.12699999809E+01 0.  1.
       -4    1    3    3    0  502 -0.55836379365E+03  0.13846297070E+04 -0.79687608459E+03  0.16923305406E+04  0.12699999809E+01 0. -1.
</event>
<event>
 5   0  0.1853742E-06  0.2862793E+04  0.7818609E-02  0.8284034E-01
        1   -1    0    0  501    0  0.00000000000E+00  0.00000000000E+00  0.18875577201E+04  0.18875577201E+04  0.50400001928E-02 0.  1.
       -1   -1    0    0    0  501  0.00000000000E+00  0.00000000000E+00 -0.10854747109E+04  0.10854747109E+04  0.50400001928E-02 0. -1.
    10030    2    1    2    0    0  0.00000000000E+00  0.00000000000E+00  0.80208300923E+03  0.29730324310E+04  0.28627931609E+04 0.  0.
        5    1    3    3  502    0 -0.13770786211E+03 -0.11346705278E+04  0.12958671694E+04  0.17279277973E+04  0.46999998093E+01 0.  1.
       -5    1    3    3    0  502  0.13770786211E+03  0.11346705278E+04 -0.49378416017E+03  0.12451046337E+04  0.46999998093E+01 0. -1.
</event>
<event>
 5   0  0.1885307E-06  0.2956612E+04  0.7818609E-02  0.8256230E-01
        1   -1    0    0  501    0  0.00000000000E+00  0.00000000000E+00  0.17055356293E+04  0.17055356293E+04  0.50400001928E-02 0.  1.
       -1   -1    0    0    0  501  0.00000000000E+00  0.00000000000E+00 -0.12813507494E+04  0.12813507494E+04  0.50400001928E-02 0. -1.
    10030    2    1    2    0    0  0.00000000000E+00  0.00000000000E+00  0.42418487990E+03  0.29868863788E+04  0.29566124919E+04 0.  0.
        3    1    3    3  502    0 -0.12000166120E+04  0.68703249646E+03 -0.31607615476E+03  0.14184349355E+04  0.10100000352E+00 0. -1.
       -3    1    3    3    0  502  0.12000166120E+04 -0.68703249646E+03  0.74026103466E+03  0.15684514433E+04  0.10100000352E+00 0.  1.
</event>
<event>
 5   0  0.1853742E-06  0.3173003E+04  0.7818609E-02  0.8195983E-01
       -1   -1    0    0    0  501  0.00000000000E+00  0.00000000000E+00  0.18792839699E+04  0.18792839699E+04  0.50400001928E-02 0. -1.
        1   -1    0    0  501    0  0.00000000000E+00  0.00000000000E+00 -0.13393334021E+04  0.13393334022E+04  0.50400001928E-02 0.  1.
    10030    2    1    2    0    0  0.00000000000E+00  0.00000000000E+00  0.53995056776E+03  0.32186173721E+04  0.31730034939E+04 0.  0.
        5    1    3    3  502    0 -0.11519108022E+04 -0.72235566358E+03  0.10992045504E+04  0.17484189814E+04  0.46999998093E+01 0. -1.
       -5    1    3    3    0  502  0.11519108022E+04  0.72235566358E+03 -0.55925398262E+03  0.14701983907E+04  0.46999998093E+01 0.  1.
</event>
<event>
 5   0  0.1836401E-06  0.2617799E+04  0.7818609E-02  0.8362180E-01
        1   -1    0    0  501    0  0.00000000000E+00  0.00000000000E+00  0.18905393310E+04  0.18905393310E+04  0.50400001928E-02 0.  1.
       -1   -1    0    0    0  501  0.00000000000E+00  0.00000000000E+00 -0.90620587045E+03  0.90620587046E+03  0.50400001928E-02 0. -1.
    10030    2    1    2    0    0  0.00000000000E+00  0.00000000000E+00  0.98433346053E+03  0.27967452015E+04  0.26177989534E+04 0.  0.
        2    1    3    3  502    0 -0.11409106443E+04 -0.31955918536E+03 -0.10211540577E+03  0.11892109684E+04  0.25500000920E-02 0. -1.
       -2    1    3    3    0  502  0.11409106443E+04  0.31955918536E+03  0.10864488663E+04  0.16075342330E+04  0.25500000920E-02 0.  1.
</event>
<event>
 5   0  0.1836401E-06  0.3118875E+04  0.7818609E-02  0.8210577E-01
        1   -1    0    0  501    0  0.00000000000E+00  0.00000000000E+00  0.14869404787E+04  0.14869404787E+04  0.50400001928E-02 0. -1.
       -1   -1    0    0    0  501  0.00000000000E+00  0.00000000000E+00 -0.16354687536E+04  0.16354687536E+04  0.50400001928E-02 0.  1.
    10030    2    1    2    0    0  0.00000000000E+00  0.00000000000E+00 -0.14852827489E+03  0.31224092323E+04  0.31188745991E+04 0.  0.
        2    1    3    3  502    0 -0.11592681706E+04  0.10073649464E+04 -0.34504777614E+03  0.15740853834E+04  0.25500000920E-02 0.  1.
       -2    1    3    3    0  502  0.11592681706E+04 -0.10073649464E+04  0.19651950125E+03  0.15483238488E+04  0.25500000920E-02 0. -1.
</event>
<event>
 5   0  0.4927533E-06  0.3117292E+04  0.7818609E-02  0.8211008E-01
       -2   -1    0    0    0  501  0.00000000000E+00  0.00000000000E+00  0.11229726239E+04  0.11229726239E+04  0.25500000920E-02 0.  1.
        2   -1    0    0  501    0  0.00000000000E+00  0.00000000000E+00 -0.21633452257E+04  0.21633452257E+04  0.25500000920E-02 0. -1.
    10030    2    1    2    0    0  0.00000000000E+00  0.00000000000E+00 -0.10403726018E+04  0.32863178496E+04  0.31172920713E+04 0.  0.
        5    1    3    3  502    0 -0.15910631808E+03  0.13795352761E+04  0.22594892969E+03  0.14069496819E+04  0.46999998093E+01 0. -1.
       -5    1    3    3    0  502  0.15910631808E+03 -0.13795352761E+04 -0.12663215315E+04  0.18793681677E+04  0.46999998093E+01 0.  1.
</event>
<event>
 5   0  0.1885307E-06  0.2516028E+04  0.7818609E-02  0.8397298E-01
        1   -1    0    0  501    0  0.00000000000E+00  0.00000000000E+00  0.16458465822E+04  0.16458465822E+04  0.50400001928E-02 0.  1.
       -1   -1    0    0    0  501  0.00000000000E+00  0.00000000000E+00 -0.96157171281E+03  0.96157171282E+03  0.50400001928E-02 0. -1.
    10030    2    1    2    0    0  0.00000000000E+00  0.00000000000E+00  0.68427486939E+03  0.26074182950E+04  0.25160282328E+04 0.  0.
        3    1    3    3  502    0  0.29879297277E+03  0.11729836450E+04 -0.12992884575E+02  0.12105109241E+04  0.10100000352E+00 0. -1.
       -3    1    3    3    0  502 -0.29879297277E+03 -0.11729836450E+04  0.69726775396E+03  0.13969073709E+04  0.10100000352E+00 0.  1.
</event>
<event>
 5   0  0.4927533E-06  0.3033222E+04  0.7818609E-02  0.8234307E-01
       -2   -1    0    0    0  501  0.00000000000E+00  0.00000000000E+00  0.11764599750E+04  0.11764599750E+04  0.25500000920E-02 0.  1.
        2   -1    0    0  501    0  0.00000000000E+00  0.00000000000E+00 -0.19551098950E+04  0.19551098950E+04  0.25500000920E-02 0. -1.
    10030    2    1    2    0    0  0.00000000000E+00  0.00000000000E+00 -0.77864991993E+03  0.31315698700E+04  0.30332217447E+04 0.  0.
        5    1    3    3  502    0 -0.13061083829E+04 -0.62404799943E+03  0.77818432350E+02  0.14496319574E+04  0.46999998093E+01 0.  1.
       -5    1    3    3    0  502  0.13061083829E+04  0.62404799943E+03 -0.85646835228E+03  0.16819379126E+04  0.46999998093E+01 0. -1.
</event>
<event>
 5   0  0.1885307E-06  0.3168376E+04  0.7818609E-02  0.8197219E-01
        1   -1    0    0  501    0  0.00000000000E+00  0.00000000000E+00  0.11606400184E+04  0.11606400184E+04  0.50400001928E-02 0.  1.
       -1   -1    0    0    0  501  0.00000000000E+00  0.00000000000E+00 -0.21623002026E+04  0.21623002026E+04  0.50400001928E-02 0. -1.
    10030    2    1    2    0    0  0.00000000000E+00  0.00000000000E+00 -0.10016601843E+04  0.33229402210E+04  0.31683763330E+04 0.  0.
        3    1    3    3  502    0 -0.67540023236E+02 -0.14490863217E+04 -0.11684688706E+04  0.18627217543E+04  0.10100000352E+00 0. -1.
       -3    1    3    3    0  502  0.67540023236E+02  0.14490863217E+04  0.16680868629E+03  0.14602184667E+04  0.10100000352E+00 0.  1.
</event>
<event>
 5   0  0.4900679E-06  0.3142957E+04  0.7818609E-02  0.8204047E-01
       -2   -1    0    0    0  501  0.00000000000E+00  0.00000000000E+00  0.10411359745E+04  0.10411359745E+04  0.25500000920E-02 0.  1.
        2   -1    0    0  501    0  0.00000000000E+00  0.00000000000E+00 -0.23719714904E+04  0.23719714904E+04  0.25500000920E-02 0. -1.
    10030    2    1    2    0    0  0.00000000000E+00  0.00000000000E+00 -0.13308355159E+04  0.34131074649E+04  0.31429571102E+04 0.  0.
        4    1    3    3  502    0  0.12821845535E+04 -0.64775954825E+03  0.26492378509E+02  0.14367648105E+04  0.12699999809E+01 0.  1.
       -4    1    3    3    0  502 -0.12821845535E+04  0.64775954825E+03 -0.13573278944E+04  0.19763426544E+04  0.12699999809E+01 0. -1.
</event>
<event>
 5   0  0.1843709E-06  0.3092675E+04  0.7818609E-02  0.8217751E-01
        1   -1    0    0  501    0  0.00000000000E+00  0.00000000000E+00  0.21452527033E+04  0.21452527034E+04  0.50400001928E-02 0. -1.
       -1   -1    0    0    0  501  0.00000000000E+00  0.00000000000E+00 -0.11146282625E+04  0.11146282625E+04  0.50400001928E-02 0.  1.
    10030    2    1    2    0    0  0.00000000000E+00  0.00000000000E+00  0.10306244408E+04  0.32598809659E+04  0.30926747604E+04 0.  0.
        4    1    3    3  502    0  0.97975205356E+03  0.11504235284E+04  0.16928120925E+03  0.15205413910E+04  0.12699999809E+01 0. -1.
       -4    1    3    3    0  502 -0.97975205356E+03 -0.11504235284E+04  0.86134323158E+03  0.17393395748E+04  0.12699999809E+01 0.  1.
</event>
<event>
 5   0  0.4900679E-06  0.3127011E+04  0.7818609E-02  0.8208364E-01
        2   -1    0    0  501    0  0.00000000000E+00  0.00000000000E+00  0.28370282656E+04  0.28370282656E+04  0.25500000920E-02 0. -1.
       -2   -1    0    0    0  501  0.00000000000E+00  0.00000000000E+00 -0.86165843531E+03  0.86165843531E+03  0.25500000920E-02 0.  1.
    10030    2    1    2    0    0  0.00000000000E+00  0.00000000000E+00  0.19753698303E+04  0.36986867009E+04  0.31270109282E+04 0.  0.
        4    1    3    3  502    0 -0.64511071854E+03  0.18921634759E+03 -0.68196611427E+03  0.95762730708E+03  0.12699999809E+01 0.  1.
       -4    1    3    3    0  502  0.64511071854E+03 -0.18921634759E+03  0.26573359446E+04  0.27410593939E+04  0.12699999809E+01 0. -1.
</event>
<event>
 5   0  0.5114870E-06  0.3149876E+04  0.7818609E-02  0.8202182E-01
       -2   -1    0    0    0  501  0.00000000000E+00  0.00000000000E+00  0.82090220825E+03  0.82090220825E+03  0.25500000920E-02 0.  1.
        2   -1    0    0  501    0  0.00000000000E+00  0.00000000000E+00 -0.30215901955E+04  0.30215901955E+04  0.25500000920E-02 0. -1.
    10030    2    1    2    0    0  0.00000000000E+00  0.00000000000E+00 -0.22006879873E+04  0.38424924038E+04  0.31498762286E+04 0.  0.
        2    1    3    3  502    0 -0.14511897773E+04 -0.50892585278E+03 -0.68581079098E+03  0.16838330483E+04  0.25500000920E-02 0. -1.
       -2    1    3    3    0  502  0.14511897773E+04  0.50892585278E+03 -0.15148771963E+04  0.21586593555E+04  0.25500000920E-02 0.  1.
</event>
<event>
 5   0  0.1840431E-06  0.3117638E+04  0.7818609E-02  0.8210914E-01
       -1   -1    0    0    0  501  0.00000000000E+00  0.00000000000E+00  0.14623223295E+04  0.14623223295E+04  0.50400001928E-02 0. -1.
        1   -1    0    0  501    0  0.00000000000E+00  0.00000000000E+00 -0.16616830141E+04  0.16616830141E+04  0.50400001928E-02 0.  1.
    10030    2    1    2    0    0  0.00000000000E+00  0.00000000000E+00 -0.19936068465E+03  0.31240053436E+04  0.31176376801E+04 0.  0.
        1    1    3    3  502    0  0.48274885252E+03 -0.11491195169E+03  0.13810607524E+04  0.14675080964E+04  0.50400001928E-02 0. -1.
       -1    1    3    3    0  502 -0.48274885252E+03  0.11491195169E+03 -0.15804214370E+04  0.16564972472E+04  0.50400001928E-02 0.  1.
</event>
<event>
 5   0  0.1840431E-06  0.3102200E+04  0.7818609E-02  0.8215134E-01
        1   -1    0    0  501    0  0.00000000000E+00  0.00000000000E+00  0.10735916021E+04  0.10735916021E+04  0.50400001928E-02 0.  1.
       -1   -1    0    0    0  501  0.00000000000E+00  0.00000000000E+00 -0.22409931396E+04  0.22409931396E+04  0.50400001928E-02 0. -1.
    10030    2    1    2    0    0  0.00000000000E+00  0.00000000000E+00 -0.11674015375E+04  0.33145847417E+04  0.31022001322E+04 0.  0.
        1    1    3    3  502    0 -0.14526559435E+04  0.24893950462E+03 -0.67144420073E+02  0.14753604781E+04  0.50400001928E-02 0.  1.
       -1    1    3    3    0  502  0.14526559435E+04 -0.24893950462E+03 -0.11002571174E+04  0.18392242636E+04  0.50400001928E-02 0. -1.
</event>
<event>
 5   0  0.4927533E-06  0.3011600E+04  0.7818609E-02  0.8240426E-01
        2   -1    0    0  501    0  0.00000000000E+00  0.00000000000E+00  0.18391103832E+04  0.18391103832E+04  0.25500000920E-02 0. -1.
       -2   -1    0    0    0  501  0.00000000000E+00  0.00000000000E+00 -0.12328969103E+04  0.12328969103E+04  0.25500000920E-02 0.  1.
    10030    2    1    2    0    0  0.00000000000E+00  0.00000000000E+00  0.60621347292E+03  0.30720072936E+04  0.30115999132E+04 0.  0.
        5    1    3    3  502    0 -0.69094811214E+02  0.75549370714E+03 -0.10237010850E+04  0.12741784945E+04  0.46999998093E+01 0.  1.
       -5    1    3    3    0  502  0.69094811214E+02 -0.75549370714E+03  0.16299145579E+04  0.17978287990E+04  0.46999998093E+01 0. -1.
</event>
<event>
 5   0  0.5001658E-06  0.3105105E+04  0.7818609E-02  0.8214338E-01
       -2   -1    0    0    0  501  0.00000000000E+00  0.00000000000E+00  0.12580856054E+04  0.12580856054E+04  0.25500000920E-02 0.  1.
        2   -1    0    0  501    0  0.00000000000E+00  0.00000000000E+00 -0.19159427111E+04  0.19159427111E+04  0.25500000920E-02 0. -1.
    10030    2    1    2    0    0  0.00000000000E+00  0.00000000000E+00 -0.65785710578E+03  0.31740283165E+04  0.31051054382E+04 0.  0.
        3    1    3    3  502    0 -0.46582929781E+02  0.39601905488E+03  0.12048497729E+04  0.12691193981E+04  0.10100000352E+00 0.  1.
       -3    1    3    3    0  502  0.46582929781E+02 -0.39601905488E+03 -0.18627068787E+04  0.19049089184E+04  0.10100000352E+00 0. -1.
</event>
<event>
 5   0  0.4927533E-06  0.3099490E+04  0.7818609E-02  0.8215878E-01
        2   -1    0    0  501    0  0.00000000000E+00  0.00000000000E+00  0.20040192326E+04  0.20040192326E+04  0.25500000920E-02 0.  1.
       -2   -1    0    0    0  501  0.00000000000E+00  0.00000000000E+00 -0.11984460774E+04  0.11984460774E+04  0.25500000920E-02 0. -1.
    10030    2    1    2    0    0  0.00000000000E+00  0.00000000000E+00  0.80557315520E+03  0.32024653100E+04  0.30994896279E+04 0.  0.
        5    1    3    3  502    0  0.41687211340E+03 -0.11175207244E+03  0.19406646051E+04  0.19880825144E+04  0.46999998093E+01 0.  1.
       -5    1    3    3    0  502 -0.41687211340E+03  0.11175207244E+03 -0.11350914499E+04  0.12143827956E+04  0.46999998093E+01 0. -1.
</event>
<event>
 5   0  0.1836401E-06  0.2933149E+04  0.7818609E-02  0.8263082E-01
        1   -1    0    0  501    0  0.00000000000E+00  0.00000000000E+00  0.20839691002E+04  0.20839691002E+04  0.50400001928E-02 0. -1.
       -1   -1    0    0    0  501  0.00000000000E+00  0.00000000000E+00 -0.10320889494E+04  0.10320889494E+04  0.50400001928E-02 0.  1.
    10030    2    1    2    0    0  0.00000000000E+00  0.00000000000E+00  0.10518801508E+04  0.31160580496E+04  0.29331494876E+04 0.  0.
        2    1    3    3  502    0 -0.16804010892E+03 -0.14547781446E+04  0.44212437904E+03  0.15297355636E+04  0.25500000920E-02 0.  1.
       -2    1    3    3    0  502  0.16804010892E+03  0.14547781446E+04  0.60975577172E+03  0.15863224859E+04  0.25500000920E-02 0. -1.
</event>
<event>
 5   0  0.4900679E-06  0.2979600E+04  0.7818609E-02  0.8249580E-01
        2   -1    0    0  501    0  0.00000000000E+00  0.00000000000E+00  0.17341525699E+04  0.17341525699E+04  0.25500000920E-02 0.  1.
       -2   -1    0    0    0  501  0.00000000000E+00  0.00000000000E+00 -0.12798785984E+04  0.12798785984E+04  0.25500000920E-02 0. -1.
    10030    2    1    2    0    0  0.00000000000E+00  0.00000000000E+00  0.45427397154E+03  0.30140311683E+04  0.29796004837E+04 0.  0.
        4    1    3    3  502    0  0.16682855785E+03  0.42924888870E+03 -0.12060685505E+04  0.12910032291E+04  0.12699999809E+01 0. -1.
       -4    1    3    3    0  502 -0.16682855785E+03 -0.42924888870E+03  0.16603425220E+04  0.17230279393E+04  0.12699999809E+01 0.  1.
</event>
<event>
 5   0  0.1885307E-06  0.2458028E+04  0.7818609E-02  0.8418093E-01
        1   -1    0    0  501    0  0.00000000000E+00  0.00000000000E+00  0.12707804550E+04  0.12707804551E+04  0.50400001928E-02 0. -1.
       -1   -1    0    0    0  501  0.00000000000E+00  0.00000000000E+00 -0.11886200010E+04  0.11886200010E+04  0.50400001928E-02 0.  1.
    10030    2    1    2    0    0  0.00000000000E+00  0.00000000000E+00  0.82160454027E+02  0.24594004561E+04  0.24580277181E+04 0.  0.
        3    1    3    3  502    0  0.37711288067E+03  0.60199958977E+03 -0.96240431370E+03  0.11961771207E+04  0.10100000352E+00 0.  1.
       -3    1    3    3    0  502 -0.37711288067E+03 -0.60199958977E+03  0.10445647677E+04  0.12632233354E+04  0.10100000352E+00 0. -1.
</event>
<event>
 5   0  0.5001658E-06  0.3181402E+04  0.7818609E-02  0.8193746E-01
       -2   -1    0    0    0  501  0.00000000000E+00  0.00000000000E+00  0.14611078544E+04  0.14611078544E+04  0.25500000920E-02 0.  1.
        2   -1    0    0  501    0  0.00000000000E+00  0.00000000000E+00 -0.17317885714E+04  0.17317885714E+04  0.25500000920E-02 0. -1.
    10030    2    1    2    0    0  0.00000000000E+00  0.00000000000E+00 -0.27068071696E+03  0.31928964258E+04  0.31814021335E+04 0.  0.
        3    1    3    3  502    0 -0.12693434277E+04  0.20110864318E+03  0.80541093661E+03  0.15166951608E+04  0.10100000352E+00 0.  1.
       -3    1    3    3    0  502  0.12693434277E+04 -0.20110864318E+03 -0.10760916536E+04  0.16762012650E+04  0.10100000352E+00 0. -1.
</event>
<event>
 5   0  0.1840431E-06  0.3064176E+04  0.7818609E-02  0.8225639E-01
       -1   -1    0    0    0  501  0.00000000000E+00  0.00000000000E+00  0.10681217385E+04  0.10681217385E+04  0.50400001928E-02 0. -1.
        1   -1    0    0  501    0  0.00000000000E+00  0.00000000000E+00 -0.21975895636E+04  0.21975895636E+04  0.50400001928E-02 0.  1.
    10030    2    1    2    0    0  0.00000000000E+00  0.00000000000E+00 -0.11294678251E+04  0.32657113021E+04  0.30641757033E+04 0.  0.
        1    1    3    3  502    0  0.12190158573E+03 -0.36338734417E+03 -0.21456661231E+04  0.21796314987E+04  0.50400001928E-02 0.  1.
       -1    1    3    3    0  502 -0.12190158573E+03  0.36338734417E+03  0.10161982979E+04  0.10860798034E+04  0.50400001928E-02 0. -1.
</event>
<event>
 5   0  0.4927533E-06  0.3049984E+04  0.7818609E-02  0.8229600E-01
       -2   -1    0    0    0  501  0.00000000000E+00  0.00000000000E+00  0.12122579110E+04  0.12122579110E+04  0.25500000920E-02 0. -1.
        2   -1    0    0  501    0  0.00000000000E+00  0.00000000000E+00 -0.19184037455E+04  0.19184037455E+04  0.25500000920E-02 0.  1.
    10030    2    1    2    0    0  0.00000000000E+00  0.00000000000E+00 -0.70614583451E+03  0.31306616566E+04  0.30499836833E+04 0.  0.
        5    1    3    3  502    0  0.60586703013E+03  0.12605462641E+04 -0.97703943527E+03  0.17060714786E+04  0.46999998093E+01 0.  1.
       -5    1    3    3    0  502 -0.60586703013E+03 -0.12605462641E+04  0.27089360077E+03  0.14245901779E+04  0.46999998093E+01 0. -1.
</event>
<event>
 5   0  0.1843709E-06  0.3105909E+04  0.7818609E-02  0.8214118E-01
        1   -1    0    0  501    0  0.00000000000E+00  0.00000000000E+00  0.11392223173E+04  0.11392223174E+04  0.50400001928E-02 0.  1.
       -1   -1    0    0    0  501  0.00000000000E+00  0.00000000000E+00 -0.21169422738E+04  0.21169422739E+04  0.50400001928E-02 0. -1.
    10030    2    1    2    0    0  0.00000000000E+00  0.00000000000E+00 -0.97771995650E+03  0.32561645912E+04  0.31059091313E+04 0.  0.
        4    1    3    3  502    0 -0.33356779101E+03 -0.28060839404E+03  0.10737701001E+04  0.11588754820E+04  0.12699999809E+01 0.  1.
       -4    1    3    3    0  502  0.33356779101E+03  0.28060839404E+03 -0.20514900566E+04  0.20972891092E+04  0.12699999809E+01 0. -1.
</event>
<event>
 5   0  0.5114870E-06  0.3108735E+04  0.7818609E-02  0.8213345E-01
        2   -1    0    0  501    0  0.00000000000E+00  0.00000000000E+00  0.94961551000E+03  0.94961551001E+03  0.25500000920E-02 0. -1.
       -2   -1    0    0    0  501  0.00000000000E+00  0.00000000000E+00 -0.25442492529E+04  0.25442492529E+04  0.25500000920E-02 0.  1.
    10030    2    1    2    0    0  0.00000000000E+00  0.00000000000E+00 -0.15946337429E+04  0.34938647629E+04  0.31087351459E+04 0.  0.
        2    1    3    3  502    0  0.97366324741E+03  0.11780941868E+04 -0.47917065216E+03  0.16017273633E+04  0.25500000920E-02 0.  1.
       -2    1    3    3    0  502 -0.97366324741E+03 -0.11780941868E+04 -0.11154630907E+04  0.18921373996E+04  0.25500000920E-02 0. -1.
</event>
<event>
 5   0  0.5001658E-06  0.2938162E+04  0.7818609E-02  0.8261613E-01
       -2   -1    0    0    0  501  0.00000000000E+00  0.00000000000E+00  0.17504781109E+04  0.17504781109E+04  0.25500000920E-02 0. -1.
        2   -1    0    0  501    0  0.00000000000E+00  0.00000000000E+00 -0.12329195168E+04  0.12329195168E+04  0.25500000920E-02 0.  1.
    10030    2    1    2    0    0  0.00000000000E+00  0.00000000000E+00  0.51755859414E+03  0.29833976277E+04  0.29381617563E+04 0.  0.
        3    1    3    3  502    0  0.53624336136E+01 -0.32782648453E+03 -0.11952945652E+04  0.12394466779E+04  0.10100000352E+00 0.  1.
       -3    1    3    3    0  502 -0.53624336136E+01  0.32782648453E+03  0.17128531593E+04  0.17439509498E+04  0.10100000352E+00 0. -1.
</event>
<event>
 5   0  0.1853742E-06  0.3102290E+04  0.7818609E-02  0.8215110E-01
        1   -1    0    0  501    0  0.00000000000E+00  0.00000000000E+00  0.11248658912E+04  0.11248658912E+04  0.50400001928E-02 0.  1.
       -1   -1    0    0    0  501  0.00000000000E+00  0.00000000000E+00 -0.21389665047E+04  0.21389665047E+04  0.50400001928E-02 0. -1.
    10030    2    1    2    0    0  0.00000000000E+00  0.00000000000E+00 -0.10141006135E+04  0.32638323959E+04  0.31022897760E+04 0.  0.
        5    1    3    3  502    0 -0.46317005404E+03  0.13588255727E+04  0.11098712829E+03  0.14398866860E+04  0.46999998093E+01 0. -1.
       -5    1    3    3    0  502  0.46317005404E+03 -0.13588255727E+04 -0.11250877418E+04  0.18239457099E+04  0.46999998093E+01 0.  1.
</event>
<event>
 5   0  0.1836401E-06  0.3084015E+04  0.7818609E-02  0.8220138E-01
        1   -1    0    0  501    0  0.00000000000E+00  0.00000000000E+00  0.70222203478E+03  0.70222203480E+03  0.50400001928E-02 0. -1.
       -1   -1    0    0    0  501  0.00000000000E+00  0.00000000000E+00 -0.33860908671E+04  0.33860908671E+04  0.50400001928E-02 0.  1.
    10030    2    1    2    0    0  0.00000000000E+00  0.00000000000E+00 -0.26838688323E+04  0.40883129019E+04  0.30840153169E+04 0.  0.
        2    1    3    3  502    0  0.15081794578E+02  0.37020323839E+03  0.64233673043E+03  0.74153514651E+03  0.25500000920E-02 0. -1.
       -2    1    3    3    0  502 -0.15081794578E+02 -0.37020323839E+03 -0.33262055627E+04  0.33467777554E+04  0.25500000920E-02 0.  1.
</event>
<event>
 5   0  0.4900679E-06  0.3099721E+04  0.7818609E-02  0.8215814E-01
        2   -1    0    0  501    0  0.00000000000E+00  0.00000000000E+00  0.17828679781E+04  0.17828679781E+04  0.25500000920E-02 0. -1.
       -2   -1    0    0    0  501  0.00000000000E+00  0.00000000000E+00 -0.13473056376E+04  0.13473056376E+04  0.25500000920E-02 0.  1.
    10030    2    1    2    0    0  0.00000000000E+00  0.00000000000E+00  0.43556234050E+03  0.31301736157E+04  0.30997213281E+04 0.  0.
        4    1    3    3  502    0  0.21319194784E+03 -0.15010776541E+04 -0.10690759561E+03  0.15199065028E+04  0.12699999809E+01 0.  1.
       -4    1    3    3    0  502 -0.21319194784E+03  0.15010776541E+04  0.54246993611E+03  0.16102671129E+04  0.12699999809E+01 0. -1.
</event>
<event>
 5   0  0.5114870E-06  0.3053845E+04  0.7818609E-02  0.8228520E-01
        2   -1    0    0  501    0  0.00000000000E+00  0.00000000000E+00  0.22441939525E+04  0.22441939525E+04  0.25500000920E-02 0. -1.
       -2   -1    0    0    0  501  0.00000000000E+00  0.00000000000E+00 -0.10388998568E+04  0.10388998568E+04  0.25500000920E-02 0.  1.
    10030    2    1    2    0    0  0.00000000000E+00  0.00000000000E+00  0.12052940956E+04  0.32830938093E+04  0.30538452979E+04 0.  0.
        2    1    3    3  502    0  0.46410161404E+03  0.99302823864E+03  0.17454595391E+04  0.20610978612E+04  0.25500000920E-02 0. -1.
       -2    1    3    3    0  502 -0.46410161404E+03 -0.99302823864E+03 -0.54016544345E+03  0.12219959481E+04  0.25500000920E-02 0.  1.
</event>
<event>
 5   0  0.1836401E-06  0.3114187E+04  0.7818609E-02  0.8211855E-01
        1   -1    0    0  501    0  0.00000000000E+00  0.00000000000E+00  0.21101407353E+04  0.21101407353E+04  0.50400001928E-02 0.  1.
       -1   -1    0    0    0  501  0.00000000000E+00  0.00000000000E+00 -0.11489948036E+04  0.11489948037E+04  0.50400001928E-02 0. -1.
    10030    2    1    2    0    0  0.00000000000E+00  0.00000000000E+00  0.96114593164E+03  0.32591355390E+04  0.31141873674E+04 0.  0.
        2    1    3    3  502    0  0.93286559640E+02 -0.13504297583E+04 -0.32477534822E+03  0.13920639141E+04  0.25500000920E-02 0.  1.
       -2    1    3    3    0  502 -0.93286559640E+02  0.13504297583E+04  0.12859212799E+04  0.18670716248E+04  0.25500000920E-02 0. -1.
</event>
<event>
 5   0  0.4900679E-06  0.3144665E+04  0.7818609E-02  0.8203586E-01
       -2   -1    0    0    0  501  0.00000000000E+00  0.00000000000E+00  0.16610079193E+04  0.16610079193E+04  0.25500000920E-02 0.  1.
        2   -1    0    0  501    0  0.00000000000E+00  0.00000000000E+00 -0.14883915504E+04  0.14883915504E+04  0.25500000920E-02 0. -1.
    10030    2    1    2    0    0  0.00000000000E+00  0.00000000000E+00  0.17261636894E+03  0.31493994697E+04  0.31446654208E+04 0.  0.
        4    1    3    3  502    0  0.68897320105E+03 -0.96326624654E+03  0.11221101045E+04  0.16314713093E+04  0.12699999809E+01 0.  1.
       -4    1    3    3    0  502 -0.68897320105E+03  0.96326624654E+03 -0.94949373555E+03  0.15179281604E+04  0.12699999809E+01 0. -1.
</event>
<event>
 5   0  0.4927533E-06  0.3103497E+04  0.7818609E-02  0.8214779E-01
       -2   -1    0    0    0  501  0.00000000000E+00  0.00000000000E+00  0.13779716589E+04  0.13779716589E+04  0.25500000920E-02 0. -1.
        2   -1    0    0  501    0  0.00000000000E+00  0.00000000000E+00 -0.17474407396E+04  0.17474407396E+04  0.25500000920E-02 0.  1.
    10030    2    1    2    0    0  0.00000000000E+00  0.00000000000E+00 -0.36946908068E+03  0.31254123985E+04  0.31034972626E+04 0.  0.
        5    1    3    3  502    0 -0.11777253963E+04  0.10045331261E+04 -0.75442555325E+02  0.15497863013E+04  0.46999998093E+01 0. -1.
       -5    1    3    3    0  502  0.11777253963E+04 -0.10045331261E+04 -0.29402652536E+03  0.15756260972E+04  0.46999998093E+01 0.  1.
</event>
<event>
 5   0  0.4900679E-06  0.3086037E+04  0.7818609E-02  0.8219581E-01
       -2   -1    0    0    0  501  0.00000000000E+00  0.00000000000E+00  0.18378187432E+04  0.18378187432E+04  0.25500000920E-02 0.  1.
        2   -1    0    0  501    0  0.00000000000E+00  0.00000000000E+00 -0.12955061663E+04  0.12955061663E+04  0.25500000920E-02 0. -1.
    10030    2    1    2    0    0  0.00000000000E+00  0.00000000000E+00  0.54231257685E+03  0.31333249095E+04  0.30860366261E+04 0.  0.
        4    1    3    3  502    0  0.21349284311E+03 -0.12758292336E+04 -0.58291378152E+03  0.14188409061E+04  0.12699999809E+01 0. -1.
       -4    1    3    3    0  502 -0.21349284311E+03  0.12758292336E+04  0.11252263584E+04  0.17144840034E+04  0.12699999809E+01 0.  1.
</event>
<event>
 5   0  0.5114870E-06  0.2990195E+04  0.7818609E-02  0.8246536E-01
       -2   -1    0    0    0  501  0.00000000000E+00  0.00000000000E+00  0.15283657356E+04  0.15283657356E+04  0.25500000920E-02 0.  1.
        2   -1    0    0  501    0  0.00000000000E+00  0.00000000000E+00 -0.14625536898E+04  0.14625536898E+04  0.25500000920E-02 0. -1.
    10030    2    1    2    0    0  0.00000000000E+00  0.00000000000E+00  0.65812045780E+02  0.29909194253E+04  0.29901952751E+04 0.  0.
        2    1    3    3  502    0  0.11111295124E+04  0.73504683535E+03 -0.64579665941E+03  0.14805255718E+04  0.25500000920E-02 0. -1.
       -2    1    3    3    0  502 -0.11111295124E+04 -0.73504683535E+03  0.71160870519E+03  0.15103938535E+04  0.25500000920E-02 0.  1.
</event>
<event>
 5   0  0.4927533E-06  0.3088241E+04  0.7818609E-02  0.8218972E-01
        2   -1    0    0  501    0  0.00000000000E+00  0.00000000000E+00  0.11713887058E+04  0.11713887058E+04  0.25500000920E-02 0.  1.
       -2   -1    0    0    0  501  0.00000000000E+00  0.00000000000E+00 -0.20354544290E+04  0.20354544290E+04  0.25500000920E-02 0. -1.
    10030    2    1    2    0    0  0.00000000000E+00  0.00000000000E+00 -0.86406572320E+03  0.32068431348E+04  0.30882411365E+04 0.  0.
        5    1    3    3  502    0  0.12145531280E+04 -0.95264312570E+03 -0.47380219867E+03  0.16146760787E+04  0.46999998093E+01 0.  1.
       -5    1    3    3    0  502 -0.12145531280E+04  0.95264312570E+03 -0.39026352453E+03  0.15921670560E+04  0.46999998093E+01 0. -1.
</event>
<event>
 5   0  0.1840431E-06  0.3141943E+04  0.7818609E-02  0.8204320E-01
       -1   -1    0    0    0  501  0.00000000000E+00  0.00000000000E+00  0.19911200795E+04  0.19911200795E+04  0.50400001928E-02 0.  1.
        1   -1    0    0  501    0  0.00000000000E+00  0.00000000000E+00 -0.12394792746E+04  0.12394792746E+04  0.50400001928E-02 0. -1.
    10030    2    1    2    0    0  0.00000000000E+00  0.00000000000E+00  0.75164080484E+03  0.32305993541E+04  0.31419433934E+04 0.  0.
        1    1    3    3  502    0 -0.11838900316E+04  0.99938876706E+03  0.64311439791E+03  0.16774890890E+04  0.50400001928E-02 0. -1.
       -1    1    3    3    0  502  0.11838900316E+04 -0.99938876706E+03  0.10852640693E+03  0.15531102652E+04  0.50400001928E-02 0.  1.
</event>
<event>
 5   0  0.5001658E-06  0.3100789E+04  0.7818609E-02  0.8215521E-01
        2   -1    0    0  501    0  0.00000000000E+00  0.00000000000E+00  0.19535377831E+04  0.19535377831E+04  0.25500000920E-02 0.  1.
       -2   -1    0    0    0  501  0.00000000000E+00  0.00000000000E+00 -0.12304459767E+04  0.12304459767E+04  0.25500000920E-02 0. -1.
    10030    2    1    2    0    0  0.00000000000E+00  0.00000000000E+00  0.72309180645E+03  0.31839837598E+04  0.31007887419E+04 0.  0.
        3    1    3    3  502    0  0.18386178755E+03  0.43637220436E+03  0.18774676630E+04  0.19362620415E+04  0.10100000352E+00 0.  1.
       -3    1    3    3    0  502 -0.18386178755E+03 -0.43637220436E+03 -0.11543758566E+04  0.12477217182E+04  0.10100000352E+00 0. -1.
</event>
<event>
 5   0  0.1840431E-06  0.3088529E+04  0.7818609E-02  0.8218893E-01
        1   -1    0    0  501    0  0.00000000000E+00  0.00000000000E+00  0.17575442799E+04  0.17575442799E+04  0.50400001928E-02 0.  1.
       -1   -1    0    0    0  501  0.00000000000E+00  0.00000000000E+00 -0.13568666213E+04  0.13568666213E+04  0.50400001928E-02 0. -1.
    10030    2    1    2    0    0  0.00000000000E+00  0.00000000000E+00  0.40067765866E+03  0.31144109012E+04  0.30885292091E+04 0.  0.
        1    1    3    3  502    0 -0.13759171324E+04  0.35269484056E+03  0.81139674165E+03  0.16358197573E+04  0.50400001928E-02 0.  1.
       -1    1    3    3    0  502  0.13759171324E+04 -0.35269484056E+03 -0.41071908299E+03  0.14785911440E+04  0.50400001928E-02 0. -1.
</event>
<event>
 5   0  0.5114870E-06  0.3087126E+04  0.7818609E-02  0.8219280E-01
       -2   -1    0    0    0  501  0.00000000000E+00  0.00000000000E+00  0.12344845357E+04  0.12344845357E+04  0.25500000920E-02 0. -1.
        2   -1    0    0  501    0  0.00000000000E+00  0.00000000000E+00 -0.19300251238E+04  0.19300251238E+04  0.25500000920E-02 0.  1.
    10030    2    1    2    0    0  0.00000000000E+00  0.00000000000E+00 -0.69554058815E+03  0.31645096595E+04  0.30871256332E+04 0.  0.
        2    1    3    3  502    0  0.36392675654E+03 -0.10761651172E+04  0.72341808404E+03  0.13468139322E+04  0.25500000920E-02 0. -1.
       -2    1    3    3    0  502 -0.36392675654E+03  0.10761651172E+04 -0.14189586722E+04  0.18176957273E+04  0.25500000920E-02 0.  1.
</event>
<event>
 5   0  0.4927533E-06  0.3089061E+04  0.7818609E-02  0.8218746E-01
        2   -1    0    0  501    0  0.00000000000E+00  0.00000000000E+00  0.22107159379E+04  0.22107159379E+04  0.25500000920E-02 0. -1.
       -2   -1    0    0    0  501  0.00000000000E+00  0.00000000000E+00 -0.10790960364E+04  0.10790960364E+04  0.25500000920E-02 0.  1.
    10030    2    1    2    0    0  0.00000000000E+00  0.00000000000E+00  0.11316199015E+04  0.32898119743E+04  0.30890612206E+04 0.  0.
        5    1    3    3  502    0 -0.89823158110E+03  0.63060212924E+03  0.17232088380E+04  0.20430246714E+04  0.46999998093E+01 0. -1.
       -5    1    3    3    0  502  0.89823158110E+03 -0.63060212924E+03 -0.59158893654E+03  0.12467873028E+04  0.46999998093E+01 0.  1.
</event>
<event>
 5   0  0.1885307E-06  0.2385325E+04  0.7818609E-02  0.8445018E-01
       -1   -1    0    0    0  501  0.00000000000E+00  0.00000000000E+00  0.86803411271E+03  0.86803411272E+03  0.50400001928E-02 0. -1.
        1   -1    0    0  501    0  0.00000000000E+00  0.00000000000E+00 -0.16386951083E+04  0.16386951083E+04  0.50400001928E-02 0.  1.
    10030    2    1    2    0    0  0.00000000000E+00  0.00000000000E+00 -0.77066099562E+03  0.25067292211E+04  0.23853245099E+04 0.  0.
        3    1    3    3  502    0  0.11046648123E+04  0.14370851619E+03  0.62389356747E+02  0.11157190180E+04  0.10100000352E+00 0. -1.
       -3    1    3    3    0  502 -0.11046648123E+04 -0.14370851619E+03 -0.83305035237E+03  0.13910102030E+04  0.10100000352E+00 0.  1.
</event>
<event>
 5   0  0.1840431E-06  0.3141848E+04  0.7818609E-02  0.8204346E-01
       -1   -1    0    0    0  501  0.00000000000E+00  0.00000000000E+00  0.17980797693E+04  0.17980797693E+04  0.50400001928E-02 0.  1.
        1   -1    0    0  501    0  0.00000000000E+00  0.00000000000E+00 -0.13724650518E+04  0.13724650518E+04  0.50400001928E-02 0. -1.
    10030    2    1    2    0    0  0.00000000000E+00  0.00000000000E+00  0.42561471751E+03  0.31705448212E+04  0.31418476372E+04 0.  0.
        1    1    3    3  502    0  0.44944142483E+02  0.79792994613E+03  0.15775986779E+04  0.17684823333E+04  0.50400001928E-02 0.  1.
       -1    1    3    3    0  502 -0.44944142483E+02 -0.79792994613E+03 -0.11519839604E+04  0.14020624878E+04  0.50400001928E-02 0. -1.
</event>
<event>
 5   0  0.1853742E-06  0.3063356E+04  0.7818609E-02  0.8225867E-01
        1   -1    0    0  501    0  0.00000000000E+00  0.00000000000E+00  0.20618017738E+04  0.20618017738E+04  0.50400001928E-02 0.  1.
       -1   -1    0    0    0  501  0.00000000000E+00  0.00000000000E+00 -0.11378582859E+04  0.11378582859E+04  0.50400001928E-02 0. -1.
    10030    2    1    2    0    0  0.00000000000E+00  0.00000000000E+00  0.92394348783E+03  0.31996600597E+04  0.30633564809E+04 0.  0.
        5    1    3    3  502    0  0.12429406749E+04 -0.88961524335E+03  0.35910443265E+03  0.15701257548E+04  0.46999998093E+01 0. -1.
       -5    1    3    3    0  502 -0.12429406749E+04  0.88961524335E+03  0.56483905518E+03  0.16295343049E+04  0.46999998093E+01 0.  1.
</event>
<event>
 5   0  0.1885307E-06  0.3143611E+04  0.7818609E-02  0.8203870E-01
       -1   -1    0    0    0  501  0.00000000000E+00  0.00000000000E+00  0.89962830406E+03  0.89962830407E+03  0.50400001928E-02 0. -1.
        1   -1    0    0  501    0  0.00000000000E+00  0.00000000000E+00 -0.27462152793E+04  0.27462152793E+04  0.50400001928E-02 0.  1.
    10030    2    1    2    0    0  0.00000000000E+00  0.00000000000E+00 -0.18465869752E+04  0.36458435834E+04  0.31436112955E+04 0.  0.
        3    1    3    3  502    0 -0.39661074696E+03  0.78318276725E+03 -0.24353937153E+04  0.25887869534E+04  0.10100000352E+00 0.  1.
       -3    1    3    3    0  502  0.39661074696E+03 -0.78318276725E+03  0.58880674007E+03  0.10570566299E+04  0.10100000352E+00 0. -1.
</event>
<event>
 5   0  0.4927533E-06  0.3095435E+04  0.7818609E-02  0.8216992E-01
        2   -1    0    0  501    0  0.00000000000E+00  0.00000000000E+00  0.15112692895E+04  0.15112692895E+04  0.25500000920E-02 0.  1.
       -2   -1    0    0    0  501  0.00000000000E+00  0.00000000000E+00 -0.15850444146E+04  0.15850444146E+04  0.25500000920E-02 0. -1.
    10030    2    1    2    0    0  0.00000000000E+00  0.00000000000E+00 -0.73775125087E+02  0.30963137042E+04  0.30954346683E+04 0.  0.
        5    1    3    3  502    0 -0.21363974495E+03  0.13674517434E+04 -0.72978958480E+03  0.15646664626E+04  0.46999998093E+01 0. -1.
       -5    1    3    3    0  502  0.21363974495E+03 -0.13674517434E+04  0.65601445971E+03  0.15316472415E+04  0.46999998093E+01 0.  1.
</event>
<event>
 5   0  0.4927533E-06  0.3148349E+04  0.7818609E-02  0.8202593E-01
        2   -1    0    0  501    0  0.00000000000E+00  0.00000000000E+00  0.18853397840E+04  0.18853397840E+04  0.25500000920E-02 0. -1.
       -2   -1    0    0    0  501  0.00000000000E+00  0.00000000000E+00 -0.13143657331E+04  0.13143657331E+04  0.25500000920E-02 0.  1.
    10030    2    1    2    0    0  0.00000000000E+00  0.00000000000E+00  0.57097405092E+03  0.31997055170E+04  0.31483494134E+04 0.  0.
        5    1    3    3  502    0  0.13598624314E+04 -0.77625017029E+03  0.12093935938E+03  0.15704899165E+04  0.46999998093E+01 0.  1.
       -5    1    3    3    0  502 -0.13598624314E+04  0.77625017029E+03  0.45003469154E+03  0.16292156005E+04  0.46999998093E+01 0. -1.
</event>
<event>
 5   0  0.1840431E-06  0.3094981E+04  0.7818609E-02  0.8217117E-01
       -1   -1    0    0    0  501  0.00000000000E+00  0.00000000000E+00  0.15467934046E+04  0.15467934046E+04  0.50400001928E-02 0.  1.
        1   -1    0    0  501    0  0.00000000000E+00  0.00000000000E+00 -0.15481876826E+04  0.15481876826E+04  0.50400001928E-02 0. -1.
    10030    2    1    2    0    0  0.00000000000E+00  0.00000000000E+00 -0.13942779327E+01  0.30949810872E+04  0.30949807731E+04 0.  0.
        1    1    3    3  502    0 -0.13250780344E+04 -0.42763765898E+03 -0.67599027853E+03  0.15477947608E+04  0.50400001928E-02 0. -1.
       -1    1    3    3    0  502  0.13250780344E+04  0.42763765898E+03  0.67459600060E+03  0.15471863265E+04  0.50400001928E-02 0.  1.
</event>
<event>
 5   0  0.1649875E-06  0.3056070E+04  0.7818609E-02  0.8227898E-01
       -3   -1    0    0    0  501  0.00000000000E+00  0.00000000000E+00  0.12570366826E+04  0.12570366866E+04  0.10100000352E+00 0.  1.
        3   -1    0    0  501    0  0.00000000000E+00  0.00000000000E+00 -0.18574569906E+04  0.18574569934E+04  0.10100000352E+00 0. -1.
    10030    2    1    2    0    0  0.00000000000E+00  0.00000000000E+00 -0.60042030808E+03  0.31144936800E+04  0.30560704076E+04 0.  0.
        2    1    3    3  502    0  0.16671714631E+02 -0.94792755923E+03  0.92105066028E+03  0.13218089584E+04  0.25500000920E-02 0.  1.
       -2    1    3    3    0  502 -0.16671714631E+02  0.94792755923E+03 -0.15214709684E+04  0.17926847216E+04  0.25500000920E-02 0. -1.
</event>
<event>
 5   0  0.5001658E-06  0.3117980E+04  0.7818609E-02  0.8210821E-01
        2   -1    0    0  501    0  0.00000000000E+00  0.00000000000E+00  0.15540693932E+04  0.15540693932E+04  0.25500000920E-02 0. -1.
       -2   -1    0    0    0  501  0.00000000000E+00  0.00000000000E+00 -0.15639263396E+04  0.15639263396E+04  0.25500000920E-02 0.  1.
    10030    2    1    2    0    0  0.00000000000E+00  0.00000000000E+00 -0.98569463899E+01  0.31179957328E+04  0.31179801524E+04 0.  0.
        3    1    3    3  502    0 -0.99489529328E+02  0.31895539887E+03  0.15178461355E+04  0.15541839061E+04  0.10100000352E+00 0. -1.
       -3    1    3    3    0  502  0.99489529328E+02 -0.31895539887E+03 -0.15277030819E+04  0.15638118267E+04  0.10100000352E+00 0.  1.
</event>
<event>
 5   0  0.4927533E-06  0.3034500E+04  0.7818609E-02  0.8233947E-01
       -2   -1    0    0    0  501  0.00000000000E+00  0.00000000000E+00  0.13204994294E+04  0.13204994294E+04  0.25500000920E-02 0. -1.
        2   -1    0    0  501    0  0.00000000000E+00  0.00000000000E+00 -0.17433156880E+04  0.17433156880E+04  0.25500000920E-02 0.  1.
    10030    2    1    2    0    0  0.00000000000E+00  0.00000000000E+00 -0.42281625863E+03  0.30638151174E+04  0.30344998739E+04 0.  0.
        5    1    3    3  502    0  0.67073655830E+03 -0.10745973729E+04 -0.10545674125E+04  0.16482662291E+04  0.46999998093E+01 0.  1.
       -5    1    3    3    0  502 -0.67073655830E+03  0.10745973729E+04  0.63175115389E+03  0.14155488882E+04  0.46999998093E+01 0. -1.
</event>
<event>
 5   0  0.4900679E-06  0.3089370E+04  0.7818609E-02  0.8218661E-01
       -2   -1    0    0    0  501  0.00000000000E+00  0.00000000000E+00  0.17104834140E+04  0.17104834140E+04  0.25500000920E-02 0. -1.
        2   -1    0    0  501    0  0.00000000000E+00  0.00000000000E+00 -0.13949579966E+04  0.13949579966E+04  0.25500000920E-02 0.  1.
    10030    2    1    2    0    0  0.00000000000E+00  0.00000000000E+00  0.31552541740E+03  0.31054414105E+04  0.30893704966E+04 0.  0.
        4    1    3    3  502    0  0.45000339470E+03  0.12960467894E+04  0.87125121558E+03  0.16252140256E+04  0.12699999809E+01 0. -1.
       -4    1    3    3    0  502 -0.45000339470E+03 -0.12960467894E+04 -0.55572579818E+03  0.14802273849E+04  0.12699999809E+01 0.  1.
</event>
<event>
 5   0  0.1885307E-06  0.3153190E+04  0.7818609E-02  0.8201290E-01
       -1   -1    0    0    0  501  0.00000000000E+00  0.00000000000E+00  0.96941382894E+03  0.96941382895E+03  0.50400001928E-02 0. -1.
        1   -1    0    0  501    0  0.00000000000E+00  0.00000000000E+00 -0.25640762845E+04  0.25640762845E+04  0.50400001928E-02 0.  1.
    10030    2    1    2    0    0  0.00000000000E+00  0.00000000000E+00 -0.15946624555E+04  0.35334901134E+04  0.31531895018E+04 0.  0.
        3    1    3    3  502    0 -0.14047575367E+04  0.70118282999E+03 -0.63629900447E+03  0.16940712887E+04  0.10100000352E+00 0.  1.
       -3    1    3    3    0  502  0.14047575367E+04 -0.70118282999E+03 -0.95836345104E+03  0.18394188247E+04  0.10100000352E+00 0. -1.
</event>
<event>
 5   0  0.1843709E-06  0.3049061E+04  0.7818609E-02  0.8229858E-01
        1   -1    0    0  501    0  0.00000000000E+00  0.00000000000E+00  0.29157305376E+04  0.29157305376E+04  0.50400001928E-02 0.  1.
       -1   -1    0    0    0  501  0.00000000000E+00  0.00000000000E+00 -0.79712217403E+03  0.79712217404E+03  0.50400001928E-02 0. -1.
    10030    2    1    2    0    0  0.00000000000E+00  0.00000000000E+00  0.21186083635E+04  0.37128527116E+04  0.30490611440E+04 0.  0.
        4    1    3    3  502    0  0.27382988149E+03  0.21737368089E+03 -0.74764557364E+03  0.82535424990E+03  0.12699999809E+01 0. -1.
       -4    1    3    3    0  502 -0.27382988149E+03 -0.21737368089E+03  0.28662539372E+04  0.28874984617E+04  0.12699999809E+01 0.  1.
</event>
<event>
 5   0  0.1843709E-06  0.2231471E+04  0.7818609E-02  0.8505442E-01
        1   -1    0    0  501    0  0.00000000000E+00  0.00000000000E+00  0.11122302794E+04  0.11122302794E+04  0.50400001928E-02 0. -1.
       -1   -1    0    0    0  501  0.00000000000E+00  0.00000000000E+00 -0.11192521606E+04  0.11192521606E+04  0.50400001928E-02 0.  1.
    10030    2    1    2    0    0  0.00000000000E+00  0.00000000000E+00 -0.70218811944E+01  0.22314824400E+04  0.22314713919E+04 0.  0.
        4    1    3    3  502    0 -0.93964270397E+02 -0.75581317537E+03 -0.81885643354E+03  0.11183068952E+04  0.12699999809E+01 0.  1.
       -4    1    3    3    0  502  0.93964270397E+02  0.75581317537E+03  0.81183455235E+03  0.11131755448E+04  0.12699999809E+01 0. -1.
</event>
<event>
 5   0  0.1843709E-06  0.3137594E+04  0.7818609E-02  0.8205496E-01
        1   -1    0    0  501    0  0.00000000000E+00  0.00000000000E+00  0.17354007166E+04  0.17354007166E+04  0.50400001928E-02 0.  1.
       -1   -1    0    0    0  501  0.00000000000E+00  0.00000000000E+00 -0.14181881441E+04  0.14181881441E+04  0.50400001928E-02 0. -1.
    10030    2    1    2    0    0  0.00000000000E+00  0.00000000000E+00  0.31721257245E+03  0.31535888607E+04  0.31375944426E+04 0.  0.
        4    1    3    3  502    0  0.94644258187E+03  0.84146871516E+03  0.10892311785E+04  0.16704039429E+04  0.12699999809E+01 0.  1.
       -4    1    3    3    0  502 -0.94644258187E+03 -0.84146871516E+03 -0.77201860604E+03  0.14831849178E+04  0.12699999809E+01 0. -1.
</event>
<event>
 5   0  0.1840431E-06  0.3104608E+04  0.7818609E-02  0.8214475E-01
       -1   -1    0    0    0  501  0.00000000000E+00  0.00000000000E+00  0.12194988679E+04  0.12194988679E+04  0.50400001928E-02 0. -1.
        1   -1    0    0  501    0  0.00000000000E+00  0.00000000000E+00 -0.19759320891E+04  0.19759320891E+04  0.50400001928E-02 0.  1.
    10030    2    1    2    0    0  0.00000000000E+00  0.00000000000E+00 -0.75643322120E+03  0.31954309570E+04  0.31046075086E+04 0.  0.
        1    1    3    3  502    0  0.80480497886E+03 -0.41204667702E+03 -0.16769356065E+04  0.19051526307E+04  0.50400001928E-02 0. -1.
       -1    1    3    3    0  502 -0.80480497886E+03  0.41204667702E+03  0.92050238525E+03  0.12902783263E+04  0.50400001928E-02 0.  1.
</event>
<event>
 5   0  0.1853742E-06  0.3017816E+04  0.7818609E-02  0.8238662E-01
       -1   -1    0    0    0  501  0.00000000000E+00  0.00000000000E+00  0.12187086064E+04  0.12187086064E+04  0.50400001928E-02 0. -1.
        1   -1    0    0  501    0  0.00000000000E+00  0.00000000000E+00 -0.18682093117E+04  0.18682093117E+04  0.50400001928E-02 0.  1.
    10030    2    1    2    0    0  0.00000000000E+00  0.00000000000E+00 -0.64950070529E+03  0.30869179181E+04  0.30178156118E+04 0.  0.
        5    1    3    3  502    0 -0.25688024869E+03 -0.14764835038E+04 -0.14526254534E+03  0.15056939583E+04  0.46999998093E+01 0. -1.
       -5    1    3    3    0  502  0.25688024869E+03  0.14764835038E+04 -0.50423815995E+03  0.15812239598E+04  0.46999998093E+01 0.  1.
</event>
<event>
 5   0  0.4900679E-06  0.3084800E+04  0.7818609E-02  0.8219922E-01
       -2   -1    0    0    0  501  0.00000000000E+00  0.00000000000E+00  0.90504596322E+03  0.90504596322E+03  0.25500000920E-02 0. -1.
        2   -1    0    0  501    0  0.00000000000E+00  0.00000000000E+00 -0.26285927318E+04  0.26285927318E+04  0.25500000920E-02 0.  1.
    10030    2    1    2    0    0  0.00000000000E+00  0.00000000000E+00 -0.17235467686E+04  0.35336386951E+04  0.30847996634E+04 0.  0.
        4    1    3    3  502    0  0.10872234087E+03 -0.25813607164E+03 -0.25992147283E+04  0.26142634901E+04  0.12699999809E+01 0.  1.
       -4    1    3    3    0  502 -0.10872234087E+03  0.25813607164E+03  0.87566795971E+03  0.91937520494E+03  0.12699999809E+01 0. -1.
</event>
<event>
 5   0  0.1649875E-06  0.3044311E+04  0.7818609E-02  0.8231190E-01
       -3   -1    0    0    0  501  0.00000000000E+00  0.00000000000E+00  0.11913004896E+04  0.11913004938E+04  0.10100000352E+00 0. -1.
        3   -1    0    0  501    0  0.00000000000E+00  0.00000000000E+00 -0.19448973055E+04  0.19448973081E+04  0.10100000352E+00 0.  1.
    10030    2    1    2    0    0  0.00000000000E+00  0.00000000000E+00 -0.75359681590E+03  0.31361978019E+04  0.30443108402E+04 0.  0.
        2    1    3    3  502    0 -0.98647230037E+03 -0.66695183440E+03  0.59997865098E+03  0.13333891894E+04  0.25500000920E-02 0. -1.
       -2    1    3    3    0  502  0.98647230037E+03  0.66695183440E+03 -0.13535754669E+04  0.18028086125E+04  0.25500000920E-02 0.  1.
</event>
<event>
 5   0  0.4900679E-06  0.3047344E+04  0.7818609E-02  0.8230339E-01
        2   -1    0    0  501    0  0.00000000000E+00  0.00000000000E+00  0.19306735760E+04  0.19306735760E+04  0.25500000920E-02 0. -1.
       -2   -1    0    0    0  501  0.00000000000E+00  0.00000000000E+00 -0.12024699914E+04  0.12024699914E+04  0.25500000920E-02 0.  1.
    10030    2    1    2    0    0  0.00000000000E+00  0.00000000000E+00  0.72820358461E+03  0.31331435675E+04  0.30473444429E+04 0.  0.
        4    1    3    3  502    0  0.67384275718E+03  0.10334526992E+04  0.12834169512E+04  0.17802385308E+04  0.12699999809E+01 0. -1.
       -4    1    3    3    0  502 -0.67384275718E+03 -0.10334526992E+04 -0.55521336660E+03  0.13529050367E+04  0.12699999809E+01 0.  1.
</event>
<event>
 5   0  0.1840431E-06  0.3072122E+04  0.7818609E-02  0.8223431E-01
       -1   -1    0    0    0  501  0.00000000000E+00  0.00000000000E+00  0.13031352285E+04  0.13031352286E+04  0.50400001928E-02 0.  1.
        1   -1    0    0  501    0  0.00000000000E+00  0.00000000000E+00 -0.18106201443E+04  0.18106201443E+04  0.50400001928E-02 0. -1.
    10030    2    1    2    0    0  0.00000000000E+00  0.00000000000E+00 -0.50748491576E+03  0.31137553729E+04  0.30721216744E+04 0.  0.
        1    1    3    3  502    0  0.69361240955E+03 -0.11208379064E+04  0.54568426112E+03  0.14265858194E+04  0.50400001928E-02 0. -1.
       -1    1    3    3    0  502 -0.69361240955E+03  0.11208379064E+04 -0.10531691769E+04  0.16871695535E+04  0.50400001928E-02 0.  1.
</event>
<event>
 5   0  0.5328368E-06  0.3163778E+04  0.7818609E-02  0.8198449E-01
        2   -1    0    0  501    0  0.00000000000E+00  0.00000000000E+00  0.20891680125E+04  0.20891680125E+04  0.25500000920E-02 0.  1.
       -2   -1    0    0    0  501  0.00000000000E+00  0.00000000000E+00 -0.11977845046E+04  0.11977845046E+04  0.25500000920E-02 0. -1.
    10030    2    1    2    0    0  0.00000000000E+00  0.00000000000E+00  0.89138350792E+03  0.32869525171E+04  0.31637781673E+04 0.  0.
        1    1    3    3  502    0  0.10648717206E+04 -0.78686302794E+03  0.13449945828E+04  0.18873567850E+04  0.50400001928E-02 0.  1.
       -1    1    3    3    0  502 -0.10648717206E+04  0.78686302794E+03 -0.45361107492E+03  0.13995957321E+04  0.50400001928E-02 0. -1.
</event>
<event>
 5   0  0.1885307E-06  0.3106062E+04  0.7818609E-02  0.8214076E-01
       -1   -1    0    0    0  501  0.00000000000E+00  0.00000000000E+00  0.24373639505E+04  0.24373639505E+04  0.50400001928E-02 0. -1.
        1   -1    0    0  501    0  0.00000000000E+00  0.00000000000E+00 -0.98955481893E+03  0.98955481894E+03  0.50400001928E-02 0.  1.
    10030    2    1    2    0    0  0.00000000000E+00  0.00000000000E+00  0.14478091316E+04  0.34269187695E+04  0.31060619715E+04 0.  0.
        3    1    3    3  502    0  0.67748056849E+03 -0.52134731681E+02  0.22646613213E+04  0.23644003175E+04  0.10100000352E+00 0. -1.
       -3    1    3    3    0  502 -0.67748056849E+03  0.52134731681E+02 -0.81685218966E+03  0.10625184520E+04  0.10100000352E+00 0.  1.
</event>
<event>
 5   0  0.5114870E-06  0.3077413E+04  0.7818609E-02  0.8221964E-01
        2   -1    0    0  501    0  0.00000000000E+00  0.00000000000E+00  0.90650774785E+03  0.90650774785E+03  0.25500000920E-02 0.  1.
       -2   -1    0    0    0  501  0.00000000000E+00  0.00000000000E+00 -0.26118008360E+04  0.26118008361E+04  0.25500000920E-02 0. -1.
    10030    2    1    2    0    0  0.00000000000E+00  0.00000000000E+00 -0.17052930882E+04  0.35183085839E+04  0.30774130004E+04 0.  0.
        2    1    3    3  502    0 -0.92064054946E+03  0.30919645872E+03 -0.22171343167E+04  0.24205094608E+04  0.25500000920E-02 0. -1.
       -2    1    3    3    0  502  0.92064054946E+03 -0.30919645872E+03  0.51184122854E+03  0.10977991231E+04  0.25500000920E-02 0.  1.
</event>
<event>
 5   0  0.1840431E-06  0.3209562E+04  0.7818609E-02  0.8186297E-01
        1   -1    0    0  501    0  0.00000000000E+00  0.00000000000E+00  0.17489560626E+04  0.17489560626E+04  0.50400001928E-02 0.  1.
       -1   -1    0    0    0  501  0.00000000000E+00  0.00000000000E+00 -0.14724907218E+04  0.14724907218E+04  0.50400001928E-02 0. -1.
    10030    2    1    2    0    0  0.00000000000E+00  0.00000000000E+00  0.27646534075E+03  0.32214467844E+04  0.32095616991E+04 0.  0.
        1    1    3    3  502    0  0.53082161086E+02 -0.15901427861E+04 -0.72185665207E+02  0.15926652398E+04  0.50400001928E-02 0.  1.
       -1    1    3    3    0  502 -0.53082161086E+02  0.15901427861E+04  0.34865100595E+03  0.16287815446E+04  0.50400001928E-02 0. -1.
</event>
<event>
 5   0  0.1853742E-06  0.3098294E+04  0.7818609E-02  0.8216206E-01
        1   -1    0    0  501    0  0.00000000000E+00  0.00000000000E+00  0.22931374668E+04  0.22931374668E+04  0.50400001928E-02 0. -1.
       -1   -1    0    0    0  501  0.00000000000E+00  0.00000000000E+00 -0.10465382816E+04  0.10465382817E+04  0.50400001928E-02 0.  1.
    10030    2    1    2    0    0  0.00000000000E+00  0.00000000000E+00  0.12465991852E+04  0.33396757485E+04  0.30982938170E+04 0.  0.
        5    1    3    3  502    0  0.78021848492E+03  0.60600471530E+03 -0.66291681171E+03  0.11897324861E+04  0.46999998093E+01 0.  1.
       -5    1    3    3    0  502 -0.78021848492E+03 -0.60600471530E+03  0.19095159969E+04  0.21499432624E+04  0.46999998093E+01 0. -1.
</event>
<event>
 5   0  0.1840431E-06  0.3094618E+04  0.7818609E-02  0.8217217E-01
        1   -1    0    0  501    0  0.00000000000E+00  0.00000000000E+00  0.26908479929E+04  0.26908479929E+04  0.50400001928E-02 0. -1.
       -1   -1    0    0    0  501  0.00000000000E+00  0.00000000000E+00 -0.88974359424E+03  0.88974359426E+03  0.50400001928E-02 0.  1.
    10030    2    1    2    0    0  0.00000000000E+00  0.00000000000E+00  0.18011043986E+04  0.35805915871E+04  0.30946177565E+04 0.  0.
        1    1    3    3  502    0 -0.36013633730E+03 -0.32985801510E+03 -0.79823090465E+03  0.93577618517E+03  0.50400001928E-02 0.  1.
       -1    1    3    3    0  502  0.36013633730E+03  0.32985801510E+03  0.25993353033E+04  0.26448154020E+04  0.50400001928E-02 0. -1.
</event>
<event>
 5   0  0.4927533E-06  0.2997871E+04  0.7818609E-02  0.8244339E-01
        2   -1    0    0  501    0  0.00000000000E+00  0.00000000000E+00  0.13641017252E+04  0.13641017252E+04  0.25500000920E-02 0.  1.
       -2   -1    0    0    0  501  0.00000000000E+00  0.00000000000E+00 -0.16470967532E+04  0.16470967533E+04  0.25500000920E-02 0. -1.
    10030    2    1    2    0    0  0.00000000000E+00  0.00000000000E+00 -0.28299502804E+03  0.30111984785E+04  0.29978709263E+04 0.  0.
        5    1    3    3  502    0  0.98103999777E+03  0.41799603389E+03  0.91657302367E+03  0.14061608583E+04  0.46999998093E+01 0.  1.
       -5    1    3    3    0  502 -0.98103999777E+03 -0.41799603389E+03 -0.11995680517E+04  0.16050376202E+04  0.46999998093E+01 0. -1.
</event>
<event>
 5   0  0.5001658E-06  0.3141352E+04  0.7818609E-02  0.8204480E-01
        2   -1    0    0  501    0  0.00000000000E+00  0.00000000000E+00  0.14197566744E+04  0.14197566744E+04  0.25500000920E-02 0. -1.
       -2   -1    0    0    0  501  0.00000000000E+00  0.00000000000E+00 -0.17376375452E+04  0.17376375452E+04  0.25500000920E-02 0.  1.
    10030    2    1    2    0    0  0.00000000000E+00  0.00000000000E+00 -0.31788087082E+03  0.31573942196E+04  0.31413516215E+04 0.  0.
        3    1    3    3  502    0 -0.94966336601E+03  0.88699697917E+03 -0.10457149632E+04  0.16679760023E+04  0.10100000352E+00 0.  1.
       -3    1    3    3    0  502  0.94966336601E+03 -0.88699697917E+03  0.72783409236E+03  0.14894182173E+04  0.10100000352E+00 0. -1.
</event>
<event>
 5   0  0.5328368E-06  0.3035720E+04  0.7818609E-02  0.8233604E-01
       -2   -1    0    0    0  501  0.00000000000E+00  0.00000000000E+00  0.15924273270E+04  0.15924273270E+04  0.25500000920E-02 0. -1.
        2   -1    0    0  501    0  0.00000000000E+00  0.00000000000E+00 -0.14467843536E+04  0.14467843536E+04  0.25500000920E-02 0.  1.
    10030    2    1    2    0    0  0.00000000000E+00  0.00000000000E+00  0.14564297334E+03  0.30392116806E+04  0.30357199745E+04 0.  0.
        1    1    3    3  502    0 -0.12085152060E+04 -0.10046002087E+03 -0.84107990515E+03  0.14758104979E+04  0.50400001928E-02 0.  1.
       -1    1    3    3    0  502  0.12085152060E+04  0.10046002087E+03  0.98672287849E+03  0.15634011826E+04  0.50400001928E-02 0. -1.
</event>
<event>
 5   0  0.1836401E-06  0.3156971E+04  0.7818609E-02  0.8200274E-01
       -1   -1    0    0    0  501  0.00000000000E+00  0.00000000000E+00  0.14054825862E+04  0.14054825862E+04  0.50400001928E-02 0.  1.
        1   -1    0    0  501    0  0.00000000000E+00  0.00000000000E+00 -0.17727839767E+04  0.17727839767E+04  0.50400001928E-02 0. -1.
    10030    2    1    2    0    0  0.00000000000E+00  0.00000000000E+00 -0.36730139050E+03  0.31782665629E+04  0.31569713387E+04 0.  0.
        2    1    3    3  502    0  0.97945936849E+03  0.11371315128E+04  0.30873766816E+03  0.15322296433E+04  0.25500000920E-02 0. -1.
       -2    1    3    3    0  502 -0.97945936849E+03 -0.11371315128E+04 -0.67603905866E+03  0.16460369196E+04  0.25500000920E-02 0.  1.
</event>
<event>
 5   0  0.1840431E-06  0.3138215E+04  0.7818609E-02  0.8205328E-01
       -1   -1    0    0    0  501  0.00000000000E+00  0.00000000000E+00  0.94204318427E+03  0.94204318429E+03  0.50400001928E-02 0. -1.
        1   -1    0    0  501    0  0.00000000000E+00  0.00000000000E+00 -0.26135719563E+04  0.26135719563E+04  0.50400001928E-02 0.  1.
    10030    2    1    2    0    0  0.00000000000E+00  0.00000000000E+00 -0.16715287720E+04  0.35556151406E+04  0.31382145548E+04 0.  0.
        1    1    3    3  502    0 -0.39979204668E+03 -0.56152001091E+03 -0.24328441030E+04  0.25286100595E+04  0.50400001928E-02 0.  1.
       -1    1    3    3    0  502  0.39979204668E+03  0.56152001091E+03  0.76131533104E+03  0.10270050811E+04  0.50400001928E-02 0. -1.
</event>
<event>
 5   0  0.4927533E-06  0.3032781E+04  0.7818609E-02  0.8234432E-01
        2   -1    0    0  501    0  0.00000000000E+00  0.00000000000E+00  0.15894476035E+04  0.15894476035E+04  0.25500000920E-02 0.  1.
       -2   -1    0    0    0  501  0.00000000000E+00  0.00000000000E+00 -0.14466913509E+04  0.14466913509E+04  0.25500000920E-02 0. -1.
    10030    2    1    2    0    0  0.00000000000E+00  0.00000000000E+00  0.14275625255E+03  0.30361389544E+04  0.30327809685E+04 0.  0.
        5    1    3    3  502    0 -0.11435260081E+04  0.24501028962E+03  0.10377117500E+04  0.15635055290E+04  0.46999998093E+01 0.  1.
       -5    1    3    3    0  502  0.11435260081E+04 -0.24501028962E+03 -0.89495549745E+03  0.14726334254E+04  0.46999998093E+01 0. -1.
</event>
<event>
 5   0  0.1853742E-06  0.3099592E+04  0.7818609E-02  0.8215850E-01
        1   -1    0    0  501    0  0.00000000000E+00  0.00000000000E+00  0.21050619919E+04  0.21050619919E+04  0.50400001928E-02 0.  1.
       -1   -1    0    0    0  501  0.00000000000E+00  0.00000000000E+00 -0.11409964747E+04  0.11409964747E+04  0.50400001928E-02 0. -1.
    10030    2    1    2    0    0  0.00000000000E+00  0.00000000000E+00  0.96406551724E+03  0.32460584666E+04  0.30995924325E+04 0.  0.
        5    1    3    3  502    0 -0.90934028492E+03 -0.35897655017E+03  0.17413879937E+04  0.19970523659E+04  0.46999998093E+01 0.  1.
       -5    1    3    3    0  502  0.90934028492E+03  0.35897655017E+03 -0.77732247648E+03  0.12490061008E+04  0.46999998093E+01 0. -1.
</event>
<event>
 5   0  0.1843709E-06  0.3087132E+04  0.7818609E-02  0.8219278E-01
        1   -1    0    0  501    0  0.00000000000E+00  0.00000000000E+00  0.24924138850E+04  0.24924138850E+04  0.50400001928E-02 0. -1.
       -1   -1    0    0    0  501  0.00000000000E+00  0.00000000000E+00 -0.95593911058E+03  0.95593911059E+03  0.50400001928E-02 0.  1.
    10030    2    1    2    0    0  0.00000000000E+00  0.00000000000E+00  0.15364747744E+04  0.34483529956E+04  0.30871319456E+04 0.  0.
        4    1    3    3  502    0  0.11377742605E+04  0.12953248294E+02 -0.39682790235E+03  0.12050610156E+04  0.12699999809E+01 0.  1.
       -4    1    3    3    0  502 -0.11377742605E+04 -0.12953248294E+02  0.19333026768E+04  0.22432919800E+04  0.12699999809E+01 0. -1.
</event>
<event>
 5   0  0.4927533E-06  0.3217741E+04  0.7818609E-02  0.8184147E-01
       -2   -1    0    0    0  501  0.00000000000E+00  0.00000000000E+00  0.14490331046E+04  0.14490331046E+04  0.25500000920E-02 0. -1.
        2   -1    0    0  501    0  0.00000000000E+00  0.00000000000E+00 -0.17863394319E+04  0.17863394319E+04  0.25500000920E-02 0.  1.
    10030    2    1    2    0    0  0.00000000000E+00  0.00000000000E+00 -0.33730632728E+03  0.32353725364E+04  0.32177414270E+04 0.  0.
        5    1    3    3  502    0  0.14565840172E+03 -0.97037836646E+03  0.11133201203E+04  0.14840331278E+04  0.46999998093E+01 0. -1.
       -5    1    3    3    0  502 -0.14565840172E+03  0.97037836646E+03 -0.14506264475E+04  0.17513394087E+04  0.46999998093E+01 0.  1.
</event>
<event>
 5   0  0.1649875E-06  0.3045928E+04  0.7818609E-02  0.8230736E-01
        3   -1    0    0  501    0  0.00000000000E+00  0.00000000000E+00  0.20486164780E+04  0.20486164805E+04  0.10100000352E+00 0.  1.
       -3   -1    0    0    0  501  0.00000000000E+00  0.00000000000E+00 -0.11321879035E+04  0.11321879080E+04  0.10100000352E+00 0. -1.
    10030    2    1    2    0    0  0.00000000000E+00  0.00000000000E+00  0.91642857456E+03  0.31808043885E+04  0.30459276461E+04 0.  0.
        5    1    3    3  502    0 -0.70919307986E+03 -0.24018786487E+03  0.18431181990E+04  0.19894099177E+04  0.46999998093E+01 0.  1.
       -5    1    3    3    0  502  0.70919307986E+03  0.24018786487E+03 -0.92668962447E+03  0.11913944708E+04  0.46999998093E+01 0. -1.
</event>
<event>
 5   0  0.4927533E-06  0.3071118E+04  0.7818609E-02  0.8223709E-01
        2   -1    0    0  501    0  0.00000000000E+00  0.00000000000E+00  0.20153054606E+04  0.20153054606E+04  0.25500000920E-02 0.  1.
       -2   -1    0    0    0  501  0.00000000000E+00  0.00000000000E+00 -0.11700167601E+04  0.11700167601E+04  0.25500000920E-02 0. -1.
    10030    2    1    2    0    0  0.00000000000E+00  0.00000000000E+00  0.84528870046E+03  0.31853222208E+04  0.30711178198E+04 0.  0.
        5    1    3    3  502    0 -0.53343159048E+03 -0.11343183532E+04  0.13425836535E+04  0.18367853290E+04  0.46999998093E+01 0.  1.
       -5    1    3    3    0  502  0.53343159048E+03  0.11343183532E+04 -0.49729495300E+03  0.13485368918E+04  0.46999998093E+01 0. -1.
</event>
<event>
 5   0  0.4900679E-06  0.3117294E+04  0.7818609E-02  0.8211008E-01
       -2   -1    0    0    0  501  0.00000000000E+00  0.00000000000E+00  0.86082086847E+03  0.86082086847E+03  0.25500000920E-02 0. -1.
        2   -1    0    0  501    0  0.00000000000E+00  0.00000000000E+00 -0.28221676967E+04  0.28221676967E+04  0.25500000920E-02 0.  1.
    10030    2    1    2    0    0  0.00000000000E+00  0.00000000000E+00 -0.19613468283E+04  0.36829885652E+04  0.31172942419E+04 0.  0.
        4    1    3    3  502    0 -0.90967097656E+03  0.12653960351E+04 -0.10108141714E+04  0.18575455077E+04  0.12699999809E+01 0. -1.
       -4    1    3    3    0  502  0.90967097656E+03 -0.12653960351E+04 -0.95053265691E+03  0.18254430575E+04  0.12699999809E+01 0.  1.
</event>
<event>
 5   0  0.5328368E-06  0.3057415E+04  0.7818609E-02  0.8227523E-01
        2   -1    0    0  501    0  0.00000000000E+00  0.00000000000E+00  0.16647258328E+04  0.16647258328E+04  0.25500000920E-02 0. -1.
       -2   -1    0    0    0  501  0.00000000000E+00  0.00000000000E+00 -0.14038028372E+04  0.14038028372E+04  0.25500000920E-02 0.  1.
    10030    2    1    2    0    0  0.00000000000E+00  0.00000000000E+00  0.26092299556E+03  0.30685286700E+04  0.30574151483E+04 0.  0.
        1    1    3    3  502    0 -0.70710065856E+03 -0.63780838884E+03 -0.10697767805E+04  0.14322057262E+04  0.50400001928E-02 0.  1.
       -1    1    3    3    0  502  0.70710065856E+03  0.63780838884E+03  0.13306997760E+04  0.16363229437E+04  0.50400001928E-02 0. -1.
</event>
<event>
 5   0  0.5328368E-06  0.3117170E+04  0.7818609E-02  0.8211041E-01
       -2   -1    0    0    0  501  0.00000000000E+00  0.00000000000E+00  0.28335003150E+04  0.28335003150E+04  0.25500000920E-02 0.  1.
        2   -1    0    0  501    0  0.00000000000E+00  0.00000000000E+00 -0.85730983409E+03  0.85730983409E+03  0.25500000920E-02 0. -1.
    10030    2    1    2    0    0  0.00000000000E+00  0.00000000000E+00  0.19761904809E+04  0.36908101491E+04  0.31171703097E+04 0.  0.
        1    1    3    3  502    0  0.10492087564E+04  0.10854606194E+04  0.52933463751E+03  0.15997683986E+04  0.50400001928E-02 0. -1.
       -1    1    3    3    0  502 -0.10492087564E+04 -0.10854606194E+04  0.14468558434E+04  0.20910417505E+04  0.50400001928E-02 0.  1.
</event>
<event>
 5   0  0.1836401E-06  0.3095121E+04  0.7818609E-02  0.8217078E-01
        1   -1    0    0  501    0  0.00000000000E+00  0.00000000000E+00  0.19399571364E+04  0.19399571364E+04  0.50400001928E-02 0.  1.
       -1   -1    0    0    0  501  0.00000000000E+00  0.00000000000E+00 -0.12345340684E+04  0.12345340684E+04  0.50400001928E-02 0. -1.
    10030    2    1    2    0    0  0.00000000000E+00  0.00000000000E+00  0.70542306795E+03  0.31744912048E+04  0.30951207900E+04 0.  0.
        2    1    3    3  502    0  0.95139927931E+00  0.10906846503E+04  0.14787493593E+04  0.18374693410E+04  0.25500000920E-02 0.  1.
       -2    1    3    3    0  502 -0.95139927931E+00 -0.10906846503E+04 -0.77332629133E+03  0.13370218638E+04  0.25500000920E-02 0. -1.
</event>
<event>
 5   0  0.5328368E-06  0.3112224E+04  0.7818609E-02  0.8212391E-01
        2   -1    0    0  501    0  0.00000000000E+00  0.00000000000E+00  0.20852369343E+04  0.20852369343E+04  0.25500000920E-02 0.  1.
       -2   -1    0    0    0  501  0.00000000000E+00  0.00000000000E+00 -0.11612518765E+04  0.11612518765E+04  0.25500000920E-02 0. -1.
    10030    2    1    2    0    0  0.00000000000E+00  0.00000000000E+00  0.92398505781E+03  0.32464888108E+04  0.31122244796E+04 0.  0.
        1    1    3    3  502    0 -0.12668923984E+04 -0.35653558492E+03 -0.40409803124E+03  0.13767458702E+04  0.50400001928E-02 0.  1.
       -1    1    3    3    0  502  0.12668923984E+04  0.35653558492E+03  0.13280830891E+04  0.18697429406E+04  0.50400001928E-02 0. -1.
</event>
<event>
 5   0  0.1853742E-06  0.3119301E+04  0.7818609E-02  0.8210461E-01
       -1   -1    0    0    0  501  0.00000000000E+00  0.00000000000E+00  0.12457371017E+04  0.12457371018E+04  0.50400001928E-02 0.  1.
        1   -1    0    0  501    0  0.00000000000E+00  0.00000000000E+00 -0.19526674378E+04  0.19526674378E+04  0.50400001928E-02 0. -1.
    10030    2    1    2    0    0  0.00000000000E+00  0.00000000000E+00 -0.70693033601E+03  0.31984045395E+04  0.31193013799E+04 0.  0.
        5    1    3    3  502    0 -0.96869085533E+03 -0.12143306387E+04 -0.21018130519E+03  0.15675328208E+04  0.46999998093E+01 0. -1.
       -5    1    3    3    0  502  0.96869085533E+03  0.12143306387E+04 -0.49674903082E+03  0.16308717187E+04  0.46999998093E+01 0.  1.
</event>
<event>
 5   0  0.1885307E-06  0.3087196E+04  0.7818609E-02  0.8219261E-01
        1   -1    0    0  501    0  0.00000000000E+00  0.00000000000E+00  0.12090588355E+04  0.12090588355E+04  0.50400001928E-02 0.  1.
       -1   -1    0    0    0  501  0.00000000000E+00  0.00000000000E+00 -0.19707019040E+04  0.19707019040E+04  0.50400001928E-02 0. -1.
    10030    2    1    2    0    0  0.00000000000E+00  0.00000000000E+00 -0.76164306852E+03  0.31797607395E+04  0.30871958468E+04 0.  0.
        3    1    3    3  502    0  0.12172959437E+04 -0.92541278961E+03 -0.59808773906E+03  0.16419218007E+04  0.10100000352E+00 0. -1.
       -3    1    3    3    0  502 -0.12172959437E+04  0.92541278961E+03 -0.16355532946E+03  0.15378389388E+04  0.10100000352E+00 0.  1.
</event>
<event>
 5   0  0.4900679E-06  0.3099153E+04  0.7818609E-02  0.8215970E-01
       -2   -1    0    0    0  501  0.00000000000E+00  0.00000000000E+00  0.13432490017E+04  0.13432490017E+04  0.25500000920E-02 0.  1.
        2   -1    0    0  501    0  0.00000000000E+00  0.00000000000E+00 -0.17875962476E+04  0.17875962476E+04  0.25500000920E-02 0. -1.
    10030    2    1    2    0    0  0.00000000000E+00  0.00000000000E+00 -0.44434724588E+03  0.31308452493E+04  0.30991527068E+04 0.  0.
        4    1    3    3  502    0  0.30781576354E+03  0.15100757887E+04 -0.38539888726E+03  0.15885884763E+04  0.12699999809E+01 0. -1.
       -4    1    3    3    0  502 -0.30781576354E+03 -0.15100757887E+04 -0.58948358622E+02  0.15422567730E+04  0.12699999809E+01 0.  1.
</event>
<event>
 5   0  0.1840431E-06  0.2902262E+04  0.7818609E-02  0.8272205E-01
        1   -1    0    0  501    0  0.00000000000E+00  0.00000000000E+00  0.13923183454E+04  0.13923183454E+04  0.50400001928E-02 0. -1.
       -1   -1    0    0    0  501  0.00000000000E+00  0.00000000000E+00 -0.15124278338E+04  0.15124278338E+04  0.50400001928E-02 0.  1.
    10030    2    1    2    0    0  0.00000000000E+00  0.00000000000E+00 -0.12010948837E+03  0.29047461792E+04  0.29022618897E+04 0.  0.
        1    1    3    3  502    0  0.29766036671E+03 -0.13967565143E+04 -0.31766691861E+03  0.14630251964E+04  0.50400001928E-02 0. -1.
       -1    1    3    3    0  502 -0.29766036671E+03  0.13967565143E+04  0.19755743024E+03  0.14417209828E+04  0.50400001928E-02 0.  1.
</event>
<event>
 5   0  0.5001658E-06  0.3159651E+04  0.7818609E-02  0.8199555E-01
       -2   -1    0    0    0  501  0.00000000000E+00  0.00000000000E+00  0.13270935163E+04  0.13270935163E+04  0.25500000920E-02 0. -1.
        2   -1    0    0  501    0  0.00000000000E+00  0.00000000000E+00 -0.18806879371E+04  0.18806879371E+04  0.25500000920E-02 0.  1.
    10030    2    1    2    0    0  0.00000000000E+00  0.00000000000E+00 -0.55359442079E+03  0.32077814534E+04  0.31596510994E+04 0.  0.
        3    1    3    3  502    0  0.28989325748E+03 -0.15133780338E+04  0.77077447932E+02  0.15428195349E+04  0.10100000352E+00 0. -1.
       -3    1    3    3    0  502 -0.28989325748E+03  0.15133780338E+04 -0.63067186872E+03  0.16649619185E+04  0.10100000352E+00 0.  1.
</event>
<event>
 5   0  0.5001658E-06  0.2879403E+04  0.7818609E-02  0.8279032E-01
       -2   -1    0    0    0  501  0.00000000000E+00  0.00000000000E+00  0.12994990815E+04  0.12994990815E+04  0.25500000920E-02 0.  1.
        2   -1    0    0  501    0  0.00000000000E+00  0.00000000000E+00 -0.15950305707E+04  0.15950305707E+04  0.25500000920E-02 0. -1.
    10030    2    1    2    0    0  0.00000000000E+00  0.00000000000E+00 -0.29553148918E+03  0.28945296522E+04  0.28794032449E+04 0.  0.
        3    1    3    3  502    0  0.21668293972E+02 -0.40485382843E+02  0.12987627457E+04  0.12995742614E+04  0.10100000352E+00 0.  1.
       -3    1    3    3    0  502 -0.21668293972E+02  0.40485382843E+02 -0.15942942348E+04  0.15949553908E+04  0.10100000352E+00 0. -1.
</event>
<event>
 5   0  0.5001658E-06  0.3155103E+04  0.7818609E-02  0.8200776E-01
        2   -1    0    0  501    0  0.00000000000E+00  0.00000000000E+00  0.22418055344E+04  0.22418055344E+04  0.25500000920E-02 0. -1.
       -2   -1    0    0    0  501  0.00000000000E+00  0.00000000000E+00 -0.11101180523E+04  0.11101180523E+04  0.25500000920E-02 0.  1.
    10030    2    1    2    0    0  0.00000000000E+00  0.00000000000E+00  0.11316874821E+04  0.33519235868E+04  0.31551030370E+04 0.  0.
        3    1    3    3  502    0  0.50847816493E+03 -0.12569726724E+04 -0.29076693997E+03  0.13867500737E+04  0.10100000352E+00 0.  1.
       -3    1    3    3    0  502 -0.50847816493E+03  0.12569726724E+04  0.14224544221E+04  0.19651735130E+04  0.10100000352E+00 0. -1.
</event>
<event>
 5   0  0.1836401E-06  0.2385402E+04  0.7818609E-02  0.8444989E-01
       -1   -1    0    0    0  501  0.00000000000E+00  0.00000000000E+00  0.11084103700E+04  0.11084103700E+04  0.50400001928E-02 0. -1.
        1   -1    0    0  501    0  0.00000000000E+00  0.00000000000E+00 -0.12834021664E+04  0.12834021664E+04  0.50400001928E-02 0.  1.
    10030    2    1    2    0    0  0.00000000000E+00  0.00000000000E+00 -0.17499179641E+03  0.23918125364E+04  0.23854024986E+04 0.  0.
        2    1    3    3  502    0 -0.14339410940E+02 -0.36829693221E+03 -0.12248667574E+04  0.12791195497E+04  0.25500000920E-02 0.  1.
       -2    1    3    3    0  502  0.14339410940E+02  0.36829693221E+03  0.10498749610E+04  0.11126929867E+04  0.25500000920E-02 0. -1.
</event>
<event>
 5   0  0.4927533E-06  0.2960117E+04  0.7818609E-02  0.8255212E-01
        2   -1    0    0  501    0  0.00000000000E+00  0.00000000000E+00  0.13645836028E+04  0.13645836028E+04  0.25500000920E-02 0.  1.
       -2   -1    0    0    0  501  0.00000000000E+00  0.00000000000E+00 -0.16053049152E+04  0.16053049152E+04  0.25500000920E-02 0. -1.
    10030    2    1    2    0    0  0.00000000000E+00  0.00000000000E+00 -0.24072131241E+03  0.29698885181E+04  0.29601167307E+04 0.  0.
        5    1    3    3  502    0  0.72822988485E+02 -0.14759844552E+04 -0.20259081127E+03  0.14916093411E+04  0.46999998093E+01 0.  1.
       -5    1    3    3    0  502 -0.72822988485E+02  0.14759844552E+04 -0.38130501143E+02  0.14782791769E+04  0.46999998093E+01 0. -1.
</event>
<event>
 5   0  0.4927533E-06  0.3066934E+04  0.7818609E-02  0.8224871E-01
       -2   -1    0    0    0  501  0.00000000000E+00  0.00000000000E+00  0.14144244298E+04  0.14144244298E+04  0.25500000920E-02 0.  1.
        2   -1    0    0  501    0  0.00000000000E+00  0.00000000000E+00 -0.16625289580E+04  0.16625289580E+04  0.25500000920E-02 0. -1.
    10030    2    1    2    0    0  0.00000000000E+00  0.00000000000E+00 -0.24810452814E+03  0.30769533878E+04  0.30669343478E+04 0.  0.
        5    1    3    3  502    0 -0.89552892399E+03  0.81823869718E+03 -0.10652068186E+04  0.16143649760E+04  0.46999998093E+01 0. -1.
       -5    1    3    3    0  502  0.89552892399E+03 -0.81823869718E+03  0.81710229050E+03  0.14625884118E+04  0.46999998093E+01 0.  1.
</event>
<event>
 5   0  0.4900679E-06  0.3023639E+04  0.7818609E-02  0.8237013E-01
       -2   -1    0    0    0  501  0.00000000000E+00  0.00000000000E+00  0.98803309014E+03  0.98803309015E+03  0.25500000920E-02 0. -1.
        2   -1    0    0  501    0  0.00000000000E+00  0.00000000000E+00 -0.23132810706E+04  0.23132810706E+04  0.25500000920E-02 0.  1.
    10030    2    1    2    0    0  0.00000000000E+00  0.00000000000E+00 -0.13252479804E+04  0.33013141607E+04  0.30236390291E+04 0.  0.
        4    1    3    3  502    0 -0.48541864090E+03  0.37293928757E+03  0.84666988130E+03  0.10447805846E+04  0.12699999809E+01 0. -1.
       -4    1    3    3    0  502  0.48541864090E+03 -0.37293928757E+03 -0.21719178617E+04  0.22565335761E+04  0.12699999809E+01 0.  1.
</event>
<event>
 5   0  0.4900679E-06  0.3084868E+04  0.7818609E-02  0.8219903E-01
       -2   -1    0    0    0  501  0.00000000000E+00  0.00000000000E+00  0.81149099944E+03  0.81149099944E+03  0.25500000920E-02 0. -1.
        2   -1    0    0  501    0  0.00000000000E+00  0.00000000000E+00 -0.29317669062E+04  0.29317669062E+04  0.25500000920E-02 0.  1.
    10030    2    1    2    0    0  0.00000000000E+00  0.00000000000E+00 -0.21202759067E+04  0.37432579056E+04  0.30848678784E+04 0.  0.
        4    1    3    3  502    0  0.77855311083E+03 -0.57415269280E+03  0.39764268356E+03  0.10459051476E+04  0.12699999809E+01 0. -1.
       -4    1    3    3    0  502 -0.77855311083E+03  0.57415269280E+03 -0.25179185903E+04  0.26973527580E+04  0.12699999809E+01 0.  1.
</event>
<event>
 5   0  0.1843709E-06  0.2909132E+04  0.7818609E-02  0.8270166E-01
       -1   -1    0    0    0  501  0.00000000000E+00  0.00000000000E+00  0.11317788037E+04  0.11317788037E+04  0.50400001928E-02 0.  1.
        1   -1    0    0  501    0  0.00000000000E+00  0.00000000000E+00 -0.18694126090E+04  0.18694126090E+04  0.50400001928E-02 0. -1.
    10030    2    1    2    0    0  0.00000000000E+00  0.00000000000E+00 -0.73763380529E+03  0.30011914127E+04  0.29091315311E+04 0.  0.
        4    1    3    3  502    0 -0.75251876742E+03 -0.27559118837E+03  0.88348512928E+03  0.11928045041E+04  0.12699999809E+01 0.  1.
       -4    1    3    3    0  502  0.75251876742E+03  0.27559118837E+03 -0.16211189346E+04  0.18083869086E+04  0.12699999809E+01 0. -1.
</event>
<event>
 5   0  0.5001658E-06  0.3073501E+04  0.7818609E-02  0.8223048E-01
        2   -1    0    0  501    0  0.00000000000E+00  0.00000000000E+00  0.22730564483E+04  0.22730564483E+04  0.25500000920E-02 0.  1.
       -2   -1    0    0    0  501  0.00000000000E+00  0.00000000000E+00 -0.10389547532E+04  0.10389547532E+04  0.25500000920E-02 0. -1.
    10030    2    1    2    0    0  0.00000000000E+00  0.00000000000E+00  0.12341016950E+04  0.33120112015E+04  0.30735014568E+04 0.  0.
        3    1    3    3  502    0  0.36566696159E+03 -0.14851260261E+04  0.77793920524E+03  0.17159548530E+04  0.10100000352E+00 0. -1.
       -3    1    3    3    0  502 -0.36566696159E+03  0.14851260261E+04  0.45616248981E+03  0.15960563485E+04  0.10100000352E+00 0.  1.
</event>
<event>
 5   0  0.1843709E-06  0.2983549E+04  0.7818609E-02  0.8248444E-01
       -1   -1    0    0    0  501  0.00000000000E+00  0.00000000000E+00  0.14028679891E+04  0.14028679891E+04  0.50400001928E-02 0.  1.
        1   -1    0    0  501    0  0.00000000000E+00  0.00000000000E+00 -0.15863156322E+04  0.15863156322E+04  0.50400001928E-02 0. -1.
    10030    2    1    2    0    0  0.00000000000E+00  0.00000000000E+00 -0.18344764307E+03  0.29891836213E+04  0.29835491757E+04 0.  0.
        4    1    3    3  502    0  0.58581323667E+03 -0.13539874451E+04 -0.31334431767E+03  0.15081927676E+04  0.12699999809E+01 0.  1.
       -4    1    3    3    0  502 -0.58581323667E+03  0.13539874451E+04  0.12989667460E+03  0.14809908537E+04  0.12699999809E+01 0. -1.
</event>
<event>
 5   0  0.5328368E-06  0.3054708E+04  0.7818609E-02  0.8228279E-01
       -2   -1    0    0    0  501  0.00000000000E+00  0.00000000000E+00  0.14695093396E+04  0.14695093396E+04  0.25500000920E-02 0.  1.
        2   -1    0    0  501    0  0.00000000000E+00  0.00000000000E+00 -0.15874755033E+04  0.15874755033E+04  0.25500000920E-02 0. -1.
    10030    2    1    2    0    0  0.00000000000E+00  0.00000000000E+00 -0.11796616367E+03  0.30569848429E+04  0.30547078934E+04 0.  0.
        1    1    3    3  502    0 -0.23291877586E+03 -0.34040429011E+03 -0.15306858814E+04  0.15852840453E+04  0.50400001928E-02 0. -1.
       -1    1    3    3    0  502  0.23291877586E+03  0.34040429011E+03  0.14127197177E+04  0.14717007976E+04  0.50400001928E-02 0.  1.
</event>
<event>
 5   0  0.5114870E-06  0.2718040E+04  0.7818609E-02  0.8329175E-01
       -2   -1    0    0    0  501  0.00000000000E+00  0.00000000000E+00  0.86866257593E+03  0.86866257593E+03  0.25500000920E-02 0.  1.
        2   -1    0    0  501    0  0.00000000000E+00  0.00000000000E+00 -0.21261821930E+04  0.21261821930E+04  0.25500000920E-02 0. -1.
    10030    2    1    2    0    0  0.00000000000E+00  0.00000000000E+00 -0.12575196171E+04  0.29948447689E+04  0.27180396617E+04 0.  0.
        2    1    3    3  502    0  0.21556974833E+03  0.25432707491E+03 -0.20804239782E+04  0.21069685585E+04  0.25500000920E-02 0. -1.
       -2    1    3    3    0  502 -0.21556974833E+03 -0.25432707491E+03  0.82290436115E+03  0.88787621042E+03  0.25500000920E-02 0.  1.
</event>
<event>
 5   0  0.1840431E-06  0.3121332E+04  0.7818609E-02  0.8209908E-01
        1   -1    0    0  501    0  0.00000000000E+00  0.00000000000E+00  0.78917970754E+03  0.78917970756E+03  0.50400001928E-02 0. -1.
       -1   -1    0    0    0  501  0.00000000000E+00  0.00000000000E+00 -0.30863414272E+04  0.30863414272E+04  0.50400001928E-02 0.  1.
    10030    2    1    2    0    0  0.00000000000E+00  0.00000000000E+00 -0.22971617197E+04  0.38755211348E+04  0.31213317830E+04 0.  0.
        1    1    3    3  502    0 -0.11329948074E+04 -0.82566714340E+03 -0.29711759102E+03  0.14330674542E+04  0.50400001928E-02 0. -1.
       -1    1    3    3    0  502  0.11329948074E+04  0.82566714340E+03 -0.20000441287E+04  0.24424536806E+04  0.50400001928E-02 0.  1.
</event>
<event>
 5   0  0.1836401E-06  0.3030907E+04  0.7818609E-02  0.8234960E-01
        1   -1    0    0  501    0  0.00000000000E+00  0.00000000000E+00  0.19357454935E+04  0.19357454935E+04  0.50400001928E-02 0. -1.
       -1   -1    0    0    0  501  0.00000000000E+00  0.00000000000E+00 -0.11864159746E+04  0.11864159747E+04  0.50400001928E-02 0.  1.
    10030    2    1    2    0    0  0.00000000000E+00  0.00000000000E+00  0.74932951886E+03  0.31221614682E+04  0.30309070433E+04 0.  0.
        2    1    3    3  502    0 -0.10514715145E+04  0.11144990341E+02 -0.74946710307E+03  0.12912852106E+04  0.25500000920E-02 0.  1.
       -2    1    3    3    0  502  0.10514715145E+04 -0.11144990341E+02  0.14987966219E+04  0.18308762576E+04  0.25500000920E-02 0. -1.
</event>
<event>
 5   0  0.4900679E-06  0.3117518E+04  0.7818609E-02  0.8210947E-01
        2   -1    0    0  501    0  0.00000000000E+00  0.00000000000E+00  0.77533344121E+03  0.77533344122E+03  0.25500000920E-02 0.  1.
       -2   -1    0    0    0  501  0.00000000000E+00  0.00000000000E+00 -0.31337866167E+04  0.31337866167E+04  0.25500000920E-02 0. -1.
    10030    2    1    2    0    0  0.00000000000E+00  0.00000000000E+00 -0.23584531754E+04  0.39091200579E+04  0.31175179624E+04 0.  0.
        4    1    3    3  502    0 -0.53281099073E+03 -0.13881227061E+04 -0.17659699986E+04  0.23085544932E+04  0.12699999809E+01 0. -1.
       -4    1    3    3    0  502  0.53281099073E+03  0.13881227061E+04 -0.59248317679E+03  0.16005655647E+04  0.12699999809E+01 0.  1.
</event>
<event>
 5   0  0.4900679E-06  0.3104712E+04  0.7818609E-02  0.8214446E-01
        2   -1    0    0  501    0  0.00000000000E+00  0.00000000000E+00  0.99620607504E+03  0.99620607505E+03  0.25500000920E-02 0.  1.
       -2   -1    0    0    0  501  0.00000000000E+00  0.00000000000E+00 -0.24189865778E+04  0.24189865778E+04  0.25500000920E-02 0. -1.
    10030    2    1    2    0    0  0.00000000000E+00  0.00000000000E+00 -0.14227805027E+04  0.34151926528E+04  0.31047119829E+04 0.  0.
        4    1    3    3  502    0 -0.39968119866E+03  0.13192989950E+04 -0.14965741030E+04  0.20347065040E+04  0.12699999809E+01 0. -1.
       -4    1    3    3    0  502  0.39968119866E+03 -0.13192989950E+04  0.73793600286E+02  0.13804861488E+04  0.12699999809E+01 0.  1.
</event>
<event>
 5   0  0.1843709E-06  0.3078012E+04  0.7818609E-02  0.8221798E-01
        1   -1    0    0  501    0  0.00000000000E+00  0.00000000000E+00  0.24881400510E+04  0.24881400510E+04  0.50400001928E-02 0.  1.
       -1   -1    0    0    0  501  0.00000000000E+00  0.00000000000E+00 -0.95193203653E+03  0.95193203654E+03  0.50400001928E-02 0. -1.
    10030    2    1    2    0    0  0.00000000000E+00  0.00000000000E+00  0.15362080145E+04  0.34400720876E+04  0.30780124925E+04 0.  0.
        4    1    3    3  502    0  0.29797700887E+03  0.98246793382E+03 -0.51327704776E+03  0.11478190099E+04  0.12699999809E+01 0. -1.
       -4    1    3    3    0  502 -0.29797700887E+03 -0.98246793382E+03  0.20494850623E+04  0.22922530777E+04  0.12699999809E+01 0.  1.
</event>
<event>
 5   0  0.1836401E-06  0.3086589E+04  0.7818609E-02  0.8219428E-01
       -1   -1    0    0    0  501  0.00000000000E+00  0.00000000000E+00  0.10707575621E+04  0.10707575621E+04  0.50400001928E-02 0.  1.
        1   -1    0    0  501    0  0.00000000000E+00  0.00000000000E+00 -0.22243675015E+04  0.22243675015E+04  0.50400001928E-02 0. -1.
    10030    2    1    2    0    0  0.00000000000E+00  0.00000000000E+00 -0.11536099394E+04  0.32951250635E+04  0.30865892652E+04 0.  0.
        2    1    3    3  502    0 -0.94844452879E+03  0.41220945854E+03 -0.17997550843E+04  0.20757124139E+04  0.25500000920E-02 0. -1.
       -2    1    3    3    0  502  0.94844452879E+03 -0.41220945854E+03  0.64614514484E+03  0.12194126496E+04  0.25500000920E-02 0.  1.
</event>
<event>
 5   0  0.4927533E-06  0.3113552E+04  0.7818609E-02  0.8212028E-01
        2   -1    0    0  501    0  0.00000000000E+00  0.00000000000E+00  0.25938523985E+04  0.25938523985E+04  0.25500000920E-02 0. -1.
       -2   -1    0    0    0  501  0.00000000000E+00  0.00000000000E+00 -0.93434444087E+03  0.93434444087E+03  0.25500000920E-02 0.  1.
    10030    2    1    2    0    0  0.00000000000E+00  0.00000000000E+00  0.16595079577E+04  0.35281968394E+04  0.31135520352E+04 0.  0.
        5    1    3    3  502    0  0.12674252198E+04 -0.79624279788E+03  0.13147210266E+04  0.19922054986E+04  0.46999998093E+01 0. -1.
       -5    1    3    3    0  502 -0.12674252198E+04  0.79624279788E+03  0.34478693109E+03  0.15359913408E+04  0.46999998093E+01 0.  1.
</event>
<event>
 5   0  0.4927533E-06  0.3166622E+04  0.7818609E-02  0.8197688E-01
        2   -1    0    0  501    0  0.00000000000E+00  0.00000000000E+00  0.11477829842E+04  0.11477829842E+04  0.25500000920E-02 0. -1.
       -2   -1    0    0    0  501  0.00000000000E+00  0.00000000000E+00 -0.21841008561E+04  0.21841008561E+04  0.25500000920E-02 0.  1.
    10030    2    1    2    0    0  0.00000000000E+00  0.00000000000E+00 -0.10363178719E+04  0.33318838403E+04  0.31666220478E+04 0.  0.
        5    1    3    3  502    0  0.54311798948E+03 -0.14828947437E+04 -0.63765411395E+03  0.17031085785E+04  0.46999998093E+01 0.  1.
       -5    1    3    3    0  502 -0.54311798948E+03  0.14828947437E+04 -0.39866375796E+03  0.16287752617E+04  0.46999998093E+01 0. -1.
</event>
<event>
 5   0  0.1853742E-06  0.3131870E+04  0.7818609E-02  0.8207045E-01
       -1   -1    0    0    0  501  0.00000000000E+00  0.00000000000E+00  0.12421584948E+04  0.12421584948E+04  0.50400001928E-02 0.  1.
        1   -1    0    0  501    0  0.00000000000E+00  0.00000000000E+00 -0.19741061525E+04  0.19741061525E+04  0.50400001928E-02 0. -1.
    10030    2    1    2    0    0  0.00000000000E+00  0.00000000000E+00 -0.73194765774E+03  0.32162646473E+04  0.31318701934E+04 0.  0.
        5    1    3    3  502    0 -0.91310982937E+03 -0.10971134734E+03  0.93558758423E+03  0.13119269637E+04  0.46999998093E+01 0.  1.
       -5    1    3    3    0  502  0.91310982937E+03  0.10971134734E+03 -0.16675352420E+04  0.19043376837E+04  0.46999998093E+01 0. -1.
</event>
<event>
 5   0  0.5114870E-06  0.3062882E+04  0.7818609E-02  0.8225999E-01
        2   -1    0    0  501    0  0.00000000000E+00  0.00000000000E+00  0.20103889260E+04  0.20103889260E+04  0.25500000920E-02 0.  1.
       -2   -1    0    0    0  501  0.00000000000E+00  0.00000000000E+00 -0.11665955899E+04  0.11665955899E+04  0.25500000920E-02 0. -1.
    10030    2    1    2    0    0  0.00000000000E+00  0.00000000000E+00  0.84379333608E+03  0.31769845160E+04  0.30628815551E+04 0.  0.
        2    1    3    3  502    0 -0.63107818080E+03  0.72761704165E+03  0.16568925801E+04  0.19165018266E+04  0.25500000920E-02 0.  1.
       -2    1    3    3    0  502  0.63107818080E+03 -0.72761704165E+03 -0.81309924398E+03  0.12604826893E+04  0.25500000920E-02 0. -1.
</event>
<event>
 5   0  0.1843709E-06  0.3127984E+04  0.7818609E-02  0.8208100E-01
       -1   -1    0    0    0  501  0.00000000000E+00  0.00000000000E+00  0.13243723859E+04  0.13243723859E+04  0.50400001928E-02 0. -1.
        1   -1    0    0  501    0  0.00000000000E+00  0.00000000000E+00 -0.18469657120E+04  0.18469657120E+04  0.50400001928E-02 0.  1.
    10030    2    1    2    0    0  0.00000000000E+00  0.00000000000E+00 -0.52259332618E+03  0.31713380979E+04  0.31279836231E+04 0.  0.
        4    1    3    3  502    0  0.11066202016E+04 -0.51813711313E+03  0.72844820040E+03  0.14225725754E+04  0.12699999809E+01 0. -1.
       -4    1    3    3    0  502 -0.11066202016E+04  0.51813711313E+03 -0.12510415266E+04  0.17487655225E+04  0.12699999809E+01 0.  1.
</event>
<event>
 5   0  0.5001658E-06  0.3103643E+04  0.7818609E-02  0.8214739E-01
        2   -1    0    0  501    0  0.00000000000E+00  0.00000000000E+00  0.14793985026E+04  0.14793985026E+04  0.25500000920E-02 0. -1.
       -2   -1    0    0    0  501  0.00000000000E+00  0.00000000000E+00 -0.16277898117E+04  0.16277898117E+04  0.25500000920E-02 0.  1.
    10030    2    1    2    0    0  0.00000000000E+00  0.00000000000E+00 -0.14839130909E+03  0.31071883142E+04  0.31036428982E+04 0.  0.
        3    1    3    3  502    0 -0.77856679090E+03 -0.10927974948E+04 -0.85468688245E+03  0.15908684074E+04  0.10100000352E+00 0.  1.
       -3    1    3    3    0  502  0.77856679090E+03  0.10927974948E+04  0.70629557336E+03  0.15163199068E+04  0.10100000352E+00 0. -1.
</event>
<event>
 5   0  0.1649875E-06  0.3132665E+04  0.7818609E-02  0.8206830E-01
       -4   -1    0    0    0  501  0.00000000000E+00  0.00000000000E+00  0.17165023369E+04  0.17165028067E+04  0.12699999809E+01 0. -1.
        4   -1    0    0  501    0  0.00000000000E+00  0.00000000000E+00 -0.14292998194E+04  0.14293003836E+04  0.12699999809E+01 0.  1.
    10030    2    1    2    0    0  0.00000000000E+00  0.00000000000E+00  0.28720251755E+03  0.31458031903E+04  0.31326653869E+04 0.  0.
        5    1    3    3  502    0 -0.14146176992E+04  0.35411227353E+03  0.71769568889E+03  0.16253147169E+04  0.46999998093E+01 0.  1.
       -5    1    3    3    0  502  0.14146176992E+04 -0.35411227353E+03 -0.43049317133E+03  0.15204884734E+04  0.46999998093E+01 0. -1.
</event>
<event>
 5   0  0.5114870E-06  0.3100374E+04  0.7818609E-02  0.8215635E-01
       -2   -1    0    0    0  501  0.00000000000E+00  0.00000000000E+00  0.14645549447E+04  0.14645549447E+04  0.25500000920E-02 0.  1.
        2   -1    0    0  501    0  0.00000000000E+00  0.00000000000E+00 -0.16408262269E+04  0.16408262269E+04  0.25500000920E-02 0. -1.
    10030    2    1    2    0    0  0.00000000000E+00  0.00000000000E+00 -0.17627128219E+03  0.31053811716E+04  0.31003742768E+04 0.  0.
        2    1    3    3  502    0  0.78911608204E+03 -0.12966869160E+04 -0.40325301914E+03  0.15705776474E+04  0.25500000920E-02 0. -1.
       -2    1    3    3    0  502 -0.78911608204E+03  0.12966869160E+04  0.22698173695E+03  0.15348035242E+04  0.25500000920E-02 0.  1.
</event>
<event>
 5   0  0.1885307E-06  0.3123774E+04  0.7818609E-02  0.8209243E-01
        1   -1    0    0  501    0  0.00000000000E+00  0.00000000000E+00  0.13263036127E+04  0.13263036127E+04  0.50400001928E-02 0. -1.
       -1   -1    0    0    0  501  0.00000000000E+00  0.00000000000E+00 -0.18393161896E+04  0.18393161896E+04  0.50400001928E-02 0.  1.
    10030    2    1    2    0    0  0.00000000000E+00  0.00000000000E+00 -0.51301257689E+03  0.31656198024E+04  0.31237744523E+04 0.  0.
        3    1    3    3  502    0 -0.13885409362E+03  0.90367359216E+03 -0.15397971904E+04  0.17907768756E+04  0.10100000352E+00 0.  1.
       -3    1    3    3    0  502  0.13885409362E+03 -0.90367359216E+03  0.10267846135E+04  0.13748429267E+04  0.10100000352E+00 0. -1.
</event>
<event>
 5   0  0.5114870E-06  0.2622635E+04  0.7818609E-02  0.8360553E-01
       -2   -1    0    0    0  501  0.00000000000E+00  0.00000000000E+00  0.14472969288E+04  0.14472969288E+04  0.25500000920E-02 0.  1.
        2   -1    0    0  501    0  0.00000000000E+00  0.00000000000E+00 -0.11881142339E+04  0.11881142339E+04  0.25500000920E-02 0. -1.
    10030    2    1    2    0    0  0.00000000000E+00  0.00000000000E+00  0.25918269486E+03  0.26354111626E+04  0.26226353782E+04 0.  0.
        2    1    3    3  502    0  0.74308623930E+03  0.10254151466E+04 -0.21250898399E+03  0.12840613109E+04  0.25500000920E-02 0.  1.
       -2    1    3    3    0  502 -0.74308623930E+03 -0.10254151466E+04  0.47169167885E+03  0.13513498517E+04  0.25500000920E-02 0. -1.
</event>
<event>
 5   0  0.1853742E-06  0.2905424E+04  0.7818609E-02  0.8271266E-01
        1   -1    0    0  501    0  0.00000000000E+00  0.00000000000E+00  0.16642892190E+04  0.16642892190E+04  0.50400001928E-02 0.  1.
       -1   -1    0    0    0  501  0.00000000000E+00  0.00000000000E+00 -0.12680321002E+04  0.12680321002E+04  0.50400001928E-02 0. -1.
    10030    2    1    2    0    0  0.00000000000E+00  0.00000000000E+00  0.39625711877E+03  0.29323213192E+04  0.29054239992E+04 0.  0.
        5    1    3    3  502    0 -0.93826860928E+03 -0.10842282164E+04 -0.37379615569E+02  0.14343354329E+04  0.46999998093E+01 0.  1.
       -5    1    3    3    0  502  0.93826860928E+03  0.10842282164E+04  0.43363673434E+03  0.14979858864E+04  0.46999998093E+01 0. -1.
</event>
<event>
 5   0  0.1843709E-06  0.3015516E+04  0.7818609E-02  0.8239314E-01
       -1   -1    0    0    0  501  0.00000000000E+00  0.00000000000E+00  0.96707605177E+03  0.96707605179E+03  0.50400001928E-02 0. -1.
        1   -1    0    0  501    0  0.00000000000E+00  0.00000000000E+00 -0.23507301601E+04  0.23507301601E+04  0.50400001928E-02 0.  1.
    10030    2    1    2    0    0  0.00000000000E+00  0.00000000000E+00 -0.13836541084E+04  0.33178062119E+04  0.30155164348E+04 0.  0.
        4    1    3    3  502    0 -0.56987835042E+03 -0.13908664387E+04 -0.82229977774E+03  0.17133153014E+04  0.12699999809E+01 0. -1.
       -4    1    3    3    0  502  0.56987835042E+03  0.13908664387E+04 -0.56135433062E+03  0.16044909105E+04  0.12699999809E+01 0.  1.
</event>
<event>
 5   0  0.5001658E-06  0.3084377E+04  0.7818609E-02  0.8220039E-01
       -2   -1    0    0    0  501  0.00000000000E+00  0.00000000000E+00  0.16188950322E+04  0.16188950322E+04  0.25500000920E-02 0. -1.
        2   -1    0    0  501    0  0.00000000000E+00  0.00000000000E+00 -0.14691164297E+04  0.14691164297E+04  0.25500000920E-02 0.  1.
    10030    2    1    2    0    0  0.00000000000E+00  0.00000000000E+00  0.14977860251E+03  0.30880114620E+04  0.30843769483E+04 0.  0.
        3    1    3    3  502    0  0.34828301160E+03 -0.10590514715E+04  0.11417218719E+04  0.15957505815E+04  0.10100000352E+00 0. -1.
       -3    1    3    3    0  502 -0.34828301160E+03  0.10590514715E+04 -0.99194326935E+03  0.14922608805E+04  0.10100000352E+00 0.  1.
</event>
<event>
 5   0  0.1885307E-06  0.3069445E+04  0.7818609E-02  0.8224174E-01
       -1   -1    0    0    0  501  0.00000000000E+00  0.00000000000E+00  0.78634351045E+03  0.78634351047E+03  0.50400001928E-02 0. -1.
        1   -1    0    0  501    0  0.00000000000E+00  0.00000000000E+00 -0.29953490366E+04  0.29953490366E+04  0.50400001928E-02 0.  1.
    10030    2    1    2    0    0  0.00000000000E+00  0.00000000000E+00 -0.22090055261E+04  0.37816925471E+04  0.30694450811E+04 0.  0.
        3    1    3    3  502    0  0.21290946396E+03 -0.34451162120E+03  0.71932019043E+03  0.82549393913E+03  0.10100000352E+00 0. -1.
       -3    1    3    3    0  502 -0.21290946396E+03  0.34451162120E+03 -0.29283257166E+04  0.29561986079E+04  0.10100000352E+00 0.  1.
</event>
<event>
 5   0  0.1836401E-06  0.3093393E+04  0.7818609E-02  0.8217553E-01
        1   -1    0    0  501    0  0.00000000000E+00  0.00000000000E+00  0.23050578905E+04  0.23050578905E+04  0.50400001928E-02 0.  1.
       -1   -1    0    0    0  501  0.00000000000E+00  0.00000000000E+00 -0.10378351496E+04  0.10378351496E+04  0.50400001928E-02 0. -1.
    10030    2    1    2    0    0  0.00000000000E+00  0.00000000000E+00  0.12672227409E+04  0.33428930401E+04  0.30933930242E+04 0.  0.
        2    1    3    3  502    0  0.25891750758E+03 -0.13274292984E+04  0.14445809153E+04  0.19788685755E+04  0.25500000920E-02 0.  1.
       -2    1    3    3    0  502 -0.25891750758E+03  0.13274292984E+04 -0.17735817442E+03  0.13640244646E+04  0.25500000920E-02 0. -1.
</event>
<event>
 5   0  0.1836401E-06  0.3093128E+04  0.7818609E-02  0.8217626E-01
        1   -1    0    0  501    0  0.00000000000E+00  0.00000000000E+00  0.19696667046E+04  0.19696667046E+04  0.50400001928E-02 0.  1.
       -1   -1    0    0    0  501  0.00000000000E+00  0.00000000000E+00 -0.12143475375E+04  0.12143475375E+04  0.50400001928E-02 0. -1.
    10030    2    1    2    0    0  0.00000000000E+00  0.00000000000E+00  0.75531916716E+03  0.31840142421E+04  0.30931278101E+04 0.  0.
        2    1    3    3  502    0 -0.77472354186E+03  0.13333804835E+04  0.49840862943E+03  0.16206514869E+04  0.25500000920E-02 0.  1.
       -2    1    3    3    0  502  0.77472354186E+03 -0.13333804835E+04  0.25691053773E+03  0.15633627552E+04  0.25500000920E-02 0. -1.
</event>
<event>
 5   0  0.4900679E-06  0.3097189E+04  0.7818609E-02  0.8216510E-01
        2   -1    0    0  501    0  0.00000000000E+00  0.00000000000E+00  0.16498897953E+04  0.16498897953E+04  0.25500000920E-02 0.  1.
       -2   -1    0    0    0  501  0.00000000000E+00  0.00000000000E+00 -0.14535181874E+04  0.14535181874E+04  0.25500000920E-02 0. -1.
    10030    2    1    2    0    0  0.00000000000E+00  0.00000000000E+00  0.19637160791E+03  0.31034079828E+04  0.30971889350E+04 0.  0.
        4    1    3    3  502    0 -0.33283756935E+03 -0.12200141907E+04 -0.79743654856E+03  0.14950324862E+04  0.12699999809E+01 0. -1.
       -4    1    3    3    0  502  0.33283756935E+03  0.12200141907E+04  0.99380815647E+03  0.16083754965E+04  0.12699999809E+01 0.  1.
</event>
<event>
 5   0  0.1840431E-06  0.3114932E+04  0.7818609E-02  0.8211652E-01
       -1   -1    0    0    0  501  0.00000000000E+00  0.00000000000E+00  0.12572331465E+04  0.12572331465E+04  0.50400001928E-02 0.  1.
        1   -1    0    0  501    0  0.00000000000E+00  0.00000000000E+00 -0.19293957126E+04  0.19293957126E+04  0.50400001928E-02 0. -1.
    10030    2    1    2    0    0  0.00000000000E+00  0.00000000000E+00 -0.67216256612E+03  0.31866288591E+04  0.31149319367E+04 0.  0.
        1    1    3    3  502    0 -0.99817926944E+03  0.95559933959E+03 -0.10710664664E+04  0.17483464551E+04  0.50400001928E-02 0.  1.
       -1    1    3    3    0  502  0.99817926944E+03 -0.95559933959E+03  0.39890390026E+03  0.14382824039E+04  0.50400001928E-02 0. -1.
</event>
<event>
 5   0  0.1840431E-06  0.2982893E+04  0.7818609E-02  0.8248633E-01
       -1   -1    0    0    0  501  0.00000000000E+00  0.00000000000E+00  0.87912123095E+03  0.87912123096E+03  0.50400001928E-02 0. -1.
        1   -1    0    0  501    0  0.00000000000E+00  0.00000000000E+00 -0.25302683228E+04  0.25302683228E+04  0.50400001928E-02 0.  1.
    10030    2    1    2    0    0  0.00000000000E+00  0.00000000000E+00 -0.16511470918E+04  0.34093895537E+04  0.29828929599E+04 0.  0.
        1    1    3    3  502    0 -0.52177959687E+03 -0.15814085756E+03 -0.24122805202E+04  0.24731275314E+04  0.50400001928E-02 0.  1.
       -1    1    3    3    0  502  0.52177959687E+03  0.15814085756E+03  0.76113342839E+03  0.93626202229E+03  0.50400001928E-02 0. -1.
</event>
<event>
 5   0  0.4927533E-06  0.3115353E+04  0.7818609E-02  0.8211537E-01
        2   -1    0    0  501    0  0.00000000000E+00  0.00000000000E+00  0.13007730594E+04  0.13007730594E+04  0.25500000920E-02 0.  1.
       -2   -1    0    0    0  501  0.00000000000E+00  0.00000000000E+00 -0.18653184997E+04  0.18653184997E+04  0.25500000920E-02 0. -1.
    10030    2    1    2    0    0  0.00000000000E+00  0.00000000000E+00 -0.56454544023E+03  0.31660915591E+04  0.31153529826E+04 0.  0.
        5    1    3    3  502    0  0.52367237933E+03 -0.78139737314E+03  0.97952778950E+03  0.13580542684E+04  0.46999998093E+01 0.  1.
       -5    1    3    3    0  502 -0.52367237933E+03  0.78139737314E+03 -0.15440732297E+04  0.18080372906E+04  0.46999998093E+01 0. -1.
</event>
<event>
 5   0  0.5328368E-06  0.3122937E+04  0.7818609E-02  0.8209471E-01
        2   -1    0    0  501    0  0.00000000000E+00  0.00000000000E+00  0.18178331416E+04  0.18178331416E+04  0.25500000920E-02 0.  1.
       -2   -1    0    0    0  501  0.00000000000E+00  0.00000000000E+00 -0.13412584627E+04  0.13412584627E+04  0.25500000920E-02 0. -1.
    10030    2    1    2    0    0  0.00000000000E+00  0.00000000000E+00  0.47657467891E+03  0.31590916043E+04  0.31229371335E+04 0.  0.
        1    1    3    3  502    0  0.50534427129E+03 -0.12095292302E+04 -0.61997502885E+03  0.14500699389E+04  0.50400001928E-02 0. -1.
       -1    1    3    3    0  502 -0.50534427129E+03  0.12095292302E+04  0.10965497078E+04  0.17090216654E+04  0.50400001928E-02 0.  1.
</event>
<event>
 5   0  0.5328368E-06  0.3122973E+04  0.7818609E-02  0.8209461E-01
        2   -1    0    0  501    0  0.00000000000E+00  0.00000000000E+00  0.22941965253E+04  0.22941965253E+04  0.25500000920E-02 0.  1.
       -2   -1    0    0    0  501  0.00000000000E+00  0.00000000000E+00 -0.10627858809E+04  0.10627858809E+04  0.25500000920E-02 0. -1.
    10030    2    1    2    0    0  0.00000000000E+00  0.00000000000E+00  0.12314106444E+04  0.33569824062E+04  0.31229727346E+04 0.  0.
        1    1    3    3  502    0 -0.88487305911E+03  0.74346363729E+03  0.17443842085E+04  0.20925139850E+04  0.50400001928E-02 0.  1.
       -1    1    3    3    0  502  0.88487305911E+03 -0.74346363729E+03 -0.51297356414E+03  0.12644684212E+04  0.50400001928E-02 0. -1.
</event>
<event>
 5   0  0.1885307E-06  0.3088180E+04  0.7818609E-02  0.8218989E-01
       -1   -1    0    0    0  501  0.00000000000E+00  0.00000000000E+00  0.16525464181E+04  0.16525464181E+04  0.50400001928E-02 0.  1.
        1   -1    0    0  501    0  0.00000000000E+00  0.00000000000E+00 -0.14427517410E+04  0.14427517410E+04  0.50400001928E-02 0. -1.
    10030    2    1    2    0    0  0.00000000000E+00  0.00000000000E+00  0.20979467712E+03  0.30952981591E+04  0.30881801902E+04 0.  0.
        3    1    3    3  502    0 -0.72020526175E+03  0.96821778279E+03 -0.86068854167E+03  0.14822031136E+04  0.10100000352E+00 0.  1.
       -3    1    3    3    0  502  0.72020526175E+03 -0.96821778279E+03  0.10704832188E+04  0.16130950455E+04  0.10100000352E+00 0. -1.
</event>
<event>
 5   0  0.4927533E-06  0.3076757E+04  0.7818609E-02  0.8222146E-01
        2   -1    0    0  501    0  0.00000000000E+00  0.00000000000E+00  0.15695113277E+04  0.15695113277E+04  0.25500000920E-02 0.  1.
       -2   -1    0    0    0  501  0.00000000000E+00  0.00000000000E+00 -0.15078636031E+04  0.15078636031E+04  0.25500000920E-02 0. -1.
    10030    2    1    2    0    0  0.00000000000E+00  0.00000000000E+00  0.61647724586E+02  0.30773749308E+04  0.30767573877E+04 0.  0.
        5    1    3    3  502    0  0.12548012105E+04  0.70912617195E+03 -0.50705810809E+03  0.15279123079E+04  0.46999998093E+01 0. -1.
       -5    1    3    3    0  502 -0.12548012105E+04 -0.70912617195E+03  0.56870583268E+03  0.15494626229E+04  0.46999998093E+01 0.  1.
</event>
<event>
 5   0  0.5114870E-06  0.3017156E+04  0.7818609E-02  0.8238849E-01
       -2   -1    0    0    0  501  0.00000000000E+00  0.00000000000E+00  0.13628002560E+04  0.13628002560E+04  0.25500000920E-02 0.  1.
        2   -1    0    0  501    0  0.00000000000E+00  0.00000000000E+00 -0.16699490494E+04  0.16699490494E+04  0.25500000920E-02 0. -1.
    10030    2    1    2    0    0  0.00000000000E+00  0.00000000000E+00 -0.30714879341E+03  0.30327493053E+04  0.30171556088E+04 0.  0.
        2    1    3    3  502    0  0.10108156360E+04 -0.10213012188E+04  0.30814983492E+03  0.14696124490E+04  0.25500000920E-02 0.  1.
       -2    1    3    3    0  502 -0.10108156360E+04  0.10213012188E+04 -0.61529862833E+03  0.15631368563E+04  0.25500000920E-02 0. -1.
</event>
<event>
 5   0  0.1853742E-06  0.2770648E+04  0.7818609E-02  0.8312439E-01
        1   -1    0    0  501    0  0.00000000000E+00  0.00000000000E+00  0.12229103538E+04  0.12229103538E+04  0.50400001928E-02 0. -1.
       -1   -1    0    0    0  501  0.00000000000E+00  0.00000000000E+00 -0.15693075202E+04  0.15693075202E+04  0.50400001928E-02 0.  1.
    10030    2    1    2    0    0  0.00000000000E+00  0.00000000000E+00 -0.34639716639E+03  0.27922178740E+04  0.27706478771E+04 0.  0.
        5    1    3    3  502    0  0.11377144285E+04 -0.77111314708E+03 -0.34801581789E+03  0.14177964261E+04  0.46999998093E+01 0. -1.
       -5    1    3    3    0  502 -0.11377144285E+04  0.77111314708E+03  0.16186514944E+01  0.13744214479E+04  0.46999998093E+01 0.  1.
</event>
<event>
 5   0  0.5328368E-06  0.3578091E+04  0.7818609E-02  0.8095529E-01
       -2   -1    0    0    0  501  0.00000000000E+00  0.00000000000E+00  0.22364921868E+04  0.22364921868E+04  0.25500000920E-02 0.  1.
        2   -1    0    0  501    0  0.00000000000E+00  0.00000000000E+00 -0.14311174343E+04  0.14311174343E+04  0.25500000920E-02 0. -1.
    10030    2    1    2    0    0  0.00000000000E+00  0.00000000000E+00  0.80537475259E+03  0.36676096211E+04  0.35780905300E+04 0.  0.
        1    1    3    3  502    0 -0.50299584739E+03 -0.25042570391E+02 -0.13569598331E+04  0.14474017900E+04  0.50400001928E-02 0. -1.
       -1    1    3    3    0  502  0.50299584739E+03  0.25042570391E+02  0.21623345857E+04  0.22202078311E+04  0.50400001928E-02 0.  1.
</event>
<event>
 5   0  0.4900679E-06  0.2342926E+04  0.7818609E-02  0.8461186E-01
        2   -1    0    0  501    0  0.00000000000E+00  0.00000000000E+00  0.11097287326E+04  0.11097287326E+04  0.25500000920E-02 0.  1.
       -2   -1    0    0    0  501  0.00000000000E+00  0.00000000000E+00 -0.12366315204E+04  0.12366315204E+04  0.25500000920E-02 0. -1.
    10030    2    1    2    0    0  0.00000000000E+00  0.00000000000E+00 -0.12690278778E+03  0.23463602530E+04  0.23429259740E+04 0.  0.
        4    1    3    3  502    0  0.43623897971E+03  0.44555887075E+03 -0.10566191087E+04  0.12268955573E+04  0.12699999809E+01 0. -1.
       -4    1    3    3    0  502 -0.43623897971E+03 -0.44555887075E+03  0.92971632093E+03  0.11194646957E+04  0.12699999809E+01 0.  1.
</event>
<event>
 5   0  0.5328368E-06  0.3091617E+04  0.7818609E-02  0.8218042E-01
       -2   -1    0    0    0  501  0.00000000000E+00  0.00000000000E+00  0.27445307248E+04  0.27445307248E+04  0.25500000920E-02 0. -1.
        2   -1    0    0  501    0  0.00000000000E+00  0.00000000000E+00 -0.87064950801E+03  0.87064950802E+03  0.25500000920E-02 0.  1.
    10030    2    1    2    0    0  0.00000000000E+00  0.00000000000E+00  0.18738812168E+04  0.36151802328E+04  0.30916172630E+04 0.  0.
        1    1    3    3  502    0  0.22904209670E+02 -0.14819103275E+04  0.42330271092E+03  0.15413526548E+04  0.50400001928E-02 0.  1.
       -1    1    3    3    0  502 -0.22904209670E+02  0.14819103275E+04  0.14505785059E+04  0.20738275780E+04  0.50400001928E-02 0. -1.
</event>
<event>
 5   0  0.5114870E-06  0.3148442E+04  0.7818609E-02  0.8202568E-01
        2   -1    0    0  501    0  0.00000000000E+00  0.00000000000E+00  0.10850752158E+04  0.10850752158E+04  0.25500000920E-02 0.  1.
       -2   -1    0    0    0  501  0.00000000000E+00  0.00000000000E+00 -0.22838706326E+04  0.22838706326E+04  0.25500000920E-02 0. -1.
    10030    2    1    2    0    0  0.00000000000E+00  0.00000000000E+00 -0.11987954167E+04  0.33689458484E+04  0.31484417857E+04 0.  0.
        2    1    3    3  502    0  0.89042546382E+03  0.83776619805E+03  0.46175305446E+03  0.13068762728E+04  0.25500000920E-02 0.  1.
       -2    1    3    3    0  502 -0.89042546382E+03 -0.83776619805E+03 -0.16605484712E+04  0.20620695755E+04  0.25500000920E-02 0. -1.
</event>
<event>
 5   0  0.1836401E-06  0.3126585E+04  0.7818609E-02  0.8208480E-01
       -1   -1    0    0    0  501  0.00000000000E+00  0.00000000000E+00  0.15952467509E+04  0.15952467510E+04  0.50400001928E-02 0.  1.
        1   -1    0    0  501    0  0.00000000000E+00  0.00000000000E+00 -0.15319779661E+04  0.15319779661E+04  0.50400001928E-02 0. -1.
    10030    2    1    2    0    0  0.00000000000E+00  0.00000000000E+00  0.63268784810E+02  0.31272247171E+04  0.31265846370E+04 0.  0.
        2    1    3    3  502    0 -0.58512842596E+02 -0.96308530928E+03 -0.11986279083E+04  0.15387221739E+04  0.25500000920E-02 0. -1.
       -2    1    3    3    0  502  0.58512842596E+02  0.96308530928E+03  0.12618966931E+04  0.15885025432E+04  0.25500000920E-02 0.  1.
</event>
<event>
 5   0  0.1836401E-06  0.3114029E+04  0.7818609E-02  0.8211898E-01
       -1   -1    0    0    0  501  0.00000000000E+00  0.00000000000E+00  0.13895398473E+04  0.13895398473E+04  0.50400001928E-02 0. -1.
        1   -1    0    0  501    0  0.00000000000E+00  0.00000000000E+00 -0.17446744349E+04  0.17446744349E+04  0.50400001928E-02 0.  1.
    10030    2    1    2    0    0  0.00000000000E+00  0.00000000000E+00 -0.35513458758E+03  0.31342142822E+04  0.31140293177E+04 0.  0.
        2    1    3    3  502    0 -0.65513053124E+03 -0.28046956667E+03  0.12157598153E+04  0.14092306835E+04  0.25500000920E-02 0. -1.
       -2    1    3    3    0  502  0.65513053124E+03  0.28046956667E+03 -0.15708944029E+04  0.17249835987E+04  0.25500000920E-02 0.  1.
</event>
<event>
 5   0  0.5328368E-06  0.3079316E+04  0.7818609E-02  0.8221437E-01
       -2   -1    0    0    0  501  0.00000000000E+00  0.00000000000E+00  0.12819071386E+04  0.12819071386E+04  0.25500000920E-02 0.  1.
        2   -1    0    0  501    0  0.00000000000E+00  0.00000000000E+00 -0.18492347659E+04  0.18492347659E+04  0.25500000920E-02 0. -1.
    10030    2    1    2    0    0  0.00000000000E+00  0.00000000000E+00 -0.56732762726E+03  0.31311419044E+04  0.30793163185E+04 0.  0.
        1    1    3    3  502    0 -0.22391948397E+03 -0.18829339549E+03 -0.18207105531E+04  0.18440664999E+04  0.50400001928E-02 0. -1.
       -1    1    3    3    0  502  0.22391948397E+03  0.18829339549E+03  0.12533829258E+04  0.12870754045E+04  0.50400001928E-02 0.  1.
</event>
<event>
 5   0  0.1885307E-06  0.3105896E+04  0.7818609E-02  0.8214122E-01
       -1   -1    0    0    0  501  0.00000000000E+00  0.00000000000E+00  0.93484016442E+03  0.93484016443E+03  0.50400001928E-02 0. -1.
        1   -1    0    0  501    0  0.00000000000E+00  0.00000000000E+00 -0.25797432026E+04  0.25797432026E+04  0.50400001928E-02 0.  1.
    10030    2    1    2    0    0  0.00000000000E+00  0.00000000000E+00 -0.16449030382E+04  0.35145833670E+04  0.31058960444E+04 0.  0.
        3    1    3    3  502    0 -0.70973209380E+03 -0.79258925201E+03 -0.21025581292E+04  0.23564099949E+04  0.10100000352E+00 0.  1.
       -3    1    3    3    0  502  0.70973209380E+03  0.79258925201E+03  0.45765509100E+03  0.11581733721E+04  0.10100000352E+00 0. -1.
</event>
<event>
 5   0  0.1853742E-06  0.2969102E+04  0.7818609E-02  0.8252609E-01
       -1   -1    0    0    0  501  0.00000000000E+00  0.00000000000E+00  0.16746197163E+04  0.16746197163E+04  0.50400001928E-02 0. -1.
        1   -1    0    0  501    0  0.00000000000E+00  0.00000000000E+00 -0.13160549040E+04  0.13160549040E+04  0.50400001928E-02 0.  1.
    10030    2    1    2    0    0  0.00000000000E+00  0.00000000000E+00  0.35856481231E+03  0.29906746204E+04  0.29691018777E+04 0.  0.
        5    1    3    3  502    0  0.60645757168E+03  0.70482830068E+03  0.13449703361E+04  0.16350966377E+04  0.46999998093E+01 0. -1.
       -5    1    3    3    0  502 -0.60645757168E+03 -0.70482830068E+03 -0.98640552379E+03  0.13555779826E+04  0.46999998093E+01 0.  1.
</event>
<event>
 5   0  0.5001658E-06  0.3118562E+04  0.7818609E-02  0.8210662E-01
       -2   -1    0    0    0  501  0.00000000000E+00  0.00000000000E+00  0.15462578512E+04  0.15462578512E+04  0.25500000920E-02 0. -1.
        2   -1    0    0  501    0  0.00000000000E+00  0.00000000000E+00 -0.15724136093E+04  0.15724136093E+04  0.25500000920E-02 0.  1.
    10030    2    1    2    0    0  0.00000000000E+00  0.00000000000E+00 -0.26155758158E+02  0.31186714605E+04  0.31185617767E+04 0.  0.
        3    1    3    3  502    0  0.81860972258E+03  0.19240067962E+03  0.13000627330E+04  0.15483226471E+04  0.10100000352E+00 0. -1.
       -3    1    3    3    0  502 -0.81860972258E+03 -0.19240067962E+03 -0.13262184912E+04  0.15703488135E+04  0.10100000352E+00 0.  1.
</event>
<event>
 5   0  0.1843709E-06  0.3088699E+04  0.7818609E-02  0.8218846E-01
       -1   -1    0    0    0  501  0.00000000000E+00  0.00000000000E+00  0.12306984056E+04  0.12306984056E+04  0.50400001928E-02 0.  1.
        1   -1    0    0  501    0  0.00000000000E+00  0.00000000000E+00 -0.19379370829E+04  0.19379370829E+04  0.50400001928E-02 0. -1.
    10030    2    1    2    0    0  0.00000000000E+00  0.00000000000E+00 -0.70723867730E+03  0.31686354885E+04  0.30886994532E+04 0.  0.
        4    1    3    3  502    0 -0.30748260742E+03  0.76372909033E+03  0.98678909371E+03  0.12851389052E+04  0.12699999809E+01 0.  1.
       -4    1    3    3    0  502  0.30748260742E+03 -0.76372909033E+03 -0.16940277710E+04  0.18834965833E+04  0.12699999809E+01 0. -1.
</event>
<event>
 5   0  0.5114870E-06  0.3126934E+04  0.7818609E-02  0.8208385E-01
       -2   -1    0    0    0  501  0.00000000000E+00  0.00000000000E+00  0.11241207060E+04  0.11241207060E+04  0.25500000920E-02 0. -1.
        2   -1    0    0  501    0  0.00000000000E+00  0.00000000000E+00 -0.21745258428E+04  0.21745258428E+04  0.25500000920E-02 0.  1.
    10030    2    1    2    0    0  0.00000000000E+00  0.00000000000E+00 -0.10504051368E+04  0.32986465488E+04  0.31269342977E+04 0.  0.
        2    1    3    3  502    0 -0.37951361490E+03 -0.87938346455E+03  0.77840971144E+03  0.12342072518E+04  0.25500000920E-02 0. -1.
       -2    1    3    3    0  502  0.37951361490E+03  0.87938346455E+03 -0.18288148482E+04  0.20644392969E+04  0.25500000920E-02 0.  1.
</event>
<event>
 5   0  0.1840431E-06  0.3145503E+04  0.7818609E-02  0.8203360E-01
       -1   -1    0    0    0  501  0.00000000000E+00  0.00000000000E+00  0.94929761311E+03  0.94929761312E+03  0.50400001928E-02 0.  1.
        1   -1    0    0  501    0  0.00000000000E+00  0.00000000000E+00 -0.26056601332E+04  0.26056601332E+04  0.50400001928E-02 0. -1.
    10030    2    1    2    0    0  0.00000000000E+00  0.00000000000E+00 -0.16563625201E+04  0.35549577463E+04  0.31455027866E+04 0.  0.
        1    1    3    3  502    0 -0.87122344842E+02 -0.97869422512E+03 -0.22160918564E+04  0.24241484701E+04  0.50400001928E-02 0. -1.
       -1    1    3    3    0  502  0.87122344842E+02  0.97869422512E+03  0.55972933628E+03  0.11308092762E+04  0.50400001928E-02 0.  1.
</event>
<event>
 5   0  0.1840431E-06  0.3183420E+04  0.7818609E-02  0.8193210E-01
       -1   -1    0    0    0  501  0.00000000000E+00  0.00000000000E+00  0.12527874315E+04  0.12527874315E+04  0.50400001928E-02 0. -1.
        1   -1    0    0  501    0  0.00000000000E+00  0.00000000000E+00 -0.20223234726E+04  0.20223234726E+04  0.50400001928E-02 0.  1.
    10030    2    1    2    0    0  0.00000000000E+00  0.00000000000E+00 -0.76953604111E+03  0.32751109042E+04  0.31834204429E+04 0.  0.
        1    1    3    3  502    0 -0.11254489779E+04  0.48045760635E+03  0.66242280613E+03  0.13915023850E+04  0.50400001928E-02 0. -1.
       -1    1    3    3    0  502  0.11254489779E+04 -0.48045760635E+03 -0.14319588472E+04  0.18836085192E+04  0.50400001928E-02 0.  1.
</event>
<event>
 5   0  0.4927533E-06  0.3170866E+04  0.7818609E-02  0.8196554E-01
        2   -1    0    0  501    0  0.00000000000E+00  0.00000000000E+00  0.29865726443E+04  0.29865726443E+04  0.25500000920E-02 0.  1.
       -2   -1    0    0    0  501  0.00000000000E+00  0.00000000000E+00 -0.84163291669E+03  0.84163291669E+03  0.25500000920E-02 0. -1.
    10030    2    1    2    0    0  0.00000000000E+00  0.00000000000E+00  0.21449397276E+04  0.38282055610E+04  0.31708660303E+04 0.  0.
        5    1    3    3  502    0 -0.38459010031E+03  0.15372558765E+04  0.10119769606E+04  0.18802086676E+04  0.46999998093E+01 0. -1.
       -5    1    3    3    0  502  0.38459010031E+03 -0.15372558765E+04  0.11329627670E+04  0.19479968933E+04  0.46999998093E+01 0.  1.
</event>
<event>
 5   0  0.1885307E-06  0.3249375E+04  0.7818609E-02  0.8175898E-01
       -1   -1    0    0    0  501  0.00000000000E+00  0.00000000000E+00  0.12407312254E+04  0.12407312254E+04  0.50400001928E-02 0.  1.
        1   -1    0    0  501    0  0.00000000000E+00  0.00000000000E+00 -0.21274631747E+04  0.21274631747E+04  0.50400001928E-02 0. -1.
    10030    2    1    2    0    0  0.00000000000E+00  0.00000000000E+00 -0.88673194934E+03  0.33681944002E+04  0.32493753196E+04 0.  0.
        3    1    3    3  502    0 -0.10130089512E+04 -0.11985841307E+04 -0.87924066168E+03  0.17988482996E+04  0.10100000352E+00 0. -1.
       -3    1    3    3    0  502  0.10130089512E+04  0.11985841307E+04 -0.74912876533E+01  0.15693461005E+04  0.10100000352E+00 0.  1.
</event>
<event>
 5   0  0.1853742E-06  0.3113324E+04  0.7818609E-02  0.8212091E-01
       -1   -1    0    0    0  501  0.00000000000E+00  0.00000000000E+00  0.11421962235E+04  0.11421962235E+04  0.50400001928E-02 0. -1.
        1   -1    0    0  501    0  0.00000000000E+00  0.00000000000E+00 -0.21215234366E+04  0.21215234366E+04  0.50400001928E-02 0.  1.
    10030    2    1    2    0    0  0.00000000000E+00  0.00000000000E+00 -0.97932721309E+03  0.32637196601E+04  0.31133236628E+04 0.  0.
        5    1    3    3  502    0 -0.76417800124E+03  0.73273723229E+03 -0.16859755683E+04  0.19908308758E+04  0.46999998093E+01 0.  1.
       -5    1    3    3    0  502  0.76417800124E+03 -0.73273723229E+03  0.70664835522E+03  0.12728887843E+04  0.46999998093E+01 0. -1.
</event>
<event>
 5   0  0.5114870E-06  0.3112373E+04  0.7818609E-02  0.8212350E-01
       -2   -1    0    0    0  501  0.00000000000E+00  0.00000000000E+00  0.11274242995E+04  0.11274242995E+04  0.25500000920E-02 0.  1.
        2   -1    0    0  501    0  0.00000000000E+00  0.00000000000E+00 -0.21480085614E+04  0.21480085614E+04  0.25500000920E-02 0. -1.
    10030    2    1    2    0    0  0.00000000000E+00  0.00000000000E+00 -0.10205842619E+04  0.32754328609E+04  0.31123734016E+04 0.  0.
        2    1    3    3  502    0  0.33731099734E+03  0.52342012314E+03 -0.20111834563E+04  0.21053755554E+04  0.25500000920E-02 0. -1.
       -2    1    3    3    0  502 -0.33731099734E+03 -0.52342012314E+03  0.99059919445E+03  0.11700573056E+04  0.25500000920E-02 0.  1.
</event>
<event>
 5   0  0.4900679E-06  0.2585786E+04  0.7818609E-02  0.8373045E-01
       -2   -1    0    0    0  501  0.00000000000E+00  0.00000000000E+00  0.11177810866E+04  0.11177810866E+04  0.25500000920E-02 0. -1.
        2   -1    0    0  501    0  0.00000000000E+00  0.00000000000E+00 -0.14954384516E+04  0.14954384516E+04  0.25500000920E-02 0.  1.
    10030    2    1    2    0    0  0.00000000000E+00  0.00000000000E+00 -0.37765736505E+03  0.26132195382E+04  0.25857863928E+04 0.  0.
        4    1    3    3  502    0  0.43956496448E+03  0.22422908608E+03  0.10188705322E+04  0.11320754460E+04  0.12699999809E+01 0. -1.
       -4    1    3    3    0  502 -0.43956496448E+03 -0.22422908608E+03 -0.13965278973E+04  0.14811440922E+04  0.12699999809E+01 0.  1.
</event>
<event>
 5   0  0.1885307E-06  0.3060624E+04  0.7818609E-02  0.8226628E-01
        1   -1    0    0  501    0  0.00000000000E+00  0.00000000000E+00  0.13518478808E+04  0.13518478808E+04  0.50400001928E-02 0. -1.
       -1   -1    0    0    0  501  0.00000000000E+00  0.00000000000E+00 -0.17323354959E+04  0.17323354959E+04  0.50400001928E-02 0.  1.
    10030    2    1    2    0    0  0.00000000000E+00  0.00000000000E+00 -0.38048761503E+03  0.30841833767E+04  0.30606235110E+04 0.  0.
        3    1    3    3  502    0 -0.95789780293E+03  0.38910799767E+03 -0.13271487485E+04  0.16823486694E+04  0.10100000352E+00 0.  1.
       -3    1    3    3    0  502  0.95789780293E+03 -0.38910799767E+03  0.94666113346E+03  0.14018347073E+04  0.10100000352E+00 0. -1.
</event>
<event>
 5   0  0.5114870E-06  0.2953813E+04  0.7818609E-02  0.8257044E-01
       -2   -1    0    0    0  501  0.00000000000E+00  0.00000000000E+00  0.11750351002E+04  0.11750351002E+04  0.25500000920E-02 0.  1.
        2   -1    0    0  501    0  0.00000000000E+00  0.00000000000E+00 -0.18563304712E+04  0.18563304712E+04  0.25500000920E-02 0. -1.
    10030    2    1    2    0    0  0.00000000000E+00  0.00000000000E+00 -0.68129537099E+03  0.30313655714E+04  0.29538134411E+04 0.  0.
        2    1    3    3  502    0  0.15193540484E+03 -0.14404312853E+04 -0.63689035973E+03  0.15822629318E+04  0.25500000920E-02 0. -1.
       -2    1    3    3    0  502 -0.15193540484E+03  0.14404312853E+04 -0.44405011256E+02  0.14491026396E+04  0.25500000920E-02 0.  1.
</event>
<event>
 5   0  0.4900679E-06  0.3062520E+04  0.7818609E-02  0.8226100E-01
        2   -1    0    0  501    0  0.00000000000E+00  0.00000000000E+00  0.14111772316E+04  0.14111772316E+04  0.25500000920E-02 0.  1.
       -2   -1    0    0    0  501  0.00000000000E+00  0.00000000000E+00 -0.16615613011E+04  0.16615613011E+04  0.25500000920E-02 0. -1.
    10030    2    1    2    0    0  0.00000000000E+00  0.00000000000E+00 -0.25038406951E+03  0.30727385327E+04  0.30625201890E+04 0.  0.
        4    1    3    3  502    0  0.43694892445E+03  0.15206177234E+03 -0.15897571579E+04  0.16557102945E+04  0.12699999809E+01 0. -1.
       -4    1    3    3    0  502 -0.43694892445E+03 -0.15206177234E+03  0.13393730884E+04  0.14170282382E+04  0.12699999809E+01 0.  1.
</event>
<event>
 5   0  0.5001658E-06  0.3092428E+04  0.7818609E-02  0.8217819E-01
        2   -1    0    0  501    0  0.00000000000E+00  0.00000000000E+00  0.11265553201E+04  0.11265553201E+04  0.25500000920E-02 0. -1.
       -2   -1    0    0    0  501  0.00000000000E+00  0.00000000000E+00 -0.21222014103E+04  0.21222014103E+04  0.25500000920E-02 0.  1.
    10030    2    1    2    0    0  0.00000000000E+00  0.00000000000E+00 -0.99564609025E+03  0.32487567304E+04  0.30924277124E+04 0.  0.
        3    1    3    3  502    0 -0.11420761639E+03 -0.15271328968E+04 -0.27348890796E+03  0.15556267088E+04  0.10100000352E+00 0. -1.
       -3    1    3    3    0  502  0.11420761639E+03  0.15271328968E+04 -0.72215718229E+03  0.16931300216E+04  0.10100000352E+00 0.  1.
</event>
<event>
 5   0  0.1853742E-06  0.3068867E+04  0.7818609E-02  0.8224334E-01
        1   -1    0    0  501    0  0.00000000000E+00  0.00000000000E+00  0.18562410901E+04  0.18562410901E+04  0.50400001928E-02 0. -1.
       -1   -1    0    0    0  501  0.00000000000E+00  0.00000000000E+00 -0.12684163080E+04  0.12684163080E+04  0.50400001928E-02 0.  1.
    10030    2    1    2    0    0  0.00000000000E+00  0.00000000000E+00  0.58782478214E+03  0.31246573981E+04  0.30688671983E+04 0.  0.
        5    1    3    3  502    0  0.43230734238E+03  0.66234679001E+03 -0.10448566630E+04  0.13104733667E+04  0.46999998093E+01 0.  1.
       -5    1    3    3    0  502 -0.43230734238E+03 -0.66234679001E+03  0.16326814451E+04  0.18141840314E+04  0.46999998093E+01 0. -1.
</event>
<event>
 5   0  0.5114870E-06  0.2636288E+04  0.7818609E-02  0.8355979E-01
       -2   -1    0    0    0  501  0.00000000000E+00  0.00000000000E+00  0.94943460556E+03  0.94943460556E+03  0.25500000920E-02 0. -1.
        2   -1    0    0  501    0  0.00000000000E+00  0.00000000000E+00 -0.18300398039E+04  0.18300398039E+04  0.25500000920E-02 0.  1.
    10030    2    1    2    0    0  0.00000000000E+00  0.00000000000E+00 -0.88060519837E+03  0.27794744095E+04  0.26362876318E+04 0.  0.
        2    1    3    3  502    0 -0.10098481189E+04 -0.73472885665E+03 -0.88497236611E+03  0.15306194187E+04  0.25500000920E-02 0.  1.
       -2    1    3    3    0  502  0.10098481189E+04  0.73472885665E+03  0.43671677485E+01  0.12488549908E+04  0.25500000920E-02 0. -1.
</event>
<event>
 5   0  0.1843709E-06  0.3213638E+04  0.7818609E-02  0.8185225E-01
       -1   -1    0    0    0  501  0.00000000000E+00  0.00000000000E+00  0.10726891358E+04  0.10726891358E+04  0.50400001928E-02 0. -1.
        1   -1    0    0  501    0  0.00000000000E+00  0.00000000000E+00 -0.24069110765E+04  0.24069110765E+04  0.50400001928E-02 0.  1.
    10030    2    1    2    0    0  0.00000000000E+00  0.00000000000E+00 -0.13342219407E+04  0.34796002123E+04  0.32136380397E+04 0.  0.
        4    1    3    3  502    0 -0.14109937265E+04  0.72035170326E+03 -0.95775880602E+03  0.18512464493E+04  0.12699999809E+01 0. -1.
       -4    1    3    3    0  502  0.14109937265E+04 -0.72035170326E+03 -0.37646313468E+03  0.16283537630E+04  0.12699999809E+01 0.  1.
</event>
<event>
 5   0  0.5114870E-06  0.3078182E+04  0.7818609E-02  0.8221751E-01
       -2   -1    0    0    0  501  0.00000000000E+00  0.00000000000E+00  0.13302307660E+04  0.13302307660E+04  0.25500000920E-02 0. -1.
        2   -1    0    0  501    0  0.00000000000E+00  0.00000000000E+00 -0.17807443616E+04  0.17807443616E+04  0.25500000920E-02 0.  1.
    10030    2    1    2    0    0  0.00000000000E+00  0.00000000000E+00 -0.45051359560E+03  0.31109751276E+04  0.30781818895E+04 0.  0.
        2    1    3    3  502    0  0.14695257105E+04  0.45532931581E+03 -0.27011816119E+03  0.15619841294E+04  0.25500000920E-02 0. -1.
       -2    1    3    3    0  502 -0.14695257105E+04 -0.45532931581E+03 -0.18039543441E+03  0.15489909982E+04  0.25500000920E-02 0.  1.
</event>
<event>
 5   0  0.1853742E-06  0.3110804E+04  0.7818609E-02  0.8212779E-01
       -1   -1    0    0    0  501  0.00000000000E+00  0.00000000000E+00  0.10983851367E+04  0.10983851368E+04  0.50400001928E-02 0.  1.
        1   -1    0    0  501    0  0.00000000000E+00  0.00000000000E+00 -0.22025745639E+04  0.22025745639E+04  0.50400001928E-02 0. -1.
    10030    2    1    2    0    0  0.00000000000E+00  0.00000000000E+00 -0.11041894271E+04  0.33009597007E+04  0.31108038598E+04 0.  0.
        5    1    3    3  502    0 -0.80555539431E+03 -0.43405200103E+03 -0.18867267927E+04  0.20969217231E+04  0.46999998093E+01 0. -1.
       -5    1    3    3    0  502  0.80555539431E+03  0.43405200103E+03  0.78253736550E+03  0.12040379775E+04  0.46999998093E+01 0.  1.
</event>
<event>
 5   0  0.1853742E-06  0.3108096E+04  0.7818609E-02  0.8213519E-01
       -1   -1    0    0    0  501  0.00000000000E+00  0.00000000000E+00  0.15234263795E+04  0.15234263795E+04  0.50400001928E-02 0. -1.
        1   -1    0    0  501    0  0.00000000000E+00  0.00000000000E+00 -0.15852854032E+04  0.15852854032E+04  0.50400001928E-02 0.  1.
    10030    2    1    2    0    0  0.00000000000E+00  0.00000000000E+00 -0.61859023694E+02  0.31087117827E+04  0.31080962677E+04 0.  0.
        5    1    3    3  502    0 -0.92527365874E+03 -0.50327198250E+01 -0.12797306702E+04  0.15792052907E+04  0.46999998093E+01 0.  1.
       -5    1    3    3    0  502  0.92527365874E+03  0.50327198250E+01  0.12178716465E+04  0.15295064920E+04  0.46999998093E+01 0. -1.
</event>
<event>
 5   0  0.1885307E-06  0.3081331E+04  0.7818609E-02  0.8220880E-01
       -1   -1    0    0    0  501  0.00000000000E+00  0.00000000000E+00  0.19701698011E+04  0.19701698011E+04  0.50400001928E-02 0.  1.
        1   -1    0    0  501    0  0.00000000000E+00  0.00000000000E+00 -0.12047945640E+04  0.12047945640E+04  0.50400001928E-02 0. -1.
    10030    2    1    2    0    0  0.00000000000E+00  0.00000000000E+00  0.76537523711E+03  0.31749643651E+04  0.30813307947E+04 0.  0.
        3    1    3    3  502    0  0.14480628644E+04 -0.33438530938E+03 -0.35794625553E+02  0.14866004371E+04  0.10100000352E+00 0. -1.
       -3    1    3    3    0  502 -0.14480628644E+04  0.33438530938E+03  0.80116986266E+03  0.16883639280E+04  0.10100000352E+00 0.  1.
</event>
<event>
 5   0  0.1836401E-06  0.3137932E+04  0.7818609E-02  0.8205404E-01
        1   -1    0    0  501    0  0.00000000000E+00  0.00000000000E+00  0.17488422426E+04  0.17488422426E+04  0.50400001928E-02 0.  1.
       -1   -1    0    0    0  501  0.00000000000E+00  0.00000000000E+00 -0.14075907362E+04  0.14075907362E+04  0.50400001928E-02 0. -1.
    10030    2    1    2    0    0  0.00000000000E+00  0.00000000000E+00  0.34125150642E+03  0.31564329789E+04  0.31379318921E+04 0.  0.
        2    1    3    3  502    0  0.56954719210E+03  0.13497610065E+04  0.73555554677E+03  0.16392927563E+04  0.25500000920E-02 0.  1.
       -2    1    3    3    0  502 -0.56954719210E+03 -0.13497610065E+04 -0.39430404035E+03  0.15171402225E+04  0.25500000920E-02 0. -1.
</event>
<event>
 5   0  0.4927533E-06  0.3378620E+04  0.7818609E-02  0.8143174E-01
        2   -1    0    0  501    0  0.00000000000E+00  0.00000000000E+00  0.19822683284E+04  0.19822683284E+04  0.25500000920E-02 0.  1.
       -2   -1    0    0    0  501  0.00000000000E+00  0.00000000000E+00 -0.14396479257E+04  0.14396479257E+04  0.25500000920E-02 0. -1.
    10030    2    1    2    0    0  0.00000000000E+00  0.00000000000E+00  0.54262040267E+03  0.34219162541E+04  0.33786201250E+04 0.  0.
        5    1    3    3  502    0  0.13392463532E+04 -0.75866152155E+03 -0.43374148308E+03  0.15991566099E+04  0.46999998093E+01 0. -1.
       -5    1    3    3    0  502 -0.13392463532E+04  0.75866152155E+03  0.97636188575E+03  0.18227596443E+04  0.46999998093E+01 0.  1.
</event>
<event>
 5   0  0.1843709E-06  0.3104124E+04  0.7818609E-02  0.8214607E-01
        1   -1    0    0  501    0  0.00000000000E+00  0.00000000000E+00  0.24377579096E+04  0.24377579096E+04  0.50400001928E-02 0. -1.
       -1   -1    0    0    0  501  0.00000000000E+00  0.00000000000E+00 -0.98816051071E+03  0.98816051073E+03  0.50400001928E-02 0.  1.
    10030    2    1    2    0    0  0.00000000000E+00  0.00000000000E+00  0.14495973989E+04  0.34259184204E+04  0.31041237740E+04 0.  0.
        4    1    3    3  502    0  0.14794614682E+04 -0.17077481025E+03  0.12070445455E+04  0.19170102815E+04  0.12699999809E+01 0. -1.
       -4    1    3    3    0  502 -0.14794614682E+04  0.17077481025E+03  0.24255285341E+03  0.15089081388E+04  0.12699999809E+01 0.  1.
</event>
<event>
 5   0  0.1853742E-06  0.3075858E+04  0.7818609E-02  0.8222395E-01
       -1   -1    0    0    0  501  0.00000000000E+00  0.00000000000E+00  0.15534615416E+04  0.15534615416E+04  0.50400001928E-02 0. -1.
        1   -1    0    0  501    0  0.00000000000E+00  0.00000000000E+00 -0.15225513665E+04  0.15225513665E+04  0.50400001928E-02 0.  1.
    10030    2    1    2    0    0  0.00000000000E+00  0.00000000000E+00  0.30910175053E+02  0.30760129081E+04  0.30758575994E+04 0.  0.
        5    1    3    3  502    0 -0.82120076477E+03  0.62043383066E+03  0.11582700107E+04  0.15494903491E+04  0.46999998093E+01 0. -1.
       -5    1    3    3    0  502  0.82120076477E+03 -0.62043383066E+03 -0.11273598356E+04  0.15265225590E+04  0.46999998093E+01 0.  1.
</event>
<event>
 5   0  0.5114870E-06  0.3100129E+04  0.7818609E-02  0.8215703E-01
       -2   -1    0    0    0  501  0.00000000000E+00  0.00000000000E+00  0.95405342704E+03  0.95405342705E+03  0.25500000920E-02 0.  1.
        2   -1    0    0  501    0  0.00000000000E+00  0.00000000000E+00 -0.25184123010E+04  0.25184123010E+04  0.25500000920E-02 0. -1.
    10030    2    1    2    0    0  0.00000000000E+00  0.00000000000E+00 -0.15643588740E+04  0.34724657281E+04  0.31001289564E+04 0.  0.
        2    1    3    3  502    0  0.11759811170E+04  0.84682900245E+03 -0.13983880818E+04  0.20138371767E+04  0.25500000920E-02 0.  1.
       -2    1    3    3    0  502 -0.11759811170E+04 -0.84682900245E+03 -0.16597079218E+03  0.14586285514E+04  0.25500000920E-02 0. -1.
</event>
<event>
 5   0  0.1836401E-06  0.2253112E+04  0.7818609E-02  0.8496641E-01
       -1   -1    0    0    0  501  0.00000000000E+00  0.00000000000E+00  0.96404096503E+03  0.96404096504E+03  0.50400001928E-02 0. -1.
        1   -1    0    0  501    0  0.00000000000E+00  0.00000000000E+00 -0.13164676721E+04  0.13164676721E+04  0.50400001928E-02 0.  1.
    10030    2    1    2    0    0  0.00000000000E+00  0.00000000000E+00 -0.35242670706E+03  0.22805086371E+04  0.22531123053E+04 0.  0.
        2    1    3    3  502    0  0.77921562454E+03  0.43971709087E+03  0.51665436548E+03  0.10331794824E+04  0.25500000920E-02 0. -1.
       -2    1    3    3    0  502 -0.77921562454E+03 -0.43971709087E+03 -0.86908107254E+03  0.12473291547E+04  0.25500000920E-02 0.  1.
</event>
<event>
 5   0  0.4927533E-06  0.2757419E+04  0.7818609E-02  0.8316611E-01
       -2   -1    0    0    0  501  0.00000000000E+00  0.00000000000E+00  0.83259630772E+03  0.83259630772E+03  0.25500000920E-02 0. -1.
        2   -1    0    0  501    0  0.00000000000E+00  0.00000000000E+00 -0.22830265077E+04  0.22830265077E+04  0.25500000920E-02 0.  1.
    10030    2    1    2    0    0  0.00000000000E+00  0.00000000000E+00 -0.14504302000E+04  0.31156228155E+04  0.27574186775E+04 0.  0.
        5    1    3    3  502    0  0.14499778460E+03  0.64530014251E+03 -0.20920650048E+04  0.21941273222E+04  0.46999998093E+01 0.  1.
       -5    1    3    3    0  502 -0.14499778460E+03 -0.64530014251E+03  0.64163480480E+03  0.92149549331E+03  0.46999998093E+01 0. -1.
</event>
<event>
 5   0  0.1840431E-06  0.3080764E+04  0.7818609E-02  0.8221037E-01
        1   -1    0    0  501    0  0.00000000000E+00  0.00000000000E+00  0.21236952916E+04  0.21236952916E+04  0.50400001928E-02 0.  1.
       -1   -1    0    0    0  501  0.00000000000E+00  0.00000000000E+00 -0.11172870511E+04  0.11172870511E+04  0.50400001928E-02 0. -1.
    10030    2    1    2    0    0  0.00000000000E+00  0.00000000000E+00  0.10064082405E+04  0.32409823427E+04  0.30807643530E+04 0.  0.
        1    1    3    3  502    0 -0.32786024099E+03 -0.75007872005E+03  0.18759274721E+04  0.20467570214E+04  0.50400001928E-02 0.  1.
       -1    1    3    3    0  502  0.32786024099E+03  0.75007872005E+03 -0.86951923159E+03  0.11942253213E+04  0.50400001928E-02 0. -1.
</event>
<event>
 5   0  0.5001658E-06  0.2898710E+04  0.7818609E-02  0.8273261E-01
        2   -1    0    0  501    0  0.00000000000E+00  0.00000000000E+00  0.16232654294E+04  0.16232654294E+04  0.25500000920E-02 0. -1.
       -2   -1    0    0    0  501  0.00000000000E+00  0.00000000000E+00 -0.12940763984E+04  0.12940763984E+04  0.25500000920E-02 0.  1.
    10030    2    1    2    0    0  0.00000000000E+00  0.00000000000E+00  0.32918903092E+03  0.29173418278E+04  0.28987096995E+04 0.  0.
        3    1    3    3  502    0  0.60467222578E+02 -0.14475963352E+04  0.20275970311E+03  0.14629774237E+04  0.10100000352E+00 0. -1.
       -3    1    3    3    0  502 -0.60467222578E+02  0.14475963352E+04  0.12642932781E+03  0.14543644041E+04  0.10100000352E+00 0.  1.
</event>
<event>
 5   0  0.4927533E-06  0.3248970E+04  0.7818609E-02  0.8176003E-01
       -2   -1    0    0    0  501  0.00000000000E+00  0.00000000000E+00  0.97780125836E+03  0.97780125836E+03  0.25500000920E-02 0.  1.
        2   -1    0    0  501    0  0.00000000000E+00  0.00000000000E+00 -0.26988628131E+04  0.26988628131E+04  0.25500000920E-02 0. -1.
    10030    2    1    2    0    0  0.00000000000E+00  0.00000000000E+00 -0.17210615548E+04  0.36766640715E+04  0.32489699628E+04 0.  0.
        5    1    3    3  502    0 -0.36610237924E+03 -0.67170733094E+03  0.76119555275E+03  0.10791952789E+04  0.46999998093E+01 0.  1.
       -5    1    3    3    0  502  0.36610237924E+03  0.67170733094E+03 -0.24822571075E+04  0.25974687926E+04  0.46999998093E+01 0. -1.
</event>
<event>
 5   0  0.1840431E-06  0.2736029E+04  0.7818609E-02  0.8323409E-01
       -1   -1    0    0    0  501  0.00000000000E+00  0.00000000000E+00  0.13073369325E+04  0.13073369325E+04  0.50400001928E-02 0.  1.
        1   -1    0    0  501    0  0.00000000000E+00  0.00000000000E+00 -0.14315078679E+04  0.14315078679E+04  0.50400001928E-02 0. -1.
    10030    2    1    2    0    0  0.00000000000E+00  0.00000000000E+00 -0.12417093546E+03  0.27388448004E+04  0.27360285853E+04 0.  0.
        1    1    3    3  502    0  0.14459066944E+03  0.78507894504E+03  0.10500070462E+04  0.13190034908E+04  0.50400001928E-02 0.  1.
       -1    1    3    3    0  502 -0.14459066944E+03 -0.78507894504E+03 -0.11741779817E+04  0.14198413096E+04  0.50400001928E-02 0. -1.
</event>
<event>
 5   0  0.5114870E-06  0.3100038E+04  0.7818609E-02  0.8215727E-01
       -2   -1    0    0    0  501  0.00000000000E+00  0.00000000000E+00  0.10104490850E+04  0.10104490850E+04  0.25500000920E-02 0.  1.
        2   -1    0    0  501    0  0.00000000000E+00  0.00000000000E+00 -0.23777141046E+04  0.23777141046E+04  0.25500000920E-02 0. -1.
    10030    2    1    2    0    0  0.00000000000E+00  0.00000000000E+00 -0.13672650196E+04  0.33881631896E+04  0.31000380910E+04 0.  0.
        2    1    3    3  502    0  0.49791621128E+03  0.72722621146E+03 -0.20772007758E+04  0.22564444551E+04  0.25500000920E-02 0. -1.
       -2    1    3    3    0  502 -0.49791621128E+03 -0.72722621146E+03  0.70993575614E+03  0.11317187345E+04  0.25500000920E-02 0.  1.
</event>
<event>
 5   0  0.4927533E-06  0.3082748E+04  0.7818609E-02  0.8220489E-01
        2   -1    0    0  501    0  0.00000000000E+00  0.00000000000E+00  0.90976843458E+03  0.90976843458E+03  0.25500000920E-02 0. -1.
       -2   -1    0    0    0  501  0.00000000000E+00  0.00000000000E+00 -0.26114706192E+04  0.26114706192E+04  0.25500000920E-02 0.  1.
    10030    2    1    2    0    0  0.00000000000E+00  0.00000000000E+00 -0.17017021846E+04  0.35212390538E+04  0.30827478244E+04 0.  0.
        5    1    3    3  502    0 -0.11856962175E+04  0.19938903943E+03 -0.19524943840E+04  0.22930084864E+04  0.46999998093E+01 0.  1.
       -5    1    3    3    0  502  0.11856962175E+04 -0.19938903943E+03  0.25079219940E+03  0.12282305673E+04  0.46999998093E+01 0. -1.
</event>
<event>
 5   0  0.1836401E-06  0.3088161E+04  0.7818609E-02  0.8218994E-01
        1   -1    0    0  501    0  0.00000000000E+00  0.00000000000E+00  0.19264088613E+04  0.19264088613E+04  0.50400001928E-02 0. -1.
       -1   -1    0    0    0  501  0.00000000000E+00  0.00000000000E+00 -0.12376319921E+04  0.12376319921E+04  0.50400001928E-02 0.  1.
    10030    2    1    2    0    0  0.00000000000E+00  0.00000000000E+00  0.68877686926E+03  0.31640408534E+04  0.30881614185E+04 0.  0.
        2    1    3    3  502    0  0.15713694186E+03  0.11522373951E+04 -0.69636710939E+03  0.13554593997E+04  0.25500000920E-02 0.  1.
       -2    1    3    3    0  502 -0.15713694186E+03 -0.11522373951E+04  0.13851439786E+04  0.18085814537E+04  0.25500000920E-02 0. -1.
</event>
<event>
 5   0  0.4927533E-06  0.3106082E+04  0.7818609E-02  0.8214071E-01
       -2   -1    0    0    0  501  0.00000000000E+00  0.00000000000E+00  0.16909563843E+04  0.16909563843E+04  0.25500000920E-02 0. -1.
        2   -1    0    0  501    0  0.00000000000E+00  0.00000000000E+00 -0.14263739790E+04  0.14263739791E+04  0.25500000920E-02 0.  1.
    10030    2    1    2    0    0  0.00000000000E+00  0.00000000000E+00  0.26458240520E+03  0.31173303633E+04  0.31060818960E+04 0.  0.
        5    1    3    3  502    0 -0.60542674272E+03  0.17265054995E+03 -0.12925558906E+04  0.14377317460E+04  0.46999998093E+01 0.  1.
       -5    1    3    3    0  502  0.60542674272E+03 -0.17265054995E+03  0.15571382958E+04  0.16795986173E+04  0.46999998093E+01 0. -1.
</event>
<event>
 5   0  0.1843709E-06  0.3142555E+04  0.7818609E-02  0.8204155E-01
       -1   -1    0    0    0  501  0.00000000000E+00  0.00000000000E+00  0.12143998030E+04  0.12143998030E+04  0.50400001928E-02 0. -1.
        1   -1    0    0  501    0  0.00000000000E+00  0.00000000000E+00 -0.20330319166E+04  0.20330319166E+04  0.50400001928E-02 0.  1.
    10030    2    1    2    0    0  0.00000000000E+00  0.00000000000E+00 -0.81863211359E+03  0.32474317196E+04  0.31425553672E+04 0.  0.
        4    1    3    3  502    0  0.18473634724E+03 -0.33783133399E+03 -0.19835248223E+04  0.20205518706E+04  0.12699999809E+01 0.  1.
       -4    1    3    3    0  502 -0.18473634724E+03  0.33783133399E+03  0.11648927087E+04  0.12268798490E+04  0.12699999809E+01 0. -1.
</event>
<event>
 5   0  0.1853742E-06  0.2645798E+04  0.7818609E-02  0.8352809E-01
        1   -1    0    0  501    0  0.00000000000E+00  0.00000000000E+00  0.21566886183E+04  0.21566886183E+04  0.50400001928E-02 0.  1.
       -1   -1    0    0    0  501  0.00000000000E+00  0.00000000000E+00 -0.81145753135E+03  0.81145753137E+03  0.50400001928E-02 0. -1.
    10030    2    1    2    0    0  0.00000000000E+00  0.00000000000E+00  0.13452310870E+04  0.29681461497E+04  0.26457975903E+04 0.  0.
        5    1    3    3  502    0  0.32530472869E+03  0.17898860632E+01  0.21111082768E+04  0.21360305748E+04  0.46999998093E+01 0.  1.
       -5    1    3    3    0  502 -0.32530472869E+03 -0.17898860632E+01 -0.76587718978E+03  0.83211557492E+03  0.46999998093E+01 0. -1.
</event>
<event>
 5   0  0.1853742E-06  0.3107477E+04  0.7818609E-02  0.8213689E-01
        1   -1    0    0  501    0  0.00000000000E+00  0.00000000000E+00  0.11947178893E+04  0.11947178893E+04  0.50400001928E-02 0.  1.
       -1   -1    0    0    0  501  0.00000000000E+00  0.00000000000E+00 -0.20206473700E+04  0.20206473700E+04  0.50400001928E-02 0. -1.
    10030    2    1    2    0    0  0.00000000000E+00  0.00000000000E+00 -0.82592948070E+03  0.32153652593E+04  0.31074771509E+04 0.  0.
        5    1    3    3  502    0 -0.76992474100E+03 -0.49075598160E+03 -0.17137738401E+04  0.19418208993E+04  0.46999998093E+01 0. -1.
       -5    1    3    3    0  502  0.76992474100E+03  0.49075598160E+03  0.88784435935E+03  0.12735443599E+04  0.46999998093E+01 0.  1.
</event>
<event>
 5   0  0.5001658E-06  0.3051152E+04  0.7818609E-02  0.8229273E-01
       -2   -1    0    0    0  501  0.00000000000E+00  0.00000000000E+00  0.18304486352E+04  0.18304486352E+04  0.25500000920E-02 0. -1.
        2   -1    0    0  501    0  0.00000000000E+00  0.00000000000E+00 -0.12714820995E+04  0.12714820995E+04  0.25500000920E-02 0.  1.
    10030    2    1    2    0    0  0.00000000000E+00  0.00000000000E+00  0.55896653573E+03  0.31019307347E+04  0.30511523552E+04 0.  0.
        3    1    3    3  502    0  0.20536536562E+03 -0.11117915032E+04  0.13207987206E+04  0.17386099477E+04  0.10100000352E+00 0. -1.
       -3    1    3    3    0  502 -0.20536536562E+03  0.11117915032E+04 -0.76183218484E+03  0.13633207869E+04  0.10100000352E+00 0.  1.
</event>
<event>
 5   0  0.1853742E-06  0.3054173E+04  0.7818609E-02  0.8228428E-01
        1   -1    0    0  501    0  0.00000000000E+00  0.00000000000E+00  0.13886638895E+04  0.13886638895E+04  0.50400001928E-02 0. -1.
       -1   -1    0    0    0  501  0.00000000000E+00  0.00000000000E+00 -0.16793071449E+04  0.16793071449E+04  0.50400001928E-02 0.  1.
    10030    2    1    2    0    0  0.00000000000E+00  0.00000000000E+00 -0.29064325543E+03  0.30679710344E+04  0.30541730085E+04 0.  0.
        5    1    3    3  502    0 -0.11501266663E+04 -0.82564831068E+03 -0.72016969382E+03  0.15884435650E+04  0.46999998093E+01 0.  1.
       -5    1    3    3    0  502  0.11501266663E+04  0.82564831068E+03  0.42952643839E+03  0.14795274694E+04  0.46999998093E+01 0. -1.
</event>
<event>
 5   0  0.1853742E-06  0.3103069E+04  0.7818609E-02  0.8214896E-01
        1   -1    0    0  501    0  0.00000000000E+00  0.00000000000E+00  0.19542392688E+04  0.19542392688E+04  0.50400001928E-02 0. -1.
       -1   -1    0    0    0  501  0.00000000000E+00  0.00000000000E+00 -0.12318137767E+04  0.12318137767E+04  0.50400001928E-02 0.  1.
    10030    2    1    2    0    0  0.00000000000E+00  0.00000000000E+00  0.72242549214E+03  0.31860530455E+04  0.31030687097E+04 0.  0.
        5    1    3    3  502    0 -0.49895547626E+03 -0.21433704113E+03 -0.11310438395E+04  0.12546629792E+04  0.46999998093E+01 0.  1.
       -5    1    3    3    0  502  0.49895547626E+03  0.21433704113E+03  0.18534693317E+04  0.19313900662E+04  0.46999998093E+01 0. -1.
</event>
<event>
 5   0  0.5001658E-06  0.3112982E+04  0.7818609E-02  0.8212184E-01
        2   -1    0    0  501    0  0.00000000000E+00  0.00000000000E+00  0.18631516587E+04  0.18631516587E+04  0.25500000920E-02 0.  1.
       -2   -1    0    0    0  501  0.00000000000E+00  0.00000000000E+00 -0.13003043274E+04  0.13003043274E+04  0.25500000920E-02 0. -1.
    10030    2    1    2    0    0  0.00000000000E+00  0.00000000000E+00  0.56284733129E+03  0.31634559861E+04  0.31129819559E+04 0.  0.
        3    1    3    3  502    0  0.12736872985E+04 -0.23488220940E+03 -0.59583170531E+03  0.14256452637E+04  0.10100000352E+00 0. -1.
       -3    1    3    3    0  502 -0.12736872985E+04  0.23488220940E+03  0.11586790366E+04  0.17378107224E+04  0.10100000352E+00 0.  1.
</event>
<event>
 5   0  0.5328368E-06  0.3131866E+04  0.7818609E-02  0.8207046E-01
       -2   -1    0    0    0  501  0.00000000000E+00  0.00000000000E+00  0.12720017299E+04  0.12720017299E+04  0.25500000920E-02 0.  1.
        2   -1    0    0  501    0  0.00000000000E+00  0.00000000000E+00 -0.19277857016E+04  0.19277857016E+04  0.25500000920E-02 0. -1.
    10030    2    1    2    0    0  0.00000000000E+00  0.00000000000E+00 -0.65578397171E+03  0.31997874315E+04  0.31318663748E+04 0.  0.
        1    1    3    3  502    0 -0.73672401117E+03 -0.10516465953E+04 -0.12436701464E+04  0.17875788830E+04  0.50400001928E-02 0. -1.
       -1    1    3    3    0  502  0.73672401117E+03  0.10516465953E+04  0.58788617471E+03  0.14122085485E+04  0.50400001928E-02 0.  1.
</event>
<event>
 5   0  0.4900679E-06  0.3091264E+04  0.7818609E-02  0.8218140E-01
        2   -1    0    0  501    0  0.00000000000E+00  0.00000000000E+00  0.24533721922E+04  0.24533721922E+04  0.25500000920E-02 0.  1.
       -2   -1    0    0    0  501  0.00000000000E+00  0.00000000000E+00 -0.97375262480E+03  0.97375262480E+03  0.25500000920E-02 0. -1.
    10030    2    1    2    0    0  0.00000000000E+00  0.00000000000E+00  0.14796195674E+04  0.34271248170E+04  0.30912635681E+04 0.  0.
        4    1    3    3  502    0 -0.10996699146E+04 -0.87420860521E+03  0.14544035485E+04  0.20220795982E+04  0.12699999809E+01 0.  1.
       -4    1    3    3    0  502  0.10996699146E+04  0.87420860521E+03  0.25216018952E+02  0.14050452189E+04  0.12699999809E+01 0. -1.
</event>
<event>
 5   0  0.1836401E-06  0.3149375E+04  0.7818609E-02  0.8202316E-01
       -1   -1    0    0    0  501  0.00000000000E+00  0.00000000000E+00  0.14057290385E+04  0.14057290385E+04  0.50400001928E-02 0.  1.
        1   -1    0    0  501    0  0.00000000000E+00  0.00000000000E+00 -0.17639537022E+04  0.17639537023E+04  0.50400001928E-02 0. -1.
    10030    2    1    2    0    0  0.00000000000E+00  0.00000000000E+00 -0.35822466374E+03  0.31696827408E+04  0.31493751392E+04 0.  0.
        2    1    3    3  502    0 -0.67864569298E+03  0.77308911918E+03 -0.13790307563E+04  0.17204512750E+04  0.25500000920E-02 0. -1.
       -2    1    3    3    0  502  0.67864569298E+03 -0.77308911918E+03  0.10208060926E+04  0.14492314658E+04  0.25500000920E-02 0.  1.
</event>
<event>
 5   0  0.4927533E-06  0.3108195E+04  0.7818609E-02  0.8213493E-01
       -2   -1    0    0    0  501  0.00000000000E+00  0.00000000000E+00  0.13471049655E+04  0.13471049655E+04  0.25500000920E-02 0.  1.
        2   -1    0    0  501    0  0.00000000000E+00  0.00000000000E+00 -0.17928957295E+04  0.17928957295E+04  0.25500000920E-02 0. -1.
    10030    2    1    2    0    0  0.00000000000E+00  0.00000000000E+00 -0.44579076397E+03  0.31400006950E+04  0.31081948071E+04 0.  0.
        5    1    3    3  502    0  0.52843988079E+03  0.29707688655E+03  0.12227240077E+04  0.13647635228E+04  0.46999998093E+01 0.  1.
       -5    1    3    3    0  502 -0.52843988079E+03 -0.29707688655E+03 -0.16685147717E+04  0.17752371722E+04  0.46999998093E+01 0. -1.
</event>
<event>
 5   0  0.1843709E-06  0.3218020E+04  0.7818609E-02  0.8184074E-01
        1   -1    0    0  501    0  0.00000000000E+00  0.00000000000E+00  0.15998933735E+04  0.15998933735E+04  0.50400001928E-02 0.  1.
       -1   -1    0    0    0  501  0.00000000000E+00  0.00000000000E+00 -0.16181787939E+04  0.16181787939E+04  0.50400001928E-02 0. -1.
    10030    2    1    2    0    0  0.00000000000E+00  0.00000000000E+00 -0.18285420357E+02  0.32180721674E+04  0.32180202172E+04 0.  0.
        4    1    3    3  502    0  0.81832602237E+03  0.99071700556E+03 -0.97752513959E+03  0.16145385333E+04  0.12699999809E+01 0. -1.
       -4    1    3    3    0  502 -0.81832602237E+03 -0.99071700556E+03  0.95923971923E+03  0.16035336341E+04  0.12699999809E+01 0.  1.
</event>
<event>
 5   0  0.5328368E-06  0.3137877E+04  0.7818609E-02  0.8205419E-01
        2   -1    0    0  501    0  0.00000000000E+00  0.00000000000E+00  0.31150870213E+04  0.31150870213E+04  0.25500000920E-02 0. -1.
       -2   -1    0    0    0  501  0.00000000000E+00  0.00000000000E+00 -0.79020835195E+03  0.79020835195E+03  0.25500000920E-02 0.  1.
    10030    2    1    2    0    0  0.00000000000E+00  0.00000000000E+00  0.23248786693E+04  0.39052953732E+04  0.31378768499E+04 0.  0.
        1    1    3    3  502    0 -0.17041899241E+03  0.15538130839E+04  0.13302945814E+04  0.20525743363E+04  0.50400001928E-02 0. -1.
       -1    1    3    3    0  502  0.17041899241E+03 -0.15538130839E+04  0.99458408788E+03  0.18527210369E+04  0.50400001928E-02 0.  1.
</event>
<event>
 5   0  0.4927533E-06  0.2544930E+04  0.7818609E-02  0.8387151E-01
       -2   -1    0    0    0  501  0.00000000000E+00  0.00000000000E+00  0.12192243806E+04  0.12192243806E+04  0.25500000920E-02 0. -1.
        2   -1    0    0  501    0  0.00000000000E+00  0.00000000000E+00 -0.13280307636E+04  0.13280307636E+04  0.25500000920E-02 0.  1.
    10030    2    1    2    0    0  0.00000000000E+00  0.00000000000E+00 -0.10880638301E+03  0.25472551443E+04  0.25449302429E+04 0.  0.
        5    1    3    3  502    0  0.10380276497E+04  0.53178393375E+03 -0.56364085507E+03  0.12953797348E+04  0.46999998093E+01 0.  1.
       -5    1    3    3    0  502 -0.10380276497E+04 -0.53178393375E+03  0.45483447206E+03  0.12518754095E+04  0.46999998093E+01 0. -1.
</event>
<event>
 5   0  0.5114870E-06  0.3114040E+04  0.7818609E-02  0.8211895E-01
        2   -1    0    0  501    0  0.00000000000E+00  0.00000000000E+00  0.17218922366E+04  0.17218922366E+04  0.25500000920E-02 0.  1.
       -2   -1    0    0    0  501  0.00000000000E+00  0.00000000000E+00 -0.14079343319E+04  0.14079343319E+04  0.25500000920E-02 0. -1.
    10030    2    1    2    0    0  0.00000000000E+00  0.00000000000E+00  0.31395790463E+03  0.31298265685E+04  0.31140399456E+04 0.  0.
        2    1    3    3  502    0 -0.14611412860E+04 -0.36823655671E+03 -0.23715591718E+03  0.15253769857E+04  0.25500000920E-02 0. -1.
       -2    1    3    3    0  502  0.14611412860E+04  0.36823655671E+03  0.55111382182E+03  0.16044495829E+04  0.25500000920E-02 0.  1.
</event>
<event>
 5   0  0.1840431E-06  0.2263468E+04  0.7818609E-02  0.8492466E-01
        1   -1    0    0  501    0  0.00000000000E+00  0.00000000000E+00  0.88873589310E+03  0.88873589311E+03  0.50400001928E-02 0.  1.
       -1   -1    0    0    0  501  0.00000000000E+00  0.00000000000E+00 -0.14411729418E+04  0.14411729418E+04  0.50400001928E-02 0. -1.
    10030    2    1    2    0    0  0.00000000000E+00  0.00000000000E+00 -0.55243704870E+03  0.23299088349E+04  0.22634682428E+04 0.  0.
        1    1    3    3  502    0  0.85928930774E+03 -0.64852533289E+03  0.83111203850E+02  0.10797549231E+04  0.50400001928E-02 0.  1.
       -1    1    3    3    0  502 -0.85928930774E+03  0.64852533289E+03 -0.63554825255E+03  0.12501539118E+04  0.50400001928E-02 0. -1.
</event>
<event>
 5   0  0.1843709E-06  0.2715137E+04  0.7818609E-02  0.8330110E-01
        1   -1    0    0  501    0  0.00000000000E+00  0.00000000000E+00  0.14432239601E+04  0.14432239601E+04  0.50400001928E-02 0. -1.
       -1   -1    0    0    0  501  0.00000000000E+00  0.00000000000E+00 -0.12769966775E+04  0.12769966775E+04  0.50400001928E-02 0.  1.
    10030    2    1    2    0    0  0.00000000000E+00  0.00000000000E+00  0.16622728257E+03  0.27202206377E+04  0.27151369778E+04 0.  0.
        4    1    3    3  502    0  0.12326325463E+04 -0.23785763058E+03  0.60083192914E+03  0.13917470555E+04  0.12699999809E+01 0. -1.
       -4    1    3    3    0  502 -0.12326325463E+04  0.23785763058E+03 -0.43460464657E+03  0.13284735821E+04  0.12699999809E+01 0.  1.
</event>
<event>
 5   0  0.5114870E-06  0.2912667E+04  0.7818609E-02  0.8269118E-01
        2   -1    0    0  501    0  0.00000000000E+00  0.00000000000E+00  0.13908285801E+04  0.13908285801E+04  0.25500000920E-02 0. -1.
       -2   -1    0    0    0  501  0.00000000000E+00  0.00000000000E+00 -0.15249240692E+04  0.15249240692E+04  0.25500000920E-02 0.  1.
    10030    2    1    2    0    0  0.00000000000E+00  0.00000000000E+00 -0.13409548908E+03  0.29157526494E+04  0.29126674908E+04 0.  0.
        2    1    3    3  502    0  0.42959662065E+03  0.18446119269E+03  0.13136625427E+04  0.13943774469E+04  0.25500000920E-02 0. -1.
       -2    1    3    3    0  502 -0.42959662065E+03 -0.18446119269E+03 -0.14477580318E+04  0.15213752025E+04  0.25500000920E-02 0.  1.
</event>
<event>
 5   0  0.4927533E-06  0.2985870E+04  0.7818609E-02  0.8247777E-01
       -2   -1    0    0    0  501  0.00000000000E+00  0.00000000000E+00  0.10352483525E+04  0.10352483525E+04  0.25500000920E-02 0. -1.
        2   -1    0    0  501    0  0.00000000000E+00  0.00000000000E+00 -0.21529662535E+04  0.21529662535E+04  0.25500000920E-02 0.  1.
    10030    2    1    2    0    0  0.00000000000E+00  0.00000000000E+00 -0.11177179010E+04  0.31882146060E+04  0.29858699013E+04 0.  0.
        5    1    3    3  502    0 -0.37758561867E+02 -0.43596234516E+03 -0.20829426818E+04  0.21284175298E+04  0.46999998093E+01 0.  1.
       -5    1    3    3    0  502  0.37758561867E+02  0.43596234516E+03  0.96522478077E+03  0.10597970762E+04  0.46999998093E+01 0. -1.
</event>
<event>
 5   0  0.1840431E-06  0.3120063E+04  0.7818609E-02  0.8210253E-01
        1   -1    0    0  501    0  0.00000000000E+00  0.00000000000E+00  0.22142741107E+04  0.22142741107E+04  0.50400001928E-02 0. -1.
       -1   -1    0    0    0  501  0.00000000000E+00  0.00000000000E+00 -0.10990950400E+04  0.10990950401E+04  0.50400001928E-02 0.  1.
    10030    2    1    2    0    0  0.00000000000E+00  0.00000000000E+00  0.11151790706E+04  0.33133691507E+04  0.31200626227E+04 0.  0.
        1    1    3    3  502    0 -0.44970030492E+03 -0.86810752150E+02 -0.10260895800E+04  0.11236664528E+04  0.50400001928E-02 0.  1.
       -1    1    3    3    0  502  0.44970030492E+03  0.86810752150E+02  0.21412686507E+04  0.21897026979E+04  0.50400001928E-02 0. -1.
</event>
<event>
 5   0  0.1836401E-06  0.3136868E+04  0.7818609E-02  0.8205692E-01
        1   -1    0    0  501    0  0.00000000000E+00  0.00000000000E+00  0.26105547920E+04  0.26105547920E+04  0.50400001928E-02 0.  1.
       -1   -1    0    0    0  501  0.00000000000E+00  0.00000000000E+00 -0.94232300889E+03  0.94232300890E+03  0.50400001928E-02 0. -1.
    10030    2    1    2    0    0  0.00000000000E+00  0.00000000000E+00  0.16682317831E+04  0.35528778009E+04  0.31368684043E+04 0.  0.
        2    1    3    3  502    0  0.10771850171E+03  0.62966802821E+03  0.24565316098E+04  0.25382341600E+04  0.25500000920E-02 0.  1.
       -2    1    3    3    0  502 -0.10771850171E+03 -0.62966802821E+03 -0.78829982663E+03  0.10146436409E+04  0.25500000920E-02 0. -1.
</event>
<event>
 5   0  0.4900679E-06  0.3030612E+04  0.7818609E-02  0.8235043E-01
       -2   -1    0    0    0  501  0.00000000000E+00  0.00000000000E+00  0.11415465663E+04  0.11415465663E+04  0.25500000920E-02 0.  1.
        2   -1    0    0  501    0  0.00000000000E+00  0.00000000000E+00 -0.20114393566E+04  0.20114393566E+04  0.25500000920E-02 0. -1.
    10030    2    1    2    0    0  0.00000000000E+00  0.00000000000E+00 -0.86989279038E+03  0.31529859229E+04  0.30306116154E+04 0.  0.
        4    1    3    3  502    0 -0.85124071917E+03 -0.11527142191E+04  0.77686499649E+02  0.14350601513E+04  0.12699999809E+01 0.  1.
       -4    1    3    3    0  502  0.85124071917E+03  0.11527142191E+04 -0.94757929003E+03  0.17179257716E+04  0.12699999809E+01 0. -1.
</event>
<event>
 5   0  0.1649875E-06  0.3118922E+04  0.7818609E-02  0.8210564E-01
       -3   -1    0    0    0  501  0.00000000000E+00  0.00000000000E+00  0.13078625558E+04  0.13078625597E+04  0.10100000352E+00 0.  1.
        3   -1    0    0  501    0  0.00000000000E+00  0.00000000000E+00 -0.18594608406E+04  0.18594608433E+04  0.10100000352E+00 0. -1.
    10030    2    1    2    0    0  0.00000000000E+00  0.00000000000E+00 -0.55159828475E+03  0.31673234031E+04  0.31189223895E+04 0.  0.
        5    1    3    3  502    0  0.22981025988E+03 -0.27417048252E+03 -0.18172193929E+04  0.18521043763E+04  0.46999998093E+01 0. -1.
       -5    1    3    3    0  502 -0.22981025988E+03  0.27417048252E+03  0.12656211081E+04  0.13152190267E+04  0.46999998093E+01 0.  1.
</event>
<event>
 5   0  0.4900679E-06  0.2785981E+04  0.7818609E-02  0.8307634E-01
        2   -1    0    0  501    0  0.00000000000E+00  0.00000000000E+00  0.18734365464E+04  0.18734365464E+04  0.25500000920E-02 0. -1.
       -2   -1    0    0    0  501  0.00000000000E+00  0.00000000000E+00 -0.10357559780E+04  0.10357559780E+04  0.25500000920E-02 0.  1.
    10030    2    1    2    0    0  0.00000000000E+00  0.00000000000E+00  0.83768056834E+03  0.29091925244E+04  0.27859814087E+04 0.  0.
        4    1    3    3  502    0 -0.10502942424E+04 -0.89303016113E+03  0.21051633691E+03  0.13946109154E+04  0.12699999809E+01 0.  1.
       -4    1    3    3    0  502  0.10502942424E+04  0.89303016113E+03  0.62716423143E+03  0.15145816090E+04  0.12699999809E+01 0. -1.
</event>
<event>
 5   0  0.4900679E-06  0.3314517E+04  0.7818609E-02  0.8159211E-01
        2   -1    0    0  501    0  0.00000000000E+00  0.00000000000E+00  0.20684194154E+04  0.20684194154E+04  0.25500000920E-02 0.  1.
       -2   -1    0    0    0  501  0.00000000000E+00  0.00000000000E+00 -0.13278285098E+04  0.13278285098E+04  0.25500000920E-02 0. -1.
    10030    2    1    2    0    0  0.00000000000E+00  0.00000000000E+00  0.74059090567E+03  0.33962479252E+04  0.33145173223E+04 0.  0.
        4    1    3    3  502    0 -0.12631503772E+04  0.98983009636E+02 -0.72429589343E+03  0.14594357354E+04  0.12699999809E+01 0. -1.
       -4    1    3    3    0  502  0.12631503772E+04 -0.98983009636E+02  0.14648867991E+04  0.19368121898E+04  0.12699999809E+01 0.  1.
</event>
<event>
 5   0  0.5001658E-06  0.3153474E+04  0.7818609E-02  0.8201214E-01
        2   -1    0    0  501    0  0.00000000000E+00  0.00000000000E+00  0.19713182703E+04  0.19713182703E+04  0.25500000920E-02 0.  1.
       -2   -1    0    0    0  501  0.00000000000E+00  0.00000000000E+00 -0.12611357765E+04  0.12611357765E+04  0.25500000920E-02 0. -1.
    10030    2    1    2    0    0  0.00000000000E+00  0.00000000000E+00  0.71018249383E+03  0.32324540469E+04  0.31534742730E+04 0.  0.
        3    1    3    3  502    0  0.14089107066E+04 -0.58598785228E+03  0.76213730556E+03  0.17056565964E+04  0.10100000352E+00 0.  1.
       -3    1    3    3    0  502 -0.14089107066E+04  0.58598785228E+03 -0.51954811729E+02  0.15267974505E+04  0.10100000352E+00 0. -1.
</event>
<event>
 5   0  0.1836401E-06  0.3120708E+04  0.7818609E-02  0.8210078E-01
       -1   -1    0    0    0  501  0.00000000000E+00  0.00000000000E+00  0.13749793401E+04  0.13749793402E+04  0.50400001928E-02 0.  1.
        1   -1    0    0  501    0  0.00000000000E+00  0.00000000000E+00 -0.17707205947E+04  0.17707205947E+04  0.50400001928E-02 0. -1.
    10030    2    1    2    0    0  0.00000000000E+00  0.00000000000E+00 -0.39574125453E+03  0.31456999348E+04  0.31207077626E+04 0.  0.
        2    1    3    3  502    0 -0.12064336547E+04  0.86440895187E+03  0.28767068522E+03  0.15117669868E+04  0.25500000920E-02 0. -1.
       -2    1    3    3    0  502  0.12064336547E+04 -0.86440895187E+03 -0.68341193975E+03  0.16339329480E+04  0.25500000920E-02 0.  1.
</event>
<event>
 5   0  0.1840431E-06  0.3029980E+04  0.7818609E-02  0.8235221E-01
        1   -1    0    0  501    0  0.00000000000E+00  0.00000000000E+00  0.14258657116E+04  0.14258657116E+04  0.50400001928E-02 0. -1.
       -1   -1    0    0    0  501  0.00000000000E+00  0.00000000000E+00 -0.16096854403E+04  0.16096854403E+04  0.50400001928E-02 0.  1.
    10030    2    1    2    0    0  0.00000000000E+00  0.00000000000E+00 -0.18381972873E+03  0.30355511519E+04  0.30299803800E+04 0.  0.
        1    1    3    3  502    0 -0.12684127508E+04  0.80364771589E+02  0.73414588827E+03  0.14677532450E+04  0.50400001928E-02 0.  1.
       -1    1    3    3    0  502  0.12684127508E+04 -0.80364771589E+02 -0.91796561700E+03  0.15677979069E+04  0.50400001928E-02 0. -1.
</event>
<event>
 5   0  0.1649875E-06  0.3084974E+04  0.7818609E-02  0.8219874E-01
       -3   -1    0    0    0  501  0.00000000000E+00  0.00000000000E+00  0.15286186468E+04  0.15286186502E+04  0.10100000352E+00 0.  1.
        3   -1    0    0  501    0  0.00000000000E+00  0.00000000000E+00 -0.15564808684E+04  0.15564808717E+04  0.10100000352E+00 0. -1.
    10030    2    1    2    0    0  0.00000000000E+00  0.00000000000E+00 -0.27862221591E+02  0.30850995219E+04  0.30849737044E+04 0.  0.
        4    1    3    3  502    0  0.12991332679E+04  0.51423385159E+03  0.63960940921E+03  0.15366474908E+04  0.12699999809E+01 0.  1.
       -4    1    3    3    0  502 -0.12991332679E+04 -0.51423385159E+03 -0.66747163080E+03  0.15484520311E+04  0.12699999809E+01 0. -1.
</event>
<event>
 5   0  0.5328368E-06  0.3127525E+04  0.7818609E-02  0.8208224E-01
       -2   -1    0    0    0  501  0.00000000000E+00  0.00000000000E+00  0.20120232020E+04  0.20120232020E+04  0.25500000920E-02 0.  1.
        2   -1    0    0  501    0  0.00000000000E+00  0.00000000000E+00 -0.12153703211E+04  0.12153703211E+04  0.25500000920E-02 0. -1.
    10030    2    1    2    0    0  0.00000000000E+00  0.00000000000E+00  0.79665288095E+03  0.32273935231E+04  0.31275250823E+04 0.  0.
        1    1    3    3  502    0 -0.42413398221E+03 -0.12395238540E+04 -0.48277938146E+03  0.13962037641E+04  0.50400001928E-02 0.  1.
       -1    1    3    3    0  502  0.42413398221E+03  0.12395238540E+04  0.12794322624E+04  0.18311897591E+04  0.50400001928E-02 0. -1.
</event>
<event>
 5   0  0.4927533E-06  0.3107409E+04  0.7818609E-02  0.8213707E-01
       -2   -1    0    0    0  501  0.00000000000E+00  0.00000000000E+00  0.92753874734E+03  0.92753874734E+03  0.25500000920E-02 0. -1.
        2   -1    0    0  501    0  0.00000000000E+00  0.00000000000E+00 -0.26025846707E+04  0.26025846707E+04  0.25500000920E-02 0.  1.
    10030    2    1    2    0    0  0.00000000000E+00  0.00000000000E+00 -0.16750459233E+04  0.35301234180E+04  0.31074092909E+04 0.  0.
        5    1    3    3  502    0  0.45656734942E+03 -0.94043620795E+03 -0.21432716828E+04  0.23846403506E+04  0.46999998093E+01 0.  1.
       -5    1    3    3    0  502 -0.45656734942E+03  0.94043620795E+03  0.46822575945E+03  0.11454830674E+04  0.46999998093E+01 0. -1.
</event>
<event>
 5   0  0.4900679E-06  0.3096953E+04  0.7818609E-02  0.8216575E-01
       -2   -1    0    0    0  501  0.00000000000E+00  0.00000000000E+00  0.10439092448E+04  0.10439092448E+04  0.25500000920E-02 0.  1.
        2   -1    0    0  501    0  0.00000000000E+00  0.00000000000E+00 -0.22969233038E+04  0.22969233038E+04  0.25500000920E-02 0. -1.
    10030    2    1    2    0    0  0.00000000000E+00  0.00000000000E+00 -0.12530140590E+04  0.33408325486E+04  0.30969530003E+04 0.  0.
        4    1    3    3  502    0  0.63556940018E+03 -0.73332313494E+03 -0.19282064456E+04  0.21586322041E+04  0.12699999809E+01 0. -1.
       -4    1    3    3    0  502 -0.63556940018E+03  0.73332313494E+03  0.67519238663E+03  0.11822003445E+04  0.12699999809E+01 0.  1.
</event>
<event>
 5   0  0.1853742E-06  0.3136963E+04  0.7818609E-02  0.8205666E-01
       -1   -1    0    0    0  501  0.00000000000E+00  0.00000000000E+00  0.13221834545E+04  0.13221834545E+04  0.50400001928E-02 0. -1.
        1   -1    0    0  501    0  0.00000000000E+00  0.00000000000E+00 -0.18606605452E+04  0.18606605452E+04  0.50400001928E-02 0.  1.
    10030    2    1    2    0    0  0.00000000000E+00  0.00000000000E+00 -0.53847709069E+03  0.31828439997E+04  0.31369632368E+04 0.  0.
        5    1    3    3  502    0 -0.15112292616E+04  0.38411742200E+03 -0.44128397575E+03  0.16205288373E+04  0.46999998093E+01 0. -1.
       -5    1    3    3    0  502  0.15112292616E+04 -0.38411742200E+03 -0.97193114940E+02  0.15623151624E+04  0.46999998093E+01 0.  1.
</event>
<event>
 5   0  0.1885307E-06  0.2788200E+04  0.7818609E-02  0.8306941E-01
       -1   -1    0    0    0  501  0.00000000000E+00  0.00000000000E+00  0.99611964649E+03  0.99611964651E+03  0.50400001928E-02 0. -1.
        1   -1    0    0  501    0  0.00000000000E+00  0.00000000000E+00 -0.19510857559E+04  0.19510857559E+04  0.50400001928E-02 0.  1.
    10030    2    1    2    0    0  0.00000000000E+00  0.00000000000E+00 -0.95496610936E+03  0.29472054024E+04  0.27882000312E+04 0.  0.
        3    1    3    3  502    0 -0.77038572332E+03  0.53102503256E+03 -0.15698758624E+04  0.18275644945E+04  0.10100000352E+00 0.  1.
       -3    1    3    3    0  502  0.77038572332E+03 -0.53102503256E+03  0.61490975308E+03  0.11196409079E+04  0.10100000352E+00 0. -1.
</event>
<event>
 5   0  0.1836401E-06  0.3087734E+04  0.7818609E-02  0.8219112E-01
       -1   -1    0    0    0  501  0.00000000000E+00  0.00000000000E+00  0.11941819146E+04  0.11941819146E+04  0.50400001928E-02 0. -1.
        1   -1    0    0  501    0  0.00000000000E+00  0.00000000000E+00 -0.19959482721E+04  0.19959482721E+04  0.50400001928E-02 0.  1.
    10030    2    1    2    0    0  0.00000000000E+00  0.00000000000E+00 -0.80176635754E+03  0.31901301867E+04  0.30877340099E+04 0.  0.
        2    1    3    3  502    0 -0.12408386353E+04 -0.60483509925E+03 -0.11152006078E+04  0.17745924636E+04  0.25500000920E-02 0.  1.
       -2    1    3    3    0  502  0.12408386353E+04  0.60483509925E+03  0.31343425023E+03  0.14155377231E+04  0.25500000920E-02 0. -1.
</event>
<event>
 5   0  0.1836401E-06  0.3071803E+04  0.7818609E-02  0.8223519E-01
       -1   -1    0    0    0  501  0.00000000000E+00  0.00000000000E+00  0.13428228979E+04  0.13428228979E+04  0.50400001928E-02 0.  1.
        1   -1    0    0  501    0  0.00000000000E+00  0.00000000000E+00 -0.17567416024E+04  0.17567416024E+04  0.50400001928E-02 0. -1.
    10030    2    1    2    0    0  0.00000000000E+00  0.00000000000E+00 -0.41391870448E+03  0.30995645004E+04  0.30718026300E+04 0.  0.
        2    1    3    3  502    0 -0.95578975404E+03  0.20359714671E+03  0.98865744127E+03  0.13901184799E+04  0.25500000920E-02 0.  1.
       -2    1    3    3    0  502  0.95578975404E+03 -0.20359714671E+03 -0.14025761457E+04  0.17094460204E+04  0.25500000920E-02 0. -1.
</event>
<event>
 5   0  0.1853742E-06  0.2799809E+04  0.7818609E-02  0.8303328E-01
        1   -1    0    0  501    0  0.00000000000E+00  0.00000000000E+00  0.22420206738E+04  0.22420206738E+04  0.50400001928E-02 0. -1.
       -1   -1    0    0    0  501  0.00000000000E+00  0.00000000000E+00 -0.87409190366E+03  0.87409190368E+03  0.50400001928E-02 0.  1.
    10030    2    1    2    0    0  0.00000000000E+00  0.00000000000E+00  0.13679287702E+04  0.31161125775E+04  0.27998086498E+04 0.  0.
        5    1    3    3  502    0  0.70941927855E+03  0.98929907812E+03 -0.85294020165E+02  0.12203628717E+04  0.46999998093E+01 0.  1.
       -5    1    3    3    0  502 -0.70941927855E+03 -0.98929907812E+03  0.14532227903E+04  0.18957497058E+04  0.46999998093E+01 0. -1.
</event>
<event>
 5   0  0.5328368E-06  0.2971481E+04  0.7818609E-02  0.8251922E-01
       -2   -1    0    0    0  501  0.00000000000E+00  0.00000000000E+00  0.13767082660E+04  0.13767082660E+04  0.25500000920E-02 0. -1.
        2   -1    0    0  501    0  0.00000000000E+00  0.00000000000E+00 -0.16034083771E+04  0.16034083771E+04  0.25500000920E-02 0.  1.
    10030    2    1    2    0    0  0.00000000000E+00  0.00000000000E+00 -0.22670011113E+03  0.29801166432E+04  0.29714814935E+04 0.  0.
        1    1    3    3  502    0  0.94985147078E+03  0.54127308784E+03 -0.11223707922E+04  0.15668154222E+04  0.50400001928E-02 0.  1.
       -1    1    3    3    0  502 -0.94985147078E+03 -0.54127308784E+03  0.89567068106E+03  0.14133012209E+04  0.50400001928E-02 0. -1.
</event>
<event>
 5   0  0.1843709E-06  0.3212257E+04  0.7818609E-02  0.8185588E-01
        1   -1    0    0  501    0  0.00000000000E+00  0.00000000000E+00  0.10648941191E+04  0.10648941191E+04  0.50400001928E-02 0. -1.
       -1   -1    0    0    0  501  0.00000000000E+00  0.00000000000E+00 -0.24224468835E+04  0.24224468835E+04  0.50400001928E-02 0.  1.
    10030    2    1    2    0    0  0.00000000000E+00  0.00000000000E+00 -0.13575527644E+04  0.34873410027E+04  0.32122574244E+04 0.  0.
        4    1    3    3  502    0  0.15763645565E+04  0.30332054729E+03 -0.62216428036E+03  0.17216325316E+04  0.12699999809E+01 0.  1.
       -4    1    3    3    0  502 -0.15763645565E+04 -0.30332054729E+03 -0.73538848404E+03  0.17657084710E+04  0.12699999809E+01 0. -1.
</event>
<event>
 5   0  0.1840431E-06  0.3109846E+04  0.7818609E-02  0.8213041E-01
        1   -1    0    0  501    0  0.00000000000E+00  0.00000000000E+00  0.10926083775E+04  0.10926083775E+04  0.50400001928E-02 0.  1.
       -1   -1    0    0    0  501  0.00000000000E+00  0.00000000000E+00 -0.22128570689E+04  0.22128570689E+04  0.50400001928E-02 0. -1.
    10030    2    1    2    0    0  0.00000000000E+00  0.00000000000E+00 -0.11202486914E+04  0.33054654464E+04  0.31098464089E+04 0.  0.
        1    1    3    3  502    0  0.91015349033E+03  0.68665905643E+03 -0.16839432965E+04  0.20336039589E+04  0.50400001928E-02 0. -1.
       -1    1    3    3    0  502 -0.91015349033E+03 -0.68665905643E+03  0.56369460512E+03  0.12718614876E+04  0.50400001928E-02 0.  1.
</event>
<event>
 5   0  0.4900679E-06  0.3075532E+04  0.7818609E-02  0.8222485E-01
       -2   -1    0    0    0  501  0.00000000000E+00  0.00000000000E+00  0.14812024662E+04  0.14812024662E+04  0.25500000920E-02 0.  1.
        2   -1    0    0  501    0  0.00000000000E+00  0.00000000000E+00 -0.15964891698E+04  0.15964891698E+04  0.25500000920E-02 0. -1.
    10030    2    1    2    0    0  0.00000000000E+00  0.00000000000E+00 -0.11528670360E+03  0.30776916361E+04  0.30755316260E+04 0.  0.
        4    1    3    3  502    0 -0.70353358482E+03 -0.13148537628E+04 -0.43330300491E+03  0.15529175862E+04  0.12699999809E+01 0.  1.
       -4    1    3    3    0  502  0.70353358482E+03  0.13148537628E+04  0.31801630131E+03  0.15247740499E+04  0.12699999809E+01 0. -1.
</event>
<event>
 5   0  0.1853742E-06  0.3083956E+04  0.7818609E-02  0.8220155E-01
        1   -1    0    0  501    0  0.00000000000E+00  0.00000000000E+00  0.26973132301E+04  0.26973132301E+04  0.50400001928E-02 0. -1.
       -1   -1    0    0    0  501  0.00000000000E+00  0.00000000000E+00 -0.88150535100E+03  0.88150535101E+03  0.50400001928E-02 0.  1.
    10030    2    1    2    0    0  0.00000000000E+00  0.00000000000E+00  0.18158078791E+04  0.35788185811E+04  0.30839559307E+04 0.  0.
        5    1    3    3  502    0  0.12745173915E+04 -0.85133748934E+03  0.71198189226E+03  0.16900030790E+04  0.46999998093E+01 0. -1.
       -5    1    3    3    0  502 -0.12745173915E+04  0.85133748934E+03  0.11038259868E+04  0.18888155022E+04  0.46999998093E+01 0.  1.
</event>
<event>
 5   0  0.1649875E-06  0.3139386E+04  0.7818609E-02  0.8205011E-01
       -3   -1    0    0    0  501  0.00000000000E+00  0.00000000000E+00  0.13113155446E+04  0.13113155485E+04  0.10100000352E+00 0.  1.
        3   -1    0    0  501    0  0.00000000000E+00  0.00000000000E+00 -0.18789808210E+04  0.18789808237E+04  0.10100000352E+00 0. -1.
    10030    2    1    2    0    0  0.00000000000E+00  0.00000000000E+00 -0.56766527640E+03  0.31902963722E+04  0.31393864172E+04 0.  0.
        4    1    3    3  502    0 -0.48961001097E+02 -0.30093906407E+03 -0.18485994252E+04  0.18735749111E+04  0.12699999809E+01 0. -1.
       -4    1    3    3    0  502  0.48961001097E+02  0.30093906407E+03  0.12809341488E+04  0.13167214611E+04  0.12699999809E+01 0.  1.
</event>
<event>
 5   0  0.1843709E-06  0.2917221E+04  0.7818609E-02  0.8267772E-01
       -1   -1    0    0    0  501  0.00000000000E+00  0.00000000000E+00  0.13192355547E+04  0.13192355547E+04  0.50400001928E-02 0.  1.
        1   -1    0    0  501    0  0.00000000000E+00  0.00000000000E+00 -0.16127100598E+04  0.16127100598E+04  0.50400001928E-02 0. -1.
    10030    2    1    2    0    0  0.00000000000E+00  0.00000000000E+00 -0.29347450511E+03  0.29319456145E+04  0.29172209038E+04 0.  0.
        4    1    3    3  502    0  0.10905270175E+04  0.30622220725E+03 -0.10703543839E+04  0.15584227078E+04  0.12699999809E+01 0. -1.
       -4    1    3    3    0  502 -0.10905270175E+04 -0.30622220725E+03  0.77687987883E+03  0.13735229067E+04  0.12699999809E+01 0.  1.
</event>
<event>
 5   0  0.5328368E-06  0.2864559E+04  0.7818609E-02  0.8283501E-01
        2   -1    0    0  501    0  0.00000000000E+00  0.00000000000E+00  0.20891698926E+04  0.20891698926E+04  0.25500000920E-02 0. -1.
       -2   -1    0    0    0  501  0.00000000000E+00  0.00000000000E+00 -0.98193255279E+03  0.98193255279E+03  0.25500000920E-02 0.  1.
    10030    2    1    2    0    0  0.00000000000E+00  0.00000000000E+00  0.11072373398E+04  0.30711024454E+04  0.28645585530E+04 0.  0.
        1    1    3    3  502    0  0.17017607747E+03  0.36530357031E+03  0.20271337033E+04  0.20668037272E+04  0.50400001928E-02 0. -1.
       -1    1    3    3    0  502 -0.17017607747E+03 -0.36530357031E+03 -0.91989636346E+03  0.10042987182E+04  0.50400001928E-02 0.  1.
</event>
<event>
 5   0  0.1843709E-06  0.3095159E+04  0.7818609E-02  0.8217068E-01
       -1   -1    0    0    0  501  0.00000000000E+00  0.00000000000E+00  0.13158622031E+04  0.13158622031E+04  0.50400001928E-02 0. -1.
        1   -1    0    0  501    0  0.00000000000E+00  0.00000000000E+00 -0.18201014882E+04  0.18201014882E+04  0.50400001928E-02 0.  1.
    10030    2    1    2    0    0  0.00000000000E+00  0.00000000000E+00 -0.50423928517E+03  0.31359636913E+04  0.30951592877E+04 0.  0.
        4    1    3    3  502    0  0.15232427592E+04 -0.21567122205E+03 -0.42231803744E+03  0.15953484626E+04  0.12699999809E+01 0. -1.
       -4    1    3    3    0  502 -0.15232427592E+04  0.21567122205E+03 -0.81921247736E+02  0.15406152287E+04  0.12699999809E+01 0.  1.
</event>
<event>
 5   0  0.5328368E-06  0.3108900E+04  0.7818609E-02  0.8213300E-01
       -2   -1    0    0    0  501  0.00000000000E+00  0.00000000000E+00  0.82914285375E+03  0.82914285376E+03  0.25500000920E-02 0. -1.
        2   -1    0    0  501    0  0.00000000000E+00  0.00000000000E+00 -0.29142325266E+04  0.29142325266E+04  0.25500000920E-02 0.  1.
    10030    2    1    2    0    0  0.00000000000E+00  0.00000000000E+00 -0.20850896729E+04  0.37433753804E+04  0.31089001744E+04 0.  0.
        1    1    3    3  502    0 -0.75960610029E+03  0.66788745983E+03 -0.24637918586E+04  0.26633335145E+04  0.50400001928E-02 0.  1.
       -1    1    3    3    0  502  0.75960610029E+03 -0.66788745983E+03  0.37870218576E+03  0.10800418659E+04  0.50400001928E-02 0. -1.
</event>
<event>
 5   0  0.5001658E-06  0.3049387E+04  0.7818609E-02  0.8229767E-01
        2   -1    0    0  501    0  0.00000000000E+00  0.00000000000E+00  0.13932104527E+04  0.13932104527E+04  0.25500000920E-02 0. -1.
       -2   -1    0    0    0  501  0.00000000000E+00  0.00000000000E+00 -0.16685855100E+04  0.16685855100E+04  0.25500000920E-02 0.  1.
    10030    2    1    2    0    0  0.00000000000E+00  0.00000000000E+00 -0.27537505738E+03  0.30617959627E+04  0.30493873311E+04 0.  0.
        3    1    3    3  502    0  0.75358276244E+03 -0.10029250024E+04 -0.10077847544E+04  0.16091537098E+04  0.10100000352E+00 0.  1.
       -3    1    3    3    0  502 -0.75358276244E+03  0.10029250024E+04  0.73240969706E+03  0.14526422529E+04  0.10100000352E+00 0. -1.
</event>
<event>
 5   0  0.5001658E-06  0.3084516E+04  0.7818609E-02  0.8220000E-01
        2   -1    0    0  501    0  0.00000000000E+00  0.00000000000E+00  0.12357061785E+04  0.12357061786E+04  0.25500000920E-02 0.  1.
       -2   -1    0    0    0  501  0.00000000000E+00  0.00000000000E+00 -0.19248588296E+04  0.19248588296E+04  0.25500000920E-02 0. -1.
    10030    2    1    2    0    0  0.00000000000E+00  0.00000000000E+00 -0.68915265103E+03  0.31605650081E+04  0.30845161362E+04 0.  0.
        3    1    3    3  502    0  0.28203052338E+03  0.64867143435E+02 -0.18967886959E+04  0.19187382129E+04  0.10100000352E+00 0. -1.
       -3    1    3    3    0  502 -0.28203052338E+03 -0.64867143435E+02  0.12076360449E+04  0.12418267953E+04  0.10100000352E+00 0.  1.
</event>
<event>
 5   0  0.1840431E-06  0.3103810E+04  0.7818609E-02  0.8214693E-01
       -1   -1    0    0    0  501  0.00000000000E+00  0.00000000000E+00  0.24668909134E+04  0.24668909134E+04  0.50400001928E-02 0.  1.
        1   -1    0    0  501    0  0.00000000000E+00  0.00000000000E+00 -0.97629356819E+03  0.97629356820E+03  0.50400001928E-02 0. -1.
    10030    2    1    2    0    0  0.00000000000E+00  0.00000000000E+00  0.14905973452E+04  0.34431844816E+04  0.31038103887E+04 0.  0.
        1    1    3    3  502    0  0.15509234983E+04 -0.12965126607E+02  0.80481086864E+03  0.17473558099E+04  0.50400001928E-02 0. -1.
       -1    1    3    3    0  502 -0.15509234983E+04  0.12965126607E+02  0.68578647656E+03  0.16958286717E+04  0.50400001928E-02 0.  1.
</event>
<event>
 5   0  0.1853742E-06  0.3121924E+04  0.7818609E-02  0.8209747E-01
       -1   -1    0    0    0  501  0.00000000000E+00  0.00000000000E+00  0.11665332884E+04  0.11665332884E+04  0.50400001928E-02 0. -1.
        1   -1    0    0  501    0  0.00000000000E+00  0.00000000000E+00 -0.20887551530E+04  0.20887551530E+04  0.50400001928E-02 0.  1.
    10030    2    1    2    0    0  0.00000000000E+00  0.00000000000E+00 -0.92222186465E+03  0.32552884414E+04  0.31219240332E+04 0.  0.
        5    1    3    3  502    0  0.12541213572E+04  0.28573859015E+03 -0.13832618661E+04  0.18888891976E+04  0.46999998093E+01 0.  1.
       -5    1    3    3    0  502 -0.12541213572E+04 -0.28573859015E+03  0.46104000149E+03  0.13663992438E+04  0.46999998093E+01 0. -1.
</event>
<event>
 5   0  0.5001658E-06  0.3092401E+04  0.7818609E-02  0.8217826E-01
       -2   -1    0    0    0  501  0.00000000000E+00  0.00000000000E+00  0.15501398097E+04  0.15501398097E+04  0.25500000920E-02 0.  1.
        2   -1    0    0  501    0  0.00000000000E+00  0.00000000000E+00 -0.15422715534E+04  0.15422715534E+04  0.25500000920E-02 0. -1.
    10030    2    1    2    0    0  0.00000000000E+00  0.00000000000E+00  0.78682563043E+01  0.30924113631E+04  0.30924013532E+04 0.  0.
        3    1    3    3  502    0 -0.60009105794E+03 -0.12576408514E+04 -0.66611783978E+03  0.15445008176E+04  0.10100000352E+00 0. -1.
       -3    1    3    3    0  502  0.60009105794E+03  0.12576408514E+04  0.67398609608E+03  0.15479105455E+04  0.10100000352E+00 0.  1.
</event>
<event>
 5   0  0.1853742E-06  0.3087358E+04  0.7818609E-02  0.8219216E-01
        1   -1    0    0  501    0  0.00000000000E+00  0.00000000000E+00  0.12673605953E+04  0.12673605953E+04  0.50400001928E-02 0.  1.
       -1   -1    0    0    0  501  0.00000000000E+00  0.00000000000E+00 -0.18802426903E+04  0.18802426903E+04  0.50400001928E-02 0. -1.
    10030    2    1    2    0    0  0.00000000000E+00  0.00000000000E+00 -0.61288209497E+03  0.31476032856E+04  0.30873584147E+04 0.  0.
        5    1    3    3  502    0 -0.21298799010E+03  0.77481356254E+03  0.10373160874E+04  0.13121534574E+04  0.46999998093E+01 0.  1.
       -5    1    3    3    0  502  0.21298799010E+03 -0.77481356254E+03 -0.16501981824E+04  0.18354498282E+04  0.46999998093E+01 0. -1.
</event>
<event>
 5   0  0.5114870E-06  0.3042210E+04  0.7818609E-02  0.8231779E-01
       -2   -1    0    0    0  501  0.00000000000E+00  0.00000000000E+00  0.17697359143E+04  0.17697359143E+04  0.25500000920E-02 0. -1.
        2   -1    0    0  501    0  0.00000000000E+00  0.00000000000E+00 -0.13074042155E+04  0.13074042155E+04  0.25500000920E-02 0.  1.
    10030    2    1    2    0    0  0.00000000000E+00  0.00000000000E+00  0.46233169878E+03  0.30771401298E+04  0.30422098512E+04 0.  0.
        2    1    3    3  502    0  0.98644607961E+03  0.10805838627E+04 -0.18957029894E+03  0.14753556353E+04  0.25500000920E-02 0.  1.
       -2    1    3    3    0  502 -0.98644607961E+03 -0.10805838627E+04  0.65190199772E+03  0.16017844945E+04  0.25500000920E-02 0. -1.
</event>
<event>
 5   0  0.1885307E-06  0.3021128E+04  0.7818609E-02  0.8237723E-01
        1   -1    0    0  501    0  0.00000000000E+00  0.00000000000E+00  0.10114460441E+04  0.10114460441E+04  0.50400001928E-02 0. -1.
       -1   -1    0    0    0  501  0.00000000000E+00  0.00000000000E+00 -0.22559817685E+04  0.22559817685E+04  0.50400001928E-02 0.  1.
    10030    2    1    2    0    0  0.00000000000E+00  0.00000000000E+00 -0.12445357244E+04  0.32674278126E+04  0.30211281571E+04 0.  0.
        3    1    3    3  502    0  0.83795477560E+03  0.31985578471E+03  0.69227666744E+03  0.11330149705E+04  0.10100000352E+00 0. -1.
       -3    1    3    3    0  502 -0.83795477560E+03 -0.31985578471E+03 -0.19368123919E+04  0.21344128421E+04  0.10100000352E+00 0.  1.
</event>
<event>
 5   0  0.1885307E-06  0.3042172E+04  0.7818609E-02  0.8231790E-01
       -1   -1    0    0    0  501  0.00000000000E+00  0.00000000000E+00  0.10899647116E+04  0.10899647116E+04  0.50400001928E-02 0.  1.
        1   -1    0    0  501    0  0.00000000000E+00  0.00000000000E+00 -0.21227314593E+04  0.21227314593E+04  0.50400001928E-02 0. -1.
    10030    2    1    2    0    0  0.00000000000E+00  0.00000000000E+00 -0.10327667477E+04  0.32126961709E+04  0.30421718444E+04 0.  0.
        3    1    3    3  502    0 -0.33204330786E+03 -0.68640001118E+03 -0.19063297554E+04  0.20531660625E+04  0.10100000352E+00 0. -1.
       -3    1    3    3    0  502  0.33204330786E+03  0.68640001118E+03  0.87356300770E+03  0.11595301084E+04  0.10100000352E+00 0.  1.
</event>
<event>
 5   0  0.1843709E-06  0.2896872E+04  0.7818609E-02  0.8273809E-01
       -1   -1    0    0    0  501  0.00000000000E+00  0.00000000000E+00  0.11824003331E+04  0.11824003332E+04  0.50400001928E-02 0.  1.
        1   -1    0    0  501    0  0.00000000000E+00  0.00000000000E+00 -0.17743289721E+04  0.17743289721E+04  0.50400001928E-02 0. -1.
    10030    2    1    2    0    0  0.00000000000E+00  0.00000000000E+00 -0.59192863900E+03  0.29567293053E+04  0.28968722221E+04 0.  0.
        4    1    3    3  502    0 -0.13690849953E+04 -0.95617594208E+02 -0.76859737683E+03  0.15729844211E+04  0.12699999809E+01 0. -1.
       -4    1    3    3    0  502  0.13690849953E+04  0.95617594208E+02  0.17666873783E+03  0.13837448842E+04  0.12699999809E+01 0.  1.
</event>
<event>
 5   0  0.4900679E-06  0.3063988E+04  0.7818609E-02  0.8225691E-01
        2   -1    0    0  501    0  0.00000000000E+00  0.00000000000E+00  0.11293909141E+04  0.11293909141E+04  0.25500000920E-02 0. -1.
       -2   -1    0    0    0  501  0.00000000000E+00  0.00000000000E+00 -0.20781159552E+04  0.20781159552E+04  0.25500000920E-02 0.  1.
    10030    2    1    2    0    0  0.00000000000E+00  0.00000000000E+00 -0.94872504104E+03  0.32075068693E+04  0.30639877795E+04 0.  0.
        4    1    3    3  502    0 -0.63417221472E+03  0.11417421396E+04 -0.13126551778E+04  0.18517058999E+04  0.12699999809E+01 0.  1.
       -4    1    3    3    0  502  0.63417221472E+03 -0.11417421396E+04  0.36393013672E+03  0.13558009694E+04  0.12699999809E+01 0. -1.
</event>
<event>
 5   0  0.1885307E-06  0.3083280E+04  0.7818609E-02  0.8220342E-01
       -1   -1    0    0    0  501  0.00000000000E+00  0.00000000000E+00  0.24407149690E+04  0.24407149690E+04  0.50400001928E-02 0. -1.
        1   -1    0    0  501    0  0.00000000000E+00  0.00000000000E+00 -0.97375328092E+03  0.97375328093E+03  0.50400001928E-02 0.  1.
    10030    2    1    2    0    0  0.00000000000E+00  0.00000000000E+00  0.14669616881E+04  0.34144682500E+04  0.30832802071E+04 0.  0.
        3    1    3    3  502    0  0.10138308822E+04 -0.74215975526E+03  0.17227433288E+04  0.21322520365E+04  0.10100000352E+00 0. -1.
       -3    1    3    3    0  502 -0.10138308822E+04  0.74215975526E+03 -0.25578164070E+03  0.12822162134E+04  0.10100000352E+00 0.  1.
</event>
<event>
 5   0  0.1853742E-06  0.3105711E+04  0.7818609E-02  0.8214172E-01
        1   -1    0    0  501    0  0.00000000000E+00  0.00000000000E+00  0.22183866121E+04  0.22183866121E+04  0.50400001928E-02 0. -1.
       -1   -1    0    0    0  501  0.00000000000E+00  0.00000000000E+00 -0.10869884234E+04  0.10869884234E+04  0.50400001928E-02 0.  1.
    10030    2    1    2    0    0  0.00000000000E+00  0.00000000000E+00  0.11313981887E+04  0.33053750355E+04  0.31057112332E+04 0.  0.
        5    1    3    3  502    0 -0.88681402696E+03 -0.12736966711E+04  0.51147099630E+03  0.16341257596E+04  0.46999998093E+01 0.  1.
       -5    1    3    3    0  502  0.88681402696E+03  0.12736966711E+04  0.61992719237E+03  0.16712492759E+04  0.46999998093E+01 0. -1.
</event>
<event>
 5   0  0.1843709E-06  0.3080398E+04  0.7818609E-02  0.8221138E-01
        1   -1    0    0  501    0  0.00000000000E+00  0.00000000000E+00  0.14972750833E+04  0.14972750834E+04  0.50400001928E-02 0. -1.
       -1   -1    0    0    0  501  0.00000000000E+00  0.00000000000E+00 -0.15843537793E+04  0.15843537793E+04  0.50400001928E-02 0.  1.
    10030    2    1    2    0    0  0.00000000000E+00  0.00000000000E+00 -0.87078695948E+02  0.30816288627E+04  0.30803983099E+04 0.  0.
        4    1    3    3  502    0 -0.55852709307E+03  0.77347982913E+03 -0.12531494352E+04  0.15749948189E+04  0.12699999809E+01 0.  1.
       -4    1    3    3    0  502  0.55852709307E+03 -0.77347982913E+03  0.11660707393E+04  0.15066340437E+04  0.12699999809E+01 0. -1.
</event>
<event>
 5   0  0.5114870E-06  0.3032909E+04  0.7818609E-02  0.8234395E-01
        2   -1    0    0  501    0  0.00000000000E+00  0.00000000000E+00  0.28839388568E+04  0.28839388568E+04  0.25500000920E-02 0. -1.
       -2   -1    0    0    0  501  0.00000000000E+00  0.00000000000E+00 -0.79739369548E+03  0.79739369549E+03  0.25500000920E-02 0.  1.
    10030    2    1    2    0    0  0.00000000000E+00  0.00000000000E+00  0.20865451614E+04  0.36813325523E+04  0.30329092717E+04 0.  0.
        2    1    3    3  502    0  0.15097547589E+04 -0.11338451645E+03  0.11478224872E+04  0.18999241939E+04  0.25500000920E-02 0. -1.
       -2    1    3    3    0  502 -0.15097547589E+04  0.11338451645E+03  0.93872267413E+03  0.17814083584E+04  0.25500000920E-02 0.  1.
</event>
<event>
 5   0  0.4900679E-06  0.3093960E+04  0.7818609E-02  0.8217397E-01
       -2   -1    0    0    0  501  0.00000000000E+00  0.00000000000E+00  0.17545059768E+04  0.17545059768E+04  0.25500000920E-02 0.  1.
        2   -1    0    0  501    0  0.00000000000E+00  0.00000000000E+00 -0.13640008532E+04  0.13640008532E+04  0.25500000920E-02 0. -1.
    10030    2    1    2    0    0  0.00000000000E+00  0.00000000000E+00  0.39050512356E+03  0.31185068300E+04  0.30939603419E+04 0.  0.
        4    1    3    3  502    0 -0.12679948022E+03 -0.10871564221E+04 -0.90665400530E+03  0.14212706612E+04  0.12699999809E+01 0. -1.
       -4    1    3    3    0  502  0.12679948022E+03  0.10871564221E+04  0.12971591289E+04  0.16972361688E+04  0.12699999809E+01 0.  1.
</event>
<event>
 5   0  0.4900679E-06  0.3103247E+04  0.7818609E-02  0.8214847E-01
       -2   -1    0    0    0  501  0.00000000000E+00  0.00000000000E+00  0.25162137139E+04  0.25162137139E+04  0.25500000920E-02 0.  1.
        2   -1    0    0  501    0  0.00000000000E+00  0.00000000000E+00 -0.95680853226E+03  0.95680853226E+03  0.25500000920E-02 0. -1.
    10030    2    1    2    0    0  0.00000000000E+00  0.00000000000E+00  0.15594051816E+04  0.34730222461E+04  0.31032465261E+04 0.  0.
        4    1    3    3  502    0 -0.78245554864E+03 -0.10277225571E+04 -0.18243644300E+03  0.13045056568E+04  0.12699999809E+01 0. -1.
       -4    1    3    3    0  502  0.78245554864E+03  0.10277225571E+04  0.17418416246E+04  0.21685165893E+04  0.12699999809E+01 0.  1.
</event>
<event>
 5   0  0.1843709E-06  0.3103723E+04  0.7818609E-02  0.8214717E-01
        1   -1    0    0  501    0  0.00000000000E+00  0.00000000000E+00  0.19794740416E+04  0.19794740416E+04  0.50400001928E-02 0. -1.
       -1   -1    0    0    0  501  0.00000000000E+00  0.00000000000E+00 -0.12166229586E+04  0.12166229586E+04  0.50400001928E-02 0.  1.
    10030    2    1    2    0    0  0.00000000000E+00  0.00000000000E+00  0.76285108298E+03  0.31960970002E+04  0.31037226455E+04 0.  0.
        4    1    3    3  502    0  0.35099370368E+03  0.74242231272E+03  0.17373863161E+04  0.19216920395E+04  0.12699999809E+01 0. -1.
       -4    1    3    3    0  502 -0.35099370368E+03 -0.74242231272E+03 -0.97453523310E+03  0.12744049607E+04  0.12699999809E+01 0.  1.
</event>
<event>
 5   0  0.5114870E-06  0.3152973E+04  0.7818609E-02  0.8201348E-01
       -2   -1    0    0    0  501  0.00000000000E+00  0.00000000000E+00  0.14240365466E+04  0.14240365466E+04  0.25500000920E-02 0.  1.
        2   -1    0    0  501    0  0.00000000000E+00  0.00000000000E+00 -0.17452573032E+04  0.17452573032E+04  0.25500000920E-02 0. -1.
    10030    2    1    2    0    0  0.00000000000E+00  0.00000000000E+00 -0.32122075662E+03  0.31692938498E+04  0.31529733161E+04 0.  0.
        2    1    3    3  502    0 -0.11336901166E+04 -0.35381274781E+03 -0.12027379322E+04  0.16902707696E+04  0.25500000920E-02 0. -1.
       -2    1    3    3    0  502  0.11336901166E+04  0.35381274781E+03  0.88151717553E+03  0.14790230802E+04  0.25500000920E-02 0.  1.
</event>
<event>
 5   0  0.4900679E-06  0.3065571E+04  0.7818609E-02  0.8225251E-01
       -2   -1    0    0    0  501  0.00000000000E+00  0.00000000000E+00  0.14499025722E+04  0.14499025722E+04  0.25500000920E-02 0. -1.
        2   -1    0    0  501    0  0.00000000000E+00  0.00000000000E+00 -0.16204068834E+04  0.16204068834E+04  0.25500000920E-02 0.  1.
    10030    2    1    2    0    0  0.00000000000E+00  0.00000000000E+00 -0.17050431121E+03  0.30703094555E+04  0.30655714692E+04 0.  0.
        4    1    3    3  502    0  0.20408596657E+03  0.10730506243E+04 -0.11622474646E+04  0.15949637946E+04  0.12699999809E+01 0.  1.
       -4    1    3    3    0  502 -0.20408596657E+03 -0.10730506243E+04  0.99174315339E+03  0.14753456610E+04  0.12699999809E+01 0. -1.
</event>
<event>
 5   0  0.4927533E-06  0.2234451E+04  0.7818609E-02  0.8504224E-01
       -2   -1    0    0    0  501  0.00000000000E+00  0.00000000000E+00  0.11858198953E+04  0.11858198953E+04  0.25500000920E-02 0. -1.
        2   -1    0    0  501    0  0.00000000000E+00  0.00000000000E+00 -0.10525989695E+04  0.10525989695E+04  0.25500000920E-02 0.  1.
    10030    2    1    2    0    0  0.00000000000E+00  0.00000000000E+00  0.13322092583E+03  0.22384188648E+04  0.22344509839E+04 0.  0.
        5    1    3    3  502    0 -0.62792553216E+03 -0.43752882567E+03  0.88196533701E+03  0.11677357976E+04  0.46999998093E+01 0. -1.
       -5    1    3    3    0  502  0.62792553216E+03  0.43752882567E+03 -0.74874441118E+03  0.10706830673E+04  0.46999998093E+01 0.  1.
</event>
<event>
 5   0  0.1836401E-06  0.2762570E+04  0.7818609E-02  0.8314984E-01
        1   -1    0    0  501    0  0.00000000000E+00  0.00000000000E+00  0.14909365105E+04  0.14909365105E+04  0.50400001928E-02 0. -1.
       -1   -1    0    0    0  501  0.00000000000E+00  0.00000000000E+00 -0.12796980340E+04  0.12796980340E+04  0.50400001928E-02 0.  1.
    10030    2    1    2    0    0  0.00000000000E+00  0.00000000000E+00  0.21123847649E+03  0.27706345446E+04  0.27625701956E+04 0.  0.
        2    1    3    3  502    0 -0.57489081747E+03  0.30371118339E+02  0.13648826442E+04  0.14813259227E+04  0.25500000920E-02 0. -1.
       -2    1    3    3    0  502  0.57489081747E+03 -0.30371118339E+02 -0.11536441677E+04  0.12893086219E+04  0.25500000920E-02 0.  1.
</event>
<event>
 5   0  0.4927533E-06  0.3078644E+04  0.7818609E-02  0.8221623E-01
       -2   -1    0    0    0  501  0.00000000000E+00  0.00000000000E+00  0.14293995742E+04  0.14293995742E+04  0.25500000920E-02 0. -1.
        2   -1    0    0  501    0  0.00000000000E+00  0.00000000000E+00 -0.16576975270E+04  0.16576975270E+04  0.25500000920E-02 0.  1.
    10030    2    1    2    0    0  0.00000000000E+00  0.00000000000E+00 -0.22829795286E+03  0.30870971012E+04  0.30786439477E+04 0.  0.
        5    1    3    3  502    0  0.38269916169E+02  0.20245213303E+03  0.14155029522E+04  0.14304272614E+04  0.46999998093E+01 0. -1.
       -5    1    3    3    0  502 -0.38269916169E+02 -0.20245213303E+03 -0.16438009050E+04  0.16566698398E+04  0.46999998093E+01 0.  1.
</event>
<event>
 5   0  0.1649875E-06  0.2971707E+04  0.7818609E-02  0.8251857E-01
        3   -1    0    0  501    0  0.00000000000E+00  0.00000000000E+00  0.15287403826E+04  0.15287403859E+04  0.10100000352E+00 0. -1.
       -3   -1    0    0    0  501  0.00000000000E+00  0.00000000000E+00 -0.14441696256E+04  0.14441696291E+04  0.10100000352E+00 0.  1.
    10030    2    1    2    0    0  0.00000000000E+00  0.00000000000E+00  0.84570757034E+02  0.29729100150E+04  0.29717068739E+04 0.  0.
        1    1    3    3  502    0  0.54150037447E+03  0.11658342158E+04 -0.70324674804E+03  0.14652467584E+04  0.50400001928E-02 0.  1.
       -1    1    3    3    0  502 -0.54150037447E+03 -0.11658342158E+04  0.78781750508E+03  0.15076632567E+04  0.50400001928E-02 0. -1.
</event>
<event>
 5   0  0.1836401E-06  0.3108228E+04  0.7818609E-02  0.8213483E-01
       -1   -1    0    0    0  501  0.00000000000E+00  0.00000000000E+00  0.11938758280E+04  0.11938758280E+04  0.50400001928E-02 0.  1.
        1   -1    0    0  501    0  0.00000000000E+00  0.00000000000E+00 -0.20230504055E+04  0.20230504055E+04  0.50400001928E-02 0. -1.
    10030    2    1    2    0    0  0.00000000000E+00  0.00000000000E+00 -0.82917457743E+03  0.32169262335E+04  0.31082284202E+04 0.  0.
        2    1    3    3  502    0 -0.12547339546E+04 -0.32870629533E+03  0.47142637296E+03  0.13800898343E+04  0.25500000920E-02 0.  1.
       -2    1    3    3    0  502  0.12547339546E+04  0.32870629533E+03 -0.13006009504E+04  0.18368363993E+04  0.25500000920E-02 0. -1.
</event>
<event>
 5   0  0.5328368E-06  0.3055543E+04  0.7818609E-02  0.8228046E-01
        2   -1    0    0  501    0  0.00000000000E+00  0.00000000000E+00  0.30416803310E+04  0.30416803310E+04  0.25500000920E-02 0.  1.
       -2   -1    0    0    0  501  0.00000000000E+00  0.00000000000E+00 -0.76736736570E+03  0.76736736571E+03  0.25500000920E-02 0. -1.
    10030    2    1    2    0    0  0.00000000000E+00  0.00000000000E+00  0.22743129653E+04  0.38090476967E+04  0.30555433055E+04 0.  0.
        1    1    3    3  502    0  0.97774919009E+03  0.75781126265E+03  0.19506087317E+02  0.12371951649E+04  0.50400001928E-02 0. -1.
       -1    1    3    3    0  502 -0.97774919009E+03 -0.75781126265E+03  0.22548068780E+04  0.25718525319E+04  0.50400001928E-02 0.  1.
</event>
<event>
 5   0  0.1843709E-06  0.3114194E+04  0.7818609E-02  0.8211853E-01
        1   -1    0    0  501    0  0.00000000000E+00  0.00000000000E+00  0.22303415962E+04  0.22303415962E+04  0.50400001928E-02 0. -1.
       -1   -1    0    0    0  501  0.00000000000E+00  0.00000000000E+00 -0.10870759479E+04  0.10870759479E+04  0.50400001928E-02 0.  1.
    10030    2    1    2    0    0  0.00000000000E+00  0.00000000000E+00  0.11432656484E+04  0.33174175441E+04  0.31141937671E+04 0.  0.
        4    1    3    3  502    0 -0.72833249161E+03 -0.12772419896E+04  0.11176577363E+04  0.18468827106E+04  0.12699999809E+01 0. -1.
       -4    1    3    3    0  502  0.72833249161E+03  0.12772419896E+04  0.25607912095E+02  0.14705348335E+04  0.12699999809E+01 0.  1.
</event>
<event>
 5   0  0.5001658E-06  0.3216119E+04  0.7818609E-02  0.8184573E-01
        2   -1    0    0  501    0  0.00000000000E+00  0.00000000000E+00  0.27210322100E+04  0.27210322100E+04  0.25500000920E-02 0.  1.
       -2   -1    0    0    0  501  0.00000000000E+00  0.00000000000E+00 -0.95032163422E+03  0.95032163423E+03  0.25500000920E-02 0. -1.
    10030    2    1    2    0    0  0.00000000000E+00  0.00000000000E+00  0.17707105758E+04  0.36713538442E+04  0.32161192618E+04 0.  0.
        3    1    3    3  502    0 -0.42606379608E+03  0.15313911837E+04  0.60768343625E+03  0.17017545313E+04  0.10100000352E+00 0. -1.
       -3    1    3    3    0  502  0.42606379608E+03 -0.15313911837E+04  0.11630271395E+04  0.19695993129E+04  0.10100000352E+00 0.  1.
</event>
<event>
 5   0  0.1853742E-06  0.3133558E+04  0.7818609E-02  0.8206588E-01
        1   -1    0    0  501    0  0.00000000000E+00  0.00000000000E+00  0.17682345926E+04  0.17682345926E+04  0.50400001928E-02 0.  1.
       -1   -1    0    0    0  501  0.00000000000E+00  0.00000000000E+00 -0.13882750984E+04  0.13882750984E+04  0.50400001928E-02 0. -1.
    10030    2    1    2    0    0  0.00000000000E+00  0.00000000000E+00  0.37995949421E+03  0.31565096910E+04  0.31335577563E+04 0.  0.
        5    1    3    3  502    0  0.14432540635E+04  0.34544773011E+03 -0.31615201662E+03  0.15173300939E+04  0.46999998093E+01 0. -1.
       -5    1    3    3    0  502 -0.14432540635E+04 -0.34544773011E+03  0.69611151083E+03  0.16391795971E+04  0.46999998093E+01 0.  1.
</event>
<event>
 5   0  0.1885307E-06  0.2996871E+04  0.7818609E-02  0.8244625E-01
        1   -1    0    0  501    0  0.00000000000E+00  0.00000000000E+00  0.15398431616E+04  0.15398431616E+04  0.50400001928E-02 0.  1.
       -1   -1    0    0    0  501  0.00000000000E+00  0.00000000000E+00 -0.14581409356E+04  0.14581409356E+04  0.50400001928E-02 0. -1.
    10030    2    1    2    0    0  0.00000000000E+00  0.00000000000E+00  0.81702225913E+02  0.29979840972E+04  0.29968706000E+04 0.  0.
        3    1    3    3  502    0 -0.42877381975E+03 -0.10361150001E+04 -0.95346338849E+03  0.14718946040E+04  0.10100000352E+00 0. -1.
       -3    1    3    3    0  502  0.42877381975E+03  0.10361150001E+04  0.10351656144E+04  0.15260894932E+04  0.10100000352E+00 0.  1.
</event>
<event>
 5   0  0.5114870E-06  0.2998356E+04  0.7818609E-02  0.8244200E-01
       -2   -1    0    0    0  501  0.00000000000E+00  0.00000000000E+00  0.12044410099E+04  0.12044410099E+04  0.25500000920E-02 0. -1.
        2   -1    0    0  501    0  0.00000000000E+00  0.00000000000E+00 -0.18660398586E+04  0.18660398586E+04  0.25500000920E-02 0.  1.
    10030    2    1    2    0    0  0.00000000000E+00  0.00000000000E+00 -0.66159884868E+03  0.30704808685E+04  0.29983561708E+04 0.  0.
        2    1    3    3  502    0  0.48883348691E+03  0.26993934669E+03  0.10939656675E+04  0.12282452160E+04  0.25500000920E-02 0. -1.
       -2    1    3    3    0  502 -0.48883348691E+03 -0.26993934669E+03 -0.17555645162E+04  0.18422356525E+04  0.25500000920E-02 0.  1.
</event>
<event>
 5   0  0.4927533E-06  0.2987048E+04  0.7818609E-02  0.8247439E-01
        2   -1    0    0  501    0  0.00000000000E+00  0.00000000000E+00  0.16547346966E+04  0.16547346966E+04  0.25500000920E-02 0.  1.
       -2   -1    0    0    0  501  0.00000000000E+00  0.00000000000E+00 -0.13480193400E+04  0.13480193400E+04  0.25500000920E-02 0. -1.
    10030    2    1    2    0    0  0.00000000000E+00  0.00000000000E+00  0.30671535653E+03  0.30027540366E+04  0.29870482913E+04 0.  0.
        5    1    3    3  502    0 -0.77343280374E+03 -0.10125372348E+04 -0.62994556548E+03  0.14213667575E+04  0.46999998093E+01 0. -1.
       -5    1    3    3    0  502  0.77343280374E+03  0.10125372348E+04  0.93666092200E+03  0.15813872791E+04  0.46999998093E+01 0.  1.
</event>
<event>
 5   0  0.1843709E-06  0.3160876E+04  0.7818609E-02  0.8199227E-01
        1   -1    0    0  501    0  0.00000000000E+00  0.00000000000E+00  0.16727432176E+04  0.16727432176E+04  0.50400001928E-02 0.  1.
       -1   -1    0    0    0  501  0.00000000000E+00  0.00000000000E+00 -0.14932263718E+04  0.14932263718E+04  0.50400001928E-02 0. -1.
    10030    2    1    2    0    0  0.00000000000E+00  0.00000000000E+00  0.17951684575E+03  0.31659695894E+04  0.31608760088E+04 0.  0.
        4    1    3    3  502    0 -0.26908766969E+03  0.61673126095E+03 -0.13425869369E+04  0.15017679309E+04  0.12699999809E+01 0. -1.
       -4    1    3    3    0  502  0.26908766969E+03 -0.61673126095E+03  0.15221037826E+04  0.16642016585E+04  0.12699999809E+01 0.  1.
</event>
<event>
 5   0  0.4900679E-06  0.3095882E+04  0.7818609E-02  0.8216869E-01
        2   -1    0    0  501    0  0.00000000000E+00  0.00000000000E+00  0.86980146710E+03  0.86980146710E+03  0.25500000920E-02 0.  1.
       -2   -1    0    0    0  501  0.00000000000E+00  0.00000000000E+00 -0.27547902582E+04  0.27547902582E+04  0.25500000920E-02 0. -1.
    10030    2    1    2    0    0  0.00000000000E+00  0.00000000000E+00 -0.18849887911E+04  0.36245917253E+04  0.30958815276E+04 0.  0.
        4    1    3    3  502    0  0.14301427582E+04  0.53448510341E+03 -0.64369032720E+03  0.16569011693E+04  0.12699999809E+01 0. -1.
       -4    1    3    3    0  502 -0.14301427582E+04 -0.53448510341E+03 -0.12412984639E+04  0.19676905560E+04  0.12699999809E+01 0.  1.
</event>
<event>
 5   0  0.1853742E-06  0.3086747E+04  0.7818609E-02  0.8219384E-01
        1   -1    0    0  501    0  0.00000000000E+00  0.00000000000E+00  0.18436103073E+04  0.18436103073E+04  0.50400001928E-02 0.  1.
       -1   -1    0    0    0  501  0.00000000000E+00  0.00000000000E+00 -0.12920311133E+04  0.12920311133E+04  0.50400001928E-02 0. -1.
    10030    2    1    2    0    0  0.00000000000E+00  0.00000000000E+00  0.55157919397E+03  0.31356414206E+04  0.30867470761E+04 0.  0.
        5    1    3    3  502    0 -0.99696112982E+03  0.82980852110E+03  0.11253782168E+04  0.17172687317E+04  0.46999998093E+01 0.  1.
       -5    1    3    3    0  502  0.99696112982E+03 -0.82980852110E+03 -0.57379902284E+03  0.14183726889E+04  0.46999998093E+01 0. -1.
</event>
<event>
 5   0  0.5114870E-06  0.3182321E+04  0.7818609E-02  0.8193502E-01
        2   -1    0    0  501    0  0.00000000000E+00  0.00000000000E+00  0.23470969044E+04  0.23470969044E+04  0.25500000920E-02 0. -1.
       -2   -1    0    0    0  501  0.00000000000E+00  0.00000000000E+00 -0.10786906755E+04  0.10786906755E+04  0.25500000920E-02 0.  1.
    10030    2    1    2    0    0  0.00000000000E+00  0.00000000000E+00  0.12684062288E+04  0.34257875799E+04  0.31823208797E+04 0.  0.
        2    1    3    3  502    0  0.65011411589E+03  0.70696727043E+03  0.19998563160E+04  0.22185302274E+04  0.25500000920E-02 0. -1.
       -2    1    3    3    0  502 -0.65011411589E+03 -0.70696727043E+03 -0.73145008719E+03  0.12072573525E+04  0.25500000920E-02 0.  1.
</event>
<event>
 5   0  0.5001658E-06  0.3064753E+04  0.7818609E-02  0.8225478E-01
       -2   -1    0    0    0  501  0.00000000000E+00  0.00000000000E+00  0.14887895935E+04  0.14887895935E+04  0.25500000920E-02 0.  1.
        2   -1    0    0  501    0  0.00000000000E+00  0.00000000000E+00 -0.15772394625E+04  0.15772394625E+04  0.25500000920E-02 0. -1.
    10030    2    1    2    0    0  0.00000000000E+00  0.00000000000E+00 -0.88449869047E+02  0.30660290560E+04  0.30647529742E+04 0.  0.
        3    1    3    3  502    0 -0.97308339119E+03 -0.16725310700E+03 -0.12165971707E+04  0.15668355287E+04  0.10100000352E+00 0. -1.
       -3    1    3    3    0  502  0.97308339119E+03  0.16725310700E+03  0.11281473016E+04  0.14991935273E+04  0.10100000352E+00 0.  1.
</event>
<event>
 5   0  0.1836401E-06  0.3112410E+04  0.7818609E-02  0.8212340E-01
       -1   -1    0    0    0  501  0.00000000000E+00  0.00000000000E+00  0.14193907966E+04  0.14193907966E+04  0.50400001928E-02 0.  1.
        1   -1    0    0  501    0  0.00000000000E+00  0.00000000000E+00 -0.17062065757E+04  0.17062065757E+04  0.50400001928E-02 0. -1.
    10030    2    1    2    0    0  0.00000000000E+00  0.00000000000E+00 -0.28681577909E+03  0.31255973723E+04  0.31124099413E+04 0.  0.
        2    1    3    3  502    0 -0.97448682804E+03 -0.79870491782E+03  0.77381837602E+03  0.14786307865E+04  0.25500000920E-02 0. -1.
       -2    1    3    3    0  502  0.97448682804E+03  0.79870491782E+03 -0.10606341551E+04  0.16469665858E+04  0.25500000920E-02 0.  1.
</event>
<event>
 5   0  0.1853742E-06  0.2899108E+04  0.7818609E-02  0.8273143E-01
       -1   -1    0    0    0  501  0.00000000000E+00  0.00000000000E+00  0.11206355333E+04  0.11206355333E+04  0.50400001928E-02 0.  1.
        1   -1    0    0  501    0  0.00000000000E+00  0.00000000000E+00 -0.18750137626E+04  0.18750137626E+04  0.50400001928E-02 0. -1.
    10030    2    1    2    0    0  0.00000000000E+00  0.00000000000E+00 -0.75437822934E+03  0.29956492959E+04  0.28991081717E+04 0.  0.
        5    1    3    3  502    0  0.90166948178E+03  0.68302864148E+03 -0.13138226610E+04  0.17336920298E+04  0.46999998093E+01 0. -1.
       -5    1    3    3    0  502 -0.90166948178E+03 -0.68302864148E+03  0.55944443168E+03  0.12619572661E+04  0.46999998093E+01 0.  1.
</event>
<event>
 5   0  0.5001658E-06  0.3076062E+04  0.7818609E-02  0.8222338E-01
        2   -1    0    0  501    0  0.00000000000E+00  0.00000000000E+00  0.20730144246E+04  0.20730144246E+04  0.25500000920E-02 0. -1.
       -2   -1    0    0    0  501  0.00000000000E+00  0.00000000000E+00 -0.11411112401E+04  0.11411112401E+04  0.25500000920E-02 0.  1.
    10030    2    1    2    0    0  0.00000000000E+00  0.00000000000E+00  0.93190318446E+03  0.32141256647E+04  0.30760624576E+04 0.  0.
        3    1    3    3  502    0 -0.98807194894E+03  0.80679786179E+02  0.16946313295E+04  0.19633060783E+04  0.10100000352E+00 0. -1.
       -3    1    3    3    0  502  0.98807194894E+03 -0.80679786179E+02 -0.76272814503E+03  0.12508195864E+04  0.10100000352E+00 0.  1.
</event>
<event>
 5   0  0.5001658E-06  0.3105535E+04  0.7818609E-02  0.8214221E-01
       -2   -1    0    0    0  501  0.00000000000E+00  0.00000000000E+00  0.14204188970E+04  0.14204188970E+04  0.25500000920E-02 0. -1.
        2   -1    0    0  501    0  0.00000000000E+00  0.00000000000E+00 -0.16974476501E+04  0.16974476501E+04  0.25500000920E-02 0.  1.
    10030    2    1    2    0    0  0.00000000000E+00  0.00000000000E+00 -0.27702875302E+03  0.31178665471E+04  0.31055348775E+04 0.  0.
        3    1    3    3  502    0  0.30623638290E+02  0.11429007598E+04  0.91633691939E+03  0.14652076010E+04  0.10100000352E+00 0. -1.
       -3    1    3    3    0  502 -0.30623638290E+02 -0.11429007598E+04 -0.11933656724E+04  0.16526589461E+04  0.10100000352E+00 0.  1.
</event>
<event>
 5   0  0.5114870E-06  0.2290588E+04  0.7818609E-02  0.8481641E-01
        2   -1    0    0  501    0  0.00000000000E+00  0.00000000000E+00  0.92733915425E+03  0.92733915426E+03  0.25500000920E-02 0.  1.
       -2   -1    0    0    0  501  0.00000000000E+00  0.00000000000E+00 -0.14144755605E+04  0.14144755605E+04  0.25500000920E-02 0. -1.
    10030    2    1    2    0    0  0.00000000000E+00  0.00000000000E+00 -0.48713640624E+03  0.23418147148E+04  0.22905881952E+04 0.  0.
        2    1    3    3  502    0 -0.80092458981E+03 -0.81387074000E+03 -0.33405052856E+03  0.11897291858E+04  0.25500000920E-02 0. -1.
       -2    1    3    3    0  502  0.80092458981E+03  0.81387074000E+03 -0.15308587768E+03  0.11520855289E+04  0.25500000920E-02 0.  1.
</event>
<event>
 5   0  0.1840431E-06  0.3099035E+04  0.7818609E-02  0.8216003E-01
       -1   -1    0    0    0  501  0.00000000000E+00  0.00000000000E+00  0.14048326342E+04  0.14048326342E+04  0.50400001928E-02 0. -1.
        1   -1    0    0  501    0  0.00000000000E+00  0.00000000000E+00 -0.17091032377E+04  0.17091032377E+04  0.50400001928E-02 0.  1.
    10030    2    1    2    0    0  0.00000000000E+00  0.00000000000E+00 -0.30427060351E+03  0.31139358720E+04  0.30990346908E+04 0.  0.
        1    1    3    3  502    0 -0.52506202344E+03 -0.40812500190E+03  0.12541469445E+04  0.14195565167E+04  0.50400001928E-02 0. -1.
       -1    1    3    3    0  502  0.52506202344E+03  0.40812500190E+03 -0.15584175480E+04  0.16943793553E+04  0.50400001928E-02 0.  1.
</event>
<event>
 5   0  0.4900679E-06  0.3128216E+04  0.7818609E-02  0.8208037E-01
       -2   -1    0    0    0  501  0.00000000000E+00  0.00000000000E+00  0.13377924573E+04  0.13377924573E+04  0.25500000920E-02 0.  1.
        2   -1    0    0  501    0  0.00000000000E+00  0.00000000000E+00 -0.18287099356E+04  0.18287099356E+04  0.25500000920E-02 0. -1.
    10030    2    1    2    0    0  0.00000000000E+00  0.00000000000E+00 -0.49091747825E+03  0.31665023929E+04  0.31282163343E+04 0.  0.
        4    1    3    3  502    0 -0.49018242459E+03 -0.10420893280E+03  0.12543277238E+04  0.13507323801E+04  0.12699999809E+01 0.  1.
       -4    1    3    3    0  502  0.49018242459E+03  0.10420893280E+03 -0.17452452021E+04  0.18157700128E+04  0.12699999809E+01 0. -1.
</event>
<event>
 5   0  0.5001658E-06  0.3117172E+04  0.7818609E-02  0.8211041E-01
        2   -1    0    0  501    0  0.00000000000E+00  0.00000000000E+00  0.12866305848E+04  0.12866305848E+04  0.25500000920E-02 0. -1.
       -2   -1    0    0    0  501  0.00000000000E+00  0.00000000000E+00 -0.18880241979E+04  0.18880241979E+04  0.25500000920E-02 0.  1.
    10030    2    1    2    0    0  0.00000000000E+00  0.00000000000E+00 -0.60139361311E+03  0.31746547827E+04  0.31171715884E+04 0.  0.
        3    1    3    3  502    0 -0.11145384832E+04 -0.10009821762E+04 -0.73877829306E+03  0.16703157558E+04  0.10100000352E+00 0. -1.
       -3    1    3    3    0  502  0.11145384832E+04  0.10009821762E+04  0.13738467995E+03  0.15043390269E+04  0.10100000352E+00 0.  1.
</event>
<event>
 5   0  0.1836401E-06  0.3107228E+04  0.7818609E-02  0.8213757E-01
        1   -1    0    0  501    0  0.00000000000E+00  0.00000000000E+00  0.16468795601E+04  0.16468795602E+04  0.50400001928E-02 0. -1.
       -1   -1    0    0    0  501  0.00000000000E+00  0.00000000000E+00 -0.14656300625E+04  0.14656300625E+04  0.50400001928E-02 0.  1.
    10030    2    1    2    0    0  0.00000000000E+00  0.00000000000E+00  0.18124949766E+03  0.31125096227E+04  0.31072278273E+04 0.  0.
        2    1    3    3  502    0  0.38908418678E+03 -0.16140922254E+03  0.15885853109E+04  0.16434849350E+04  0.25500000920E-02 0. -1.
       -2    1    3    3    0  502 -0.38908418678E+03  0.16140922254E+03 -0.14073358133E+04  0.14690246876E+04  0.25500000920E-02 0.  1.
</event>
<event>
 5   0  0.1840431E-06  0.3084358E+04  0.7818609E-02  0.8220044E-01
       -1   -1    0    0    0  501  0.00000000000E+00  0.00000000000E+00  0.26767594402E+04  0.26767594402E+04  0.50400001928E-02 0. -1.
        1   -1    0    0  501    0  0.00000000000E+00  0.00000000000E+00 -0.88850563908E+03  0.88850563910E+03  0.50400001928E-02 0.  1.
    10030    2    1    2    0    0  0.00000000000E+00  0.00000000000E+00  0.17882538011E+04  0.35652650793E+04  0.30843578632E+04 0.  0.
        1    1    3    3  502    0  0.61941785245E+03  0.23122877982E+02 -0.73817627774E+03  0.96390734019E+03  0.50400001928E-02 0.  1.
       -1    1    3    3    0  502 -0.61941785245E+03 -0.23122877982E+02  0.25264300789E+04  0.26013577391E+04  0.50400001928E-02 0. -1.
</event>
<event>
 5   0  0.5328368E-06  0.2984141E+04  0.7818609E-02  0.8248274E-01
        2   -1    0    0  501    0  0.00000000000E+00  0.00000000000E+00  0.21758985147E+04  0.21758985147E+04  0.25500000920E-02 0. -1.
       -2   -1    0    0    0  501  0.00000000000E+00  0.00000000000E+00 -0.10231519183E+04  0.10231519183E+04  0.25500000920E-02 0.  1.
    10030    2    1    2    0    0  0.00000000000E+00  0.00000000000E+00  0.11527465965E+04  0.31990504330E+04  0.29841412428E+04 0.  0.
        1    1    3    3  502    0  0.32632984374E+02 -0.27946036916E+03  0.21472027455E+04  0.21655582744E+04  0.50400001928E-02 0. -1.
       -1    1    3    3    0  502 -0.32632984374E+02  0.27946036916E+03 -0.99445614899E+03  0.10334921586E+04  0.50400001928E-02 0.  1.
</event>
<event>
 5   0  0.1853742E-06  0.2973306E+04  0.7818609E-02  0.8251395E-01
        1   -1    0    0  501    0  0.00000000000E+00  0.00000000000E+00  0.20615515796E+04  0.20615515796E+04  0.50400001928E-02 0.  1.
       -1   -1    0    0    0  501  0.00000000000E+00  0.00000000000E+00 -0.10720743163E+04  0.10720743163E+04  0.50400001928E-02 0. -1.
    10030    2    1    2    0    0  0.00000000000E+00  0.00000000000E+00  0.98947726327E+03  0.31336258960E+04  0.29733055681E+04 0.  0.
        5    1    3    3  502    0  0.25546961685E+03 -0.13274846026E+04  0.11466665218E+04  0.17726664372E+04  0.46999998093E+01 0.  1.
       -5    1    3    3    0  502 -0.25546961685E+03  0.13274846026E+04 -0.15718925854E+03  0.13609594588E+04  0.46999998093E+01 0. -1.
</event>
<event>
 5   0  0.1840431E-06  0.3045415E+04  0.7818609E-02  0.8230880E-01
       -1   -1    0    0    0  501  0.00000000000E+00  0.00000000000E+00  0.16281605247E+04  0.16281605247E+04  0.50400001928E-02 0. -1.
        1   -1    0    0  501    0  0.00000000000E+00  0.00000000000E+00 -0.14240848317E+04  0.14240848317E+04  0.50400001928E-02 0.  1.
    10030    2    1    2    0    0  0.00000000000E+00  0.00000000000E+00  0.20407569300E+03  0.30522453563E+04  0.30454153784E+04 0.  0.
        1    1    3    3  502    0  0.76609037096E+03 -0.82914110919E+03 -0.92214890703E+03  0.14576446900E+04  0.50400001928E-02 0.  1.
       -1    1    3    3    0  502 -0.76609037096E+03  0.82914110919E+03  0.11262246000E+04  0.15946006664E+04  0.50400001928E-02 0. -1.
</event>
<event>
 5   0  0.5001658E-06  0.3079294E+04  0.7818609E-02  0.8221444E-01
        2   -1    0    0  501    0  0.00000000000E+00  0.00000000000E+00  0.20091751794E+04  0.20091751794E+04  0.25500000920E-02 0. -1.
       -2   -1    0    0    0  501  0.00000000000E+00  0.00000000000E+00 -0.11798436021E+04  0.11798436021E+04  0.25500000920E-02 0.  1.
    10030    2    1    2    0    0  0.00000000000E+00  0.00000000000E+00  0.82933157729E+03  0.31890187815E+04  0.30792937378E+04 0.  0.
        3    1    3    3  502    0 -0.59724383979E+03 -0.85392834063E+03  0.15884629923E+04  0.18997653811E+04  0.10100000352E+00 0. -1.
       -3    1    3    3    0  502  0.59724383979E+03  0.85392834063E+03 -0.75913141497E+03  0.12892534004E+04  0.10100000352E+00 0.  1.
</event>
<event>
 5   0  0.1840431E-06  0.3152784E+04  0.7818609E-02  0.8201399E-01
       -1   -1    0    0    0  501  0.00000000000E+00  0.00000000000E+00  0.12824207582E+04  0.12824207583E+04  0.50400001928E-02 0.  1.
        1   -1    0    0  501    0  0.00000000000E+00  0.00000000000E+00 -0.19377501604E+04  0.19377501604E+04  0.50400001928E-02 0. -1.
    10030    2    1    2    0    0  0.00000000000E+00  0.00000000000E+00 -0.65532940212E+03  0.32201709186E+04  0.31527835511E+04 0.  0.
        1    1    3    3  502    0 -0.20337884447E+03 -0.15587415799E+04 -0.20693172462E+03  0.15855153755E+04  0.50400001928E-02 0.  1.
       -1    1    3    3    0  502  0.20337884447E+03  0.15587415799E+04 -0.44839767751E+03  0.16346555431E+04  0.50400001928E-02 0. -1.
</event>
<event>
 5   0  0.1840431E-06  0.3178034E+04  0.7818609E-02  0.8194642E-01
        1   -1    0    0  501    0  0.00000000000E+00  0.00000000000E+00  0.20297283727E+04  0.20297283727E+04  0.50400001928E-02 0. -1.
       -1   -1    0    0    0  501  0.00000000000E+00  0.00000000000E+00 -0.12439967895E+04  0.12439967895E+04  0.50400001928E-02 0.  1.
    10030    2    1    2    0    0  0.00000000000E+00  0.00000000000E+00  0.78573158325E+03  0.32737251622E+04  0.31780343479E+04 0.  0.
        1    1    3    3  502    0  0.10055021541E+04  0.10351069794E+04 -0.29236613107E+03  0.14723990611E+04  0.50400001928E-02 0.  1.
       -1    1    3    3    0  502 -0.10055021541E+04 -0.10351069794E+04  0.10780977143E+04  0.18013261010E+04  0.50400001928E-02 0. -1.
</event>
<event>
 5   0  0.1836401E-06  0.3067093E+04  0.7818609E-02  0.8224827E-01
       -1   -1    0    0    0  501  0.00000000000E+00  0.00000000000E+00  0.15074293920E+04  0.15074293920E+04  0.50400001928E-02 0.  1.
        1   -1    0    0  501    0  0.00000000000E+00  0.00000000000E+00 -0.15601159122E+04  0.15601159122E+04  0.50400001928E-02 0. -1.
    10030    2    1    2    0    0  0.00000000000E+00  0.00000000000E+00 -0.52686520187E+02  0.30675453042E+04  0.30670928131E+04 0.  0.
        2    1    3    3  502    0  0.12538333444E+04 -0.53524118671E+03 -0.72871704083E+03  0.15458362491E+04  0.25500000920E-02 0. -1.
       -2    1    3    3    0  502 -0.12538333444E+04  0.53524118671E+03  0.67603052064E+03  0.15217090551E+04  0.25500000920E-02 0.  1.
</event>
<event>
 5   0  0.5328368E-06  0.3229366E+04  0.7818609E-02  0.8181105E-01
        2   -1    0    0  501    0  0.00000000000E+00  0.00000000000E+00  0.21831083197E+04  0.21831083197E+04  0.25500000920E-02 0. -1.
       -2   -1    0    0    0  501  0.00000000000E+00  0.00000000000E+00 -0.11942607796E+04  0.11942607797E+04  0.25500000920E-02 0.  1.
    10030    2    1    2    0    0  0.00000000000E+00  0.00000000000E+00  0.98884754010E+03  0.33773690994E+04  0.32293656615E+04 0.  0.
        1    1    3    3  502    0 -0.96426228949E+02  0.78957290669E+03 -0.97513639026E+03  0.12584174078E+04  0.50400001928E-02 0.  1.
       -1    1    3    3    0  502  0.96426228949E+02 -0.78957290669E+03  0.19639839304E+04  0.21189516916E+04  0.50400001928E-02 0. -1.
</event>
<event>
 5   0  0.5001658E-06  0.3098127E+04  0.7818609E-02  0.8216252E-01
       -2   -1    0    0    0  501  0.00000000000E+00  0.00000000000E+00  0.84693157369E+03  0.84693157370E+03  0.25500000920E-02 0.  1.
        2   -1    0    0  501    0  0.00000000000E+00  0.00000000000E+00 -0.28332848202E+04  0.28332848202E+04  0.25500000920E-02 0. -1.
    10030    2    1    2    0    0  0.00000000000E+00  0.00000000000E+00 -0.19863532465E+04  0.36802163939E+04  0.30981274160E+04 0.  0.
        3    1    3    3  502    0  0.12393173232E+04 -0.36937776912E+03 -0.20061924800E+04  0.23868715175E+04  0.10100000352E+00 0. -1.
       -3    1    3    3    0  502 -0.12393173232E+04  0.36937776912E+03  0.19839233503E+02  0.12933448764E+04  0.10100000352E+00 0.  1.
</event>
<event>
 5   0  0.5114870E-06  0.3140819E+04  0.7818609E-02  0.8204624E-01
       -2   -1    0    0    0  501  0.00000000000E+00  0.00000000000E+00  0.17714557464E+04  0.17714557464E+04  0.25500000920E-02 0. -1.
        2   -1    0    0  501    0  0.00000000000E+00  0.00000000000E+00 -0.13921803372E+04  0.13921803373E+04  0.25500000920E-02 0.  1.
    10030    2    1    2    0    0  0.00000000000E+00  0.00000000000E+00  0.37927540918E+03  0.31636360837E+04  0.31408189114E+04 0.  0.
        2    1    3    3  502    0  0.13150909536E+04  0.58523519017E+03 -0.44279413905E+03  0.15059983711E+04  0.25500000920E-02 0.  1.
       -2    1    3    3    0  502 -0.13150909536E+04 -0.58523519017E+03  0.82206954823E+03  0.16576377126E+04  0.25500000920E-02 0. -1.
</event>
<event>
 5   0  0.4900679E-06  0.3026781E+04  0.7818609E-02  0.8236125E-01
       -2   -1    0    0    0  501  0.00000000000E+00  0.00000000000E+00  0.12867874554E+04  0.12867874554E+04  0.25500000920E-02 0.  1.
        2   -1    0    0  501    0  0.00000000000E+00  0.00000000000E+00 -0.17798983259E+04  0.17798983259E+04  0.25500000920E-02 0. -1.
    10030    2    1    2    0    0  0.00000000000E+00  0.00000000000E+00 -0.49311087051E+03  0.30666857814E+04  0.30267810213E+04 0.  0.
        4    1    3    3  502    0  0.91019873215E+03  0.94902137325E+03 -0.10055958113E+04  0.16553935627E+04  0.12699999809E+01 0. -1.
       -4    1    3    3    0  502 -0.91019873215E+03 -0.94902137325E+03  0.51248494081E+03  0.14112922186E+04  0.12699999809E+01 0.  1.
</event>
<event>
 5   0  0.5001658E-06  0.2709093E+04  0.7818609E-02  0.8332061E-01
       -2   -1    0    0    0  501  0.00000000000E+00  0.00000000000E+00  0.15860049579E+04  0.15860049579E+04  0.25500000920E-02 0.  1.
        2   -1    0    0  501    0  0.00000000000E+00  0.00000000000E+00 -0.11568663025E+04  0.11568663025E+04  0.25500000920E-02 0. -1.
    10030    2    1    2    0    0  0.00000000000E+00  0.00000000000E+00  0.42913865536E+03  0.27428712604E+04  0.27090926093E+04 0.  0.
        3    1    3    3  502    0 -0.79876802071E+03 -0.77635095316E+03  0.99492227023E+03  0.14935265272E+04  0.10100000352E+00 0.  1.
       -3    1    3    3    0  502  0.79876802071E+03  0.77635095316E+03 -0.56578361487E+03  0.12493447332E+04  0.10100000352E+00 0. -1.
</event>
<event>
 5   0  0.1840431E-06  0.2427452E+04  0.7818609E-02  0.8429297E-01
        1   -1    0    0  501    0  0.00000000000E+00  0.00000000000E+00  0.17286539822E+04  0.17286539822E+04  0.50400001928E-02 0.  1.
       -1   -1    0    0    0  501  0.00000000000E+00  0.00000000000E+00 -0.85218390476E+03  0.85218390478E+03  0.50400001928E-02 0. -1.
    10030    2    1    2    0    0  0.00000000000E+00  0.00000000000E+00  0.87647007742E+03  0.25808378870E+04  0.24274522451E+04 0.  0.
        1    1    3    3  502    0  0.53159812248E+03  0.95651808403E+03 -0.11992108970E+03  0.11008653309E+04  0.50400001928E-02 0. -1.
       -1    1    3    3    0  502 -0.53159812248E+03 -0.95651808403E+03  0.99639116712E+03  0.14799725561E+04  0.50400001928E-02 0.  1.
</event>
<event>
 5   0  0.4900679E-06  0.3099762E+04  0.7818609E-02  0.8215803E-01
       -2   -1    0    0    0  501  0.00000000000E+00  0.00000000000E+00  0.19378760393E+04  0.19378760393E+04  0.25500000920E-02 0. -1.
        2   -1    0    0  501    0  0.00000000000E+00  0.00000000000E+00 -0.12395690801E+04  0.12395690801E+04  0.25500000920E-02 0.  1.
    10030    2    1    2    0    0  0.00000000000E+00  0.00000000000E+00  0.69830695918E+03  0.31774451194E+04  0.30997620679E+04 0.  0.
        4    1    3    3  502    0  0.71666713953E+03  0.13570583300E+04  0.57116972781E+03  0.16375150597E+04  0.12699999809E+01 0. -1.
       -4    1    3    3    0  502 -0.71666713953E+03 -0.13570583300E+04  0.12713723137E+03  0.15399300596E+04  0.12699999809E+01 0.  1.
</event>
<event>
 5   0  0.5114870E-06  0.3092609E+04  0.7818609E-02  0.8217769E-01
       -2   -1    0    0    0  501  0.00000000000E+00  0.00000000000E+00  0.12492329485E+04  0.12492329485E+04  0.25500000920E-02 0.  1.
        2   -1    0    0  501    0  0.00000000000E+00  0.00000000000E+00 -0.19140210500E+04  0.19140210500E+04  0.25500000920E-02 0. -1.
    10030    2    1    2    0    0  0.00000000000E+00  0.00000000000E+00 -0.66478810152E+03  0.31632539984E+04  0.30926093576E+04 0.  0.
        2    1    3    3  502    0 -0.38016281372E+03  0.14044685610E+04  0.20301564038E+03  0.14691055285E+04  0.25500000920E-02 0. -1.
       -2    1    3    3    0  502  0.38016281372E+03 -0.14044685610E+04 -0.86780374190E+03  0.16941484699E+04  0.25500000920E-02 0.  1.
</event>
<event>
 5   0  0.1836401E-06  0.2570506E+04  0.7818609E-02  0.8378289E-01
        1   -1    0    0  501    0  0.00000000000E+00  0.00000000000E+00  0.14808642617E+04  0.14808642617E+04  0.50400001928E-02 0.  1.
       -1   -1    0    0    0  501  0.00000000000E+00  0.00000000000E+00 -0.11154809745E+04  0.11154809745E+04  0.50400001928E-02 0. -1.
    10030    2    1    2    0    0  0.00000000000E+00  0.00000000000E+00  0.36538328721E+03  0.25963452362E+04  0.25705064946E+04 0.  0.
        2    1    3    3  502    0 -0.11229796626E+04  0.23499665953E+03  0.76779791524E+03  0.13805145386E+04  0.25500000920E-02 0.  1.
       -2    1    3    3    0  502  0.11229796626E+04 -0.23499665953E+03 -0.40241462803E+03  0.12158306977E+04  0.25500000920E-02 0. -1.
</event>
<event>
 5   0  0.1836401E-06  0.2926516E+04  0.7818609E-02  0.8265032E-01
        1   -1    0    0  501    0  0.00000000000E+00  0.00000000000E+00  0.12667013952E+04  0.12667013952E+04  0.50400001928E-02 0.  1.
       -1   -1    0    0    0  501  0.00000000000E+00  0.00000000000E+00 -0.16903145930E+04  0.16903145930E+04  0.50400001928E-02 0. -1.
    10030    2    1    2    0    0  0.00000000000E+00  0.00000000000E+00 -0.42361319787E+03  0.29570159882E+04  0.29265159171E+04 0.  0.
        2    1    3    3  502    0  0.74371023378E+03 -0.82092011817E+03  0.75424828088E+03  0.13401138838E+04  0.25500000920E-02 0.  1.
       -2    1    3    3    0  502 -0.74371023378E+03  0.82092011817E+03 -0.11778614788E+04  0.16169021045E+04  0.25500000920E-02 0. -1.
</event>
<event>
 5   0  0.5328368E-06  0.3046540E+04  0.7818609E-02  0.8230565E-01
       -2   -1    0    0    0  501  0.00000000000E+00  0.00000000000E+00  0.81522894779E+03  0.81522894779E+03  0.25500000920E-02 0. -1.
        2   -1    0    0  501    0  0.00000000000E+00  0.00000000000E+00 -0.28462570442E+04  0.28462570442E+04  0.25500000920E-02 0.  1.
    10030    2    1    2    0    0  0.00000000000E+00  0.00000000000E+00 -0.20310280964E+04  0.36614859920E+04  0.30465397652E+04 0.  0.
        1    1    3    3  502    0  0.40710262911E+02  0.24999714631E+03  0.78974223316E+03  0.82936644104E+03  0.50400001928E-02 0. -1.
       -1    1    3    3    0  502 -0.40710262911E+02 -0.24999714631E+03 -0.28207703295E+04  0.28321195509E+04  0.50400001928E-02 0.  1.
</event>
<event>
 5   0  0.1840431E-06  0.3079479E+04  0.7818609E-02  0.8221392E-01
       -1   -1    0    0    0  501  0.00000000000E+00  0.00000000000E+00  0.15396325235E+04  0.15396325235E+04  0.50400001928E-02 0.  1.
        1   -1    0    0  501    0  0.00000000000E+00  0.00000000000E+00 -0.15398469163E+04  0.15398469163E+04  0.50400001928E-02 0. -1.
    10030    2    1    2    0    0  0.00000000000E+00  0.00000000000E+00 -0.21439278677E+00  0.30794794399E+04  0.30794794324E+04 0.  0.
        1    1    3    3  502    0  0.11458996534E+04 -0.63791607100E+03 -0.80681375231E+03  0.15397958827E+04  0.50400001928E-02 0. -1.
       -1    1    3    3    0  502 -0.11458996534E+04  0.63791607100E+03  0.80659935953E+03  0.15396835572E+04  0.50400001928E-02 0.  1.
</event>
<event>
 5   0  0.1853742E-06  0.3199232E+04  0.7818609E-02  0.8189020E-01
       -1   -1    0    0    0  501  0.00000000000E+00  0.00000000000E+00  0.21376329059E+04  0.21376329059E+04  0.50400001928E-02 0. -1.
        1   -1    0    0  501    0  0.00000000000E+00  0.00000000000E+00 -0.11970116657E+04  0.11970116657E+04  0.50400001928E-02 0.  1.
    10030    2    1    2    0    0  0.00000000000E+00  0.00000000000E+00  0.94062124028E+03  0.33346445716E+04  0.31992321112E+04 0.  0.
        5    1    3    3  502    0  0.63862424836E+03 -0.86439424385E+03 -0.76462910432E+03  0.13189761547E+04  0.46999998093E+01 0.  1.
       -5    1    3    3    0  502 -0.63862424836E+03  0.86439424385E+03  0.17052503446E+04  0.20156684170E+04  0.46999998093E+01 0. -1.
</event>
<event>
 5   0  0.1840431E-06  0.3187907E+04  0.7818609E-02  0.8192018E-01
       -1   -1    0    0    0  501  0.00000000000E+00  0.00000000000E+00  0.15056150783E+04  0.15056150783E+04  0.50400001928E-02 0.  1.
        1   -1    0    0  501    0  0.00000000000E+00  0.00000000000E+00 -0.16874750688E+04  0.16874750688E+04  0.50400001928E-02 0. -1.
    10030    2    1    2    0    0  0.00000000000E+00  0.00000000000E+00 -0.18185999047E+03  0.31930901471E+04  0.31879070927E+04 0.  0.
        1    1    3    3  502    0 -0.61369903633E+03  0.94295411720E+03  0.10400199988E+04  0.15321326875E+04  0.50400001928E-02 0.  1.
       -1    1    3    3    0  502  0.61369903633E+03 -0.94295411720E+03 -0.12218799893E+04  0.16609574596E+04  0.50400001928E-02 0. -1.
</event>
<event>
 5   0  0.1885307E-06  0.3094145E+04  0.7818609E-02  0.8217347E-01
        1   -1    0    0  501    0  0.00000000000E+00  0.00000000000E+00  0.18316379293E+04  0.18316379293E+04  0.50400001928E-02 0. -1.
       -1   -1    0    0    0  501  0.00000000000E+00  0.00000000000E+00 -0.13067172903E+04  0.13067172903E+04  0.50400001928E-02 0.  1.
    10030    2    1    2    0    0  0.00000000000E+00  0.00000000000E+00  0.52492063898E+03  0.31383552196E+04  0.30941447618E+04 0.  0.
        3    1    3    3  502    0  0.14182378064E+04 -0.41125482939E+03  0.73046835536E+03  0.16474565362E+04  0.10100000352E+00 0. -1.
       -3    1    3    3    0  502 -0.14182378064E+04  0.41125482939E+03 -0.20554771638E+03  0.14908986834E+04  0.10100000352E+00 0.  1.
</event>
<event>
 5   0  0.5001658E-06  0.3120289E+04  0.7818609E-02  0.8210192E-01
        2   -1    0    0  501    0  0.00000000000E+00  0.00000000000E+00  0.22289918165E+04  0.22289918165E+04  0.25500000920E-02 0.  1.
       -2   -1    0    0    0  501  0.00000000000E+00  0.00000000000E+00 -0.10919959811E+04  0.10919959811E+04  0.25500000920E-02 0. -1.
    10030    2    1    2    0    0  0.00000000000E+00  0.00000000000E+00  0.11369958353E+04  0.33209877976E+04  0.31202885159E+04 0.  0.
        3    1    3    3  502    0 -0.10879059007E+03  0.42041130504E+03 -0.10263749238E+04  0.11144624500E+04  0.10100000352E+00 0. -1.
       -3    1    3    3    0  502  0.10879059007E+03 -0.42041130504E+03  0.21633707592E+04  0.22065253476E+04  0.10100000352E+00 0.  1.
</event>
<event>
 5   0  0.5328368E-06  0.3009636E+04  0.7818609E-02  0.8240985E-01
       -2   -1    0    0    0  501  0.00000000000E+00  0.00000000000E+00  0.14487556099E+04  0.14487556099E+04  0.25500000920E-02 0.  1.
        2   -1    0    0  501    0  0.00000000000E+00  0.00000000000E+00 -0.15630497692E+04  0.15630497692E+04  0.25500000920E-02 0. -1.
    10030    2    1    2    0    0  0.00000000000E+00  0.00000000000E+00 -0.11429415923E+03  0.30118053791E+04  0.30096359392E+04 0.  0.
        1    1    3    3  502    0  0.41784281041E+03  0.11821483331E+04  0.77556439938E+03  0.14743023547E+04  0.50400001928E-02 0.  1.
       -1    1    3    3    0  502 -0.41784281041E+03 -0.11821483331E+04 -0.88985855861E+03  0.15375030244E+04  0.50400001928E-02 0. -1.
</event>
<event>
 5   0  0.4900679E-06  0.3103839E+04  0.7818609E-02  0.8214685E-01
        2   -1    0    0  501    0  0.00000000000E+00  0.00000000000E+00  0.12623518641E+04  0.12623518641E+04  0.25500000920E-02 0.  1.
       -2   -1    0    0    0  501  0.00000000000E+00  0.00000000000E+00 -0.19079104223E+04  0.19079104223E+04  0.25500000920E-02 0. -1.
    10030    2    1    2    0    0  0.00000000000E+00  0.00000000000E+00 -0.64555855819E+03  0.31702622864E+04  0.31038390925E+04 0.  0.
        4    1    3    3  502    0 -0.11913330623E+04 -0.33154465324E+03 -0.12805327854E+04  0.17801579002E+04  0.12699999809E+01 0. -1.
       -4    1    3    3    0  502  0.11913330623E+04  0.33154465324E+03  0.63497422717E+03  0.13901043862E+04  0.12699999809E+01 0.  1.
</event>
<event>
 5   0  0.1836401E-06  0.3098655E+04  0.7818609E-02  0.8216107E-01
        1   -1    0    0  501    0  0.00000000000E+00  0.00000000000E+00  0.21063488482E+04  0.21063488483E+04  0.50400001928E-02 0. -1.
       -1   -1    0    0    0  501  0.00000000000E+00  0.00000000000E+00 -0.11396094923E+04  0.11396094923E+04  0.50400001928E-02 0.  1.
    10030    2    1    2    0    0  0.00000000000E+00  0.00000000000E+00  0.96673935598E+03  0.32459583405E+04  0.30986546381E+04 0.  0.
        2    1    3    3  502    0 -0.28067507354E+03  0.11764517180E+04 -0.53095759605E+03  0.13208834584E+04  0.25500000920E-02 0.  1.
       -2    1    3    3    0  502  0.28067507354E+03 -0.11764517180E+04  0.14976969520E+04  0.19250748822E+04  0.25500000920E-02 0. -1.
</event>
<event>
 5   0  0.4927533E-06  0.3099173E+04  0.7818609E-02  0.8215965E-01
       -2   -1    0    0    0  501  0.00000000000E+00  0.00000000000E+00  0.10557066846E+04  0.10557066846E+04  0.25500000920E-02 0. -1.
        2   -1    0    0  501    0  0.00000000000E+00  0.00000000000E+00 -0.22745122657E+04  0.22745122657E+04  0.25500000920E-02 0.  1.
    10030    2    1    2    0    0  0.00000000000E+00  0.00000000000E+00 -0.12188055811E+04  0.33302189504E+04  0.30991726659E+04 0.  0.
        5    1    3    3  502    0 -0.89928878448E+03  0.11223628480E+04  0.10471590082E+02  0.14382456065E+04  0.46999998093E+01 0. -1.
       -5    1    3    3    0  502  0.89928878448E+03 -0.11223628480E+04 -0.12292771712E+04  0.18919733439E+04  0.46999998093E+01 0.  1.
</event>
<event>
 5   0  0.4927533E-06  0.3090698E+04  0.7818609E-02  0.8218295E-01
       -2   -1    0    0    0  501  0.00000000000E+00  0.00000000000E+00  0.15528440626E+04  0.15528440626E+04  0.25500000920E-02 0.  1.
        2   -1    0    0  501    0  0.00000000000E+00  0.00000000000E+00 -0.15378900779E+04  0.15378900779E+04  0.25500000920E-02 0. -1.
    10030    2    1    2    0    0  0.00000000000E+00  0.00000000000E+00  0.14953984632E+02  0.30907341405E+04  0.30906979642E+04 0.  0.
        5    1    3    3  502    0 -0.36792936294E+03  0.27705045930E+03  0.14826052418E+04  0.15525042241E+04  0.46999998093E+01 0.  1.
       -5    1    3    3    0  502  0.36792936294E+03 -0.27705045930E+03 -0.14676512571E+04  0.15382299164E+04  0.46999998093E+01 0. -1.
</event>
<event>
 5   0  0.5001658E-06  0.2446214E+04  0.7818609E-02  0.8422402E-01
        2   -1    0    0  501    0  0.00000000000E+00  0.00000000000E+00  0.20454061706E+04  0.20454061706E+04  0.25500000920E-02 0. -1.
       -2   -1    0    0    0  501  0.00000000000E+00  0.00000000000E+00 -0.73139059052E+03  0.73139059053E+03  0.25500000920E-02 0.  1.
    10030    2    1    2    0    0  0.00000000000E+00  0.00000000000E+00  0.13140155801E+04  0.27767967611E+04  0.24462140765E+04 0.  0.
        3    1    3    3  502    0  0.28456306020E+03  0.64025962157E+02 -0.69133436770E+03  0.75034570514E+03  0.10100000352E+00 0.  1.
       -3    1    3    3    0  502 -0.28456306020E+03 -0.64025962157E+02  0.20053499478E+04  0.20264510560E+04  0.10100000352E+00 0. -1.
</event>
<event>
 5   0  0.4927533E-06  0.3124679E+04  0.7818609E-02  0.8208997E-01
       -2   -1    0    0    0  501  0.00000000000E+00  0.00000000000E+00  0.17690210194E+04  0.17690210194E+04  0.25500000920E-02 0. -1.
        2   -1    0    0  501    0  0.00000000000E+00  0.00000000000E+00 -0.13798057447E+04  0.13798057447E+04  0.25500000920E-02 0.  1.
    10030    2    1    2    0    0  0.00000000000E+00  0.00000000000E+00  0.38921527463E+03  0.31488267641E+04  0.31246794172E+04 0.  0.
        5    1    3    3  502    0 -0.44829117582E+03 -0.11183169775E+04  0.11969223585E+04  0.16983059391E+04  0.46999998093E+01 0. -1.
       -5    1    3    3    0  502  0.44829117582E+03  0.11183169775E+04 -0.80770708382E+03  0.14505208250E+04  0.46999998093E+01 0.  1.
</event>
<event>
 5   0  0.5114870E-06  0.3096247E+04  0.7818609E-02  0.8216769E-01
        2   -1    0    0  501    0  0.00000000000E+00  0.00000000000E+00  0.15930375526E+04  0.15930375526E+04  0.25500000920E-02 0.  1.
       -2   -1    0    0    0  501  0.00000000000E+00  0.00000000000E+00 -0.15044754815E+04  0.15044754815E+04  0.25500000920E-02 0. -1.
    10030    2    1    2    0    0  0.00000000000E+00  0.00000000000E+00  0.88562071138E+02  0.30975130341E+04  0.30962467207E+04 0.  0.
        2    1    3    3  502    0  0.12255767354E+04  0.53503516816E+03 -0.73602833495E+03  0.15264464208E+04  0.25500000920E-02 0. -1.
       -2    1    3    3    0  502 -0.12255767354E+04 -0.53503516816E+03  0.82459040608E+03  0.15710666133E+04  0.25500000920E-02 0.  1.
</event>
<event>
 5   0  0.4927533E-06  0.3089013E+04  0.7818609E-02  0.8218760E-01
        2   -1    0    0  501    0  0.00000000000E+00  0.00000000000E+00  0.20073896769E+04  0.20073896769E+04  0.25500000920E-02 0.  1.
       -2   -1    0    0    0  501  0.00000000000E+00  0.00000000000E+00 -0.11883593497E+04  0.11883593497E+04  0.25500000920E-02 0. -1.
    10030    2    1    2    0    0  0.00000000000E+00  0.00000000000E+00  0.81903032717E+03  0.31957490266E+04  0.30890129757E+04 0.  0.
        5    1    3    3  502    0 -0.75777484671E+03 -0.13040953193E+04  0.75355805708E+03  0.16860483847E+04  0.46999998093E+01 0. -1.
       -5    1    3    3    0  502  0.75777484671E+03  0.13040953193E+04  0.65472270085E+02  0.15097006419E+04  0.46999998093E+01 0.  1.
</event>
<event>
 5   0  0.5114870E-06  0.3081697E+04  0.7818609E-02  0.8220779E-01
       -2   -1    0    0    0  501  0.00000000000E+00  0.00000000000E+00  0.13919672618E+04  0.13919672618E+04  0.25500000920E-02 0. -1.
        2   -1    0    0  501    0  0.00000000000E+00  0.00000000000E+00 -0.17056534173E+04  0.17056534173E+04  0.25500000920E-02 0.  1.
    10030    2    1    2    0    0  0.00000000000E+00  0.00000000000E+00 -0.31368615547E+03  0.30976206791E+04  0.30816967514E+04 0.  0.
        2    1    3    3  502    0 -0.10203140734E+04 -0.72629064828E+03 -0.10590750749E+04  0.16401764931E+04  0.25500000920E-02 0.  1.
       -2    1    3    3    0  502  0.10203140734E+04  0.72629064828E+03  0.74538891941E+03  0.14574441860E+04  0.25500000920E-02 0. -1.
</event>
<event>
 5   0  0.4900679E-06  0.3140011E+04  0.7818609E-02  0.8204842E-01
       -2   -1    0    0    0  501  0.00000000000E+00  0.00000000000E+00  0.14800879511E+04  0.14800879511E+04  0.25500000920E-02 0. -1.
        2   -1    0    0  501    0  0.00000000000E+00  0.00000000000E+00 -0.16653861424E+04  0.16653861424E+04  0.25500000920E-02 0.  1.
    10030    2    1    2    0    0  0.00000000000E+00  0.00000000000E+00 -0.18529819132E+03  0.31454740935E+04  0.31400114416E+04 0.  0.
        4    1    3    3  502    0 -0.64194531698E+03 -0.12134160176E+04  0.67054516085E+03  0.15277776826E+04  0.12699999809E+01 0. -1.
       -4    1    3    3    0  502  0.64194531698E+03  0.12134160176E+04 -0.85584335217E+03  0.16176964110E+04  0.12699999809E+01 0.  1.
</event>
<event>
 5   0  0.5328368E-06  0.2900748E+04  0.7818609E-02  0.8272655E-01
       -2   -1    0    0    0  501  0.00000000000E+00  0.00000000000E+00  0.14581766417E+04  0.14581766417E+04  0.25500000920E-02 0. -1.
        2   -1    0    0  501    0  0.00000000000E+00  0.00000000000E+00 -0.14426134089E+04  0.14426134089E+04  0.25500000920E-02 0.  1.
    10030    2    1    2    0    0  0.00000000000E+00  0.00000000000E+00  0.15563232816E+02  0.29007900505E+04  0.29007483005E+04 0.  0.
        1    1    3    3  502    0 -0.61305156128E+03 -0.46914867948E+03  0.12356642959E+04  0.14569828250E+04  0.50400001928E-02 0. -1.
       -1    1    3    3    0  502  0.61305156128E+03  0.46914867948E+03 -0.12201010631E+04  0.14438072255E+04  0.50400001928E-02 0.  1.
</event>
<event>
 5   0  0.1840431E-06  0.3075508E+04  0.7818609E-02  0.8222492E-01
        1   -1    0    0  501    0  0.00000000000E+00  0.00000000000E+00  0.22223213404E+04  0.22223213404E+04  0.50400001928E-02 0. -1.
       -1   -1    0    0    0  501  0.00000000000E+00  0.00000000000E+00 -0.10640618205E+04  0.10640618205E+04  0.50400001928E-02 0.  1.
    10030    2    1    2    0    0  0.00000000000E+00  0.00000000000E+00  0.11582595199E+04  0.32863831609E+04  0.30755079524E+04 0.  0.
        1    1    3    3  502    0 -0.30280451993E+03 -0.14555412378E+04  0.15925482056E+03  0.14952100087E+04  0.50400001928E-02 0. -1.
       -1    1    3    3    0  502  0.30280451993E+03  0.14555412378E+04  0.99900469931E+03  0.17911731523E+04  0.50400001928E-02 0.  1.
</event>
<event>
 5   0  0.1853742E-06  0.3098990E+04  0.7818609E-02  0.8216015E-01
       -1   -1    0    0    0  501  0.00000000000E+00  0.00000000000E+00  0.10235624316E+04  0.10235624316E+04  0.50400001928E-02 0. -1.
        1   -1    0    0  501    0  0.00000000000E+00  0.00000000000E+00 -0.23456647700E+04  0.23456647700E+04  0.50400001928E-02 0.  1.
    10030    2    1    2    0    0  0.00000000000E+00  0.00000000000E+00 -0.13221023384E+04  0.33692272015E+04  0.30989897293E+04 0.  0.
        5    1    3    3  502    0 -0.14349816073E+04 -0.56737650807E+03 -0.50797589609E+03  0.16245460647E+04  0.46999998093E+01 0.  1.
       -5    1    3    3    0  502  0.14349816073E+04  0.56737650807E+03 -0.81412644231E+03  0.17446811369E+04  0.46999998093E+01 0. -1.
</event>
<event>
 5   0  0.1836401E-06  0.3143580E+04  0.7818609E-02  0.8203878E-01
        1   -1    0    0  501    0  0.00000000000E+00  0.00000000000E+00  0.10145300133E+04  0.10145300133E+04  0.50400001928E-02 0.  1.
       -1   -1    0    0    0  501  0.00000000000E+00  0.00000000000E+00 -0.24351417706E+04  0.24351417706E+04  0.50400001928E-02 0. -1.
    10030    2    1    2    0    0  0.00000000000E+00  0.00000000000E+00 -0.14206117573E+04  0.34496717839E+04  0.31435803873E+04 0.  0.
        2    1    3    3  502    0  0.44958241044E+03 -0.27116758743E+02 -0.23628103015E+04  0.24053548976E+04  0.25500000920E-02 0. -1.
       -2    1    3    3    0  502 -0.44958241044E+03  0.27116758743E+02  0.94219854417E+03  0.10443168863E+04  0.25500000920E-02 0.  1.
</event>
<event>
 5   0  0.1649875E-06  0.3159792E+04  0.7818609E-02  0.8199517E-01
        3   -1    0    0  501    0  0.00000000000E+00  0.00000000000E+00  0.11900145941E+04  0.11900145984E+04  0.10100000352E+00 0.  1.
       -3   -1    0    0    0  501  0.00000000000E+00  0.00000000000E+00 -0.20975136778E+04  0.20975136803E+04  0.10100000352E+00 0. -1.
    10030    2    1    2    0    0  0.00000000000E+00  0.00000000000E+00 -0.90749908374E+03  0.32875282786E+04  0.31597923343E+04 0.  0.
        2    1    3    3  502    0  0.11462028017E+04  0.97558708436E+03  0.45785648300E+02  0.15058709597E+04  0.25500000920E-02 0.  1.
       -2    1    3    3    0  502 -0.11462028017E+04 -0.97558708436E+03 -0.95328473204E+03  0.17816573189E+04  0.25500000920E-02 0. -1.
</event>
<event>
 5   0  0.5328368E-06  0.3126486E+04  0.7818609E-02  0.8208506E-01
       -2   -1    0    0    0  501  0.00000000000E+00  0.00000000000E+00  0.21281878284E+04  0.21281878284E+04  0.25500000920E-02 0. -1.
        2   -1    0    0  501    0  0.00000000000E+00  0.00000000000E+00 -0.11482675814E+04  0.11482675814E+04  0.25500000920E-02 0.  1.
    10030    2    1    2    0    0  0.00000000000E+00  0.00000000000E+00  0.97992024692E+03  0.32764554098E+04  0.31264862645E+04 0.  0.
        1    1    3    3  502    0  0.55733148431E+03  0.40506653953E+03  0.19604908468E+04  0.20780331194E+04  0.50400001928E-02 0. -1.
       -1    1    3    3    0  502 -0.55733148431E+03 -0.40506653953E+03 -0.98057059986E+03  0.11984222904E+04  0.50400001928E-02 0.  1.
</event>
<event>
 5   0  0.4900679E-06  0.3094577E+04  0.7818609E-02  0.8217228E-01
        2   -1    0    0  501    0  0.00000000000E+00  0.00000000000E+00  0.22154773312E+04  0.22154773312E+04  0.25500000920E-02 0. -1.
       -2   -1    0    0    0  501  0.00000000000E+00  0.00000000000E+00 -0.10806255975E+04  0.10806255975E+04  0.25500000920E-02 0.  1.
    10030    2    1    2    0    0  0.00000000000E+00  0.00000000000E+00  0.11348517336E+04  0.32961029287E+04  0.30945768789E+04 0.  0.
        4    1    3    3  502    0  0.77541267520E+03 -0.12472472933E+04  0.48667252767E+02  0.14694423234E+04  0.12699999809E+01 0.  1.
       -4    1    3    3    0  502 -0.77541267520E+03  0.12472472933E+04  0.10861844809E+04  0.18266606053E+04  0.12699999809E+01 0. -1.
</event>
<event>
 5   0  0.1843709E-06  0.3022114E+04  0.7818609E-02  0.8237444E-01
       -1   -1    0    0    0  501  0.00000000000E+00  0.00000000000E+00  0.17377782239E+04  0.17377782239E+04  0.50400001928E-02 0.  1.
        1   -1    0    0  501    0  0.00000000000E+00  0.00000000000E+00 -0.13139152365E+04  0.13139152365E+04  0.50400001928E-02 0. -1.
    10030    2    1    2    0    0  0.00000000000E+00  0.00000000000E+00  0.42386298741E+03  0.30516934604E+04  0.30221140190E+04 0.  0.
        4    1    3    3  502    0  0.21563307652E+03 -0.10891839422E+04 -0.82302568802E+03  0.13820970225E+04  0.12699999809E+01 0. -1.
       -4    1    3    3    0  502 -0.21563307652E+03  0.10891839422E+04  0.12468886754E+04  0.16695964379E+04  0.12699999809E+01 0.  1.
</event>
<event>
 5   0  0.1836401E-06  0.3086060E+04  0.7818609E-02  0.8219574E-01
       -1   -1    0    0    0  501  0.00000000000E+00  0.00000000000E+00  0.11547792929E+04  0.11547792929E+04  0.50400001928E-02 0. -1.
        1   -1    0    0  501    0  0.00000000000E+00  0.00000000000E+00 -0.20618156892E+04  0.20618156892E+04  0.50400001928E-02 0.  1.
    10030    2    1    2    0    0  0.00000000000E+00  0.00000000000E+00 -0.90703639635E+03  0.32165949821E+04  0.30860603129E+04 0.  0.
        2    1    3    3  502    0 -0.85688348287E+03  0.86489644799E+03 -0.14415854595E+04  0.18869191307E+04  0.25500000920E-02 0.  1.
       -2    1    3    3    0  502  0.85688348287E+03 -0.86489644799E+03  0.53454906310E+03  0.13296758514E+04  0.25500000920E-02 0. -1.
</event>
<event>
 5   0  0.1836401E-06  0.3033374E+04  0.7818609E-02  0.8234265E-01
        1   -1    0    0  501    0  0.00000000000E+00  0.00000000000E+00  0.14675239042E+04  0.14675239042E+04  0.50400001928E-02 0.  1.
       -1   -1    0    0    0  501  0.00000000000E+00  0.00000000000E+00 -0.15674969092E+04  0.15674969092E+04  0.50400001928E-02 0. -1.
    10030    2    1    2    0    0  0.00000000000E+00  0.00000000000E+00 -0.99973004949E+02  0.30350208134E+04  0.30333738207E+04 0.  0.
        2    1    3    3  502    0 -0.46132051906E+03 -0.77051398084E+03  0.11729008109E+04  0.14772287326E+04  0.25500000920E-02 0.  1.
       -2    1    3    3    0  502  0.46132051906E+03  0.77051398084E+03 -0.12728738159E+04  0.15577920809E+04  0.25500000920E-02 0. -1.
</event>
<event>
 5   0  0.5114870E-06  0.3131116E+04  0.7818609E-02  0.8207250E-01
        2   -1    0    0  501    0  0.00000000000E+00  0.00000000000E+00  0.17724515972E+04  0.17724515972E+04  0.25500000920E-02 0. -1.
       -2   -1    0    0    0  501  0.00000000000E+00  0.00000000000E+00 -0.13828146658E+04  0.13828146658E+04  0.25500000920E-02 0.  1.
    10030    2    1    2    0    0  0.00000000000E+00  0.00000000000E+00  0.38963693140E+03  0.31552662630E+04  0.31311161352E+04 0.  0.
        2    1    3    3  502    0 -0.36629480916E+03  0.21817956238E+03  0.17128228287E+04  0.17650881710E+04  0.25500000920E-02 0. -1.
       -2    1    3    3    0  502  0.36629480916E+03 -0.21817956238E+03 -0.13231858973E+04  0.13901780920E+04  0.25500000920E-02 0.  1.
</event>
<event>
 5   0  0.1840431E-06  0.3081330E+04  0.7818609E-02  0.8220880E-01
       -1   -1    0    0    0  501  0.00000000000E+00  0.00000000000E+00  0.14942208281E+04  0.14942208281E+04  0.50400001928E-02 0. -1.
        1   -1    0    0  501    0  0.00000000000E+00  0.00000000000E+00 -0.15885532114E+04  0.15885532114E+04  0.50400001928E-02 0.  1.
    10030    2    1    2    0    0  0.00000000000E+00  0.00000000000E+00 -0.94332383295E+02  0.30827740396E+04  0.30813304238E+04 0.  0.
        1    1    3    3  502    0  0.13094402312E+04  0.55929250020E+03 -0.63583583616E+03  0.15594002150E+04  0.50400001928E-02 0.  1.
       -1    1    3    3    0  502 -0.13094402312E+04 -0.55929250020E+03  0.54150345286E+03  0.15233738246E+04  0.50400001928E-02 0. -1.
</event>
<event>
 5   0  0.1843709E-06  0.3099925E+04  0.7818609E-02  0.8215759E-01
       -1   -1    0    0    0  501  0.00000000000E+00  0.00000000000E+00  0.97715711036E+03  0.97715711037E+03  0.50400001928E-02 0.  1.
        1   -1    0    0  501    0  0.00000000000E+00  0.00000000000E+00 -0.24585439331E+04  0.24585439331E+04  0.50400001928E-02 0. -1.
    10030    2    1    2    0    0  0.00000000000E+00  0.00000000000E+00 -0.14813868227E+04  0.34357010435E+04  0.30999249574E+04 0.  0.
        4    1    3    3  502    0 -0.24400646618E+03  0.89729341534E+03  0.63366829044E+03  0.11252607449E+04  0.12699999809E+01 0.  1.
       -4    1    3    3    0  502  0.24400646618E+03 -0.89729341534E+03 -0.21150551132E+04  0.23104402986E+04  0.12699999809E+01 0. -1.
</event>
<event>
 5   0  0.1885307E-06  0.3082533E+04  0.7818609E-02  0.8220548E-01
       -1   -1    0    0    0  501  0.00000000000E+00  0.00000000000E+00  0.15186270101E+04  0.15186270101E+04  0.50400001928E-02 0.  1.
        1   -1    0    0  501    0  0.00000000000E+00  0.00000000000E+00 -0.15642430542E+04  0.15642430542E+04  0.50400001928E-02 0. -1.
    10030    2    1    2    0    0  0.00000000000E+00  0.00000000000E+00 -0.45616044147E+02  0.30828700644E+04  0.30825325643E+04 0.  0.
        3    1    3    3  502    0 -0.10351787834E+04  0.85238624599E+03  0.73710693883E+03  0.15301908624E+04  0.10100000352E+00 0.  1.
       -3    1    3    3    0  502  0.10351787834E+04 -0.85238624599E+03 -0.78272298297E+03  0.15526792020E+04  0.10100000352E+00 0. -1.
</event>
<event>
 5   0  0.1843709E-06  0.3182152E+04  0.7818609E-02  0.8193547E-01
       -1   -1    0    0    0  501  0.00000000000E+00  0.00000000000E+00  0.11805398143E+04  0.11805398143E+04  0.50400001928E-02 0.  1.
        1   -1    0    0  501    0  0.00000000000E+00  0.00000000000E+00 -0.21443777977E+04  0.21443777978E+04  0.50400001928E-02 0. -1.
    10030    2    1    2    0    0  0.00000000000E+00  0.00000000000E+00 -0.96383798341E+03  0.33249176121E+04  0.31821523328E+04 0.  0.
        4    1    3    3  502    0  0.91355670228E+03 -0.57849376851E+03  0.73761314971E+03  0.13089368434E+04  0.12699999809E+01 0.  1.
       -4    1    3    3    0  502 -0.91355670228E+03  0.57849376851E+03 -0.17014511331E+04  0.20159807687E+04  0.12699999809E+01 0. -1.
</event>
<event>
 5   0  0.4900679E-06  0.3115285E+04  0.7818609E-02  0.8211556E-01
        2   -1    0    0  501    0  0.00000000000E+00  0.00000000000E+00  0.27216453668E+04  0.27216453668E+04  0.25500000920E-02 0. -1.
       -2   -1    0    0    0  501  0.00000000000E+00  0.00000000000E+00 -0.89146451669E+03  0.89146451669E+03  0.25500000920E-02 0.  1.
    10030    2    1    2    0    0  0.00000000000E+00  0.00000000000E+00  0.18301808501E+04  0.36131098835E+04  0.31152850730E+04 0.  0.
        4    1    3    3  502    0 -0.24735175794E+03  0.20831867940E+03  0.26822816064E+04  0.27017060893E+04  0.12699999809E+01 0. -1.
       -4    1    3    3    0  502  0.24735175794E+03 -0.20831867940E+03 -0.85210075624E+03  0.91140379418E+03  0.12699999809E+01 0.  1.
</event>
<event>
 5   0  0.5114870E-06  0.3120551E+04  0.7818609E-02  0.8210120E-01
       -2   -1    0    0    0  501  0.00000000000E+00  0.00000000000E+00  0.29286119249E+04  0.29286119249E+04  0.25500000920E-02 0. -1.
        2   -1    0    0  501    0  0.00000000000E+00  0.00000000000E+00 -0.83126751832E+03  0.83126751832E+03  0.25500000920E-02 0.  1.
    10030    2    1    2    0    0  0.00000000000E+00  0.00000000000E+00  0.20973444066E+04  0.37598794432E+04  0.31205512122E+04 0.  0.
        2    1    3    3  502    0 -0.66633747520E+03 -0.13962929213E+04  0.12921062445E+04  0.20157326460E+04  0.25500000920E-02 0. -1.
       -2    1    3    3    0  502  0.66633747520E+03  0.13962929213E+04  0.80523816207E+03  0.17441467973E+04  0.25500000920E-02 0.  1.
</event>
<event>
 5   0  0.4927533E-06  0.3136829E+04  0.7818609E-02  0.8205703E-01
        2   -1    0    0  501    0  0.00000000000E+00  0.00000000000E+00  0.31734232276E+04  0.31734232276E+04  0.25500000920E-02 0. -1.
       -2   -1    0    0    0  501  0.00000000000E+00  0.00000000000E+00 -0.77516394414E+03  0.77516394415E+03  0.25500000920E-02 0.  1.
    10030    2    1    2    0    0  0.00000000000E+00  0.00000000000E+00  0.23982592834E+04  0.39485871717E+04  0.31368285038E+04 0.  0.
        5    1    3    3  502    0 -0.47118926733E+03  0.22548080705E+03 -0.66244023628E+03  0.84362911083E+03  0.46999998093E+01 0.  1.
       -5    1    3    3    0  502  0.47118926733E+03 -0.22548080705E+03  0.30606995197E+04  0.31049580609E+04  0.46999998093E+01 0. -1.
</event>
<event>
 5   0  0.5001658E-06  0.3160454E+04  0.7818609E-02  0.8199340E-01
       -2   -1    0    0    0  501  0.00000000000E+00  0.00000000000E+00  0.23240757397E+04  0.23240757397E+04  0.25500000920E-02 0.  1.
        2   -1    0    0  501    0  0.00000000000E+00  0.00000000000E+00 -0.10744560972E+04  0.10744560972E+04  0.25500000920E-02 0. -1.
    10030    2    1    2    0    0  0.00000000000E+00  0.00000000000E+00  0.12496196426E+04  0.33985318369E+04  0.31604539856E+04 0.  0.
        3    1    3    3  502    0 -0.10570131722E+03 -0.15766877269E+04  0.62547449374E+03  0.16995103145E+04  0.10100000352E+00 0. -1.
       -3    1    3    3    0  502  0.10570131722E+03  0.15766877269E+04  0.62414514884E+03  0.16990215224E+04  0.10100000352E+00 0.  1.
</event>
<event>
 5   0  0.5328368E-06  0.2885962E+04  0.7818609E-02  0.8277066E-01
       -2   -1    0    0    0  501  0.00000000000E+00  0.00000000000E+00  0.99137721350E+03  0.99137721350E+03  0.25500000920E-02 0.  1.
        2   -1    0    0  501    0  0.00000000000E+00  0.00000000000E+00 -0.21003051083E+04  0.21003051083E+04  0.25500000920E-02 0. -1.
    10030    2    1    2    0    0  0.00000000000E+00  0.00000000000E+00 -0.11089278948E+04  0.30916823218E+04  0.28859623184E+04 0.  0.
        1    1    3    3  502    0  0.78775101662E+02 -0.48173893707E+03 -0.20091686940E+04  0.20676162026E+04  0.50400001928E-02 0. -1.
       -1    1    3    3    0  502 -0.78775101662E+02  0.48173893707E+03  0.90024079916E+03  0.10240661193E+04  0.50400001928E-02 0.  1.
</event>
<event>
 5   0  0.1885307E-06  0.3182418E+04  0.7818609E-02  0.8193476E-01
       -1   -1    0    0    0  501  0.00000000000E+00  0.00000000000E+00  0.10857496741E+04  0.10857496742E+04  0.50400001928E-02 0. -1.
        1   -1    0    0  501    0  0.00000000000E+00  0.00000000000E+00 -0.23319800241E+04  0.23319800241E+04  0.50400001928E-02 0.  1.
    10030    2    1    2    0    0  0.00000000000E+00  0.00000000000E+00 -0.12462303499E+04  0.34177296982E+04  0.31824182951E+04 0.  0.
        3    1    3    3  502    0 -0.61474403509E+03 -0.14662556824E+04 -0.55409337314E+03  0.16836969535E+04  0.10100000352E+00 0. -1.
       -3    1    3    3    0  502  0.61474403509E+03  0.14662556824E+04 -0.69213697677E+03  0.17340327447E+04  0.10100000352E+00 0.  1.
</event>
<event>
 5   0  0.1885307E-06  0.3147857E+04  0.7818609E-02  0.8202725E-01
        1   -1    0    0  501    0  0.00000000000E+00  0.00000000000E+00  0.18470846910E+04  0.18470846910E+04  0.50400001928E-02 0. -1.
       -1   -1    0    0    0  501  0.00000000000E+00  0.00000000000E+00 -0.13411678667E+04  0.13411678667E+04  0.50400001928E-02 0.  1.
    10030    2    1    2    0    0  0.00000000000E+00  0.00000000000E+00  0.50591682429E+03  0.31882525577E+04  0.31478568167E+04 0.  0.
        3    1    3    3  502    0 -0.13347492144E+04 -0.32257048397E+03 -0.52609596925E+03  0.14705047302E+04  0.10100000352E+00 0.  1.
       -3    1    3    3    0  502  0.13347492144E+04  0.32257048397E+03  0.10320127935E+04  0.17177478275E+04  0.10100000352E+00 0. -1.
</event>
<event>
 5   0  0.4927533E-06  0.2645756E+04  0.7818609E-02  0.8352823E-01
        2   -1    0    0  501    0  0.00000000000E+00  0.00000000000E+00  0.13840132838E+04  0.13840132838E+04  0.25500000920E-02 0. -1.
       -2   -1    0    0    0  501  0.00000000000E+00  0.00000000000E+00 -0.12644431261E+04  0.12644431261E+04  0.25500000920E-02 0.  1.
    10030    2    1    2    0    0  0.00000000000E+00  0.00000000000E+00  0.11957015763E+03  0.26484564099E+04  0.26457559095E+04 0.  0.
        5    1    3    3  502    0 -0.31535505834E+03 -0.32601620853E+02  0.13454138112E+04  0.13822706291E+04  0.46999998093E+01 0. -1.
       -5    1    3    3    0  502  0.31535505834E+03  0.32601620853E+02 -0.12258436536E+04  0.12661857808E+04  0.46999998093E+01 0.  1.
</event>
<event>
 5   0  0.1843709E-06  0.3070077E+04  0.7818609E-02  0.8223998E-01
        1   -1    0    0  501    0  0.00000000000E+00  0.00000000000E+00  0.12599122184E+04  0.12599122184E+04  0.50400001928E-02 0.  1.
       -1   -1    0    0    0  501  0.00000000000E+00  0.00000000000E+00 -0.18702439204E+04  0.18702439204E+04  0.50400001928E-02 0. -1.
    10030    2    1    2    0    0  0.00000000000E+00  0.00000000000E+00 -0.61033170199E+03  0.31301561388E+04  0.30700769806E+04 0.  0.
        4    1    3    3  502    0 -0.39792271283E+03 -0.12146398311E+04 -0.11718891756E+04  0.17340756205E+04  0.12699999809E+01 0. -1.
       -4    1    3    3    0  502  0.39792271283E+03  0.12146398311E+04  0.56155747364E+03  0.13960805184E+04  0.12699999809E+01 0.  1.
</event>
<event>
 5   0  0.5328368E-06  0.3092904E+04  0.7818609E-02  0.8217688E-01
       -2   -1    0    0    0  501  0.00000000000E+00  0.00000000000E+00  0.12557427759E+04  0.12557427759E+04  0.25500000920E-02 0.  1.
        2   -1    0    0  501    0  0.00000000000E+00  0.00000000000E+00 -0.19044619283E+04  0.19044619283E+04  0.25500000920E-02 0. -1.
    10030    2    1    2    0    0  0.00000000000E+00  0.00000000000E+00 -0.64871915242E+03  0.31602047042E+04  0.30929043364E+04 0.  0.
        1    1    3    3  502    0  0.26732043229E+03  0.69857086987E+03  0.10586262362E+04  0.12962063808E+04  0.50400001928E-02 0.  1.
       -1    1    3    3    0  502 -0.26732043229E+03 -0.69857086987E+03 -0.17073453886E+04  0.18639983234E+04  0.50400001928E-02 0. -1.
</event>
<event>
 5   0  0.5001658E-06  0.3051410E+04  0.7818609E-02  0.8229201E-01
       -2   -1    0    0    0  501  0.00000000000E+00  0.00000000000E+00  0.95939164595E+03  0.95939164596E+03  0.25500000920E-02 0.  1.
        2   -1    0    0  501    0  0.00000000000E+00  0.00000000000E+00 -0.24263046347E+04  0.24263046347E+04  0.25500000920E-02 0. -1.
    10030    2    1    2    0    0  0.00000000000E+00  0.00000000000E+00 -0.14669129887E+04  0.33856962806E+04  0.30514104260E+04 0.  0.
        3    1    3    3  502    0  0.24602423453E+03  0.62492992595E+03  0.78655221457E+03  0.10342773964E+04  0.10100000352E+00 0.  1.
       -3    1    3    3    0  502 -0.24602423453E+03 -0.62492992595E+03 -0.22534652033E+04  0.23514188842E+04  0.10100000352E+00 0. -1.
</event>
<event>
 5   0  0.1885307E-06  0.3057994E+04  0.7818609E-02  0.8227361E-01
        1   -1    0    0  501    0  0.00000000000E+00  0.00000000000E+00  0.18544743912E+04  0.18544743912E+04  0.50400001928E-02 0.  1.
       -1   -1    0    0    0  501  0.00000000000E+00  0.00000000000E+00 -0.12606441159E+04  0.12606441159E+04  0.50400001928E-02 0. -1.
    10030    2    1    2    0    0  0.00000000000E+00  0.00000000000E+00  0.59383027536E+03  0.31151185071E+04  0.30579942638E+04 0.  0.
        3    1    3    3  502    0 -0.13068494964E+04 -0.39502411824E+03  0.99820276915E+03  0.16912446419E+04  0.10100000352E+00 0.  1.
       -3    1    3    3    0  502  0.13068494964E+04  0.39502411824E+03 -0.40437249379E+03  0.14238738652E+04  0.10100000352E+00 0. -1.
</event>
<event>
 5   0  0.5001658E-06  0.3078174E+04  0.7818609E-02  0.8221754E-01
        2   -1    0    0  501    0  0.00000000000E+00  0.00000000000E+00  0.16451145447E+04  0.16451145447E+04  0.25500000920E-02 0. -1.
       -2   -1    0    0    0  501  0.00000000000E+00  0.00000000000E+00 -0.14398928986E+04  0.14398928986E+04  0.25500000920E-02 0.  1.
    10030    2    1    2    0    0  0.00000000000E+00  0.00000000000E+00  0.20522164610E+03  0.30850074433E+04  0.30781739719E+04 0.  0.
        3    1    3    3  502    0 -0.12940170137E+04 -0.60448656170E+03  0.67738612429E+03  0.15807390698E+04  0.10100000352E+00 0. -1.
       -3    1    3    3    0  502  0.12940170137E+04  0.60448656170E+03 -0.47216447819E+03  0.15042683736E+04  0.10100000352E+00 0.  1.
</event>
<event>
 5   0  0.5328368E-06  0.3104369E+04  0.7818609E-02  0.8214540E-01
        2   -1    0    0  501    0  0.00000000000E+00  0.00000000000E+00  0.13194836595E+04  0.13194836595E+04  0.25500000920E-02 0. -1.
       -2   -1    0    0    0  501  0.00000000000E+00  0.00000000000E+00 -0.18259234267E+04  0.18259234267E+04  0.25500000920E-02 0.  1.
    10030    2    1    2    0    0  0.00000000000E+00  0.00000000000E+00 -0.50643976722E+03  0.31454070862E+04  0.31043686154E+04 0.  0.
        1    1    3    3  502    0  0.16116878478E+03  0.94171140303E+02  0.13080698169E+04  0.13213213942E+04  0.50400001928E-02 0. -1.
       -1    1    3    3    0  502 -0.16116878478E+03 -0.94171140303E+02 -0.18145095841E+04  0.18240856920E+04  0.50400001928E-02 0.  1.
</event>
<event>
 5   0  0.1836401E-06  0.2846516E+04  0.7818609E-02  0.8288971E-01
        1   -1    0    0  501    0  0.00000000000E+00  0.00000000000E+00  0.19373758430E+04  0.19373758430E+04  0.50400001928E-02 0. -1.
       -1   -1    0    0    0  501  0.00000000000E+00  0.00000000000E+00 -0.10455704981E+04  0.10455704981E+04  0.50400001928E-02 0.  1.
    10030    2    1    2    0    0  0.00000000000E+00  0.00000000000E+00  0.89180534496E+03  0.29829463411E+04  0.28465157826E+04 0.  0.
        2    1    3    3  502    0 -0.61244765710E+03  0.48312853690E+03  0.16934037713E+04  0.18644360135E+04  0.25500000920E-02 0. -1.
       -2    1    3    3    0  502  0.61244765710E+03 -0.48312853690E+03 -0.80159842634E+03  0.11185103276E+04  0.25500000920E-02 0.  1.
</event>
<event>
 5   0  0.4900679E-06  0.3097142E+04  0.7818609E-02  0.8216523E-01
        2   -1    0    0  501    0  0.00000000000E+00  0.00000000000E+00  0.22996614564E+04  0.22996614564E+04  0.25500000920E-02 0. -1.
       -2   -1    0    0    0  501  0.00000000000E+00  0.00000000000E+00 -0.10427933026E+04  0.10427933026E+04  0.25500000920E-02 0.  1.
    10030    2    1    2    0    0  0.00000000000E+00  0.00000000000E+00  0.12568681538E+04  0.33424547591E+04  0.30971416274E+04 0.  0.
        4    1    3    3  502    0  0.43113247534E+03 -0.93699240381E+03 -0.61814963103E+03  0.12024726838E+04  0.12699999809E+01 0.  1.
       -4    1    3    3    0  502 -0.43113247534E+03  0.93699240381E+03  0.18750177848E+04  0.21399820752E+04  0.12699999809E+01 0. -1.
</event>
<event>
 5   0  0.5114870E-06  0.2863925E+04  0.7818609E-02  0.8283693E-01
        2   -1    0    0  501    0  0.00000000000E+00  0.00000000000E+00  0.15881763142E+04  0.15881763142E+04  0.25500000920E-02 0. -1.
       -2   -1    0    0    0  501  0.00000000000E+00  0.00000000000E+00 -0.12911135190E+04  0.12911135190E+04  0.25500000920E-02 0.  1.
    10030    2    1    2    0    0  0.00000000000E+00  0.00000000000E+00  0.29706279515E+03  0.28792898332E+04  0.28639245170E+04 0.  0.
        2    1    3    3  502    0 -0.11832889774E+03 -0.46842769105E+03  0.15037582475E+04  0.15794667127E+04  0.25500000920E-02 0. -1.
       -2    1    3    3    0  502  0.11832889774E+03  0.46842769105E+03 -0.12066954523E+04  0.12998231205E+04  0.25500000920E-02 0.  1.
</event>
<event>
 5   0  0.1885307E-06  0.2508778E+04  0.7818609E-02  0.8399865E-01
        1   -1    0    0  501    0  0.00000000000E+00  0.00000000000E+00  0.14530436670E+04  0.14530436670E+04  0.50400001928E-02 0. -1.
       -1   -1    0    0    0  501  0.00000000000E+00  0.00000000000E+00 -0.10828939606E+04  0.10828939606E+04  0.50400001928E-02 0.  1.
    10030    2    1    2    0    0  0.00000000000E+00  0.00000000000E+00  0.37014970631E+03  0.25359376276E+04  0.25087783573E+04 0.  0.
        3    1    3    3  502    0  0.10094389592E+04  0.71886076444E+03  0.38150923836E+03  0.12966407059E+04  0.10100000352E+00 0. -1.
       -3    1    3    3    0  502 -0.10094389592E+04 -0.71886076444E+03 -0.11359532046E+02  0.12392969217E+04  0.10100000352E+00 0.  1.
</event>
<event>
 5   0  0.1843709E-06  0.2748663E+04  0.7818609E-02  0.8319386E-01
        1   -1    0    0  501    0  0.00000000000E+00  0.00000000000E+00  0.18600123199E+04  0.18600123199E+04  0.50400001928E-02 0. -1.
       -1   -1    0    0    0  501  0.00000000000E+00  0.00000000000E+00 -0.10154700323E+04  0.10154700323E+04  0.50400001928E-02 0.  1.
    10030    2    1    2    0    0  0.00000000000E+00  0.00000000000E+00  0.84454228760E+03  0.28754823521E+04  0.27486627807E+04 0.  0.
        4    1    3    3  502    0  0.66513431848E+03  0.11514686347E+04  0.59121657777E+02  0.13310825150E+04  0.12699999809E+01 0. -1.
       -4    1    3    3    0  502 -0.66513431848E+03 -0.11514686347E+04  0.78542062983E+03  0.15443998372E+04  0.12699999809E+01 0.  1.
</event>
<event>
 5   0  0.1853742E-06  0.3196860E+04  0.7818609E-02  0.8189647E-01
       -1   -1    0    0    0  501  0.00000000000E+00  0.00000000000E+00  0.19572324158E+04  0.19572324158E+04  0.50400001928E-02 0.  1.
        1   -1    0    0  501    0  0.00000000000E+00  0.00000000000E+00 -0.13054037547E+04  0.13054037547E+04  0.50400001928E-02 0. -1.
    10030    2    1    2    0    0  0.00000000000E+00  0.00000000000E+00  0.65182866110E+03  0.32626361705E+04  0.31968600498E+04 0.  0.
        5    1    3    3  502    0 -0.65919850953E+03 -0.36405819260E+03 -0.11130154572E+04  0.13438402214E+04  0.46999998093E+01 0. -1.
       -5    1    3    3    0  502  0.65919850953E+03  0.36405819260E+03  0.17648441183E+04  0.19187959492E+04  0.46999998093E+01 0.  1.
</event>
<event>
 5   0  0.1843709E-06  0.3112595E+04  0.7818609E-02  0.8212290E-01
        1   -1    0    0  501    0  0.00000000000E+00  0.00000000000E+00  0.20890094863E+04  0.20890094863E+04  0.50400001928E-02 0.  1.
       -1   -1    0    0    0  501  0.00000000000E+00  0.00000000000E+00 -0.11594310866E+04  0.11594310866E+04  0.50400001928E-02 0. -1.
    10030    2    1    2    0    0  0.00000000000E+00  0.00000000000E+00  0.92957839964E+03  0.32484405729E+04  0.31125954049E+04 0.  0.
        4    1    3    3  502    0  0.14810008738E+03 -0.71129114550E+03  0.19011524192E+04  0.20352520393E+04  0.12699999809E+01 0.  1.
       -4    1    3    3    0  502 -0.14810008738E+03  0.71129114550E+03 -0.97157401958E+03  0.12131885336E+04  0.12699999809E+01 0. -1.
</event>
<event>
 5   0  0.1840431E-06  0.3653520E+04  0.7818609E-02  0.8078341E-01
        1   -1    0    0  501    0  0.00000000000E+00  0.00000000000E+00  0.28400523580E+04  0.28400523580E+04  0.50400001928E-02 0. -1.
       -1   -1    0    0    0  501  0.00000000000E+00  0.00000000000E+00 -0.11749966858E+04  0.11749966858E+04  0.50400001928E-02 0.  1.
    10030    2    1    2    0    0  0.00000000000E+00  0.00000000000E+00  0.16650556722E+04  0.40150490438E+04  0.36535200058E+04 0.  0.
        1    1    3    3  502    0 -0.10219140026E+04 -0.31989757011E+03 -0.79392702348E+03  0.13330276826E+04  0.50400001928E-02 0.  1.
       -1    1    3    3    0  502  0.10219140026E+04  0.31989757011E+03  0.24589826957E+04  0.26820213612E+04  0.50400001928E-02 0. -1.
</event>
<event>
 5   0  0.4927533E-06  0.3228543E+04  0.7818609E-02  0.8181319E-01
        2   -1    0    0  501    0  0.00000000000E+00  0.00000000000E+00  0.11970136935E+04  0.11970136935E+04  0.25500000920E-02 0.  1.
       -2   -1    0    0    0  501  0.00000000000E+00  0.00000000000E+00 -0.21769785875E+04  0.21769785875E+04  0.25500000920E-02 0. -1.
    10030    2    1    2    0    0  0.00000000000E+00  0.00000000000E+00 -0.97996489402E+03  0.33739922810E+04  0.32285434360E+04 0.  0.
        5    1    3    3  502    0 -0.10994413908E+04 -0.10879106380E+04 -0.70714834906E+01  0.15467362490E+04  0.46999998093E+01 0. -1.
       -5    1    3    3    0  502  0.10994413908E+04  0.10879106380E+04 -0.97289341053E+03  0.18272560320E+04  0.46999998093E+01 0.  1.
</event>
<event>
 5   0  0.1843709E-06  0.3106549E+04  0.7818609E-02  0.8213943E-01
        1   -1    0    0  501    0  0.00000000000E+00  0.00000000000E+00  0.14258976846E+04  0.14258976846E+04  0.50400001928E-02 0. -1.
       -1   -1    0    0    0  501  0.00000000000E+00  0.00000000000E+00 -0.16920304204E+04  0.16920304204E+04  0.50400001928E-02 0.  1.
    10030    2    1    2    0    0  0.00000000000E+00  0.00000000000E+00 -0.26613273582E+03  0.31179281050E+04  0.31065493775E+04 0.  0.
        4    1    3    3  502    0 -0.73602585583E+03 -0.13651725426E+04 -0.21841025642E+03  0.15662486344E+04  0.12699999809E+01 0.  1.
       -4    1    3    3    0  502  0.73602585583E+03  0.13651725426E+04 -0.47722479400E+02  0.15516794706E+04  0.12699999809E+01 0. -1.
</event>
<event>
 5   0  0.1649875E-06  0.3076618E+04  0.7818609E-02  0.8222184E-01
        4   -1    0    0  501    0  0.00000000000E+00  0.00000000000E+00  0.23039831803E+04  0.23039835303E+04  0.12699999809E+01 0. -1.
       -4   -1    0    0    0  501  0.00000000000E+00  0.00000000000E+00 -0.10270875438E+04  0.10270883290E+04  0.12699999809E+01 0.  1.
    10030    2    1    2    0    0  0.00000000000E+00  0.00000000000E+00  0.12768956365E+04  0.33310718593E+04  0.30766178290E+04 0.  0.
        5    1    3    3  502    0 -0.15194828910E+04  0.17281085502E+03  0.81858213725E+03  0.17345865943E+04  0.46999998093E+01 0. -1.
       -5    1    3    3    0  502  0.15194828910E+04 -0.17281085502E+03  0.45831349921E+03  0.15964852650E+04  0.46999998093E+01 0.  1.
</event>
<event>
 5   0  0.5001658E-06  0.3134542E+04  0.7818609E-02  0.8206322E-01
       -2   -1    0    0    0  501  0.00000000000E+00  0.00000000000E+00  0.14683959384E+04  0.14683959384E+04  0.25500000920E-02 0. -1.
        2   -1    0    0  501    0  0.00000000000E+00  0.00000000000E+00 -0.16728040911E+04  0.16728040911E+04  0.25500000920E-02 0.  1.
    10030    2    1    2    0    0  0.00000000000E+00  0.00000000000E+00 -0.20440815267E+03  0.31412000295E+04  0.31345422206E+04 0.  0.
        3    1    3    3  502    0  0.26941798758E+02 -0.10368557875E+04 -0.12796647973E+04  0.16472212323E+04  0.10100000352E+00 0.  1.
       -3    1    3    3    0  502 -0.26941798758E+02  0.10368557875E+04  0.10752566446E+04  0.14939787972E+04  0.10100000352E+00 0. -1.
</event>
<event>
 5   0  0.5001658E-06  0.3006067E+04  0.7818609E-02  0.8242001E-01
       -2   -1    0    0    0  501  0.00000000000E+00  0.00000000000E+00  0.13882191123E+04  0.13882191123E+04  0.25500000920E-02 0. -1.
        2   -1    0    0  501    0  0.00000000000E+00  0.00000000000E+00 -0.16273437131E+04  0.16273437131E+04  0.25500000920E-02 0.  1.
    10030    2    1    2    0    0  0.00000000000E+00  0.00000000000E+00 -0.23912460085E+03  0.30155628254E+04  0.30060669618E+04 0.  0.
        3    1    3    3  502    0 -0.47507686363E+03  0.10360393716E+04 -0.11024706943E+04  0.15857229417E+04  0.10100000352E+00 0.  1.
       -3    1    3    3    0  502  0.47507686363E+03 -0.10360393716E+04  0.86334609340E+03  0.14298398837E+04  0.10100000352E+00 0. -1.
</event>
<event>
 5   0  0.1853742E-06  0.3129337E+04  0.7818609E-02  0.8207733E-01
        1   -1    0    0  501    0  0.00000000000E+00  0.00000000000E+00  0.16901389164E+04  0.16901389164E+04  0.50400001928E-02 0.  1.
       -1   -1    0    0    0  501  0.00000000000E+00  0.00000000000E+00 -0.14485123211E+04  0.14485123211E+04  0.50400001928E-02 0. -1.
    10030    2    1    2    0    0  0.00000000000E+00  0.00000000000E+00  0.24162659530E+03  0.31386512375E+04  0.31293366995E+04 0.  0.
        5    1    3    3  502    0  0.57710098495E+03  0.23790241066E+02  0.15792920236E+04  0.16816054556E+04  0.46999998093E+01 0.  1.
       -5    1    3    3    0  502 -0.57710098495E+03 -0.23790241066E+02 -0.13376654283E+04  0.14570457819E+04  0.46999998093E+01 0. -1.
</event>
<event>
 5   0  0.4927533E-06  0.2671300E+04  0.7818609E-02  0.8344377E-01
        2   -1    0    0  501    0  0.00000000000E+00  0.00000000000E+00  0.18409047521E+04  0.18409047521E+04  0.25500000920E-02 0. -1.
       -2   -1    0    0    0  501  0.00000000000E+00  0.00000000000E+00 -0.96906779197E+03  0.96906779197E+03  0.25500000920E-02 0.  1.
    10030    2    1    2    0    0  0.00000000000E+00  0.00000000000E+00  0.87183696018E+03  0.28099725441E+04  0.26713004349E+04 0.  0.
        5    1    3    3  502    0 -0.99757650634E+03  0.56818066138E+03  0.11539600511E+04  0.16277696519E+04  0.46999998093E+01 0. -1.
       -5    1    3    3    0  502  0.99757650634E+03 -0.56818066138E+03 -0.28212309096E+03  0.11822028922E+04  0.46999998093E+01 0.  1.
</event>
<event>
 5   0  0.5001658E-06  0.3140169E+04  0.7818609E-02  0.8204799E-01
        2   -1    0    0  501    0  0.00000000000E+00  0.00000000000E+00  0.10615091128E+04  0.10615091128E+04  0.25500000920E-02 0.  1.
       -2   -1    0    0    0  501  0.00000000000E+00  0.00000000000E+00 -0.23223219981E+04  0.23223219981E+04  0.25500000920E-02 0. -1.
    10030    2    1    2    0    0  0.00000000000E+00  0.00000000000E+00 -0.12608128853E+04  0.33838311109E+04  0.31401693991E+04 0.  0.
        3    1    3    3  502    0 -0.11940990021E+04 -0.59676455706E+03 -0.15210800712E+04  0.20237798686E+04  0.10100000352E+00 0. -1.
       -3    1    3    3    0  502  0.11940990021E+04  0.59676455706E+03  0.26026718590E+03  0.13600512423E+04  0.10100000352E+00 0.  1.
</event>
<event>
 5   0  0.1885307E-06  0.3151414E+04  0.7818609E-02  0.8201768E-01
        1   -1    0    0  501    0  0.00000000000E+00  0.00000000000E+00  0.22964644209E+04  0.22964644209E+04  0.50400001928E-02 0. -1.
       -1   -1    0    0    0  501  0.00000000000E+00  0.00000000000E+00 -0.10811629289E+04  0.10811629289E+04  0.50400001928E-02 0.  1.
    10030    2    1    2    0    0  0.00000000000E+00  0.00000000000E+00  0.12153014920E+04  0.33776273498E+04  0.31514137776E+04 0.  0.
        3    1    3    3  502    0  0.11526656051E+04 -0.10734141987E+04  0.55976537096E+03  0.16715840750E+04  0.10100000352E+00 0.  1.
       -3    1    3    3    0  502 -0.11526656051E+04  0.10734141987E+04  0.65553612100E+03  0.17060432747E+04  0.10100000352E+00 0. -1.
</event>
<event>
 5   0  0.1885307E-06  0.3052579E+04  0.7818609E-02  0.8228874E-01
       -1   -1    0    0    0  501  0.00000000000E+00  0.00000000000E+00  0.15506260188E+04  0.15506260189E+04  0.50400001928E-02 0.  1.
        1   -1    0    0  501    0  0.00000000000E+00  0.00000000000E+00 -0.15023352787E+04  0.15023352787E+04  0.50400001928E-02 0. -1.
    10030    2    1    2    0    0  0.00000000000E+00  0.00000000000E+00  0.48290740177E+02  0.30529612975E+04  0.30525793501E+04 0.  0.
        3    1    3    3  502    0 -0.85169576491E+03  0.12112648576E+04  0.39434291139E+03  0.15323363120E+04  0.10100000352E+00 0.  1.
       -3    1    3    3    0  502  0.85169576491E+03 -0.12112648576E+04 -0.34605217121E+03  0.15206249855E+04  0.10100000352E+00 0. -1.
</event>
<event>
 5   0  0.1843709E-06  0.3069092E+04  0.7818609E-02  0.8224272E-01
        1   -1    0    0  501    0  0.00000000000E+00  0.00000000000E+00  0.18085802182E+04  0.18085802182E+04  0.50400001928E-02 0. -1.
       -1   -1    0    0    0  501  0.00000000000E+00  0.00000000000E+00 -0.13020329158E+04  0.13020329158E+04  0.50400001928E-02 0.  1.
    10030    2    1    2    0    0  0.00000000000E+00  0.00000000000E+00  0.50654730240E+03  0.31106131340E+04  0.30690917060E+04 0.  0.
        4    1    3    3  502    0  0.91467221357E+03 -0.11629375576E+04 -0.15939611319E+03  0.14881054247E+04  0.12699999809E+01 0. -1.
       -4    1    3    3    0  502 -0.91467221357E+03  0.11629375576E+04  0.66594341559E+03  0.16225077093E+04  0.12699999809E+01 0.  1.
</event>
<event>
 5   0  0.5328368E-06  0.3247934E+04  0.7818609E-02  0.8176271E-01
        2   -1    0    0  501    0  0.00000000000E+00  0.00000000000E+00  0.13723872555E+04  0.13723872555E+04  0.25500000920E-02 0.  1.
       -2   -1    0    0    0  501  0.00000000000E+00  0.00000000000E+00 -0.19216650690E+04  0.19216650690E+04  0.25500000920E-02 0. -1.
    10030    2    1    2    0    0  0.00000000000E+00  0.00000000000E+00 -0.54927781352E+03  0.32940523245E+04  0.32479338971E+04 0.  0.
        1    1    3    3  502    0 -0.29111986669E+03 -0.42158091870E+03  0.12882772469E+04  0.13864124613E+04  0.50400001928E-02 0.  1.
       -1    1    3    3    0  502  0.29111986669E+03  0.42158091870E+03 -0.18375550604E+04  0.19076398633E+04  0.50400001928E-02 0. -1.
</event>
<event>
 5   0  0.1649875E-06  0.2349098E+04  0.7818609E-02  0.8458810E-01
       -4   -1    0    0    0  501  0.00000000000E+00  0.00000000000E+00  0.81137550193E+03  0.81137649585E+03  0.12699999809E+01 0. -1.
        4   -1    0    0  501    0  0.00000000000E+00  0.00000000000E+00 -0.17002771675E+04  0.17002776418E+04  0.12699999809E+01 0.  1.
    10030    2    1    2    0    0  0.00000000000E+00  0.00000000000E+00 -0.88890166556E+03  0.25116541376E+04  0.23490977707E+04 0.  0.
        4    1    3    3  502    0 -0.57090327729E+03 -0.81298626962E+03  0.22555963378E+03  0.10187030911E+04  0.12699999809E+01 0. -1.
       -4    1    3    3    0  502  0.57090327729E+03  0.81298626962E+03 -0.11144612993E+04  0.14929510465E+04  0.12699999809E+01 0.  1.
</event>
<event>
 5   0  0.5114870E-06  0.3105455E+04  0.7818609E-02  0.8214243E-01
        2   -1    0    0  501    0  0.00000000000E+00  0.00000000000E+00  0.28388874329E+04  0.28388874329E+04  0.25500000920E-02 0.  1.
       -2   -1    0    0    0  501  0.00000000000E+00  0.00000000000E+00 -0.84926303602E+03  0.84926303602E+03  0.25500000920E-02 0. -1.
    10030    2    1    2    0    0  0.00000000000E+00  0.00000000000E+00  0.19896243969E+04  0.36881504689E+04  0.31054546593E+04 0.  0.
        2    1    3    3  502    0 -0.15105856476E+04 -0.17075872125E+03  0.61937143670E+03  0.16415384602E+04  0.25500000920E-02 0. -1.
       -2    1    3    3    0  502  0.15105856476E+04  0.17075872125E+03  0.13702529602E+04  0.20466120088E+04  0.25500000920E-02 0.  1.
</event>
<event>
 5   0  0.5001658E-06  0.3037103E+04  0.7818609E-02  0.8233215E-01
        2   -1    0    0  501    0  0.00000000000E+00  0.00000000000E+00  0.21453883617E+04  0.21453883617E+04  0.25500000920E-02 0.  1.
       -2   -1    0    0    0  501  0.00000000000E+00  0.00000000000E+00 -0.10748626999E+04  0.10748627000E+04  0.25500000920E-02 0. -1.
    10030    2    1    2    0    0  0.00000000000E+00  0.00000000000E+00  0.10705256618E+04  0.32202510617E+04  0.30371025185E+04 0.  0.
        3    1    3    3  502    0 -0.14060521237E+04 -0.24112859623E+03 -0.16576450862E+02  0.14266745821E+04  0.10100000352E+00 0.  1.
       -3    1    3    3    0  502  0.14060521237E+04  0.24112859623E+03  0.10871021126E+04  0.17935764795E+04  0.10100000352E+00 0. -1.
</event>
<event>
 5   0  0.1843709E-06  0.3113883E+04  0.7818609E-02  0.8211938E-01
       -1   -1    0    0    0  501  0.00000000000E+00  0.00000000000E+00  0.16447473256E+04  0.16447473256E+04  0.50400001928E-02 0.  1.
        1   -1    0    0  501    0  0.00000000000E+00  0.00000000000E+00 -0.14738235229E+04  0.14738235229E+04  0.50400001928E-02 0. -1.
    10030    2    1    2    0    0  0.00000000000E+00  0.00000000000E+00  0.17092380266E+03  0.31185708485E+04  0.31138832976E+04 0.  0.
        4    1    3    3  502    0  0.39313668258E+03  0.15060081452E+04  0.47342809122E+02  0.15571961787E+04  0.12699999809E+01 0.  1.
       -4    1    3    3    0  502 -0.39313668258E+03 -0.15060081452E+04  0.12358099354E+03  0.15613746698E+04  0.12699999809E+01 0. -1.
</event>
<event>
 5   0  0.1840431E-06  0.3068671E+04  0.7818609E-02  0.8224389E-01
       -1   -1    0    0    0  501  0.00000000000E+00  0.00000000000E+00  0.15261916953E+04  0.15261916953E+04  0.50400001928E-02 0. -1.
        1   -1    0    0  501    0  0.00000000000E+00  0.00000000000E+00 -0.15425227469E+04  0.15425227469E+04  0.50400001928E-02 0.  1.
    10030    2    1    2    0    0  0.00000000000E+00  0.00000000000E+00 -0.16331051606E+02  0.30687144421E+04  0.30686709866E+04 0.  0.
        1    1    3    3  502    0 -0.11524055469E+04  0.17332555435E+03 -0.10062303161E+04  0.15396687116E+04  0.50400001928E-02 0.  1.
       -1    1    3    3    0  502  0.11524055469E+04 -0.17332555435E+03  0.98989926454E+03  0.15290457306E+04  0.50400001928E-02 0. -1.
</event>
<event>
 5   0  0.5001658E-06  0.2430908E+04  0.7818609E-02  0.8428022E-01
        2   -1    0    0  501    0  0.00000000000E+00  0.00000000000E+00  0.13983326151E+04  0.13983326151E+04  0.25500000920E-02 0.  1.
       -2   -1    0    0    0  501  0.00000000000E+00  0.00000000000E+00 -0.10564927266E+04  0.10564927266E+04  0.25500000920E-02 0. -1.
    10030    2    1    2    0    0  0.00000000000E+00  0.00000000000E+00  0.34183988854E+03  0.24548253417E+04  0.24309078446E+04 0.  0.
        3    1    3    3  502    0  0.10888709682E+04 -0.52995233524E+03  0.65786235476E+02  0.12127725681E+04  0.10100000352E+00 0. -1.
       -3    1    3    3    0  502 -0.10888709682E+04  0.52995233524E+03  0.27605365307E+03  0.12420527736E+04  0.10100000352E+00 0.  1.
</event>
<event>
 5   0  0.4927533E-06  0.3084942E+04  0.7818609E-02  0.8219882E-01
       -2   -1    0    0    0  501  0.00000000000E+00  0.00000000000E+00  0.95863120589E+03  0.95863120590E+03  0.25500000920E-02 0.  1.
        2   -1    0    0  501    0  0.00000000000E+00  0.00000000000E+00 -0.24818903511E+04  0.24818903511E+04  0.25500000920E-02 0. -1.
    10030    2    1    2    0    0  0.00000000000E+00  0.00000000000E+00 -0.15232591452E+04  0.34405215570E+04  0.30849424891E+04 0.  0.
        5    1    3    3  502    0 -0.49973562663E+03 -0.47631970430E+03 -0.22999563297E+04  0.24013407433E+04  0.46999998093E+01 0. -1.
       -5    1    3    3    0  502  0.49973562663E+03  0.47631970430E+03  0.77669718443E+03  0.10391808137E+04  0.46999998093E+01 0.  1.
</event>
<event>
 5   0  0.1885307E-06  0.3099184E+04  0.7818609E-02  0.8215962E-01
       -1   -1    0    0    0  501  0.00000000000E+00  0.00000000000E+00  0.10669926211E+04  0.10669926211E+04  0.50400001928E-02 0. -1.
        1   -1    0    0  501    0  0.00000000000E+00  0.00000000000E+00 -0.22504699872E+04  0.22504699872E+04  0.50400001928E-02 0.  1.
    10030    2    1    2    0    0  0.00000000000E+00  0.00000000000E+00 -0.11834773661E+04  0.33174626084E+04  0.30991836799E+04 0.  0.
        3    1    3    3  502    0 -0.52511990404E+03 -0.67923867261E+03 -0.19726025959E+04  0.21513430920E+04  0.10100000352E+00 0.  1.
       -3    1    3    3    0  502  0.52511990404E+03  0.67923867261E+03  0.78912522976E+03  0.11661195164E+04  0.10100000352E+00 0. -1.
</event>
<event>
 5   0  0.1843709E-06  0.3246404E+04  0.7818609E-02  0.8176668E-01
       -1   -1    0    0    0  501  0.00000000000E+00  0.00000000000E+00  0.11768235495E+04  0.11768235495E+04  0.50400001928E-02 0.  1.
        1   -1    0    0  501    0  0.00000000000E+00  0.00000000000E+00 -0.22388954486E+04  0.22388954486E+04  0.50400001928E-02 0. -1.
    10030    2    1    2    0    0  0.00000000000E+00  0.00000000000E+00 -0.10620718991E+04  0.34157189981E+04  0.32464040961E+04 0.  0.
        4    1    3    3  502    0 -0.89079205027E+03  0.48742114696E+03 -0.18634531544E+04  0.21221567149E+04  0.12699999809E+01 0. -1.
       -4    1    3    3    0  502  0.89079205027E+03 -0.48742114696E+03  0.80138125526E+03  0.12935622832E+04  0.12699999809E+01 0.  1.
</event>
<event>
 5   0  0.1836401E-06  0.2272796E+04  0.7818609E-02  0.8488725E-01
        1   -1    0    0  501    0  0.00000000000E+00  0.00000000000E+00  0.11498844975E+04  0.11498844976E+04  0.50400001928E-02 0.  1.
       -1   -1    0    0    0  501  0.00000000000E+00  0.00000000000E+00 -0.11230699618E+04  0.11230699619E+04  0.50400001928E-02 0. -1.
    10030    2    1    2    0    0  0.00000000000E+00  0.00000000000E+00  0.26814535704E+02  0.22729544594E+04  0.22727962855E+04 0.  0.
        2    1    3    3  502    0 -0.47808849476E+03  0.66211759576E+03  0.80367262608E+03  0.11458001612E+04  0.25500000920E-02 0.  1.
       -2    1    3    3    0  502  0.47808849476E+03 -0.66211759576E+03 -0.77685809037E+03  0.11271542982E+04  0.25500000920E-02 0. -1.
</event>
<event>
 5   0  0.4900679E-06  0.2855064E+04  0.7818609E-02  0.8286374E-01
       -2   -1    0    0    0  501  0.00000000000E+00  0.00000000000E+00  0.15060091867E+04  0.15060091867E+04  0.25500000920E-02 0.  1.
        2   -1    0    0  501    0  0.00000000000E+00  0.00000000000E+00 -0.13531446728E+04  0.13531446728E+04  0.25500000920E-02 0. -1.
    10030    2    1    2    0    0  0.00000000000E+00  0.00000000000E+00  0.15286451386E+03  0.28591538595E+04  0.28550644884E+04 0.  0.
        4    1    3    3  502    0  0.11124851399E+04  0.34784117857E+03 -0.74890232299E+03  0.13854504589E+04  0.12699999809E+01 0. -1.
       -4    1    3    3    0  502 -0.11124851399E+04 -0.34784117857E+03  0.90176683685E+03  0.14737034006E+04  0.12699999809E+01 0.  1.
</event>
<event>
 5   0  0.1853742E-06  0.3148266E+04  0.7818609E-02  0.8202615E-01
        1   -1    0    0  501    0  0.00000000000E+00  0.00000000000E+00  0.18289148684E+04  0.18289148684E+04  0.50400001928E-02 0.  1.
       -1   -1    0    0    0  501  0.00000000000E+00  0.00000000000E+00 -0.13548440677E+04  0.13548440677E+04  0.50400001928E-02 0. -1.
    10030    2    1    2    0    0  0.00000000000E+00  0.00000000000E+00  0.47407080078E+03  0.31837589361E+04  0.31482658463E+04 0.  0.
        5    1    3    3  502    0  0.72235089999E+03 -0.27344919924E+03 -0.11500353834E+04  0.13853406658E+04  0.46999998093E+01 0. -1.
       -5    1    3    3    0  502 -0.72235089999E+03  0.27344919924E+03  0.16241061842E+04  0.17984182703E+04  0.46999998093E+01 0.  1.
</event>
<event>
 5   0  0.4927533E-06  0.3018959E+04  0.7818609E-02  0.8238338E-01
       -2   -1    0    0    0  501  0.00000000000E+00  0.00000000000E+00  0.93872922566E+03  0.93872922566E+03  0.25500000920E-02 0. -1.
        2   -1    0    0  501    0  0.00000000000E+00  0.00000000000E+00 -0.24272474452E+04  0.24272474452E+04  0.25500000920E-02 0.  1.
    10030    2    1    2    0    0  0.00000000000E+00  0.00000000000E+00 -0.14885182195E+04  0.33659766708E+04  0.30189588369E+04 0.  0.
        5    1    3    3  502    0 -0.90100941352E+03 -0.81578771313E+03 -0.17422315423E+04  0.21243164531E+04  0.46999998093E+01 0.  1.
       -5    1    3    3    0  502  0.90100941352E+03  0.81578771313E+03  0.25371332274E+03  0.12416602177E+04  0.46999998093E+01 0. -1.
</event>
<event>
 5   0  0.1836401E-06  0.2448625E+04  0.7818609E-02  0.8421520E-01
       -1   -1    0    0    0  501  0.00000000000E+00  0.00000000000E+00  0.11313683951E+04  0.11313683951E+04  0.50400001928E-02 0.  1.
        1   -1    0    0  501    0  0.00000000000E+00  0.00000000000E+00 -0.13248917466E+04  0.13248917466E+04  0.50400001928E-02 0. -1.
    10030    2    1    2    0    0  0.00000000000E+00  0.00000000000E+00 -0.19352335153E+03  0.24562601418E+04  0.24486246336E+04 0.  0.
        2    1    3    3  502    0 -0.56922129313E+03 -0.59854474027E+03 -0.10032787106E+04  0.12995525606E+04  0.25500000920E-02 0. -1.
       -2    1    3    3    0  502  0.56922129313E+03  0.59854474027E+03  0.80975535908E+03  0.11567075811E+04  0.25500000920E-02 0.  1.
</event>
<event>
 5   0  0.5328368E-06  0.3015698E+04  0.7818609E-02  0.8239263E-01
       -2   -1    0    0    0  501  0.00000000000E+00  0.00000000000E+00  0.26226899705E+04  0.26226899705E+04  0.25500000920E-02 0. -1.
        2   -1    0    0  501    0  0.00000000000E+00  0.00000000000E+00 -0.86689921875E+03  0.86689921875E+03  0.25500000920E-02 0.  1.
    10030    2    1    2    0    0  0.00000000000E+00  0.00000000000E+00  0.17557907517E+04  0.34895891892E+04  0.30156975223E+04 0.  0.
        1    1    3    3  502    0  0.36166269961E+03  0.43158930219E+03  0.24964625922E+04  0.25591785222E+04  0.50400001928E-02 0. -1.
       -1    1    3    3    0  502 -0.36166269961E+03 -0.43158930219E+03 -0.74067184048E+03  0.93041066705E+03  0.50400001928E-02 0.  1.
</event>
<event>
 5   0  0.1853742E-06  0.3143267E+04  0.7818609E-02  0.8203963E-01
        1   -1    0    0  501    0  0.00000000000E+00  0.00000000000E+00  0.15640910200E+04  0.15640910200E+04  0.50400001928E-02 0.  1.
       -1   -1    0    0    0  501  0.00000000000E+00  0.00000000000E+00 -0.15792121553E+04  0.15792121553E+04  0.50400001928E-02 0. -1.
    10030    2    1    2    0    0  0.00000000000E+00  0.00000000000E+00 -0.15121135262E+02  0.31433031753E+04  0.31432668043E+04 0.  0.
        5    1    3    3  502    0  0.21786360596E+03 -0.15527007089E+04  0.10044725017E+03  0.15711320066E+04  0.46999998093E+01 0. -1.
       -5    1    3    3    0  502 -0.21786360596E+03  0.15527007089E+04 -0.11556838544E+03  0.15721711687E+04  0.46999998093E+01 0.  1.
</event>
<event>
 5   0  0.1836401E-06  0.3076281E+04  0.7818609E-02  0.8222278E-01
       -1   -1    0    0    0  501  0.00000000000E+00  0.00000000000E+00  0.12826449699E+04  0.12826449700E+04  0.50400001928E-02 0. -1.
        1   -1    0    0  501    0  0.00000000000E+00  0.00000000000E+00 -0.18445293430E+04  0.18445293430E+04  0.50400001928E-02 0.  1.
    10030    2    1    2    0    0  0.00000000000E+00  0.00000000000E+00 -0.56188437305E+03  0.31271743130E+04  0.30762810559E+04 0.  0.
        2    1    3    3  502    0 -0.23464869668E+03 -0.92837133800E+02  0.12614590749E+04  0.12864516088E+04  0.25500000920E-02 0. -1.
       -2    1    3    3    0  502  0.23464869668E+03  0.92837133800E+02 -0.18233434479E+04  0.18407227041E+04  0.25500000920E-02 0.  1.
</event>
<event>
 5   0  0.5114870E-06  0.3099488E+04  0.7818609E-02  0.8215879E-01
        2   -1    0    0  501    0  0.00000000000E+00  0.00000000000E+00  0.12416084044E+04  0.12416084044E+04  0.25500000920E-02 0. -1.
       -2   -1    0    0    0  501  0.00000000000E+00  0.00000000000E+00 -0.19343506056E+04  0.19343506056E+04  0.25500000920E-02 0.  1.
    10030    2    1    2    0    0  0.00000000000E+00  0.00000000000E+00 -0.69274220126E+03  0.31759590100E+04  0.30994876796E+04 0.  0.
        2    1    3    3  502    0  0.42002824686E+02 -0.12877820353E+04 -0.12287556126E+04  0.17804457765E+04  0.25500000920E-02 0.  1.
       -2    1    3    3    0  502 -0.42002824686E+02  0.12877820353E+04  0.53601341137E+03  0.13955132335E+04  0.25500000920E-02 0. -1.
</event>
<event>
 5   0  0.5114870E-06  0.2891491E+04  0.7818609E-02  0.8275414E-01
        2   -1    0    0  501    0  0.00000000000E+00  0.00000000000E+00  0.13055447129E+04  0.13055447130E+04  0.25500000920E-02 0.  1.
       -2   -1    0    0    0  501  0.00000000000E+00  0.00000000000E+00 -0.16010026472E+04  0.16010026472E+04  0.25500000920E-02 0. -1.
    10030    2    1    2    0    0  0.00000000000E+00  0.00000000000E+00 -0.29545793423E+03  0.29065473601E+04  0.28914913394E+04 0.  0.
        2    1    3    3  502    0  0.13033285929E+04  0.55954044027E+03 -0.42924008579E+03  0.14818900015E+04  0.25500000920E-02 0. -1.
       -2    1    3    3    0  502 -0.13033285929E+04 -0.55954044027E+03  0.13378215155E+03  0.14246573586E+04  0.25500000920E-02 0.  1.
</event>
<event>
 5   0  0.4900679E-06  0.3089997E+04  0.7818609E-02  0.8218488E-01
        2   -1    0    0  501    0  0.00000000000E+00  0.00000000000E+00  0.10890451019E+04  0.10890451019E+04  0.25500000920E-02 0. -1.
       -2   -1    0    0    0  501  0.00000000000E+00  0.00000000000E+00 -0.21918476413E+04  0.21918476413E+04  0.25500000920E-02 0.  1.
    10030    2    1    2    0    0  0.00000000000E+00  0.00000000000E+00 -0.11028025394E+04  0.32808927433E+04  0.30899973709E+04 0.  0.
        4    1    3    3  502    0  0.40273420436E+03  0.73491879669E+03  0.82675238255E+03  0.11772092388E+04  0.12699999809E+01 0. -1.
       -4    1    3    3    0  502 -0.40273420436E+03 -0.73491879669E+03 -0.19295549219E+04  0.21036835044E+04  0.12699999809E+01 0.  1.
</event>
<event>
 5   0  0.5114870E-06  0.2983689E+04  0.7818609E-02  0.8248404E-01
        2   -1    0    0  501    0  0.00000000000E+00  0.00000000000E+00  0.29412160192E+04  0.29412160192E+04  0.25500000920E-02 0. -1.
       -2   -1    0    0    0  501  0.00000000000E+00  0.00000000000E+00 -0.75669361434E+03  0.75669361435E+03  0.25500000920E-02 0.  1.
    10030    2    1    2    0    0  0.00000000000E+00  0.00000000000E+00  0.21845224048E+04  0.36979096335E+04  0.29836885763E+04 0.  0.
        2    1    3    3  502    0 -0.38136743815E+03 -0.77676600948E+02  0.28771872366E+04  0.29033913225E+04  0.25500000920E-02 0. -1.
       -2    1    3    3    0  502  0.38136743815E+03  0.77676600948E+02 -0.69266483181E+03  0.79451831096E+03  0.25500000920E-02 0.  1.
</event>
<event>
 5   0  0.5114870E-06  0.2861946E+04  0.7818609E-02  0.8284291E-01
        2   -1    0    0  501    0  0.00000000000E+00  0.00000000000E+00  0.23292918510E+04  0.23292918510E+04  0.25500000920E-02 0.  1.
       -2   -1    0    0    0  501  0.00000000000E+00  0.00000000000E+00 -0.87910120103E+03  0.87910120103E+03  0.25500000920E-02 0. -1.
    10030    2    1    2    0    0  0.00000000000E+00  0.00000000000E+00  0.14501906500E+04  0.32083930520E+04  0.28619456765E+04 0.  0.
        2    1    3    3  502    0  0.41306499201E+03  0.11015295463E+04 -0.18819714410E+03  0.11913891867E+04  0.25500000920E-02 0. -1.
       -2    1    3    3    0  502 -0.41306499201E+03 -0.11015295463E+04  0.16383877941E+04  0.20170038654E+04  0.25500000920E-02 0.  1.
</event>
<event>
 5   0  0.5001658E-06  0.3125874E+04  0.7818609E-02  0.8208673E-01
       -2   -1    0    0    0  501  0.00000000000E+00  0.00000000000E+00  0.15460409572E+04  0.15460409572E+04  0.25500000920E-02 0. -1.
        2   -1    0    0  501    0  0.00000000000E+00  0.00000000000E+00 -0.15800180241E+04  0.15800180241E+04  0.25500000920E-02 0.  1.
    10030    2    1    2    0    0  0.00000000000E+00  0.00000000000E+00 -0.33977066893E+02  0.31260589813E+04  0.31258743278E+04 0.  0.
        3    1    3    3  502    0 -0.34269522080E+03 -0.86463473008E+03  0.12391666103E+04  0.15493763678E+04  0.10100000352E+00 0. -1.
       -3    1    3    3    0  502  0.34269522080E+03  0.86463473008E+03 -0.12731436772E+04  0.15766826135E+04  0.10100000352E+00 0.  1.
</event>
<event>
 5   0  0.1843709E-06  0.3122244E+04  0.7818609E-02  0.8209660E-01
       -1   -1    0    0    0  501  0.00000000000E+00  0.00000000000E+00  0.12482274502E+04  0.12482274502E+04  0.50400001928E-02 0. -1.
        1   -1    0    0  501    0  0.00000000000E+00  0.00000000000E+00 -0.19524502202E+04  0.19524502202E+04  0.50400001928E-02 0.  1.
    10030    2    1    2    0    0  0.00000000000E+00  0.00000000000E+00 -0.70422277004E+03  0.32006776704E+04  0.31222440391E+04 0.  0.
        4    1    3    3  502    0  0.73508095089E+02 -0.89523695621E+03  0.95677482705E+03  0.13123537368E+04  0.12699999809E+01 0. -1.
       -4    1    3    3    0  502 -0.73508095089E+02  0.89523695621E+03 -0.16609975971E+04  0.18883239336E+04  0.12699999809E+01 0.  1.
</event>
<event>
 5   0  0.1840431E-06  0.3154797E+04  0.7818609E-02  0.8200858E-01
       -1   -1    0    0    0  501  0.00000000000E+00  0.00000000000E+00  0.15381835110E+04  0.15381835110E+04  0.50400001928E-02 0. -1.
        1   -1    0    0  501    0  0.00000000000E+00  0.00000000000E+00 -0.16176134034E+04  0.16176134034E+04  0.50400001928E-02 0.  1.
    10030    2    1    2    0    0  0.00000000000E+00  0.00000000000E+00 -0.79429892427E+02  0.31557969144E+04  0.31547971499E+04 0.  0.
        1    1    3    3  502    0  0.18005375919E+03  0.46447174516E+03 -0.15368631944E+04  0.16155809594E+04  0.50400001928E-02 0.  1.
       -1    1    3    3    0  502 -0.18005375919E+03 -0.46447174516E+03  0.14574333019E+04  0.15402159549E+04  0.50400001928E-02 0. -1.
</event>
<event>
 5   0  0.1885307E-06  0.3040195E+04  0.7818609E-02  0.8232345E-01
       -1   -1    0    0    0  501  0.00000000000E+00  0.00000000000E+00  0.27438225379E+04  0.27438225379E+04  0.50400001928E-02 0. -1.
        1   -1    0    0  501    0  0.00000000000E+00  0.00000000000E+00 -0.84214490084E+03  0.84214490085E+03  0.50400001928E-02 0.  1.
    10030    2    1    2    0    0  0.00000000000E+00  0.00000000000E+00  0.19016776371E+04  0.35859674388E+04  0.30401948353E+04 0.  0.
        3    1    3    3  502    0 -0.18905409006E+03 -0.15082114327E+04  0.93207837516E+03  0.17830348517E+04  0.10100000352E+00 0. -1.
       -3    1    3    3    0  502  0.18905409006E+03  0.15082114327E+04  0.96959926194E+03  0.18029325871E+04  0.10100000352E+00 0.  1.
</event>
<event>
 5   0  0.1836401E-06  0.3014745E+04  0.7818609E-02  0.8239533E-01
        1   -1    0    0  501    0  0.00000000000E+00  0.00000000000E+00  0.17554357290E+04  0.17554357290E+04  0.50400001928E-02 0. -1.
       -1   -1    0    0    0  501  0.00000000000E+00  0.00000000000E+00 -0.12943636609E+04  0.12943636609E+04  0.50400001928E-02 0.  1.
    10030    2    1    2    0    0  0.00000000000E+00  0.00000000000E+00  0.46107206812E+03  0.30497993899E+04  0.30147452407E+04 0.  0.
        2    1    3    3  502    0  0.56257921340E+03 -0.91175799714E+02 -0.11811697800E+04  0.13114764378E+04  0.25500000920E-02 0.  1.
       -2    1    3    3    0  502 -0.56257921340E+03  0.91175799714E+02  0.16422418481E+04  0.17383229520E+04  0.25500000920E-02 0. -1.
</event>
<event>
 5   0  0.1885307E-06  0.2964136E+04  0.7818609E-02  0.8254047E-01
       -1   -1    0    0    0  501  0.00000000000E+00  0.00000000000E+00  0.12351402941E+04  0.12351402941E+04  0.50400001928E-02 0. -1.
        1   -1    0    0  501    0  0.00000000000E+00  0.00000000000E+00 -0.17783611075E+04  0.17783611075E+04  0.50400001928E-02 0.  1.
    10030    2    1    2    0    0  0.00000000000E+00  0.00000000000E+00 -0.54322081345E+03  0.30135014016E+04  0.29641359357E+04 0.  0.
        3    1    3    3  502    0 -0.12667584959E+04 -0.74590921698E+03 -0.46307586343E+03  0.15412647120E+04  0.10100000352E+00 0. -1.
       -3    1    3    3    0  502  0.12667584959E+04  0.74590921698E+03 -0.80144950017E+02  0.14722366896E+04  0.10100000352E+00 0.  1.
</event>
<event>
 5   0  0.4900679E-06  0.3027439E+04  0.7818609E-02  0.8235939E-01
       -2   -1    0    0    0  501  0.00000000000E+00  0.00000000000E+00  0.17731327712E+04  0.17731327712E+04  0.25500000920E-02 0. -1.
        2   -1    0    0  501    0  0.00000000000E+00  0.00000000000E+00 -0.12922593807E+04  0.12922593807E+04  0.25500000920E-02 0.  1.
    10030    2    1    2    0    0  0.00000000000E+00  0.00000000000E+00  0.48087339050E+03  0.30653921518E+04  0.30274394836E+04 0.  0.
        4    1    3    3  502    0 -0.96463854925E+03  0.52450827759E+03 -0.81459951496E+03  0.13671907133E+04  0.12699999809E+01 0.  1.
       -4    1    3    3    0  502  0.96463854925E+03 -0.52450827759E+03  0.12954729055E+04  0.16982014385E+04  0.12699999809E+01 0. -1.
</event>
<event>
 5   0  0.4900679E-06  0.3062355E+04  0.7818609E-02  0.8226146E-01
       -2   -1    0    0    0  501  0.00000000000E+00  0.00000000000E+00  0.12913917156E+04  0.12913917156E+04  0.25500000920E-02 0. -1.
        2   -1    0    0  501    0  0.00000000000E+00  0.00000000000E+00 -0.18154870510E+04  0.18154870510E+04  0.25500000920E-02 0.  1.
    10030    2    1    2    0    0  0.00000000000E+00  0.00000000000E+00 -0.52409533547E+03  0.31068787666E+04  0.30623552618E+04 0.  0.
        4    1    3    3  502    0 -0.14557741824E+04 -0.47130555467E+03 -0.31849769955E+03  0.15629618657E+04  0.12699999809E+01 0. -1.
       -4    1    3    3    0  502  0.14557741824E+04  0.47130555467E+03 -0.20559763592E+03  0.15439169009E+04  0.12699999809E+01 0.  1.
</event>
<event>
 5   0  0.5114870E-06  0.3073307E+04  0.7818609E-02  0.8223102E-01
        2   -1    0    0  501    0  0.00000000000E+00  0.00000000000E+00  0.18890521369E+04  0.18890521369E+04  0.25500000920E-02 0.  1.
       -2   -1    0    0    0  501  0.00000000000E+00  0.00000000000E+00 -0.12499943577E+04  0.12499943577E+04  0.25500000920E-02 0. -1.
    10030    2    1    2    0    0  0.00000000000E+00  0.00000000000E+00  0.63905777921E+03  0.31390464946E+04  0.30733073471E+04 0.  0.
        2    1    3    3  502    0  0.14154177528E+04  0.49777927407E+02 -0.28939390312E+03  0.14455566707E+04  0.25500000920E-02 0. -1.
       -2    1    3    3    0  502 -0.14154177528E+04 -0.49777927407E+02  0.92845168234E+03  0.16934898239E+04  0.25500000920E-02 0.  1.
</event>
<event>
 5   0  0.1843709E-06  0.3121568E+04  0.7818609E-02  0.8209844E-01
       -1   -1    0    0    0  501  0.00000000000E+00  0.00000000000E+00  0.14088759669E+04  0.14088759669E+04  0.50400001928E-02 0. -1.
        1   -1    0    0  501    0  0.00000000000E+00  0.00000000000E+00 -0.17290713913E+04  0.17290713913E+04  0.50400001928E-02 0.  1.
    10030    2    1    2    0    0  0.00000000000E+00  0.00000000000E+00 -0.32019542446E+03  0.31379473582E+04  0.31215682778E+04 0.  0.
        4    1    3    3  502    0 -0.60090927803E+02 -0.20698729366E+03 -0.17140389389E+04  0.17275374834E+04  0.12699999809E+01 0.  1.
       -4    1    3    3    0  502  0.60090927803E+02  0.20698729366E+03  0.13938435145E+04  0.14104098748E+04  0.12699999809E+01 0. -1.
</event>
<event>
 5   0  0.1885307E-06  0.3077722E+04  0.7818609E-02  0.8221879E-01
       -1   -1    0    0    0  501  0.00000000000E+00  0.00000000000E+00  0.12819021006E+04  0.12819021006E+04  0.50400001928E-02 0.  1.
        1   -1    0    0  501    0  0.00000000000E+00  0.00000000000E+00 -0.18473279683E+04  0.18473279683E+04  0.50400001928E-02 0. -1.
    10030    2    1    2    0    0  0.00000000000E+00  0.00000000000E+00 -0.56542586768E+03  0.31292300688E+04  0.30777222766E+04 0.  0.
        3    1    3    3  502    0 -0.62705562996E+03  0.13934933093E+04 -0.97814506049E+02  0.15312054251E+04  0.10100000352E+00 0. -1.
       -3    1    3    3    0  502  0.62705562996E+03 -0.13934933093E+04 -0.46761136163E+03  0.15980246437E+04  0.10100000352E+00 0.  1.
</event>
<event>
 5   0  0.1843709E-06  0.3089771E+04  0.7818609E-02  0.8218551E-01
       -1   -1    0    0    0  501  0.00000000000E+00  0.00000000000E+00  0.16602066232E+04  0.16602066232E+04  0.50400001928E-02 0. -1.
        1   -1    0    0  501    0  0.00000000000E+00  0.00000000000E+00 -0.14375747952E+04  0.14375747952E+04  0.50400001928E-02 0.  1.
    10030    2    1    2    0    0  0.00000000000E+00  0.00000000000E+00  0.22263182803E+03  0.30977814184E+04  0.30897709924E+04 0.  0.
        4    1    3    3  502    0 -0.87966889514E+03  0.12692270025E+04  0.15519047575E+03  0.15520438929E+04  0.12699999809E+01 0. -1.
       -4    1    3    3    0  502  0.87966889514E+03 -0.12692270025E+04  0.67441352276E+02  0.15457375255E+04  0.12699999809E+01 0.  1.
</event>
<event>
 5   0  0.1843709E-06  0.3091880E+04  0.7818609E-02  0.8217970E-01
       -1   -1    0    0    0  501  0.00000000000E+00  0.00000000000E+00  0.81718668017E+03  0.81718668019E+03  0.50400001928E-02 0.  1.
        1   -1    0    0  501    0  0.00000000000E+00  0.00000000000E+00 -0.29245823615E+04  0.29245823615E+04  0.50400001928E-02 0. -1.
    10030    2    1    2    0    0  0.00000000000E+00  0.00000000000E+00 -0.21073956813E+04  0.37417690417E+04  0.30918795261E+04 0.  0.
        4    1    3    3  502    0 -0.85344694798E+03  0.78700295235E+03  0.18175554608E+03  0.11750668200E+04  0.12699999809E+01 0.  1.
       -4    1    3    3    0  502  0.85344694798E+03 -0.78700295235E+03 -0.22891512274E+04  0.25667022217E+04  0.12699999809E+01 0. -1.
</event>
<event>
 5   0  0.5328368E-06  0.3034878E+04  0.7818609E-02  0.8233841E-01
       -2   -1    0    0    0  501  0.00000000000E+00  0.00000000000E+00  0.13956451883E+04  0.13956451883E+04  0.25500000920E-02 0.  1.
        2   -1    0    0  501    0  0.00000000000E+00  0.00000000000E+00 -0.16498613315E+04  0.16498613315E+04  0.25500000920E-02 0. -1.
    10030    2    1    2    0    0  0.00000000000E+00  0.00000000000E+00 -0.25421614319E+03  0.30455065198E+04  0.30348779406E+04 0.  0.
        1    1    3    3  502    0  0.10965566893E+04 -0.35844754155E+03 -0.11163086572E+04  0.16053243383E+04  0.50400001928E-02 0. -1.
       -1    1    3    3    0  502 -0.10965566893E+04  0.35844754155E+03  0.86209251402E+03  0.14401821814E+04  0.50400001928E-02 0.  1.
</event>
<event>
 5   0  0.5114870E-06  0.3133001E+04  0.7818609E-02  0.8206739E-01
       -2   -1    0    0    0  501  0.00000000000E+00  0.00000000000E+00  0.19989680710E+04  0.19989680710E+04  0.25500000920E-02 0.  1.
        2   -1    0    0  501    0  0.00000000000E+00  0.00000000000E+00 -0.12275954902E+04  0.12275954902E+04  0.25500000920E-02 0. -1.
    10030    2    1    2    0    0  0.00000000000E+00  0.00000000000E+00  0.77137258078E+03  0.32265635613E+04  0.31330012379E+04 0.  0.
        2    1    3    3  502    0  0.16921431438E+03  0.13211711993E+04 -0.46343434927E+03  0.14102830277E+04  0.25500000920E-02 0. -1.
       -2    1    3    3    0  502 -0.16921431438E+03 -0.13211711993E+04  0.12348069301E+04  0.18162805336E+04  0.25500000920E-02 0.  1.
</event>
<event>
 5   0  0.5001658E-06  0.3067457E+04  0.7818609E-02  0.8224726E-01
       -2   -1    0    0    0  501  0.00000000000E+00  0.00000000000E+00  0.12347189334E+04  0.12347189334E+04  0.25500000920E-02 0.  1.
        2   -1    0    0  501    0  0.00000000000E+00  0.00000000000E+00 -0.19051487502E+04  0.19051487502E+04  0.25500000920E-02 0. -1.
    10030    2    1    2    0    0  0.00000000000E+00  0.00000000000E+00 -0.67042981677E+03  0.31398676836E+04  0.30674570790E+04 0.  0.
        3    1    3    3  502    0  0.42932263188E+03 -0.90183129002E+02  0.11691281628E+04  0.12487239848E+04  0.10100000352E+00 0.  1.
       -3    1    3    3    0  502 -0.42932263188E+03  0.90183129002E+02 -0.18395579796E+04  0.18911436988E+04  0.10100000352E+00 0. -1.
</event>
<event>
 5   0  0.4927533E-06  0.3093374E+04  0.7818609E-02  0.8217559E-01
        2   -1    0    0  501    0  0.00000000000E+00  0.00000000000E+00  0.16255212823E+04  0.16255212823E+04  0.25500000920E-02 0. -1.
       -2   -1    0    0    0  501  0.00000000000E+00  0.00000000000E+00 -0.14716756300E+04  0.14716756300E+04  0.25500000920E-02 0.  1.
    10030    2    1    2    0    0  0.00000000000E+00  0.00000000000E+00  0.15384565237E+03  0.30971969123E+04  0.30933735999E+04 0.  0.
        5    1    3    3  502    0 -0.23487125521E+03  0.14803174295E+04  0.45911935494E+03  0.15675831303E+04  0.46999998093E+01 0.  1.
       -5    1    3    3    0  502  0.23487125521E+03 -0.14803174295E+04 -0.30527370257E+03  0.15296137820E+04  0.46999998093E+01 0. -1.
</event>
<event>
 5   0  0.1853742E-06  0.3102257E+04  0.7818609E-02  0.8215119E-01
        1   -1    0    0  501    0  0.00000000000E+00  0.00000000000E+00  0.22605506593E+04  0.22605506593E+04  0.50400001928E-02 0. -1.
       -1   -1    0    0    0  501  0.00000000000E+00  0.00000000000E+00 -0.10643424993E+04  0.10643424993E+04  0.50400001928E-02 0.  1.
    10030    2    1    2    0    0  0.00000000000E+00  0.00000000000E+00  0.11962081600E+04  0.33248931585E+04  0.31022573320E+04 0.  0.
        5    1    3    3  502    0  0.11793331854E+04  0.35484435881E+03 -0.41256407145E+03  0.12988350489E+04  0.46999998093E+01 0.  1.
       -5    1    3    3    0  502 -0.11793331854E+04 -0.35484435881E+03  0.16087722314E+04  0.20260581097E+04  0.46999998093E+01 0. -1.
</event>
<event>
 5   0  0.1836401E-06  0.3044699E+04  0.7818609E-02  0.8231081E-01
       -1   -1    0    0    0  501  0.00000000000E+00  0.00000000000E+00  0.28341353458E+04  0.28341353458E+04  0.50400001928E-02 0.  1.
        1   -1    0    0  501    0  0.00000000000E+00  0.00000000000E+00 -0.81772670320E+03  0.81772670321E+03  0.50400001928E-02 0. -1.
    10030    2    1    2    0    0  0.00000000000E+00  0.00000000000E+00  0.20164086426E+04  0.36518620490E+04  0.30446991003E+04 0.  0.
        2    1    3    3  502    0 -0.10660835435E+04  0.52528542316E+03 -0.13287461650E+03  0.11958739738E+04  0.25500000920E-02 0. -1.
       -2    1    3    3    0  502  0.10660835435E+04 -0.52528542316E+03  0.21492832591E+04  0.24559880752E+04  0.25500000920E-02 0.  1.
</event>
<event>
 5   0  0.1853742E-06  0.3096329E+04  0.7818609E-02  0.8216746E-01
       -1   -1    0    0    0  501  0.00000000000E+00  0.00000000000E+00  0.98141576038E+03  0.98141576039E+03  0.50400001928E-02 0.  1.
        1   -1    0    0  501    0  0.00000000000E+00  0.00000000000E+00 -0.24422004066E+04  0.24422004066E+04  0.50400001928E-02 0. -1.
    10030    2    1    2    0    0  0.00000000000E+00  0.00000000000E+00 -0.14607846462E+04  0.34236161670E+04  0.30963294198E+04 0.  0.
        5    1    3    3  502    0 -0.13169428995E+04  0.44353739051E+03  0.24185468881E+02  0.13898456908E+04  0.46999998093E+01 0.  1.
       -5    1    3    3    0  502  0.13169428995E+04 -0.44353739051E+03 -0.14849701151E+04  0.20337704762E+04  0.46999998093E+01 0. -1.
</event>
<event>
 5   0  0.5114870E-06  0.3149340E+04  0.7818609E-02  0.8202326E-01
       -2   -1    0    0    0  501  0.00000000000E+00  0.00000000000E+00  0.27224748857E+04  0.27224748857E+04  0.25500000920E-02 0.  1.
        2   -1    0    0  501    0  0.00000000000E+00  0.00000000000E+00 -0.91078390868E+03  0.91078390868E+03  0.25500000920E-02 0. -1.
    10030    2    1    2    0    0  0.00000000000E+00  0.00000000000E+00  0.18116909770E+04  0.36332587944E+04  0.31493404501E+04 0.  0.
        2    1    3    3  502    0 -0.28553340172E+03 -0.90230830813E+03  0.23577570070E+04  0.25406116804E+04  0.25500000920E-02 0.  1.
       -2    1    3    3    0  502  0.28553340172E+03  0.90230830813E+03 -0.54606603005E+03  0.10926471139E+04  0.25500000920E-02 0. -1.
</event>
<event>
 5   0  0.5328368E-06  0.3047402E+04  0.7818609E-02  0.8230323E-01
        2   -1    0    0  501    0  0.00000000000E+00  0.00000000000E+00  0.21674770328E+04  0.21674770328E+04  0.25500000920E-02 0. -1.
       -2   -1    0    0    0  501  0.00000000000E+00  0.00000000000E+00 -0.10711366889E+04  0.10711366889E+04  0.25500000920E-02 0.  1.
    10030    2    1    2    0    0  0.00000000000E+00  0.00000000000E+00  0.10963403440E+04  0.32386137217E+04  0.30474016290E+04 0.  0.
        1    1    3    3  502    0 -0.20321269697E+03  0.13697730216E+04 -0.12739748952E+03  0.13906126892E+04  0.50400001928E-02 0.  1.
       -1    1    3    3    0  502  0.20321269697E+03 -0.13697730216E+04  0.12237378335E+04  0.18480010325E+04  0.50400001928E-02 0. -1.
</event>
<event>
 5   0  0.5328368E-06  0.3071164E+04  0.7818609E-02  0.8223697E-01
        2   -1    0    0  501    0  0.00000000000E+00  0.00000000000E+00  0.30615355374E+04  0.30615355375E+04  0.25500000920E-02 0.  1.
       -2   -1    0    0    0  501  0.00000000000E+00  0.00000000000E+00 -0.77020544939E+03  0.77020544940E+03  0.25500000920E-02 0. -1.
    10030    2    1    2    0    0  0.00000000000E+00  0.00000000000E+00  0.22913300881E+04  0.38317409868E+04  0.30711635283E+04 0.  0.
        1    1    3    3  502    0  0.60605495620E+03  0.13993911762E+04  0.13702875959E+04  0.20501917885E+04  0.50400001928E-02 0.  1.
       -1    1    3    3    0  502 -0.60605495620E+03 -0.13993911762E+04  0.92104249213E+03  0.17815491984E+04  0.50400001928E-02 0. -1.
</event>
<event>
 5   0  0.5001658E-06  0.3207734E+04  0.7818609E-02  0.8186778E-01
       -2   -1    0    0    0  501  0.00000000000E+00  0.00000000000E+00  0.17217064777E+04  0.17217064777E+04  0.25500000920E-02 0.  1.
        2   -1    0    0  501    0  0.00000000000E+00  0.00000000000E+00 -0.14940929292E+04  0.14940929293E+04  0.25500000920E-02 0. -1.
    10030    2    1    2    0    0  0.00000000000E+00  0.00000000000E+00  0.22761354842E+03  0.32157994069E+04  0.32077340753E+04 0.  0.
        3    1    3    3  502    0 -0.12213330301E+04  0.64556257825E+03 -0.70309420591E+03  0.15500796384E+04  0.10100000352E+00 0. -1.
       -3    1    3    3    0  502  0.12213330301E+04 -0.64556257825E+03  0.93070775432E+03  0.16657197685E+04  0.10100000352E+00 0.  1.
</event>
<event>
 5   0  0.1843709E-06  0.3077410E+04  0.7818609E-02  0.8221965E-01
       -1   -1    0    0    0  501  0.00000000000E+00  0.00000000000E+00  0.14708916120E+04  0.14708916120E+04  0.50400001928E-02 0.  1.
        1   -1    0    0  501    0  0.00000000000E+00  0.00000000000E+00 -0.16096451033E+04  0.16096451033E+04  0.50400001928E-02 0. -1.
    10030    2    1    2    0    0  0.00000000000E+00  0.00000000000E+00 -0.13875349127E+03  0.30805367153E+04  0.30774102624E+04 0.  0.
        4    1    3    3  502    0 -0.17042139889E+03 -0.48093059540E+03 -0.15224968594E+04  0.16057197733E+04  0.12699999809E+01 0. -1.
       -4    1    3    3    0  502  0.17042139889E+03  0.48093059540E+03  0.13837433681E+04  0.14748169420E+04  0.12699999809E+01 0.  1.
</event>
<event>
 5   0  0.5001658E-06  0.2846365E+04  0.7818609E-02  0.8289017E-01
        2   -1    0    0  501    0  0.00000000000E+00  0.00000000000E+00  0.22563349910E+04  0.22563349910E+04  0.25500000920E-02 0. -1.
       -2   -1    0    0    0  501  0.00000000000E+00  0.00000000000E+00 -0.89767198326E+03  0.89767198326E+03  0.25500000920E-02 0.  1.
    10030    2    1    2    0    0  0.00000000000E+00  0.00000000000E+00  0.13586630077E+04  0.31540069743E+04  0.28463651953E+04 0.  0.
        3    1    3    3  502    0 -0.47897221784E+03 -0.82366585824E+02  0.21615340288E+04  0.22154972372E+04  0.10100000352E+00 0. -1.
       -3    1    3    3    0  502  0.47897221784E+03  0.82366585824E+02 -0.80287102109E+03  0.93850973709E+03  0.10100000352E+00 0.  1.
</event>
<event>
 5   0  0.1836401E-06  0.3108932E+04  0.7818609E-02  0.8213291E-01
        1   -1    0    0  501    0  0.00000000000E+00  0.00000000000E+00  0.25316626963E+04  0.25316626963E+04  0.50400001928E-02 0. -1.
       -1   -1    0    0    0  501  0.00000000000E+00  0.00000000000E+00 -0.95445724724E+03  0.95445724725E+03  0.50400001928E-02 0.  1.
    10030    2    1    2    0    0  0.00000000000E+00  0.00000000000E+00  0.15772054491E+04  0.34861199436E+04  0.31089315259E+04 0.  0.
        2    1    3    3  502    0  0.75991510603E+03  0.17045567440E+01  0.23091818925E+04  0.24310069697E+04  0.25500000920E-02 0. -1.
       -2    1    3    3    0  502 -0.75991510603E+03 -0.17045567440E+01 -0.73197644345E+03  0.10551129739E+04  0.25500000920E-02 0.  1.
</event>
<event>
 5   0  0.4927533E-06  0.3010126E+04  0.7818609E-02  0.8240845E-01
       -2   -1    0    0    0  501  0.00000000000E+00  0.00000000000E+00  0.11631512409E+04  0.11631512409E+04  0.25500000920E-02 0.  1.
        2   -1    0    0  501    0  0.00000000000E+00  0.00000000000E+00 -0.19474810241E+04  0.19474810241E+04  0.25500000920E-02 0. -1.
    10030    2    1    2    0    0  0.00000000000E+00  0.00000000000E+00 -0.78432978315E+03  0.31106322650E+04  0.30101262232E+04 0.  0.
        5    1    3    3  502    0  0.41677836523E+03  0.12462760535E+04  0.36601100236E+03  0.13641460154E+04  0.46999998093E+01 0.  1.
       -5    1    3    3    0  502 -0.41677836523E+03 -0.12462760535E+04 -0.11503407855E+04  0.17464862496E+04  0.46999998093E+01 0. -1.
</event>
<event>
 5   0  0.5001658E-06  0.3056963E+04  0.7818609E-02  0.8227649E-01
       -2   -1    0    0    0  501  0.00000000000E+00  0.00000000000E+00  0.14207957075E+04  0.14207957075E+04  0.25500000920E-02 0. -1.
        2   -1    0    0  501    0  0.00000000000E+00  0.00000000000E+00 -0.16443290251E+04  0.16443290251E+04  0.25500000920E-02 0.  1.
    10030    2    1    2    0    0  0.00000000000E+00  0.00000000000E+00 -0.22353331753E+03  0.30651247326E+04  0.30569629507E+04 0.  0.
        3    1    3    3  502    0 -0.12469617919E+04  0.70945470747E+02 -0.99520285062E+03  0.15969895724E+04  0.10100000352E+00 0.  1.
       -3    1    3    3    0  502  0.12469617919E+04 -0.70945470747E+02  0.77166953308E+03  0.14681351602E+04  0.10100000352E+00 0. -1.
</event>
<event>
 5   0  0.1836401E-06  0.3077407E+04  0.7818609E-02  0.8221966E-01
        1   -1    0    0  501    0  0.00000000000E+00  0.00000000000E+00  0.11396964933E+04  0.11396964933E+04  0.50400001928E-02 0. -1.
       -1   -1    0    0    0  501  0.00000000000E+00  0.00000000000E+00 -0.20774020287E+04  0.20774020287E+04  0.50400001928E-02 0.  1.
    10030    2    1    2    0    0  0.00000000000E+00  0.00000000000E+00 -0.93770553539E+03  0.32170985220E+04  0.30774065752E+04 0.  0.
        2    1    3    3  502    0 -0.65753533666E+03 -0.13329813616E+04 -0.88493454981E+03  0.17298269240E+04  0.25500000920E-02 0.  1.
       -2    1    3    3    0  502  0.65753533666E+03  0.13329813616E+04 -0.52770985578E+02  0.14872715980E+04  0.25500000920E-02 0. -1.
</event>
<event>
 5   0  0.1836401E-06  0.3041654E+04  0.7818609E-02  0.8231935E-01
       -1   -1    0    0    0  501  0.00000000000E+00  0.00000000000E+00  0.13802714515E+04  0.13802714515E+04  0.50400001928E-02 0.  1.
        1   -1    0    0  501    0  0.00000000000E+00  0.00000000000E+00 -0.16756959808E+04  0.16756959808E+04  0.50400001928E-02 0. -1.
    10030    2    1    2    0    0  0.00000000000E+00  0.00000000000E+00 -0.29542452930E+03  0.30559674324E+04  0.30416543681E+04 0.  0.
        2    1    3    3  502    0  0.11931454277E+04  0.33279949618E+03  0.73880248314E+03  0.14422831294E+04  0.25500000920E-02 0.  1.
       -2    1    3    3    0  502 -0.11931454277E+04 -0.33279949618E+03 -0.10342270124E+04  0.16136843030E+04  0.25500000920E-02 0. -1.
</event>
<event>
 5   0  0.1649875E-06  0.3033798E+04  0.7818609E-02  0.8234145E-01
        3   -1    0    0  501    0  0.00000000000E+00  0.00000000000E+00  0.23075134617E+04  0.23075134639E+04  0.10100000352E+00 0. -1.
       -3   -1    0    0    0  501  0.00000000000E+00  0.00000000000E+00 -0.99716983809E+03  0.99716984321E+03  0.10100000352E+00 0.  1.
    10030    2    1    2    0    0  0.00000000000E+00  0.00000000000E+00  0.13103436236E+04  0.33046833071E+04  0.30337981720E+04 0.  0.
        1    1    3    3  502    0  0.83526072199E+03 -0.91113250658E+03  0.16129784162E+04  0.20321226068E+04  0.50400001928E-02 0. -1.
       -1    1    3    3    0  502 -0.83526072199E+03  0.91113250658E+03 -0.30263479253E+03  0.12725607003E+04  0.50400001928E-02 0.  1.
</event>
<event>
 5   0  0.5114870E-06  0.3094085E+04  0.7818609E-02  0.8217363E-01
       -2   -1    0    0    0  501  0.00000000000E+00  0.00000000000E+00  0.13256457744E+04  0.13256457744E+04  0.25500000920E-02 0. -1.
        2   -1    0    0  501    0  0.00000000000E+00  0.00000000000E+00 -0.18054153154E+04  0.18054153154E+04  0.25500000920E-02 0.  1.
    10030    2    1    2    0    0  0.00000000000E+00  0.00000000000E+00 -0.47976954099E+03  0.31310610899E+04  0.30940854442E+04 0.  0.
        2    1    3    3  502    0  0.13659479607E+04 -0.63282574151E+03 -0.60059780938E+03  0.16208022641E+04  0.25500000920E-02 0. -1.
       -2    1    3    3    0  502 -0.13659479607E+04  0.63282574151E+03  0.12082826840E+03  0.15102588258E+04  0.25500000920E-02 0.  1.
</event>
<event>
 5   0  0.5114870E-06  0.3124686E+04  0.7818609E-02  0.8208995E-01
        2   -1    0    0  501    0  0.00000000000E+00  0.00000000000E+00  0.20849078723E+04  0.20849078723E+04  0.25500000920E-02 0.  1.
       -2   -1    0    0    0  501  0.00000000000E+00  0.00000000000E+00 -0.11707548285E+04  0.11707548285E+04  0.25500000920E-02 0. -1.
    10030    2    1    2    0    0  0.00000000000E+00  0.00000000000E+00  0.91415304373E+03  0.32556627008E+04  0.31246861977E+04 0.  0.
        2    1    3    3  502    0  0.83900963176E+03 -0.56857681713E+03 -0.78175287076E+03  0.12799821523E+04  0.25500000920E-02 0. -1.
       -2    1    3    3    0  502 -0.83900963176E+03  0.56857681713E+03  0.16959059145E+04  0.19756805486E+04  0.25500000920E-02 0.  1.
</event>
<event>
 5   0  0.1885307E-06  0.3086271E+04  0.7818609E-02  0.8219516E-01
        1   -1    0    0  501    0  0.00000000000E+00  0.00000000000E+00  0.10526583307E+04  0.10526583307E+04  0.50400001928E-02 0. -1.
       -1   -1    0    0    0  501  0.00000000000E+00  0.00000000000E+00 -0.22621462274E+04  0.22621462274E+04  0.50400001928E-02 0.  1.
    10030    2    1    2    0    0  0.00000000000E+00  0.00000000000E+00 -0.12094878968E+04  0.33148045581E+04  0.30862709353E+04 0.  0.
        3    1    3    3  502    0 -0.26988502960E+03  0.48774164088E+03  0.94074320614E+03  0.10934933139E+04  0.10100000352E+00 0. -1.
       -3    1    3    3    0  502  0.26988502960E+03 -0.48774164088E+03 -0.21502311029E+04  0.22213112442E+04  0.10100000352E+00 0.  1.
</event>
<event>
 5   0  0.4900679E-06  0.3030658E+04  0.7818609E-02  0.8235030E-01
        2   -1    0    0  501    0  0.00000000000E+00  0.00000000000E+00  0.19596037101E+04  0.19596037101E+04  0.25500000920E-02 0. -1.
       -2   -1    0    0    0  501  0.00000000000E+00  0.00000000000E+00 -0.11717790108E+04  0.11717790108E+04  0.25500000920E-02 0.  1.
    10030    2    1    2    0    0  0.00000000000E+00  0.00000000000E+00  0.78782469929E+03  0.31313827209E+04  0.30306583423E+04 0.  0.
        4    1    3    3  502    0 -0.27277781232E+03 -0.78840739301E+03 -0.91313090154E+03  0.12368522986E+04  0.12699999809E+01 0.  1.
       -4    1    3    3    0  502  0.27277781232E+03  0.78840739301E+03  0.17009556008E+04  0.18945304223E+04  0.12699999809E+01 0. -1.
</event>
<event>
 5   0  0.1840431E-06  0.3040890E+04  0.7818609E-02  0.8232150E-01
       -1   -1    0    0    0  501  0.00000000000E+00  0.00000000000E+00  0.98513919549E+03  0.98513919550E+03  0.50400001928E-02 0.  1.
        1   -1    0    0  501    0  0.00000000000E+00  0.00000000000E+00 -0.23466260246E+04  0.23466260246E+04  0.50400001928E-02 0. -1.
    10030    2    1    2    0    0  0.00000000000E+00  0.00000000000E+00 -0.13614868291E+04  0.33317652201E+04  0.30408901815E+04 0.  0.
        1    1    3    3  502    0  0.99133817573E+03  0.10967241586E+04 -0.10699676878E+04  0.18249345500E+04  0.50400001928E-02 0.  1.
       -1    1    3    3    0  502 -0.99133817573E+03 -0.10967241586E+04 -0.29151914137E+03  0.15068306702E+04  0.50400001928E-02 0. -1.
</event>
<event>
 5   0  0.5114870E-06  0.3119852E+04  0.7818609E-02  0.8210311E-01
        2   -1    0    0  501    0  0.00000000000E+00  0.00000000000E+00  0.24211989594E+04  0.24211989594E+04  0.25500000920E-02 0.  1.
       -2   -1    0    0    0  501  0.00000000000E+00  0.00000000000E+00 -0.10050266391E+04  0.10050266391E+04  0.25500000920E-02 0. -1.
    10030    2    1    2    0    0  0.00000000000E+00  0.00000000000E+00  0.14161723203E+04  0.34262255985E+04  0.31198522099E+04 0.  0.
        2    1    3    3  502    0 -0.26069934798E+03  0.15260537229E+04  0.49808740176E+03  0.16263133693E+04  0.25500000920E-02 0.  1.
       -2    1    3    3    0  502  0.26069934798E+03 -0.15260537229E+04  0.91808491850E+03  0.17999122292E+04  0.25500000920E-02 0. -1.
</event>
<event>
 5   0  0.1853742E-06  0.3098950E+04  0.7818609E-02  0.8216026E-01
        1   -1    0    0  501    0  0.00000000000E+00  0.00000000000E+00  0.10832409873E+04  0.10832409873E+04  0.50400001928E-02 0.  1.
       -1   -1    0    0    0  501  0.00000000000E+00  0.00000000000E+00 -0.22163792312E+04  0.22163792312E+04  0.50400001928E-02 0. -1.
    10030    2    1    2    0    0  0.00000000000E+00  0.00000000000E+00 -0.11331382439E+04  0.32996202185E+04  0.30989500330E+04 0.  0.
        5    1    3    3  502    0 -0.19137153535E+03 -0.57160825318E+03  0.95326889611E+03  0.11278753202E+04  0.46999998093E+01 0.  1.
       -5    1    3    3    0  502  0.19137153535E+03  0.57160825318E+03 -0.20864071400E+04  0.21717448983E+04  0.46999998093E+01 0. -1.
</event>
<event>
 5   0  0.5328368E-06  0.3104680E+04  0.7818609E-02  0.8214455E-01
       -2   -1    0    0    0  501  0.00000000000E+00  0.00000000000E+00  0.11311733365E+04  0.11311733365E+04  0.25500000920E-02 0.  1.
        2   -1    0    0  501    0  0.00000000000E+00  0.00000000000E+00 -0.21303180191E+04  0.21303180191E+04  0.25500000920E-02 0. -1.
    10030    2    1    2    0    0  0.00000000000E+00  0.00000000000E+00 -0.99914468259E+03  0.32614913557E+04  0.31046796560E+04 0.  0.
        1    1    3    3  502    0  0.38195651037E+03  0.11088174555E+04 -0.15679923579E+04  0.19580518277E+04  0.50400001928E-02 0. -1.
       -1    1    3    3    0  502 -0.38195651037E+03 -0.11088174555E+04  0.56884767528E+03  0.13034395280E+04  0.50400001928E-02 0.  1.
</event>
<event>
 5   0  0.4927533E-06  0.3128647E+04  0.7818609E-02  0.8207920E-01
       -2   -1    0    0    0  501  0.00000000000E+00  0.00000000000E+00  0.15961309574E+04  0.15961309574E+04  0.25500000920E-02 0.  1.
        2   -1    0    0  501    0  0.00000000000E+00  0.00000000000E+00 -0.15331498725E+04  0.15331498725E+04  0.25500000920E-02 0. -1.
    10030    2    1    2    0    0  0.00000000000E+00  0.00000000000E+00  0.62981084933E+02  0.31292808299E+04  0.31286469752E+04 0.  0.
        5    1    3    3  502    0  0.65433889271E+03 -0.77364508022E+03  0.12235372627E+04  0.15886319963E+04  0.46999998093E+01 0.  1.
       -5    1    3    3    0  502 -0.65433889271E+03  0.77364508022E+03 -0.11605561777E+04  0.15406488335E+04  0.46999998093E+01 0. -1.
</event>
<event>
 5   0  0.1840431E-06  0.2997288E+04  0.7818609E-02  0.8244506E-01
       -1   -1    0    0    0  501  0.00000000000E+00  0.00000000000E+00  0.11474739444E+04  0.11474739444E+04  0.50400001928E-02 0. -1.
        1   -1    0    0  501    0  0.00000000000E+00  0.00000000000E+00 -0.19572849496E+04  0.19572849496E+04  0.50400001928E-02 0.  1.
    10030    2    1    2    0    0  0.00000000000E+00  0.00000000000E+00 -0.80981100518E+03  0.31047588940E+04  0.29972877616E+04 0.  0.
        1    1    3    3  502    0  0.13714926958E+04  0.47408483281E+03 -0.79274314791E+03  0.16535387331E+04  0.50400001928E-02 0.  1.
       -1    1    3    3    0  502 -0.13714926958E+04 -0.47408483281E+03 -0.17067857268E+02  0.14512201608E+04  0.50400001928E-02 0. -1.
</event>
<event>
 5   0  0.1843709E-06  0.3097699E+04  0.7818609E-02  0.8216370E-01
       -1   -1    0    0    0  501  0.00000000000E+00  0.00000000000E+00  0.18119189119E+04  0.18119189119E+04  0.50400001928E-02 0.  1.
        1   -1    0    0  501    0  0.00000000000E+00  0.00000000000E+00 -0.13239743927E+04  0.13239743927E+04  0.50400001928E-02 0. -1.
    10030    2    1    2    0    0  0.00000000000E+00  0.00000000000E+00  0.48794451927E+03  0.31358933046E+04  0.30976986561E+04 0.  0.
        4    1    3    3  502    0 -0.27462468414E+03 -0.84104526064E+03 -0.10429842022E+04  0.13676964234E+04  0.12699999809E+01 0. -1.
       -4    1    3    3    0  502  0.27462468414E+03  0.84104526064E+03  0.15309287215E+04  0.17681968812E+04  0.12699999809E+01 0.  1.
</event>
<event>
 5   0  0.1843709E-06  0.3069834E+04  0.7818609E-02  0.8224066E-01
        1   -1    0    0  501    0  0.00000000000E+00  0.00000000000E+00  0.17229068670E+04  0.17229068670E+04  0.50400001928E-02 0. -1.
       -1   -1    0    0    0  501  0.00000000000E+00  0.00000000000E+00 -0.13674392986E+04  0.13674392986E+04  0.50400001928E-02 0.  1.
    10030    2    1    2    0    0  0.00000000000E+00  0.00000000000E+00  0.35546756835E+03  0.30903461656E+04  0.30698342352E+04 0.  0.
        4    1    3    3  502    0 -0.77167304964E+03 -0.12268296885E+04 -0.33099279143E+03  0.14866567260E+04  0.12699999809E+01 0.  1.
       -4    1    3    3    0  502  0.77167304964E+03  0.12268296885E+04  0.68646035978E+03  0.16036894396E+04  0.12699999809E+01 0. -1.
</event>
<event>
 5   0  0.5114870E-06  0.2827559E+04  0.7818609E-02  0.8294763E-01
       -2   -1    0    0    0  501  0.00000000000E+00  0.00000000000E+00  0.20297621206E+04  0.20297621206E+04  0.25500000920E-02 0. -1.
        2   -1    0    0  501    0  0.00000000000E+00  0.00000000000E+00 -0.98473261151E+03  0.98473261151E+03  0.25500000920E-02 0.  1.
    10030    2    1    2    0    0  0.00000000000E+00  0.00000000000E+00  0.10450295091E+04  0.30144947321E+04  0.28275593389E+04 0.  0.
        2    1    3    3  502    0  0.79570765899E+03 -0.66057839327E+03 -0.50519638434E+03  0.11509725796E+04  0.25500000920E-02 0.  1.
       -2    1    3    3    0  502 -0.79570765899E+03  0.66057839327E+03  0.15502258934E+04  0.18635221525E+04  0.25500000920E-02 0. -1.
</event>
<event>
 5   0  0.5114870E-06  0.3066072E+04  0.7818609E-02  0.8225111E-01
        2   -1    0    0  501    0  0.00000000000E+00  0.00000000000E+00  0.14814662637E+04  0.14814662637E+04  0.25500000920E-02 0. -1.
       -2   -1    0    0    0  501  0.00000000000E+00  0.00000000000E+00 -0.15864008649E+04  0.15864008649E+04  0.25500000920E-02 0.  1.
    10030    2    1    2    0    0  0.00000000000E+00  0.00000000000E+00 -0.10493460119E+03  0.30678671286E+04  0.30660719901E+04 0.  0.
        2    1    3    3  502    0 -0.11897598357E+04  0.95896913991E+03 -0.17521383335E+03  0.15381320377E+04  0.25500000920E-02 0. -1.
       -2    1    3    3    0  502  0.11897598357E+04 -0.95896913991E+03  0.70279232160E+02  0.15297350909E+04  0.25500000920E-02 0.  1.
</event>
<event>
 5   0  0.4900679E-06  0.3056087E+04  0.7818609E-02  0.8227894E-01
        2   -1    0    0  501    0  0.00000000000E+00  0.00000000000E+00  0.22409752986E+04  0.22409752986E+04  0.25500000920E-02 0. -1.
       -2   -1    0    0    0  501  0.00000000000E+00  0.00000000000E+00 -0.10419200778E+04  0.10419200778E+04  0.25500000920E-02 0.  1.
    10030    2    1    2    0    0  0.00000000000E+00  0.00000000000E+00  0.11990552208E+04  0.32828953765E+04  0.30560871438E+04 0.  0.
        4    1    3    3  502    0 -0.12862386336E+04  0.14981136718E+02  0.14855313826E+04  0.19650545434E+04  0.12699999809E+01 0.  1.
       -4    1    3    3    0  502  0.12862386336E+04 -0.14981136718E+02 -0.28647616183E+03  0.13178408330E+04  0.12699999809E+01 0. -1.
</event>
<event>
 5   0  0.4927533E-06  0.3009064E+04  0.7818609E-02  0.8241147E-01
        2   -1    0    0  501    0  0.00000000000E+00  0.00000000000E+00  0.17927635347E+04  0.17927635347E+04  0.25500000920E-02 0. -1.
       -2   -1    0    0    0  501  0.00000000000E+00  0.00000000000E+00 -0.12626410114E+04  0.12626410114E+04  0.25500000920E-02 0.  1.
    10030    2    1    2    0    0  0.00000000000E+00  0.00000000000E+00  0.53012252333E+03  0.30554045462E+04  0.30090641487E+04 0.  0.
        5    1    3    3  502    0 -0.47963956780E+02 -0.12685403687E+04 -0.55490162545E+03  0.13854360729E+04  0.46999998093E+01 0.  1.
       -5    1    3    3    0  502  0.47963956780E+02  0.12685403687E+04  0.10850241488E+04  0.16699684732E+04  0.46999998093E+01 0. -1.
</event>
<event>
 5   0  0.5114870E-06  0.3263909E+04  0.7818609E-02  0.8172140E-01
        2   -1    0    0  501    0  0.00000000000E+00  0.00000000000E+00  0.14871477063E+04  0.14871477063E+04  0.25500000920E-02 0.  1.
       -2   -1    0    0    0  501  0.00000000000E+00  0.00000000000E+00 -0.17908618094E+04  0.17908618094E+04  0.25500000920E-02 0. -1.
    10030    2    1    2    0    0  0.00000000000E+00  0.00000000000E+00 -0.30371410308E+03  0.32780095156E+04  0.32639093321E+04 0.  0.
        2    1    3    3  502    0  0.83847497119E+03 -0.40335962856E+03  0.11946573873E+04  0.15142475162E+04  0.25500000920E-02 0.  1.
       -2    1    3    3    0  502 -0.83847497119E+03  0.40335962856E+03 -0.14983714904E+04  0.17637619994E+04  0.25500000920E-02 0. -1.
</event>
<event>
 5   0  0.5328368E-06  0.3155911E+04  0.7818609E-02  0.8200559E-01
       -2   -1    0    0    0  501  0.00000000000E+00  0.00000000000E+00  0.95966359075E+03  0.95966359075E+03  0.25500000920E-02 0.  1.
        2   -1    0    0  501    0  0.00000000000E+00  0.00000000000E+00 -0.25946007943E+04  0.25946007943E+04  0.25500000920E-02 0. -1.
    10030    2    1    2    0    0  0.00000000000E+00  0.00000000000E+00 -0.16349372035E+04  0.35542643850E+04  0.31559112249E+04 0.  0.
        1    1    3    3  502    0 -0.53485860311E+03  0.23142833634E+03  0.83402007961E+03  0.10174587428E+04  0.50400001928E-02 0.  1.
       -1    1    3    3    0  502  0.53485860311E+03 -0.23142833634E+03 -0.24689572831E+04  0.25368056422E+04  0.50400001928E-02 0. -1.
</event>
<event>
 5   0  0.4900679E-06  0.3103838E+04  0.7818609E-02  0.8214685E-01
        2   -1    0    0  501    0  0.00000000000E+00  0.00000000000E+00  0.95076206533E+03  0.95076206534E+03  0.25500000920E-02 0.  1.
       -2   -1    0    0    0  501  0.00000000000E+00  0.00000000000E+00 -0.25331814203E+04  0.25331814203E+04  0.25500000920E-02 0. -1.
    10030    2    1    2    0    0  0.00000000000E+00  0.00000000000E+00 -0.15824193549E+04  0.34839434856E+04  0.31038381395E+04 0.  0.
        4    1    3    3  502    0  0.32086723959E+02 -0.15093486138E+04 -0.38760908004E+03  0.15586549354E+04  0.12699999809E+01 0.  1.
       -4    1    3    3    0  502 -0.32086723959E+02  0.15093486138E+04 -0.11948102749E+04  0.19252885502E+04  0.12699999809E+01 0. -1.
</event>
<event>
 5   0  0.4900679E-06  0.3016029E+04  0.7818609E-02  0.8239169E-01
        2   -1    0    0  501    0  0.00000000000E+00  0.00000000000E+00  0.22034878174E+04  0.22034878174E+04  0.25500000920E-02 0.  1.
       -2   -1    0    0    0  501  0.00000000000E+00  0.00000000000E+00 -0.10320490053E+04  0.10320490053E+04  0.25500000920E-02 0. -1.
    10030    2    1    2    0    0  0.00000000000E+00  0.00000000000E+00  0.11714388121E+04  0.32355368227E+04  0.30160287865E+04 0.  0.
        4    1    3    3  502    0 -0.50585743620E+03  0.12275453636E+04  0.13528485448E+04  0.18955105284E+04  0.12699999809E+01 0.  1.
       -4    1    3    3    0  502  0.50585743620E+03 -0.12275453636E+04 -0.18140973275E+03  0.13400262943E+04  0.12699999809E+01 0. -1.
</event>
<event>
 5   0  0.4927533E-06  0.3085999E+04  0.7818609E-02  0.8219591E-01
        2   -1    0    0  501    0  0.00000000000E+00  0.00000000000E+00  0.18252648801E+04  0.18252648801E+04  0.25500000920E-02 0. -1.
       -2   -1    0    0    0  501  0.00000000000E+00  0.00000000000E+00 -0.13043845240E+04  0.13043845241E+04  0.25500000920E-02 0.  1.
    10030    2    1    2    0    0  0.00000000000E+00  0.00000000000E+00  0.52088035607E+03  0.31296494042E+04  0.30859988736E+04 0.  0.
        5    1    3    3  502    0  0.14038506519E+04 -0.51820110266E+02  0.90770224922E+03  0.16725511770E+04  0.46999998093E+01 0. -1.
       -5    1    3    3    0  502 -0.14038506519E+04  0.51820110266E+02 -0.38682189315E+03  0.14570982271E+04  0.46999998093E+01 0.  1.
</event>
<event>
 5   0  0.1843709E-06  0.3099056E+04  0.7818609E-02  0.8215997E-01
       -1   -1    0    0    0  501  0.00000000000E+00  0.00000000000E+00  0.11323051801E+04  0.11323051801E+04  0.50400001928E-02 0.  1.
        1   -1    0    0  501    0  0.00000000000E+00  0.00000000000E+00 -0.21204854320E+04  0.21204854320E+04  0.50400001928E-02 0. -1.
    10030    2    1    2    0    0  0.00000000000E+00  0.00000000000E+00 -0.98818025198E+03  0.32527906121E+04  0.30990557523E+04 0.  0.
        4    1    3    3  502    0 -0.91488168363E+03 -0.38511001892E+03  0.75477319937E+03  0.12469973605E+04  0.12699999809E+01 0.  1.
       -4    1    3    3    0  502  0.91488168363E+03  0.38511001892E+03 -0.17429534514E+04  0.20057932516E+04  0.12699999809E+01 0. -1.
</event>
<event>
 5   0  0.4927533E-06  0.3111596E+04  0.7818609E-02  0.8212563E-01
        2   -1    0    0  501    0  0.00000000000E+00  0.00000000000E+00  0.12704152621E+04  0.12704152621E+04  0.25500000920E-02 0. -1.
       -2   -1    0    0    0  501  0.00000000000E+00  0.00000000000E+00 -0.19052880742E+04  0.19052880742E+04  0.25500000920E-02 0.  1.
    10030    2    1    2    0    0  0.00000000000E+00  0.00000000000E+00 -0.63487281212E+03  0.31757033364E+04  0.31115957631E+04 0.  0.
        5    1    3    3  502    0  0.82564266513E+03 -0.89419116316E+03  0.67166478096E+03  0.13901148567E+04  0.46999998093E+01 0. -1.
       -5    1    3    3    0  502 -0.82564266513E+03  0.89419116316E+03 -0.13065375931E+04  0.17855884797E+04  0.46999998093E+01 0.  1.
</event>
<event>
 5   0  0.5001658E-06  0.3164125E+04  0.7818609E-02  0.8198356E-01
        2   -1    0    0  501    0  0.00000000000E+00  0.00000000000E+00  0.24914726016E+04  0.24914726016E+04  0.25500000920E-02 0.  1.
       -2   -1    0    0    0  501  0.00000000000E+00  0.00000000000E+00 -0.10045951907E+04  0.10045951907E+04  0.25500000920E-02 0. -1.
    10030    2    1    2    0    0  0.00000000000E+00  0.00000000000E+00  0.14868774109E+04  0.34960677923E+04  0.31641247721E+04 0.  0.
        3    1    3    3  502    0  0.12896796513E+04  0.87223182049E+03  0.43315921803E+03  0.16160720498E+04  0.10100000352E+00 0.  1.
       -3    1    3    3    0  502 -0.12896796513E+04 -0.87223182049E+03  0.10537181928E+04  0.18799957425E+04  0.10100000352E+00 0. -1.
</event>
<event>
 5   0  0.1836401E-06  0.3077820E+04  0.7818609E-02  0.8221851E-01
       -1   -1    0    0    0  501  0.00000000000E+00  0.00000000000E+00  0.99857407094E+03  0.99857407095E+03  0.50400001928E-02 0. -1.
        1   -1    0    0  501    0  0.00000000000E+00  0.00000000000E+00 -0.23716263274E+04  0.23716263275E+04  0.50400001928E-02 0.  1.
    10030    2    1    2    0    0  0.00000000000E+00  0.00000000000E+00 -0.13730522565E+04  0.33702003984E+04  0.30778203694E+04 0.  0.
        2    1    3    3  502    0 -0.67769609420E+03  0.38744661434E+03 -0.21387307211E+04  0.22767424037E+04  0.25500000920E-02 0.  1.
       -2    1    3    3    0  502  0.67769609420E+03 -0.38744661434E+03  0.76567846463E+03  0.10934579947E+04  0.25500000920E-02 0. -1.
</event>
<event>
 5   0  0.1840431E-06  0.3062521E+04  0.7818609E-02  0.8226100E-01
       -1   -1    0    0    0  501  0.00000000000E+00  0.00000000000E+00  0.17201504505E+04  0.17201504505E+04  0.50400001928E-02 0.  1.
        1   -1    0    0  501    0  0.00000000000E+00  0.00000000000E+00 -0.13631122832E+04  0.13631122832E+04  0.50400001928E-02 0. -1.
    10030    2    1    2    0    0  0.00000000000E+00  0.00000000000E+00  0.35703816737E+03  0.30832627337E+04  0.30625206664E+04 0.  0.
        1    1    3    3  502    0 -0.53414536325E+03  0.14321647565E+04  0.27052209199E+03  0.15522852061E+04  0.50400001928E-02 0.  1.
       -1    1    3    3    0  502  0.53414536325E+03 -0.14321647565E+04  0.86516075376E+02  0.15309775276E+04  0.50400001928E-02 0. -1.
</event>
<event>
 5   0  0.1853742E-06  0.2876022E+04  0.7818609E-02  0.8280048E-01
       -1   -1    0    0    0  501  0.00000000000E+00  0.00000000000E+00  0.92239328222E+03  0.92239328223E+03  0.50400001928E-02 0.  1.
        1   -1    0    0  501    0  0.00000000000E+00  0.00000000000E+00 -0.22418592590E+04  0.22418592590E+04  0.50400001928E-02 0. -1.
    10030    2    1    2    0    0  0.00000000000E+00  0.00000000000E+00 -0.13194659768E+04  0.31642525412E+04  0.28760221976E+04 0.  0.
        5    1    3    3  502    0 -0.72368964305E+03  0.12416246977E+04 -0.60477445416E+03  0.15592090366E+04  0.46999998093E+01 0.  1.
       -5    1    3    3    0  502  0.72368964305E+03 -0.12416246977E+04 -0.71469152263E+03  0.16050435047E+04  0.46999998093E+01 0. -1.
</event>
<event>
 5   0  0.1853742E-06  0.3129239E+04  0.7818609E-02  0.8207759E-01
       -1   -1    0    0    0  501  0.00000000000E+00  0.00000000000E+00  0.16613445828E+04  0.16613445828E+04  0.50400001928E-02 0. -1.
        1   -1    0    0  501    0  0.00000000000E+00  0.00000000000E+00 -0.14735257656E+04  0.14735257657E+04  0.50400001928E-02 0.  1.
    10030    2    1    2    0    0  0.00000000000E+00  0.00000000000E+00  0.18781881716E+03  0.31348703485E+04  0.31292389160E+04 0.  0.
        5    1    3    3  502    0  0.10148069916E+04 -0.10535035718E+04  0.65016441058E+03  0.16007619613E+04  0.46999998093E+01 0. -1.
       -5    1    3    3    0  502 -0.10148069916E+04  0.10535035718E+04 -0.46234559342E+03  0.15341083872E+04  0.46999998093E+01 0.  1.
</event>
<event>
 5   0  0.5328368E-06  0.3044452E+04  0.7818609E-02  0.8231150E-01
       -2   -1    0    0    0  501  0.00000000000E+00  0.00000000000E+00  0.31208525875E+04  0.31208525875E+04  0.25500000920E-02 0.  1.
        2   -1    0    0  501    0  0.00000000000E+00  0.00000000000E+00 -0.74248021950E+03  0.74248021950E+03  0.25500000920E-02 0. -1.
    10030    2    1    2    0    0  0.00000000000E+00  0.00000000000E+00  0.23783723680E+04  0.38633328070E+04  0.30444515527E+04 0.  0.
        1    1    3    3  502    0  0.58145537188E+03 -0.73821670797E+02 -0.59354585461E+03  0.83416825048E+03  0.50400001928E-02 0. -1.
       -1    1    3    3    0  502 -0.58145537188E+03  0.73821670797E+02  0.29719182226E+04  0.30291645565E+04  0.50400001928E-02 0.  1.
</event>
<event>
 5   0  0.5328368E-06  0.3031645E+04  0.7818609E-02  0.8234752E-01
       -2   -1    0    0    0  501  0.00000000000E+00  0.00000000000E+00  0.77693599350E+03  0.77693599351E+03  0.25500000920E-02 0.  1.
        2   -1    0    0  501    0  0.00000000000E+00  0.00000000000E+00 -0.29574095008E+04  0.29574095008E+04  0.25500000920E-02 0. -1.
    10030    2    1    2    0    0  0.00000000000E+00  0.00000000000E+00 -0.21804735073E+04  0.37343454943E+04  0.30316450245E+04 0.  0.
        1    1    3    3  502    0 -0.76032240629E+03  0.13081709104E+04 -0.97790333983E+03  0.18015815925E+04  0.50400001928E-02 0.  1.
       -1    1    3    3    0  502  0.76032240629E+03 -0.13081709104E+04 -0.12025701675E+04  0.19327639018E+04  0.50400001928E-02 0. -1.
</event>
<event>
 5   0  0.1843709E-06  0.3462801E+04  0.7818609E-02  0.8122663E-01
        1   -1    0    0  501    0  0.00000000000E+00  0.00000000000E+00  0.17669749589E+04  0.17669749590E+04  0.50400001928E-02 0.  1.
       -1   -1    0    0    0  501  0.00000000000E+00  0.00000000000E+00 -0.16965427330E+04  0.16965427330E+04  0.50400001928E-02 0. -1.
    10030    2    1    2    0    0  0.00000000000E+00  0.00000000000E+00  0.70432225929E+02  0.34635176920E+04  0.34628014821E+04 0.  0.
        4    1    3    3  502    0 -0.14194811976E+04 -0.97194742068E+03  0.23054668438E+03  0.17357309830E+04  0.12699999809E+01 0. -1.
       -4    1    3    3    0  502  0.14194811976E+04  0.97194742068E+03 -0.16011445845E+03  0.17277867089E+04  0.12699999809E+01 0.  1.
</event>
<event>
 5   0  0.5114870E-06  0.3136182E+04  0.7818609E-02  0.8205878E-01
       -2   -1    0    0    0  501  0.00000000000E+00  0.00000000000E+00  0.15204036120E+04  0.15204036120E+04  0.25500000920E-02 0. -1.
        2   -1    0    0  501    0  0.00000000000E+00  0.00000000000E+00 -0.16172743183E+04  0.16172743183E+04  0.25500000920E-02 0.  1.
    10030    2    1    2    0    0  0.00000000000E+00  0.00000000000E+00 -0.96870706228E+02  0.31376779303E+04  0.31361822110E+04 0.  0.
        2    1    3    3  502    0  0.14150880919E+04  0.39874535373E+03  0.49720310571E+03  0.15519932646E+04  0.25500000920E-02 0. -1.
       -2    1    3    3    0  502 -0.14150880919E+04 -0.39874535373E+03 -0.59407381194E+03  0.15856846657E+04  0.25500000920E-02 0.  1.
</event>
<event>
 5   0  0.4927533E-06  0.3114263E+04  0.7818609E-02  0.8211835E-01
        2   -1    0    0  501    0  0.00000000000E+00  0.00000000000E+00  0.15032442169E+04  0.15032442169E+04  0.25500000920E-02 0.  1.
       -2   -1    0    0    0  501  0.00000000000E+00  0.00000000000E+00 -0.16129500642E+04  0.16129500642E+04  0.25500000920E-02 0. -1.
    10030    2    1    2    0    0  0.00000000000E+00  0.00000000000E+00 -0.10970584734E+03  0.31161942811E+04  0.31142625812E+04 0.  0.
        5    1    3    3  502    0  0.52835954368E+03  0.13523541019E+04 -0.61788332678E+03  0.15779186670E+04  0.46999998093E+01 0. -1.
       -5    1    3    3    0  502 -0.52835954368E+03 -0.13523541019E+04  0.50817747944E+03  0.15382756141E+04  0.46999998093E+01 0.  1.
</event>
<event>
 5   0  0.4927533E-06  0.3085011E+04  0.7818609E-02  0.8219864E-01
       -2   -1    0    0    0  501  0.00000000000E+00  0.00000000000E+00  0.98235468420E+03  0.98235468420E+03  0.25500000920E-02 0.  1.
        2   -1    0    0  501    0  0.00000000000E+00  0.00000000000E+00 -0.24220614530E+04  0.24220614530E+04  0.25500000920E-02 0. -1.
    10030    2    1    2    0    0  0.00000000000E+00  0.00000000000E+00 -0.14397067688E+04  0.34044161372E+04  0.30850111272E+04 0.  0.
        5    1    3    3  502    0 -0.10569773252E+03 -0.41622811361E+03  0.91504829357E+03  0.10108181453E+04  0.46999998093E+01 0.  1.
       -5    1    3    3    0  502  0.10569773252E+03  0.41622811361E+03 -0.23547550624E+04  0.23935979919E+04  0.46999998093E+01 0. -1.
</event>
<event>
 5   0  0.1840431E-06  0.3098134E+04  0.7818609E-02  0.8216250E-01
       -1   -1    0    0    0  501  0.00000000000E+00  0.00000000000E+00  0.26157949232E+04  0.26157949232E+04  0.50400001928E-02 0.  1.
        1   -1    0    0  501    0  0.00000000000E+00  0.00000000000E+00 -0.91735330866E+03  0.91735330868E+03  0.50400001928E-02 0. -1.
    10030    2    1    2    0    0  0.00000000000E+00  0.00000000000E+00  0.16984416146E+04  0.35331482319E+04  0.30981337141E+04 0.  0.
        1    1    3    3  502    0 -0.39246673989E+03 -0.98933668225E+03 -0.43433327030E+03  0.11495488691E+04  0.50400001928E-02 0. -1.
       -1    1    3    3    0  502  0.39246673989E+03  0.98933668225E+03  0.21327748849E+04  0.23835993628E+04  0.50400001928E-02 0.  1.
</event>
<event>
 5   0  0.1843709E-06  0.2888347E+04  0.7818609E-02  0.8276353E-01
       -1   -1    0    0    0  501  0.00000000000E+00  0.00000000000E+00  0.12617980604E+04  0.12617980605E+04  0.50400001928E-02 0. -1.
        1   -1    0    0  501    0  0.00000000000E+00  0.00000000000E+00 -0.16529082586E+04  0.16529082586E+04  0.50400001928E-02 0.  1.
    10030    2    1    2    0    0  0.00000000000E+00  0.00000000000E+00 -0.39111019812E+03  0.29147063190E+04  0.28883465407E+04 0.  0.
        4    1    3    3  502    0 -0.45715660929E+03  0.59167947816E+03  0.10512603256E+04  0.12900490903E+04  0.12699999809E+01 0. -1.
       -4    1    3    3    0  502  0.45715660929E+03 -0.59167947816E+03 -0.14423705237E+04  0.16246572287E+04  0.12699999809E+01 0.  1.
</event>
<event>
 5   0  0.5001658E-06  0.3162549E+04  0.7818609E-02  0.8198779E-01
       -2   -1    0    0    0  501  0.00000000000E+00  0.00000000000E+00  0.18931980134E+04  0.18931980134E+04  0.25500000920E-02 0.  1.
        2   -1    0    0  501    0  0.00000000000E+00  0.00000000000E+00 -0.13207434774E+04  0.13207434774E+04  0.25500000920E-02 0. -1.
    10030    2    1    2    0    0  0.00000000000E+00  0.00000000000E+00  0.57245453601E+03  0.32139414908E+04  0.31625489262E+04 0.  0.
        3    1    3    3  502    0 -0.66329918248E+03  0.13847834658E+04 -0.97853346475E+02  0.15385598267E+04  0.10100000352E+00 0.  1.
       -3    1    3    3    0  502  0.66329918248E+03 -0.13847834658E+04  0.67030788249E+03  0.16753816641E+04  0.10100000352E+00 0. -1.
</event>
<event>
 5   0  0.5328368E-06  0.3149800E+04  0.7818609E-02  0.8202202E-01
        2   -1    0    0  501    0  0.00000000000E+00  0.00000000000E+00  0.22147716703E+04  0.22147716703E+04  0.25500000920E-02 0. -1.
       -2   -1    0    0    0  501  0.00000000000E+00  0.00000000000E+00 -0.11198943239E+04  0.11198943239E+04  0.25500000920E-02 0.  1.
    10030    2    1    2    0    0  0.00000000000E+00  0.00000000000E+00  0.10948773464E+04  0.33346659943E+04  0.31498001349E+04 0.  0.
        1    1    3    3  502    0 -0.87025135867E+03 -0.97665276352E+03 -0.38102947573E+03  0.13624872510E+04  0.50400001928E-02 0.  1.
       -1    1    3    3    0  502  0.87025135867E+03  0.97665276352E+03  0.14759068221E+04  0.19721787433E+04  0.50400001928E-02 0. -1.
</event>
<event>
 5   0  0.4927533E-06  0.3070839E+04  0.7818609E-02  0.8223787E-01
       -2   -1    0    0    0  501  0.00000000000E+00  0.00000000000E+00  0.84074666620E+03  0.84074666621E+03  0.25500000920E-02 0. -1.
        2   -1    0    0  501    0  0.00000000000E+00  0.00000000000E+00 -0.28040700275E+04  0.28040700275E+04  0.25500000920E-02 0.  1.
    10030    2    1    2    0    0  0.00000000000E+00  0.00000000000E+00 -0.19633233613E+04  0.36448166937E+04  0.30708386655E+04 0.  0.
        5    1    3    3  502    0 -0.98775909856E+03  0.64091160848E+03 -0.21512702485E+04  0.24524317521E+04  0.46999998093E+01 0.  1.
       -5    1    3    3    0  502  0.98775909856E+03 -0.64091160848E+03  0.18794688715E+03  0.11923849416E+04  0.46999998093E+01 0. -1.
</event>
<event>
 5   0  0.1836401E-06  0.3096561E+04  0.7818609E-02  0.8216682E-01
        1   -1    0    0  501    0  0.00000000000E+00  0.00000000000E+00  0.17152321815E+04  0.17152321815E+04  0.50400001928E-02 0. -1.
       -1   -1    0    0    0  501  0.00000000000E+00  0.00000000000E+00 -0.13975792891E+04  0.13975792891E+04  0.50400001928E-02 0.  1.
    10030    2    1    2    0    0  0.00000000000E+00  0.00000000000E+00  0.31765289239E+03  0.31128114706E+04  0.30965613011E+04 0.  0.
        2    1    3    3  502    0 -0.74732589290E+03 -0.91365338960E+03  0.11660398403E+04  0.16591887824E+04  0.25500000920E-02 0. -1.
       -2    1    3    3    0  502  0.74732589290E+03  0.91365338960E+03 -0.84838694786E+03  0.14536226883E+04  0.25500000920E-02 0.  1.
</event>
<event>
 5   0  0.5001658E-06  0.2958781E+04  0.7818609E-02  0.8255600E-01
       -2   -1    0    0    0  501  0.00000000000E+00  0.00000000000E+00  0.13652789272E+04  0.13652789272E+04  0.25500000920E-02 0. -1.
        2   -1    0    0  501    0  0.00000000000E+00  0.00000000000E+00 -0.16030399404E+04  0.16030399404E+04  0.25500000920E-02 0.  1.
    10030    2    1    2    0    0  0.00000000000E+00  0.00000000000E+00 -0.23776101319E+03  0.29683188676E+04  0.29587812695E+04 0.  0.
        3    1    3    3  502    0  0.24015654041E+03  0.88092084588E+03  0.10488733319E+04  0.13906228738E+04  0.10100000352E+00 0. -1.
       -3    1    3    3    0  502 -0.24015654041E+03 -0.88092084588E+03 -0.12866343451E+04  0.15776959938E+04  0.10100000352E+00 0.  1.
</event>
<event>
 5   0  0.4900679E-06  0.3110277E+04  0.7818609E-02  0.8212923E-01
       -2   -1    0    0    0  501  0.00000000000E+00  0.00000000000E+00  0.15617278107E+04  0.15617278107E+04  0.25500000920E-02 0.  1.
        2   -1    0    0  501    0  0.00000000000E+00  0.00000000000E+00 -0.15485765938E+04  0.15485765938E+04  0.25500000920E-02 0. -1.
    10030    2    1    2    0    0  0.00000000000E+00  0.00000000000E+00  0.13151216863E+02  0.31103044045E+04  0.31102766009E+04 0.  0.
        4    1    3    3  502    0  0.11899170294E+04  0.44524178326E+03 -0.89026613810E+03  0.15513601103E+04  0.12699999809E+01 0. -1.
       -4    1    3    3    0  502 -0.11899170294E+04 -0.44524178326E+03  0.90341735496E+03  0.15589442942E+04  0.12699999809E+01 0.  1.
</event>
<event>
 5   0  0.5001658E-06  0.3092332E+04  0.7818609E-02  0.8217846E-01
       -2   -1    0    0    0  501  0.00000000000E+00  0.00000000000E+00  0.14030391591E+04  0.14030391591E+04  0.25500000920E-02 0.  1.
        2   -1    0    0  501    0  0.00000000000E+00  0.00000000000E+00 -0.17038933044E+04  0.17038933044E+04  0.25500000920E-02 0. -1.
    10030    2    1    2    0    0  0.00000000000E+00  0.00000000000E+00 -0.30085414528E+03  0.31069324635E+04  0.30923318251E+04 0.  0.
        3    1    3    3  502    0 -0.88736314223E+03  0.16882331992E+00 -0.14225869491E+04  0.16766535159E+04  0.10100000352E+00 0. -1.
       -3    1    3    3    0  502  0.88736314223E+03 -0.16882331992E+00  0.11217328038E+04  0.14302789476E+04  0.10100000352E+00 0.  1.
</event>
<event>
 5   0  0.4900679E-06  0.3074268E+04  0.7818609E-02  0.8222835E-01
        2   -1    0    0  501    0  0.00000000000E+00  0.00000000000E+00  0.19584692311E+04  0.19584692311E+04  0.25500000920E-02 0.  1.
       -2   -1    0    0    0  501  0.00000000000E+00  0.00000000000E+00 -0.12064430791E+04  0.12064430791E+04  0.25500000920E-02 0. -1.
    10030    2    1    2    0    0  0.00000000000E+00  0.00000000000E+00  0.75202615203E+03  0.31649123103E+04  0.30742684656E+04 0.  0.
        4    1    3    3  502    0  0.29989618937E+03 -0.10600722655E+04  0.14795750939E+04  0.18446774796E+04  0.12699999809E+01 0.  1.
       -4    1    3    3    0  502 -0.29989618937E+03  0.10600722655E+04 -0.72754894183E+03  0.13202348307E+04  0.12699999809E+01 0. -1.
</event>
<event>
 5   0  0.5328368E-06  0.3101823E+04  0.7818609E-02  0.8215238E-01
       -2   -1    0    0    0  501  0.00000000000E+00  0.00000000000E+00  0.16040096220E+04  0.16040096220E+04  0.25500000920E-02 0. -1.
        2   -1    0    0  501    0  0.00000000000E+00  0.00000000000E+00 -0.14995713211E+04  0.14995713211E+04  0.25500000920E-02 0.  1.
    10030    2    1    2    0    0  0.00000000000E+00  0.00000000000E+00  0.10443830092E+03  0.31035809431E+04  0.31018232237E+04 0.  0.
        1    1    3    3  502    0  0.95570811492E+03 -0.11934815794E+04 -0.20783301057E+03  0.15430394815E+04  0.50400001928E-02 0.  1.
       -1    1    3    3    0  502 -0.95570811492E+03  0.11934815794E+04  0.31227131149E+03  0.15605414615E+04  0.50400001928E-02 0. -1.
</event>
<event>
 5   0  0.1843709E-06  0.3063144E+04  0.7818609E-02  0.8225926E-01
       -1   -1    0    0    0  501  0.00000000000E+00  0.00000000000E+00  0.20342593921E+04  0.20342593921E+04  0.50400001928E-02 0.  1.
        1   -1    0    0  501    0  0.00000000000E+00  0.00000000000E+00 -0.11531037655E+04  0.11531037655E+04  0.50400001928E-02 0. -1.
    10030    2    1    2    0    0  0.00000000000E+00  0.00000000000E+00  0.88115562661E+03  0.31873631575E+04  0.30631435911E+04 0.  0.
        4    1    3    3  502    0  0.15255650846E+03 -0.10075432295E+04 -0.74915866470E+03  0.12647755395E+04  0.12699999809E+01 0. -1.
       -4    1    3    3    0  502 -0.15255650846E+03  0.10075432295E+04  0.16303142913E+04  0.19225876180E+04  0.12699999809E+01 0.  1.
</event>
<event>
 5   0  0.5001658E-06  0.3091904E+04  0.7818609E-02  0.8217963E-01
       -2   -1    0    0    0  501  0.00000000000E+00  0.00000000000E+00  0.79187495443E+03  0.79187495443E+03  0.25500000920E-02 0.  1.
        2   -1    0    0  501    0  0.00000000000E+00  0.00000000000E+00 -0.30181125284E+04  0.30181125284E+04  0.25500000920E-02 0. -1.
    10030    2    1    2    0    0  0.00000000000E+00  0.00000000000E+00 -0.22262375739E+04  0.38099874828E+04  0.30919040870E+04 0.  0.
        3    1    3    3  502    0  0.13844405291E+04  0.66857430167E+03 -0.91327997937E+03  0.17882246800E+04  0.10100000352E+00 0.  1.
       -3    1    3    3    0  502 -0.13844405291E+04 -0.66857430167E+03 -0.13129575946E+04  0.20217628028E+04  0.10100000352E+00 0. -1.
</event>
<event>
 5   0  0.4927533E-06  0.3101333E+04  0.7818609E-02  0.8215372E-01
       -2   -1    0    0    0  501  0.00000000000E+00  0.00000000000E+00  0.12410051691E+04  0.12410051691E+04  0.25500000920E-02 0. -1.
        2   -1    0    0  501    0  0.00000000000E+00  0.00000000000E+00 -0.19375960266E+04  0.19375960266E+04  0.25500000920E-02 0.  1.
    10030    2    1    2    0    0  0.00000000000E+00  0.00000000000E+00 -0.69659085746E+03  0.31786011957E+04  0.31013330583E+04 0.  0.
        5    1    3    3  502    0 -0.83235782745E+02 -0.13560914241E+04  0.41774327580E+03  0.14214231180E+04  0.46999998093E+01 0. -1.
       -5    1    3    3    0  502  0.83235782745E+02  0.13560914241E+04 -0.11143341333E+04  0.17571780776E+04  0.46999998093E+01 0.  1.
</event>
<event>
 5   0  0.1885307E-06  0.3134033E+04  0.7818609E-02  0.8206459E-01
       -1   -1    0    0    0  501  0.00000000000E+00  0.00000000000E+00  0.23256189427E+04  0.23256189427E+04  0.50400001928E-02 0.  1.
        1   -1    0    0  501    0  0.00000000000E+00  0.00000000000E+00 -0.10558653541E+04  0.10558653542E+04  0.50400001928E-02 0. -1.
    10030    2    1    2    0    0  0.00000000000E+00  0.00000000000E+00  0.12697535885E+04  0.33814842968E+04  0.31340328451E+04 0.  0.
        3    1    3    3  502    0 -0.34742469018E+02  0.97562427506E+03  0.19574195671E+04  0.21873593982E+04  0.10100000352E+00 0.  1.
       -3    1    3    3    0  502  0.34742469018E+02 -0.97562427506E+03 -0.68766597854E+03  0.11941248986E+04  0.10100000352E+00 0. -1.
</event>
<event>
 5   0  0.1843709E-06  0.3026514E+04  0.7818609E-02  0.8236200E-01
       -1   -1    0    0    0  501  0.00000000000E+00  0.00000000000E+00  0.11180273402E+04  0.11180273402E+04  0.50400001928E-02 0. -1.
        1   -1    0    0  501    0  0.00000000000E+00  0.00000000000E+00 -0.20482027188E+04  0.20482027188E+04  0.50400001928E-02 0.  1.
    10030    2    1    2    0    0  0.00000000000E+00  0.00000000000E+00 -0.93017537868E+03  0.31662300590E+04  0.30265139272E+04 0.  0.
        4    1    3    3  502    0 -0.69552459866E+03 -0.46951853899E+02  0.94004190886E+03  0.11703159177E+04  0.12699999809E+01 0. -1.
       -4    1    3    3    0  502  0.69552459866E+03  0.46951853899E+02 -0.18702172875E+04  0.19959141413E+04  0.12699999809E+01 0.  1.
</event>
<event>
 5   0  0.4900679E-06  0.3062668E+04  0.7818609E-02  0.8226059E-01
       -2   -1    0    0    0  501  0.00000000000E+00  0.00000000000E+00  0.18028586925E+04  0.18028586925E+04  0.25500000920E-02 0. -1.
        2   -1    0    0  501    0  0.00000000000E+00  0.00000000000E+00 -0.13007028889E+04  0.13007028889E+04  0.25500000920E-02 0.  1.
    10030    2    1    2    0    0  0.00000000000E+00  0.00000000000E+00  0.50215580351E+03  0.31035615814E+04  0.30626677976E+04 0.  0.
        4    1    3    3  502    0  0.32665664794E+03  0.57005163472E+02 -0.12638847770E+04  0.13066600540E+04  0.12699999809E+01 0.  1.
       -4    1    3    3    0  502 -0.32665664794E+03 -0.57005163472E+02  0.17660405805E+04  0.17969015274E+04  0.12699999809E+01 0. -1.
</event>
<event>
 5   0  0.1885307E-06  0.3089944E+04  0.7818609E-02  0.8218503E-01
       -1   -1    0    0    0  501  0.00000000000E+00  0.00000000000E+00  0.90202155156E+03  0.90202155157E+03  0.50400001928E-02 0. -1.
        1   -1    0    0  501    0  0.00000000000E+00  0.00000000000E+00 -0.26462097160E+04  0.26462097160E+04  0.50400001928E-02 0.  1.
    10030    2    1    2    0    0  0.00000000000E+00  0.00000000000E+00 -0.17441881645E+04  0.35482312676E+04  0.30899438143E+04 0.  0.
        3    1    3    3  502    0  0.27143009145E+03 -0.55199049648E+02 -0.26174649365E+04  0.26320797734E+04  0.10100000352E+00 0.  1.
       -3    1    3    3    0  502 -0.27143009145E+03  0.55199049648E+02  0.87327677200E+03  0.91615149421E+03  0.10100000352E+00 0. -1.
</event>
<event>
 5   0  0.4927533E-06  0.3062480E+04  0.7818609E-02  0.8226111E-01
        2   -1    0    0  501    0  0.00000000000E+00  0.00000000000E+00  0.21589258950E+04  0.21589258950E+04  0.25500000920E-02 0. -1.
       -2   -1    0    0    0  501  0.00000000000E+00  0.00000000000E+00 -0.10860471855E+04  0.10860471855E+04  0.25500000920E-02 0.  1.
    10030    2    1    2    0    0  0.00000000000E+00  0.00000000000E+00  0.10728787095E+04  0.32449730806E+04  0.30624796437E+04 0.  0.
        5    1    3    3  502    0 -0.39534362120E+03 -0.71897750430E+02  0.21020558513E+04  0.21401230706E+04  0.46999998093E+01 0. -1.
       -5    1    3    3    0  502  0.39534362120E+03  0.71897750430E+02 -0.10291771418E+04  0.11048500100E+04  0.46999998093E+01 0.  1.
</event>
<event>
 5   0  0.5114870E-06  0.2893533E+04  0.7818609E-02  0.8274804E-01
        2   -1    0    0  501    0  0.00000000000E+00  0.00000000000E+00  0.17404817938E+04  0.17404817938E+04  0.25500000920E-02 0. -1.
       -2   -1    0    0    0  501  0.00000000000E+00  0.00000000000E+00 -0.12026171168E+04  0.12026171168E+04  0.25500000920E-02 0.  1.
    10030    2    1    2    0    0  0.00000000000E+00  0.00000000000E+00  0.53786467704E+03  0.29430989106E+04  0.28935329248E+04 0.  0.
        2    1    3    3  502    0 -0.82439606070E+03  0.27669883889E+03 -0.90713645587E+03  0.12566175480E+04  0.25500000920E-02 0.  1.
       -2    1    3    3    0  502  0.82439606070E+03 -0.27669883889E+03  0.14450011329E+04  0.16864813626E+04  0.25500000920E-02 0. -1.
</event>
<event>
 5   0  0.4927533E-06  0.3111784E+04  0.7818609E-02  0.8212511E-01
        2   -1    0    0  501    0  0.00000000000E+00  0.00000000000E+00  0.18168350426E+04  0.18168350426E+04  0.25500000920E-02 0. -1.
       -2   -1    0    0    0  501  0.00000000000E+00  0.00000000000E+00 -0.13324269146E+04  0.13324269146E+04  0.25500000920E-02 0.  1.
    10030    2    1    2    0    0  0.00000000000E+00  0.00000000000E+00  0.48440812797E+03  0.31492619573E+04  0.31117839965E+04 0.  0.
        5    1    3    3  502    0 -0.34802562824E+03 -0.11483423953E+04 -0.76016178315E+03  0.14204506754E+04  0.46999998093E+01 0.  1.
       -5    1    3    3    0  502  0.34802562824E+03  0.11483423953E+04  0.12445699111E+04  0.17288112819E+04  0.46999998093E+01 0. -1.
</event>
<event>
 5   0  0.1853742E-06  0.3336261E+04  0.7818609E-02  0.8153730E-01
       -1   -1    0    0    0  501  0.00000000000E+00  0.00000000000E+00  0.18274414352E+04  0.18274414352E+04  0.50400001928E-02 0. -1.
        1   -1    0    0  501    0  0.00000000000E+00  0.00000000000E+00 -0.15227074000E+04  0.15227074000E+04  0.50400001928E-02 0.  1.
    10030    2    1    2    0    0  0.00000000000E+00  0.00000000000E+00  0.30473403514E+03  0.33501488352E+04  0.33362605393E+04 0.  0.
        5    1    3    3  502    0  0.71353230859E+03 -0.12158273735E+03  0.16615291454E+04  0.18123498306E+04  0.46999998093E+01 0. -1.
       -5    1    3    3    0  502 -0.71353230859E+03  0.12158273735E+03 -0.13567951103E+04  0.15377990046E+04  0.46999998093E+01 0.  1.
</event>
<event>
 5   0  0.1843709E-06  0.3099069E+04  0.7818609E-02  0.8215993E-01
       -1   -1    0    0    0  501  0.00000000000E+00  0.00000000000E+00  0.10068488928E+04  0.10068488928E+04  0.50400001928E-02 0.  1.
        1   -1    0    0  501    0  0.00000000000E+00  0.00000000000E+00 -0.23847245392E+04  0.23847245392E+04  0.50400001928E-02 0. -1.
    10030    2    1    2    0    0  0.00000000000E+00  0.00000000000E+00 -0.13778756464E+04  0.33915734320E+04  0.30990690614E+04 0.  0.
        4    1    3    3  502    0  0.15568186977E+03 -0.86088077330E+03  0.71072107127E+03  0.11271550933E+04  0.12699999809E+01 0.  1.
       -4    1    3    3    0  502 -0.15568186977E+03  0.86088077330E+03 -0.20885967176E+04  0.22644183386E+04  0.12699999809E+01 0. -1.
</event>
<event>
 5   0  0.5001658E-06  0.3116152E+04  0.7818609E-02  0.8211319E-01
        2   -1    0    0  501    0  0.00000000000E+00  0.00000000000E+00  0.26968694435E+04  0.26968694435E+04  0.25500000920E-02 0.  1.
       -2   -1    0    0    0  501  0.00000000000E+00  0.00000000000E+00 -0.90015517031E+03  0.90015517031E+03  0.25500000920E-02 0. -1.
    10030    2    1    2    0    0  0.00000000000E+00  0.00000000000E+00  0.17967142732E+04  0.35970246138E+04  0.31161520972E+04 0.  0.
        3    1    3    3  502    0 -0.73873570962E+03  0.51172840202E+03 -0.57084949712E+03  0.10646433979E+04  0.10100000352E+00 0. -1.
       -3    1    3    3    0  502  0.73873570962E+03 -0.51172840202E+03  0.23675637703E+04  0.25323812159E+04  0.10100000352E+00 0.  1.
</event>
<event>
 5   0  0.1836401E-06  0.2631688E+04  0.7818609E-02  0.8357516E-01
       -1   -1    0    0    0  501  0.00000000000E+00  0.00000000000E+00  0.17199727283E+04  0.17199727283E+04  0.50400001928E-02 0. -1.
        1   -1    0    0  501    0  0.00000000000E+00  0.00000000000E+00 -0.10066703755E+04  0.10066703755E+04  0.50400001928E-02 0.  1.
    10030    2    1    2    0    0  0.00000000000E+00  0.00000000000E+00  0.71330235276E+03  0.27266431038E+04  0.26316881215E+04 0.  0.
        2    1    3    3  502    0 -0.28551036281E+03  0.63914405008E+03  0.15110450099E+04  0.16653162780E+04  0.25500000920E-02 0. -1.
       -2    1    3    3    0  502  0.28551036281E+03 -0.63914405008E+03 -0.79774265712E+03  0.10613268257E+04  0.25500000920E-02 0.  1.
</event>
<event>
 5   0  0.4900679E-06  0.3126636E+04  0.7818609E-02  0.8208466E-01
        2   -1    0    0  501    0  0.00000000000E+00  0.00000000000E+00  0.27213117138E+04  0.27213117138E+04  0.25500000920E-02 0. -1.
       -2   -1    0    0    0  501  0.00000000000E+00  0.00000000000E+00 -0.89808255942E+03  0.89808255942E+03  0.25500000920E-02 0.  1.
    10030    2    1    2    0    0  0.00000000000E+00  0.00000000000E+00  0.18232291544E+04  0.36193942732E+04  0.31266356289E+04 0.  0.
        4    1    3    3  502    0 -0.58260711137E+03  0.66795479723E+03  0.24023441148E+04  0.25606353736E+04  0.12699999809E+01 0. -1.
       -4    1    3    3    0  502  0.58260711137E+03 -0.66795479723E+03 -0.57911496043E+03  0.10587588997E+04  0.12699999809E+01 0.  1.
</event>
<event>
 5   0  0.1843709E-06  0.3035114E+04  0.7818609E-02  0.8233774E-01
        1   -1    0    0  501    0  0.00000000000E+00  0.00000000000E+00  0.21280008014E+04  0.21280008014E+04  0.50400001928E-02 0.  1.
       -1   -1    0    0    0  501  0.00000000000E+00  0.00000000000E+00 -0.10822269100E+04  0.10822269100E+04  0.50400001928E-02 0. -1.
    10030    2    1    2    0    0  0.00000000000E+00  0.00000000000E+00  0.10457738913E+04  0.32102277114E+04  0.30351143187E+04 0.  0.
        4    1    3    3  502    0  0.24252451637E+03 -0.18194966170E+03 -0.10498659367E+04  0.10927689227E+04  0.12699999809E+01 0. -1.
       -4    1    3    3    0  502 -0.24252451637E+03  0.18194966170E+03  0.20956398280E+04  0.21174587887E+04  0.12699999809E+01 0.  1.
</event>
<event>
 5   0  0.1840431E-06  0.3010532E+04  0.7818609E-02  0.8240730E-01
       -1   -1    0    0    0  501  0.00000000000E+00  0.00000000000E+00  0.14197066477E+04  0.14197066477E+04  0.50400001928E-02 0.  1.
        1   -1    0    0  501    0  0.00000000000E+00  0.00000000000E+00 -0.15959818028E+04  0.15959818028E+04  0.50400001928E-02 0. -1.
    10030    2    1    2    0    0  0.00000000000E+00  0.00000000000E+00 -0.17627515513E+03  0.30156884504E+04  0.30105321622E+04 0.  0.
        1    1    3    3  502    0  0.14817992661E+03 -0.48088150241E+03  0.13329612239E+04  0.14247771525E+04  0.50400001928E-02 0.  1.
       -1    1    3    3    0  502 -0.14817992661E+03  0.48088150241E+03 -0.15092363790E+04  0.15909112979E+04  0.50400001928E-02 0. -1.
</event>
<event>
 5   0  0.1853742E-06  0.2502418E+04  0.7818609E-02  0.8402125E-01
       -1   -1    0    0    0  501  0.00000000000E+00  0.00000000000E+00  0.11311682052E+04  0.11311682052E+04  0.50400001928E-02 0. -1.
        1   -1    0    0  501    0  0.00000000000E+00  0.00000000000E+00 -0.13839883875E+04  0.13839883875E+04  0.50400001928E-02 0.  1.
    10030    2    1    2    0    0  0.00000000000E+00  0.00000000000E+00 -0.25282018227E+03  0.25151565928E+04  0.25024177592E+04 0.  0.
        5    1    3    3  502    0 -0.53794710626E+03 -0.69705998398E+03 -0.10198795988E+04  0.13473886583E+04  0.46999998093E+01 0.  1.
       -5    1    3    3    0  502  0.53794710626E+03  0.69705998398E+03  0.76705941651E+03  0.11677679345E+04  0.46999998093E+01 0. -1.
</event>
<event>
 5   0  0.1885307E-06  0.3156630E+04  0.7818609E-02  0.8200366E-01
        1   -1    0    0  501    0  0.00000000000E+00  0.00000000000E+00  0.18168601930E+04  0.18168601930E+04  0.50400001928E-02 0.  1.
       -1   -1    0    0    0  501  0.00000000000E+00  0.00000000000E+00 -0.13710896767E+04  0.13710896767E+04  0.50400001928E-02 0. -1.
    10030    2    1    2    0    0  0.00000000000E+00  0.00000000000E+00  0.44577051629E+03  0.31879498698E+04  0.31566300098E+04 0.  0.
        3    1    3    3  502    0 -0.16466379038E+03 -0.52027426747E+03 -0.12727810809E+04  0.13848361518E+04  0.10100000352E+00 0. -1.
       -3    1    3    3    0  502  0.16466379038E+03  0.52027426747E+03  0.17185515972E+04  0.18031137179E+04  0.10100000352E+00 0.  1.
</event>
<event>
 5   0  0.5114870E-06  0.3102087E+04  0.7818609E-02  0.8215165E-01
       -2   -1    0    0    0  501  0.00000000000E+00  0.00000000000E+00  0.12217212843E+04  0.12217212843E+04  0.25500000920E-02 0.  1.
        2   -1    0    0  501    0  0.00000000000E+00  0.00000000000E+00 -0.19691364955E+04  0.19691364955E+04  0.25500000920E-02 0. -1.
    10030    2    1    2    0    0  0.00000000000E+00  0.00000000000E+00 -0.74741521118E+03  0.31908577797E+04  0.31020870189E+04 0.  0.
        2    1    3    3  502    0 -0.10120132864E+04  0.10484459299E+04  0.17284135047E+03  0.14674072005E+04  0.25500000920E-02 0.  1.
       -2    1    3    3    0  502  0.10120132864E+04 -0.10484459299E+04 -0.92025656165E+03  0.17234505792E+04  0.25500000920E-02 0. -1.
</event>
<event>
 5   0  0.1843709E-06  0.3110293E+04  0.7818609E-02  0.8212919E-01
       -1   -1    0    0    0  501  0.00000000000E+00  0.00000000000E+00  0.11436781380E+04  0.11436781380E+04  0.50400001928E-02 0.  1.
        1   -1    0    0  501    0  0.00000000000E+00  0.00000000000E+00 -0.21146513939E+04  0.21146513939E+04  0.50400001928E-02 0. -1.
    10030    2    1    2    0    0  0.00000000000E+00  0.00000000000E+00 -0.97097325585E+03  0.32583295319E+04  0.31102929564E+04 0.  0.
        4    1    3    3  502    0  0.36417089480E+03 -0.10230647125E+04  0.68068884649E+03  0.12816476759E+04  0.12699999809E+01 0.  1.
       -4    1    3    3    0  502 -0.36417089480E+03  0.10230647125E+04 -0.16516621023E+04  0.19766818560E+04  0.12699999809E+01 0. -1.
</event>
<event>
 5   0  0.4927533E-06  0.2871780E+04  0.7818609E-02  0.8281323E-01
        2   -1    0    0  501    0  0.00000000000E+00  0.00000000000E+00  0.17972840827E+04  0.17972840827E+04  0.25500000920E-02 0. -1.
       -2   -1    0    0    0  501  0.00000000000E+00  0.00000000000E+00 -0.11471645600E+04  0.11471645600E+04  0.25500000920E-02 0.  1.
    10030    2    1    2    0    0  0.00000000000E+00  0.00000000000E+00  0.65011952274E+03  0.29444486427E+04  0.28717803564E+04 0.  0.
        5    1    3    3  502    0  0.87654102595E+03  0.10172582074E+04 -0.19635567804E+03  0.13570984021E+04  0.46999998093E+01 0.  1.
       -5    1    3    3    0  502 -0.87654102595E+03 -0.10172582074E+04  0.84647520078E+03  0.15873502406E+04  0.46999998093E+01 0. -1.
</event>
<event>
 5   0  0.4900679E-06  0.2414224E+04  0.7818609E-02  0.8434197E-01
        2   -1    0    0  501    0  0.00000000000E+00  0.00000000000E+00  0.25262606769E+04  0.25262606769E+04  0.25500000920E-02 0. -1.
       -2   -1    0    0    0  501  0.00000000000E+00  0.00000000000E+00 -0.57678917751E+03  0.57678917752E+03  0.25500000920E-02 0.  1.
    10030    2    1    2    0    0  0.00000000000E+00  0.00000000000E+00  0.19494714994E+04  0.31030498544E+04  0.24142243624E+04 0.  0.
        4    1    3    3  502    0 -0.17923089206E+03 -0.71550464851E+03  0.22029039044E+04  0.23231138240E+04  0.12699999809E+01 0. -1.
       -4    1    3    3    0  502  0.17923089206E+03  0.71550464851E+03 -0.25343240497E+03  0.77993603039E+03  0.12699999809E+01 0.  1.
</event>
<event>
 5   0  0.1840431E-06  0.3152165E+04  0.7818609E-02  0.8201566E-01
        1   -1    0    0  501    0  0.00000000000E+00  0.00000000000E+00  0.11762926042E+04  0.11762926042E+04  0.50400001928E-02 0.  1.
       -1   -1    0    0    0  501  0.00000000000E+00  0.00000000000E+00 -0.21117497496E+04  0.21117497496E+04  0.50400001928E-02 0. -1.
    10030    2    1    2    0    0  0.00000000000E+00  0.00000000000E+00 -0.93545714545E+03  0.32880423538E+04  0.31521647243E+04 0.  0.
        1    1    3    3  502    0  0.17600420249E+03  0.19315314265E+03 -0.20889953837E+04  0.21052760696E+04  0.50400001928E-02 0. -1.
       -1    1    3    3    0  502 -0.17600420249E+03 -0.19315314265E+03  0.11535382383E+04  0.11827662842E+04  0.50400001928E-02 0.  1.
</event>
<event>
 5   0  0.4927533E-06  0.2392240E+04  0.7818609E-02  0.8442414E-01
       -2   -1    0    0    0  501  0.00000000000E+00  0.00000000000E+00  0.23584849618E+04  0.23584849618E+04  0.25500000920E-02 0.  1.
        2   -1    0    0  501    0  0.00000000000E+00  0.00000000000E+00 -0.60661955272E+03  0.60661955272E+03  0.25500000920E-02 0. -1.
    10030    2    1    2    0    0  0.00000000000E+00  0.00000000000E+00  0.17518654091E+04  0.29651045145E+04  0.23922400320E+04 0.  0.
        5    1    3    3  502    0  0.24641359493E+03  0.11155903346E+04  0.13148855496E+04  0.17418976873E+04  0.46999998093E+01 0.  1.
       -5    1    3    3    0  502 -0.24641359493E+03 -0.11155903346E+04  0.43697985947E+03  0.12232068272E+04  0.46999998093E+01 0. -1.
</event>
<event>
 5   0  0.5328368E-06  0.3013866E+04  0.7818609E-02  0.8239782E-01
        2   -1    0    0  501    0  0.00000000000E+00  0.00000000000E+00  0.14182053977E+04  0.14182053977E+04  0.25500000920E-02 0. -1.
       -2   -1    0    0    0  501  0.00000000000E+00  0.00000000000E+00 -0.16012117029E+04  0.16012117029E+04  0.25500000920E-02 0.  1.
    10030    2    1    2    0    0  0.00000000000E+00  0.00000000000E+00 -0.18300630520E+03  0.30194171006E+04  0.30138660089E+04 0.  0.
        1    1    3    3  502    0  0.41951767984E+03 -0.12881738579E+04  0.56960628644E+03  0.14696388310E+04  0.50400001928E-02 0. -1.
       -1    1    3    3    0  502 -0.41951767984E+03  0.12881738579E+04 -0.75261259164E+03  0.15497782696E+04  0.50400001928E-02 0.  1.
</event>
<event>
 5   0  0.5001658E-06  0.2231519E+04  0.7818609E-02  0.8505423E-01
        2   -1    0    0  501    0  0.00000000000E+00  0.00000000000E+00  0.17420130804E+04  0.17420130804E+04  0.25500000920E-02 0.  1.
       -2   -1    0    0    0  501  0.00000000000E+00  0.00000000000E+00 -0.71464385579E+03  0.71464385579E+03  0.25500000920E-02 0. -1.
    10030    2    1    2    0    0  0.00000000000E+00  0.00000000000E+00  0.10273692247E+04  0.24566569362E+04  0.22315187157E+04 0.  0.
        3    1    3    3  502    0 -0.31524968205E+03 -0.10685971980E+04  0.58007295052E+03  0.12560919440E+04  0.10100000352E+00 0.  1.
       -3    1    3    3    0  502  0.31524968205E+03  0.10685971980E+04  0.44729627414E+03  0.12005649923E+04  0.10100000352E+00 0. -1.
</event>
<event>
 5   0  0.1840431E-06  0.3071125E+04  0.7818609E-02  0.8223707E-01
       -1   -1    0    0    0  501  0.00000000000E+00  0.00000000000E+00  0.13782337619E+04  0.13782337619E+04  0.50400001928E-02 0. -1.
        1   -1    0    0  501    0  0.00000000000E+00  0.00000000000E+00 -0.17108506019E+04  0.17108506019E+04  0.50400001928E-02 0.  1.
    10030    2    1    2    0    0  0.00000000000E+00  0.00000000000E+00 -0.33261683998E+03  0.30890843638E+04  0.30711249151E+04 0.  0.
        1    1    3    3  502    0 -0.11907378051E+04 -0.50960803903E+03 -0.99599278149E+03  0.16338783599E+04  0.50400001928E-02 0.  1.
       -1    1    3    3    0  502  0.11907378051E+04  0.50960803903E+03  0.66337594151E+03  0.14552060039E+04  0.50400001928E-02 0. -1.
</event>
<event>
 5   0  0.1836401E-06  0.3229430E+04  0.7818609E-02  0.8181088E-01
        1   -1    0    0  501    0  0.00000000000E+00  0.00000000000E+00  0.20648132775E+04  0.20648132775E+04  0.50400001928E-02 0. -1.
       -1   -1    0    0    0  501  0.00000000000E+00  0.00000000000E+00 -0.12627312065E+04  0.12627312065E+04  0.50400001928E-02 0.  1.
    10030    2    1    2    0    0  0.00000000000E+00  0.00000000000E+00  0.80208207097E+03  0.33275444841E+04  0.32294297708E+04 0.  0.
        2    1    3    3  502    0 -0.53314180587E+03 -0.10915926297E+04 -0.69499110775E+03  0.13995811139E+04  0.25500000920E-02 0.  1.
       -2    1    3    3    0  502  0.53314180587E+03  0.10915926297E+04  0.14970731787E+04  0.19279633702E+04  0.25500000920E-02 0. -1.
</event>
<event>
 5   0  0.5328368E-06  0.3057599E+04  0.7818609E-02  0.8227472E-01
       -2   -1    0    0    0  501  0.00000000000E+00  0.00000000000E+00  0.15607026352E+04  0.15607026352E+04  0.25500000920E-02 0. -1.
        2   -1    0    0  501    0  0.00000000000E+00  0.00000000000E+00 -0.14975482958E+04  0.14975482958E+04  0.25500000920E-02 0.  1.
    10030    2    1    2    0    0  0.00000000000E+00  0.00000000000E+00  0.63154339358E+02  0.30582509310E+04  0.30575987778E+04 0.  0.
        1    1    3    3  502    0 -0.72161609352E+03 -0.48861940758E+03  0.12879298134E+04  0.15550697464E+04  0.50400001928E-02 0. -1.
       -1    1    3    3    0  502  0.72161609352E+03  0.48861940758E+03 -0.12247754740E+04  0.15031811846E+04  0.50400001928E-02 0.  1.
</event>
<event>
 5   0  0.5001658E-06  0.3145726E+04  0.7818609E-02  0.8203300E-01
        2   -1    0    0  501    0  0.00000000000E+00  0.00000000000E+00  0.23275552430E+04  0.23275552430E+04  0.25500000920E-02 0.  1.
       -2   -1    0    0    0  501  0.00000000000E+00  0.00000000000E+00 -0.10628742203E+04  0.10628742203E+04  0.25500000920E-02 0. -1.
    10030    2    1    2    0    0  0.00000000000E+00  0.00000000000E+00  0.12646810227E+04  0.33904294633E+04  0.31457262845E+04 0.  0.
        3    1    3    3  502    0  0.85136615978E+03 -0.50956918702E+03 -0.68300971791E+03  0.12045693751E+04  0.10100000352E+00 0. -1.
       -3    1    3    3    0  502 -0.85136615978E+03  0.50956918702E+03  0.19476907406E+04  0.21858600883E+04  0.10100000352E+00 0.  1.
</event>
<event>
 5   0  0.1853742E-06  0.3072741E+04  0.7818609E-02  0.8223259E-01
       -1   -1    0    0    0  501  0.00000000000E+00  0.00000000000E+00  0.13689990323E+04  0.13689990323E+04  0.50400001928E-02 0. -1.
        1   -1    0    0  501    0  0.00000000000E+00  0.00000000000E+00 -0.17242045230E+04  0.17242045230E+04  0.50400001928E-02 0.  1.
    10030    2    1    2    0    0  0.00000000000E+00  0.00000000000E+00 -0.35520549070E+03  0.30932035553E+04  0.30727410067E+04 0.  0.
        5    1    3    3  502    0  0.17942193164E+03  0.14466296169E+04  0.31089447727E+03  0.14905056002E+04  0.46999998093E+01 0.  1.
       -5    1    3    3    0  502 -0.17942193164E+03 -0.14466296169E+04 -0.66609996798E+03  0.16026979552E+04  0.46999998093E+01 0. -1.
</event>
<event>
 5   0  0.5001658E-06  0.3087795E+04  0.7818609E-02  0.8219095E-01
       -2   -1    0    0    0  501  0.00000000000E+00  0.00000000000E+00  0.12502324725E+04  0.12502324725E+04  0.25500000920E-02 0. -1.
        2   -1    0    0  501    0  0.00000000000E+00  0.00000000000E+00 -0.19065415013E+04  0.19065415013E+04  0.25500000920E-02 0.  1.
    10030    2    1    2    0    0  0.00000000000E+00  0.00000000000E+00 -0.65630902878E+03  0.31567739738E+04  0.30877953916E+04 0.  0.
        3    1    3    3  502    0 -0.27823266070E+03  0.14204228418E+04  0.22106677836E+03  0.14642011452E+04  0.10100000352E+00 0. -1.
       -3    1    3    3    0  502  0.27823266070E+03 -0.14204228418E+04 -0.87737580714E+03  0.16925728286E+04  0.10100000352E+00 0.  1.
</event>
<event>
 5   0  0.1843709E-06  0.3127187E+04  0.7818609E-02  0.8208316E-01
       -1   -1    0    0    0  501  0.00000000000E+00  0.00000000000E+00  0.15408713033E+04  0.15408713034E+04  0.50400001928E-02 0. -1.
        1   -1    0    0  501    0  0.00000000000E+00  0.00000000000E+00 -0.15866504401E+04  0.15866504402E+04  0.50400001928E-02 0.  1.
    10030    2    1    2    0    0  0.00000000000E+00  0.00000000000E+00 -0.45779136799E+02  0.31275217435E+04  0.31271866792E+04 0.  0.
        4    1    3    3  502    0  0.89026236210E+03 -0.46473525714E+03  0.11756864134E+04  0.15462167015E+04  0.12699999809E+01 0. -1.
       -4    1    3    3    0  502 -0.89026236210E+03  0.46473525714E+03 -0.12214655502E+04  0.15813050420E+04  0.12699999809E+01 0.  1.
</event>
<event>
 5   0  0.1843709E-06  0.3137084E+04  0.7818609E-02  0.8205634E-01
        1   -1    0    0  501    0  0.00000000000E+00  0.00000000000E+00  0.26558587549E+04  0.26558587549E+04  0.50400001928E-02 0.  1.
       -1   -1    0    0    0  501  0.00000000000E+00  0.00000000000E+00 -0.92637598540E+03  0.92637598542E+03  0.50400001928E-02 0. -1.
    10030    2    1    2    0    0  0.00000000000E+00  0.00000000000E+00  0.17294827695E+04  0.35822347403E+04  0.31370838504E+04 0.  0.
        4    1    3    3  502    0  0.92570392467E+03 -0.11070863810E+04  0.15665723648E+04  0.21299574170E+04  0.12699999809E+01 0.  1.
       -4    1    3    3    0  502 -0.92570392467E+03  0.11070863810E+04  0.16291040471E+03  0.14522773234E+04  0.12699999809E+01 0. -1.
</event>
<event>
 5   0  0.5001658E-06  0.3122284E+04  0.7818609E-02  0.8209649E-01
        2   -1    0    0  501    0  0.00000000000E+00  0.00000000000E+00  0.23505534053E+04  0.23505534053E+04  0.25500000920E-02 0. -1.
       -2   -1    0    0    0  501  0.00000000000E+00  0.00000000000E+00 -0.10368471423E+04  0.10368471423E+04  0.25500000920E-02 0.  1.
    10030    2    1    2    0    0  0.00000000000E+00  0.00000000000E+00  0.13137062630E+04  0.33874005476E+04  0.31222841518E+04 0.  0.
        3    1    3    3  502    0 -0.35799671265E+03  0.63244851652E+02  0.23039907176E+04  0.23324954008E+04  0.10100000352E+00 0. -1.
       -3    1    3    3    0  502  0.35799671265E+03 -0.63244851652E+02 -0.99028445466E+03  0.10549051469E+04  0.10100000352E+00 0.  1.
</event>
<event>
 5   0  0.1853742E-06  0.2638256E+04  0.7818609E-02  0.8355321E-01
       -1   -1    0    0    0  501  0.00000000000E+00  0.00000000000E+00  0.86383565496E+03  0.86383565497E+03  0.50400001928E-02 0.  1.
        1   -1    0    0  501    0  0.00000000000E+00  0.00000000000E+00 -0.20143860106E+04  0.20143860106E+04  0.50400001928E-02 0. -1.
    10030    2    1    2    0    0  0.00000000000E+00  0.00000000000E+00 -0.11505503556E+04  0.28782216655E+04  0.26382558320E+04 0.  0.
        5    1    3    3  502    0 -0.47584397547E+03  0.49730252622E+03 -0.18029471344E+04  0.19298646976E+04  0.46999998093E+01 0. -1.
       -5    1    3    3    0  502  0.47584397547E+03 -0.49730252622E+03  0.65239677883E+03  0.94835696792E+03  0.46999998093E+01 0.  1.
</event>
<event>
 5   0  0.1840431E-06  0.3089139E+04  0.7818609E-02  0.8218725E-01
       -1   -1    0    0    0  501  0.00000000000E+00  0.00000000000E+00  0.23282088514E+04  0.23282088514E+04  0.50400001928E-02 0.  1.
        1   -1    0    0  501    0  0.00000000000E+00  0.00000000000E+00 -0.10246909078E+04  0.10246909078E+04  0.50400001928E-02 0. -1.
    10030    2    1    2    0    0  0.00000000000E+00  0.00000000000E+00  0.13035179436E+04  0.33528997592E+04  0.30891386771E+04 0.  0.
        1    1    3    3  502    0 -0.13557274820E+04  0.51339290795E+03  0.12303051245E+04  0.19013731835E+04  0.50400001928E-02 0.  1.
       -1    1    3    3    0  502  0.13557274820E+04 -0.51339290795E+03  0.73212819087E+02  0.14515265758E+04  0.50400001928E-02 0. -1.
</event>
<event>
 5   0  0.1843709E-06  0.2955185E+04  0.7818609E-02  0.8256645E-01
        1   -1    0    0  501    0  0.00000000000E+00  0.00000000000E+00  0.13416459253E+04  0.13416459254E+04  0.50400001928E-02 0. -1.
       -1   -1    0    0    0  501  0.00000000000E+00  0.00000000000E+00 -0.16273148473E+04  0.16273148473E+04  0.50400001928E-02 0.  1.
    10030    2    1    2    0    0  0.00000000000E+00  0.00000000000E+00 -0.28566892192E+03  0.29689607726E+04  0.29551854995E+04 0.  0.
        4    1    3    3  502    0 -0.17932181990E+03  0.29179988623E+03 -0.15868845838E+04  0.16234247084E+04  0.12699999809E+01 0.  1.
       -4    1    3    3    0  502  0.17932181990E+03 -0.29179988623E+03  0.13012156618E+04  0.13455360643E+04  0.12699999809E+01 0. -1.
</event>
<event>
 5   0  0.5114870E-06  0.3087433E+04  0.7818609E-02  0.8219195E-01
        2   -1    0    0  501    0  0.00000000000E+00  0.00000000000E+00  0.15334878062E+04  0.15334878062E+04  0.25500000920E-02 0.  1.
       -2   -1    0    0    0  501  0.00000000000E+00  0.00000000000E+00 -0.15540139023E+04  0.15540139023E+04  0.25500000920E-02 0. -1.
    10030    2    1    2    0    0  0.00000000000E+00  0.00000000000E+00 -0.20526096043E+02  0.30875017085E+04  0.30874334777E+04 0.  0.
        2    1    3    3  502    0  0.11061029909E+04  0.21935964670E+03  0.10440272420E+04  0.15367418010E+04  0.25500000920E-02 0.  1.
       -2    1    3    3    0  502 -0.11061029909E+04 -0.21935964670E+03 -0.10645533380E+04  0.15507599075E+04  0.25500000920E-02 0. -1.
</event>
<event>
 5   0  0.5114870E-06  0.3077649E+04  0.7818609E-02  0.8221899E-01
        2   -1    0    0  501    0  0.00000000000E+00  0.00000000000E+00  0.16112751319E+04  0.16112751319E+04  0.25500000920E-02 0. -1.
       -2   -1    0    0    0  501  0.00000000000E+00  0.00000000000E+00 -0.14696317668E+04  0.14696317668E+04  0.25500000920E-02 0.  1.
    10030    2    1    2    0    0  0.00000000000E+00  0.00000000000E+00  0.14164336509E+03  0.30809068987E+04  0.30776491800E+04 0.  0.
        2    1    3    3  502    0 -0.13995261299E+04  0.10862266281E+03 -0.56032871662E+03  0.15114365821E+04  0.25500000920E-02 0.  1.
       -2    1    3    3    0  502  0.13995261299E+04 -0.10862266281E+03  0.70197208171E+03  0.15694703166E+04  0.25500000920E-02 0. -1.
</event>
<event>
 5   0  0.5114870E-06  0.3010693E+04  0.7818609E-02  0.8240684E-01
        2   -1    0    0  501    0  0.00000000000E+00  0.00000000000E+00  0.18215309025E+04  0.18215309025E+04  0.25500000920E-02 0. -1.
       -2   -1    0    0    0  501  0.00000000000E+00  0.00000000000E+00 -0.12440458818E+04  0.12440458818E+04  0.25500000920E-02 0.  1.
    10030    2    1    2    0    0  0.00000000000E+00  0.00000000000E+00  0.57748502067E+03  0.30655767843E+04  0.30106929553E+04 0.  0.
        2    1    3    3  502    0 -0.91084975618E+03  0.92494939282E+03  0.10647974061E+04  0.16789795037E+04  0.25500000920E-02 0. -1.
       -2    1    3    3    0  502  0.91084975618E+03 -0.92494939282E+03 -0.48731238548E+03  0.13865972806E+04  0.25500000920E-02 0.  1.
</event>
<event>
 5   0  0.1836401E-06  0.3105808E+04  0.7818609E-02  0.8214146E-01
        1   -1    0    0  501    0  0.00000000000E+00  0.00000000000E+00  0.19689845705E+04  0.19689845706E+04  0.50400001928E-02 0.  1.
       -1   -1    0    0    0  501  0.00000000000E+00  0.00000000000E+00 -0.12247488520E+04  0.12247488520E+04  0.50400001928E-02 0. -1.
    10030    2    1    2    0    0  0.00000000000E+00  0.00000000000E+00  0.74423571859E+03  0.31937334225E+04  0.31058084888E+04 0.  0.
        2    1    3    3  502    0 -0.13146412278E+01 -0.14005744309E+04 -0.31761756464E+03  0.14361376613E+04  0.25500000920E-02 0. -1.
       -2    1    3    3    0  502  0.13146412278E+01  0.14005744309E+04  0.10618532832E+04  0.17575957612E+04  0.25500000920E-02 0.  1.
</event>
<event>
 5   0  0.1843709E-06  0.3125166E+04  0.7818609E-02  0.8208865E-01
        1   -1    0    0  501    0  0.00000000000E+00  0.00000000000E+00  0.18998251335E+04  0.18998251335E+04  0.50400001928E-02 0. -1.
       -1   -1    0    0    0  501  0.00000000000E+00  0.00000000000E+00 -0.12852055094E+04  0.12852055094E+04  0.50400001928E-02 0.  1.
    10030    2    1    2    0    0  0.00000000000E+00  0.00000000000E+00  0.61461962411E+03  0.31850306430E+04  0.31251660619E+04 0.  0.
        4    1    3    3  502    0 -0.80701062388E+03 -0.38137968059E+03  0.16144330557E+04  0.18447526425E+04  0.12699999809E+01 0. -1.
       -4    1    3    3    0  502  0.80701062388E+03  0.38137968059E+03 -0.99981343155E+03  0.13402780005E+04  0.12699999809E+01 0.  1.
</event>
<event>
 5   0  0.1885307E-06  0.2778881E+04  0.7818609E-02  0.8309855E-01
       -1   -1    0    0    0  501  0.00000000000E+00  0.00000000000E+00  0.12014130858E+04  0.12014130858E+04  0.50400001928E-02 0. -1.
        1   -1    0    0  501    0  0.00000000000E+00  0.00000000000E+00 -0.16068949659E+04  0.16068949659E+04  0.50400001928E-02 0.  1.
    10030    2    1    2    0    0  0.00000000000E+00  0.00000000000E+00 -0.40548188007E+03  0.28083080517E+04  0.27788808103E+04 0.  0.
        3    1    3    3  502    0 -0.67593733582E+03  0.75713739174E+02 -0.14271488714E+04  0.15809420494E+04  0.10100000352E+00 0.  1.
       -3    1    3    3    0  502  0.67593733582E+03 -0.75713739174E+02  0.10216669913E+04  0.12273660023E+04  0.10100000352E+00 0. -1.
</event>
<event>
 5   0  0.4927533E-06  0.3101518E+04  0.7818609E-02  0.8215321E-01
       -2   -1    0    0    0  501  0.00000000000E+00  0.00000000000E+00  0.11677502402E+04  0.11677502403E+04  0.25500000920E-02 0. -1.
        2   -1    0    0  501    0  0.00000000000E+00  0.00000000000E+00 -0.20593901614E+04  0.20593901614E+04  0.25500000920E-02 0.  1.
    10030    2    1    2    0    0  0.00000000000E+00  0.00000000000E+00 -0.89163992111E+03  0.32271404016E+04  0.31015179224E+04 0.  0.
        5    1    3    3  502    0  0.12394459307E+03 -0.27009220105E+03  0.11378384734E+04  0.11760146856E+04  0.46999998093E+01 0. -1.
       -5    1    3    3    0  502 -0.12394459307E+03  0.27009220105E+03 -0.20294783945E+04  0.20511257160E+04  0.46999998093E+01 0.  1.
</event>
<event>
 5   0  0.1843709E-06  0.3113168E+04  0.7818609E-02  0.8212133E-01
        1   -1    0    0  501    0  0.00000000000E+00  0.00000000000E+00  0.16619535076E+04  0.16619535076E+04  0.50400001928E-02 0.  1.
       -1   -1    0    0    0  501  0.00000000000E+00  0.00000000000E+00 -0.14578954679E+04  0.14578954679E+04  0.50400001928E-02 0. -1.
    10030    2    1    2    0    0  0.00000000000E+00  0.00000000000E+00  0.20405803965E+03  0.31198489755E+04  0.31131684738E+04 0.  0.
        4    1    3    3  502    0 -0.33297491476E+03 -0.45614414777E+03  0.15556633361E+04  0.16550014518E+04  0.12699999809E+01 0.  1.
       -4    1    3    3    0  502  0.33297491476E+03  0.45614414777E+03 -0.13516052964E+04  0.14648475237E+04  0.12699999809E+01 0. -1.
</event>
<event>
 5   0  0.4927533E-06  0.3273402E+04  0.7818609E-02  0.8169696E-01
        2   -1    0    0  501    0  0.00000000000E+00  0.00000000000E+00  0.17499202824E+04  0.17499202824E+04  0.25500000920E-02 0. -1.
       -2   -1    0    0    0  501  0.00000000000E+00  0.00000000000E+00 -0.15308066289E+04  0.15308066289E+04  0.25500000920E-02 0.  1.
    10030    2    1    2    0    0  0.00000000000E+00  0.00000000000E+00  0.21911365359E+03  0.32807269113E+04  0.32734016364E+04 0.  0.
        5    1    3    3  502    0 -0.15161496984E+03 -0.14362697370E+04 -0.66217255438E+03  0.15888210844E+04  0.46999998093E+01 0.  1.
       -5    1    3    3    0  502  0.15161496984E+03  0.14362697370E+04  0.88128620797E+03  0.16919058269E+04  0.46999998093E+01 0. -1.
</event>
<event>
 5   0  0.1843709E-06  0.2360124E+04  0.7818609E-02  0.8454585E-01
       -1   -1    0    0    0  501  0.00000000000E+00  0.00000000000E+00  0.13516700621E+04  0.13516700621E+04  0.50400001928E-02 0.  1.
        1   -1    0    0  501    0  0.00000000000E+00  0.00000000000E+00 -0.10302408984E+04  0.10302408984E+04  0.50400001928E-02 0. -1.
    10030    2    1    2    0    0  0.00000000000E+00  0.00000000000E+00  0.32142916367E+03  0.23819109605E+04  0.23601235384E+04 0.  0.
        4    1    3    3  502    0 -0.33280368301E+03 -0.34051055677E+02  0.13028090077E+04  0.13450764622E+04  0.12699999809E+01 0.  1.
       -4    1    3    3    0  502  0.33280368301E+03  0.34051055677E+02 -0.98137984399E+03  0.10368344983E+04  0.12699999809E+01 0. -1.
</event>
<event>
 5   0  0.1649875E-06  0.3128794E+04  0.7818609E-02  0.8207880E-01
       -3   -1    0    0    0  501  0.00000000000E+00  0.00000000000E+00  0.14419120918E+04  0.14419120953E+04  0.10100000352E+00 0.  1.
        3   -1    0    0  501    0  0.00000000000E+00  0.00000000000E+00 -0.16972869389E+04  0.16972869419E+04  0.10100000352E+00 0. -1.
    10030    2    1    2    0    0  0.00000000000E+00  0.00000000000E+00 -0.25537484711E+03  0.31391990373E+04  0.31287943817E+04 0.  0.
        1    1    3    3  502    0 -0.15565927627E+03 -0.28055377104E+03  0.14085471406E+04  0.14446263448E+04  0.50400001928E-02 0.  1.
       -1    1    3    3    0  502  0.15565927627E+03  0.28055377104E+03 -0.16639219877E+04  0.16945726925E+04  0.50400001928E-02 0. -1.
</event>
<event>
 5   0  0.1885307E-06  0.3044557E+04  0.7818609E-02  0.8231121E-01
        1   -1    0    0  501    0  0.00000000000E+00  0.00000000000E+00  0.70747495232E+03  0.70747495234E+03  0.50400001928E-02 0. -1.
       -1   -1    0    0    0  501  0.00000000000E+00  0.00000000000E+00 -0.32754956990E+04  0.32754956990E+04  0.50400001928E-02 0.  1.
    10030    2    1    2    0    0  0.00000000000E+00  0.00000000000E+00 -0.25680207466E+04  0.39829706513E+04  0.30445565611E+04 0.  0.
        3    1    3    3  502    0  0.49502948841E+03 -0.11973428802E+04 -0.23853575620E+03  0.13174154562E+04  0.10100000352E+00 0. -1.
       -3    1    3    3    0  502 -0.49502948841E+03  0.11973428802E+04 -0.23294849905E+04  0.26655551951E+04  0.10100000352E+00 0.  1.
</event>
<event>
 5   0  0.1885307E-06  0.2879681E+04  0.7818609E-02  0.8278949E-01
       -1   -1    0    0    0  501  0.00000000000E+00  0.00000000000E+00  0.16341830221E+04  0.16341830221E+04  0.50400001928E-02 0.  1.
        1   -1    0    0  501    0  0.00000000000E+00  0.00000000000E+00 -0.12686094547E+04  0.12686094547E+04  0.50400001928E-02 0. -1.
    10030    2    1    2    0    0  0.00000000000E+00  0.00000000000E+00  0.36557356738E+03  0.29027924768E+04  0.28796805605E+04 0.  0.
        3    1    3    3  502    0 -0.82539168718E+03 -0.10726702002E+04  0.67789808422E+03  0.15137498534E+04  0.10100000352E+00 0.  1.
       -3    1    3    3    0  502  0.82539168718E+03  0.10726702002E+04 -0.31232451684E+03  0.13890426235E+04  0.10100000352E+00 0. -1.
</event>
<event>
 5   0  0.4900679E-06  0.3120176E+04  0.7818609E-02  0.8210223E-01
        2   -1    0    0  501    0  0.00000000000E+00  0.00000000000E+00  0.33326109715E+04  0.33326109715E+04  0.25500000920E-02 0. -1.
       -2   -1    0    0    0  501  0.00000000000E+00  0.00000000000E+00 -0.73032056944E+03  0.73032056944E+03  0.25500000920E-02 0.  1.
    10030    2    1    2    0    0  0.00000000000E+00  0.00000000000E+00  0.26022904020E+04  0.40629315409E+04  0.31201758556E+04 0.  0.
        4    1    3    3  502    0  0.74590714728E+03 -0.13673933500E+04  0.11866547202E+04  0.19581351036E+04  0.12699999809E+01 0. -1.
       -4    1    3    3    0  502 -0.74590714728E+03  0.13673933500E+04  0.14156356818E+04  0.21047964373E+04  0.12699999809E+01 0.  1.
</event>
<event>
 5   0  0.5114870E-06  0.3129509E+04  0.7818609E-02  0.8207686E-01
        2   -1    0    0  501    0  0.00000000000E+00  0.00000000000E+00  0.18773619075E+04  0.18773619075E+04  0.25500000920E-02 0. -1.
       -2   -1    0    0    0  501  0.00000000000E+00  0.00000000000E+00 -0.13042003003E+04  0.13042003003E+04  0.25500000920E-02 0.  1.
    10030    2    1    2    0    0  0.00000000000E+00  0.00000000000E+00  0.57316160718E+03  0.31815622078E+04  0.31295085643E+04 0.  0.
        2    1    3    3  502    0  0.37505303868E+03 -0.14315862848E+04 -0.23015683614E+03  0.14976903024E+04  0.25500000920E-02 0.  1.
       -2    1    3    3    0  502 -0.37505303868E+03  0.14315862848E+04  0.80331844332E+03  0.16838719054E+04  0.25500000920E-02 0. -1.
</event>
<event>
 5   0  0.1885307E-06  0.3071637E+04  0.7818609E-02  0.8223565E-01
        1   -1    0    0  501    0  0.00000000000E+00  0.00000000000E+00  0.17025706817E+04  0.17025706817E+04  0.50400001928E-02 0.  1.
       -1   -1    0    0    0  501  0.00000000000E+00  0.00000000000E+00 -0.13853984440E+04  0.13853984440E+04  0.50400001928E-02 0. -1.
    10030    2    1    2    0    0  0.00000000000E+00  0.00000000000E+00  0.31717223777E+03  0.30879691257E+04  0.30716372007E+04 0.  0.
        3    1    3    3  502    0  0.11679696842E+04  0.70656664077E+03 -0.54896650709E+03  0.14713102450E+04  0.10100000352E+00 0. -1.
       -3    1    3    3    0  502 -0.11679696842E+04 -0.70656664077E+03  0.86613874486E+03  0.16166588807E+04  0.10100000352E+00 0.  1.
</event>
<event>
 5   0  0.5001658E-06  0.3263617E+04  0.7818609E-02  0.8172215E-01
       -2   -1    0    0    0  501  0.00000000000E+00  0.00000000000E+00  0.22201948130E+04  0.22201948130E+04  0.25500000920E-02 0. -1.
        2   -1    0    0  501    0  0.00000000000E+00  0.00000000000E+00 -0.11993536794E+04  0.11993536794E+04  0.25500000920E-02 0.  1.
    10030    2    1    2    0    0  0.00000000000E+00  0.00000000000E+00  0.10208411336E+04  0.34195484925E+04  0.32636169003E+04 0.  0.
        3    1    3    3  502    0  0.95920628460E+03 -0.13109573178E+02 -0.87270703694E+03  0.12968678190E+04  0.10100000352E+00 0.  1.
       -3    1    3    3    0  502 -0.95920628460E+03  0.13109573178E+02  0.18935481705E+04  0.21226806735E+04  0.10100000352E+00 0. -1.
</event>
<event>
 5   0  0.1840431E-06  0.3084587E+04  0.7818609E-02  0.8219981E-01
        1   -1    0    0  501    0  0.00000000000E+00  0.00000000000E+00  0.23529548490E+04  0.23529548490E+04  0.50400001928E-02 0. -1.
       -1   -1    0    0    0  501  0.00000000000E+00  0.00000000000E+00 -0.10109286002E+04  0.10109286002E+04  0.50400001928E-02 0.  1.
    10030    2    1    2    0    0  0.00000000000E+00  0.00000000000E+00  0.13420262488E+04  0.33638834492E+04  0.30845870724E+04 0.  0.
        1    1    3    3  502    0 -0.92573132403E+03  0.24547402973E+03  0.19893712964E+04  0.22079026560E+04  0.50400001928E-02 0. -1.
       -1    1    3    3    0  502  0.92573132403E+03 -0.24547402973E+03 -0.64734504758E+03  0.11559807932E+04  0.50400001928E-02 0.  1.
</event>
<event>
 5   0  0.1843709E-06  0.3082831E+04  0.7818609E-02  0.8220466E-01
       -1   -1    0    0    0  501  0.00000000000E+00  0.00000000000E+00  0.77304617022E+03  0.77304617024E+03  0.50400001928E-02 0.  1.
        1   -1    0    0  501    0  0.00000000000E+00  0.00000000000E+00 -0.30735049736E+04  0.30735049736E+04  0.50400001928E-02 0. -1.
    10030    2    1    2    0    0  0.00000000000E+00  0.00000000000E+00 -0.23004588034E+04  0.38465511439E+04  0.30828306791E+04 0.  0.
        4    1    3    3  502    0  0.26438822151E+03 -0.78701246345E+03 -0.27706840636E+04  0.28924006539E+04  0.12699999809E+01 0. -1.
       -4    1    3    3    0  502 -0.26438822151E+03  0.78701246345E+03  0.47022526021E+03  0.95415048998E+03  0.12699999809E+01 0.  1.
</event>
<event>
 5   0  0.1853742E-06  0.3202399E+04  0.7818609E-02  0.8188184E-01
        1   -1    0    0  501    0  0.00000000000E+00  0.00000000000E+00  0.13241226333E+04  0.13241226333E+04  0.50400001928E-02 0.  1.
       -1   -1    0    0    0  501  0.00000000000E+00  0.00000000000E+00 -0.19362556953E+04  0.19362556954E+04  0.50400001928E-02 0. -1.
    10030    2    1    2    0    0  0.00000000000E+00  0.00000000000E+00 -0.61213306205E+03  0.32603783287E+04  0.32023990945E+04 0.  0.
        5    1    3    3  502    0 -0.56224842045E+03  0.56218950690E+03  0.11089299689E+04  0.13645248601E+04  0.46999998093E+01 0.  1.
       -5    1    3    3    0  502  0.56224842045E+03 -0.56218950690E+03 -0.17210630309E+04  0.18958534686E+04  0.46999998093E+01 0. -1.
</event>
<event>
 5   0  0.5001658E-06  0.3100650E+04  0.7818609E-02  0.8215560E-01
        2   -1    0    0  501    0  0.00000000000E+00  0.00000000000E+00  0.23727811698E+04  0.23727811698E+04  0.25500000920E-02 0. -1.
       -2   -1    0    0    0  501  0.00000000000E+00  0.00000000000E+00 -0.10129493293E+04  0.10129493293E+04  0.25500000920E-02 0.  1.
    10030    2    1    2    0    0  0.00000000000E+00  0.00000000000E+00  0.13598318405E+04  0.33857304991E+04  0.31006496703E+04 0.  0.
        3    1    3    3  502    0 -0.88898757894E+02  0.10086356174E+04  0.19618479301E+04  0.22077355160E+04  0.10100000352E+00 0. -1.
       -3    1    3    3    0  502  0.88898757894E+02 -0.10086356174E+04 -0.60201608953E+03  0.11779949831E+04  0.10100000352E+00 0.  1.
</event>
<event>
 5   0  0.1840431E-06  0.3118586E+04  0.7818609E-02  0.8210656E-01
       -1   -1    0    0    0  501  0.00000000000E+00  0.00000000000E+00  0.22374680328E+04  0.22374680328E+04  0.50400001928E-02 0.  1.
        1   -1    0    0  501    0  0.00000000000E+00  0.00000000000E+00 -0.10866720185E+04  0.10866720186E+04  0.50400001928E-02 0. -1.
    10030    2    1    2    0    0  0.00000000000E+00  0.00000000000E+00  0.11507960142E+04  0.33241400514E+04  0.31185855150E+04 0.  0.
        1    1    3    3  502    0 -0.36070949662E+02  0.12927465067E+04  0.15039660223E+04  0.19835343305E+04  0.50400001928E-02 0.  1.
       -1    1    3    3    0  502  0.36070949662E+02 -0.12927465067E+04 -0.35317000805E+03  0.13406057208E+04  0.50400001928E-02 0. -1.
</event>
<event>
 5   0  0.5328368E-06  0.3114222E+04  0.7818609E-02  0.8211846E-01
        2   -1    0    0  501    0  0.00000000000E+00  0.00000000000E+00  0.20106975917E+04  0.20106975917E+04  0.25500000920E-02 0. -1.
       -2   -1    0    0    0  501  0.00000000000E+00  0.00000000000E+00 -0.12058475161E+04  0.12058475161E+04  0.25500000920E-02 0.  1.
    10030    2    1    2    0    0  0.00000000000E+00  0.00000000000E+00  0.80485007562E+03  0.32165451077E+04  0.31142220194E+04 0.  0.
        1    1    3    3  502    0 -0.10585187127E+04 -0.44739144503E+03  0.14876491732E+04  0.18798194149E+04  0.50400001928E-02 0. -1.
       -1    1    3    3    0  502  0.10585187127E+04  0.44739144503E+03 -0.68279909759E+03  0.13367256928E+04  0.50400001928E-02 0.  1.
</event>
<event>
 5   0  0.1843709E-06  0.3091389E+04  0.7818609E-02  0.8218105E-01
       -1   -1    0    0    0  501  0.00000000000E+00  0.00000000000E+00  0.77148383843E+03  0.77148383845E+03  0.50400001928E-02 0. -1.
        1   -1    0    0  501    0  0.00000000000E+00  0.00000000000E+00 -0.30968530430E+04  0.30968530430E+04  0.50400001928E-02 0.  1.
    10030    2    1    2    0    0  0.00000000000E+00  0.00000000000E+00 -0.23253692046E+04  0.38683368815E+04  0.30913893787E+04 0.  0.
        4    1    3    3  502    0  0.65137710376E+03 -0.10342904906E+04 -0.23465752084E+04  0.26458393323E+04  0.12699999809E+01 0.  1.
       -4    1    3    3    0  502 -0.65137710376E+03  0.10342904906E+04  0.21206003859E+02  0.12224975492E+04  0.12699999809E+01 0. -1.
</event>
<event>
 5   0  0.1853742E-06  0.2384449E+04  0.7818609E-02  0.8445349E-01
       -1   -1    0    0    0  501  0.00000000000E+00  0.00000000000E+00  0.65578732355E+03  0.65578732357E+03  0.50400001928E-02 0.  1.
        1   -1    0    0  501    0  0.00000000000E+00  0.00000000000E+00 -0.21674691729E+04  0.21674691729E+04  0.50400001928E-02 0. -1.
    10030    2    1    2    0    0  0.00000000000E+00  0.00000000000E+00 -0.15116818493E+04  0.28232564964E+04  0.23844486220E+04 0.  0.
        5    1    3    3  502    0 -0.58968849093E+03  0.77546764342E+03 -0.15695490328E+04  0.18473193656E+04  0.46999998093E+01 0. -1.
       -5    1    3    3    0  502  0.58968849093E+03 -0.77546764342E+03  0.57867183495E+02  0.97593713079E+03  0.46999998093E+01 0.  1.
</event>
<event>
 5   0  0.1836401E-06  0.3126614E+04  0.7818609E-02  0.8208472E-01
       -1   -1    0    0    0  501  0.00000000000E+00  0.00000000000E+00  0.13960439578E+04  0.13960439578E+04  0.50400001928E-02 0. -1.
        1   -1    0    0  501    0  0.00000000000E+00  0.00000000000E+00 -0.17506104459E+04  0.17506104460E+04  0.50400001928E-02 0.  1.
    10030    2    1    2    0    0  0.00000000000E+00  0.00000000000E+00 -0.35456648811E+03  0.31466544038E+04  0.31266142299E+04 0.  0.
        2    1    3    3  502    0 -0.13609003693E+04 -0.22718563968E+03  0.56245584448E+03  0.14899730559E+04  0.25500000920E-02 0. -1.
       -2    1    3    3    0  502  0.13609003693E+04  0.22718563968E+03 -0.91702233258E+03  0.16566813479E+04  0.25500000920E-02 0.  1.
</event>
<event>
 5   0  0.1843709E-06  0.3083034E+04  0.7818609E-02  0.8220410E-01
        1   -1    0    0  501    0  0.00000000000E+00  0.00000000000E+00  0.26490764331E+04  0.26490764331E+04  0.50400001928E-02 0.  1.
       -1   -1    0    0    0  501  0.00000000000E+00  0.00000000000E+00 -0.89702007022E+03  0.89702007023E+03  0.50400001928E-02 0. -1.
    10030    2    1    2    0    0  0.00000000000E+00  0.00000000000E+00  0.17520563629E+04  0.35460965034E+04  0.30830340433E+04 0.  0.
        4    1    3    3  502    0 -0.12212661197E+04  0.26041324995E+03 -0.16359156264E+03  0.12593926346E+04  0.12699999809E+01 0. -1.
       -4    1    3    3    0  502  0.12212661197E+04 -0.26041324995E+03  0.19156479255E+04  0.22867038688E+04  0.12699999809E+01 0.  1.
</event>
<event>
 5   0  0.1853742E-06  0.3092613E+04  0.7818609E-02  0.8217768E-01
       -1   -1    0    0    0  501  0.00000000000E+00  0.00000000000E+00  0.10465348697E+04  0.10465348697E+04  0.50400001928E-02 0.  1.
        1   -1    0    0  501    0  0.00000000000E+00  0.00000000000E+00 -0.22847440332E+04  0.22847440332E+04  0.50400001928E-02 0. -1.
    10030    2    1    2    0    0  0.00000000000E+00  0.00000000000E+00 -0.12382091635E+04  0.33312789030E+04  0.30926133280E+04 0.  0.
        5    1    3    3  502    0  0.11215308629E+04  0.39991976305E+03  0.44357695823E+03  0.12706494014E+04  0.46999998093E+01 0.  1.
       -5    1    3    3    0  502 -0.11215308629E+04 -0.39991976305E+03 -0.16817861218E+04  0.20606295016E+04  0.46999998093E+01 0. -1.
</event>
<event>
 5   0  0.5114870E-06  0.3173885E+04  0.7818609E-02  0.8195748E-01
        2   -1    0    0  501    0  0.00000000000E+00  0.00000000000E+00  0.23697933763E+04  0.23697933763E+04  0.25500000920E-02 0.  1.
       -2   -1    0    0    0  501  0.00000000000E+00  0.00000000000E+00 -0.10627032100E+04  0.10627032100E+04  0.25500000920E-02 0. -1.
    10030    2    1    2    0    0  0.00000000000E+00  0.00000000000E+00  0.13070901662E+04  0.34324965863E+04  0.31738853338E+04 0.  0.
        2    1    3    3  502    0 -0.28427525733E+03 -0.15504748346E+04  0.85179087969E+03  0.17917400306E+04  0.25500000920E-02 0. -1.
       -2    1    3    3    0  502  0.28427525733E+03  0.15504748346E+04  0.45529928655E+03  0.16407565557E+04  0.25500000920E-02 0.  1.
</event>
<event>
 5   0  0.1840431E-06  0.3125411E+04  0.7818609E-02  0.8208799E-01
       -1   -1    0    0    0  501  0.00000000000E+00  0.00000000000E+00  0.11870952715E+04  0.11870952715E+04  0.50400001928E-02 0.  1.
        1   -1    0    0  501    0  0.00000000000E+00  0.00000000000E+00 -0.20571626165E+04  0.20571626165E+04  0.50400001928E-02 0. -1.
    10030    2    1    2    0    0  0.00000000000E+00  0.00000000000E+00 -0.87006734502E+03  0.32442578880E+04  0.31254107024E+04 0.  0.
        1    1    3    3  502    0  0.15130026940E+04  0.37364406746E+03 -0.55456891849E+03  0.16541867266E+04  0.50400001928E-02 0. -1.
       -1    1    3    3    0  502 -0.15130026940E+04 -0.37364406746E+03 -0.31549842653E+03  0.15900711614E+04  0.50400001928E-02 0.  1.
</event>
<event>
 5   0  0.1840431E-06  0.3211125E+04  0.7818609E-02  0.8185885E-01
        1   -1    0    0  501    0  0.00000000000E+00  0.00000000000E+00  0.15950465870E+04  0.15950465870E+04  0.50400001928E-02 0.  1.
       -1   -1    0    0    0  501  0.00000000000E+00  0.00000000000E+00 -0.16161480990E+04  0.16161480990E+04  0.50400001928E-02 0. -1.
    10030    2    1    2    0    0  0.00000000000E+00  0.00000000000E+00 -0.21101512056E+02  0.32111946860E+04  0.32111253538E+04 0.  0.
        1    1    3    3  502    0 -0.65480914028E+03  0.72586736132E+03  0.12631223273E+04  0.15972277390E+04  0.50400001928E-02 0.  1.
       -1    1    3    3    0  502  0.65480914028E+03 -0.72586736132E+03 -0.12842238394E+04  0.16139669470E+04  0.50400001928E-02 0. -1.
</event>
<event>
 5   0  0.1840431E-06  0.2566335E+04  0.7818609E-02  0.8379727E-01
       -1   -1    0    0    0  501  0.00000000000E+00  0.00000000000E+00  0.92750342154E+03  0.92750342155E+03  0.50400001928E-02 0. -1.
        1   -1    0    0  501    0  0.00000000000E+00  0.00000000000E+00 -0.17752156234E+04  0.17752156234E+04  0.50400001928E-02 0.  1.
    10030    2    1    2    0    0  0.00000000000E+00  0.00000000000E+00 -0.84771220185E+03  0.27027190450E+04  0.25663347909E+04 0.  0.
        1    1    3    3  502    0 -0.12777966352E+04  0.68404282191E+02 -0.32352971580E+03  0.13198919894E+04  0.50400001928E-02 0.  1.
       -1    1    3    3    0  502  0.12777966352E+04 -0.68404282191E+02 -0.52418248604E+03  0.13828270555E+04  0.50400001928E-02 0. -1.
</event>
<event>
 5   0  0.4900679E-06  0.3058503E+04  0.7818609E-02  0.8227220E-01
        2   -1    0    0  501    0  0.00000000000E+00  0.00000000000E+00  0.15021535860E+04  0.15021535860E+04  0.25500000920E-02 0. -1.
       -2   -1    0    0    0  501  0.00000000000E+00  0.00000000000E+00 -0.15568382251E+04  0.15568382251E+04  0.25500000920E-02 0.  1.
    10030    2    1    2    0    0  0.00000000000E+00  0.00000000000E+00 -0.54684639148E+02  0.30589918111E+04  0.30585029820E+04 0.  0.
        4    1    3    3  502    0  0.19461128935E+03  0.27562204933E+03  0.14644615051E+04  0.15028273955E+04  0.12699999809E+01 0. -1.
       -4    1    3    3    0  502 -0.19461128935E+03 -0.27562204933E+03 -0.15191461442E+04  0.15561644156E+04  0.12699999809E+01 0.  1.
</event>
<event>
 5   0  0.1885307E-06  0.3201102E+04  0.7818609E-02  0.8188526E-01
        1   -1    0    0  501    0  0.00000000000E+00  0.00000000000E+00  0.15534967341E+04  0.15534967342E+04  0.50400001928E-02 0. -1.
       -1   -1    0    0    0  501  0.00000000000E+00  0.00000000000E+00 -0.16490302969E+04  0.16490302969E+04  0.50400001928E-02 0.  1.
    10030    2    1    2    0    0  0.00000000000E+00  0.00000000000E+00 -0.95533562721E+02  0.32025270310E+04  0.32011017983E+04 0.  0.
        3    1    3    3  502    0 -0.97015428607E+03 -0.12725767662E+04 -0.81131379857E+02  0.16022588042E+04  0.10100000352E+00 0.  1.
       -3    1    3    3    0  502  0.97015428607E+03  0.12725767662E+04 -0.14402182865E+02  0.16002682268E+04  0.10100000352E+00 0. -1.
</event>
<event>
 5   0  0.4900679E-06  0.3107042E+04  0.7818609E-02  0.8213808E-01
       -2   -1    0    0    0  501  0.00000000000E+00  0.00000000000E+00  0.14638556101E+04  0.14638556101E+04  0.25500000920E-02 0.  1.
        2   -1    0    0  501    0  0.00000000000E+00  0.00000000000E+00 -0.16486785547E+04  0.16486785547E+04  0.25500000920E-02 0. -1.
    10030    2    1    2    0    0  0.00000000000E+00  0.00000000000E+00 -0.18482294462E+03  0.31125341649E+04  0.31070419062E+04 0.  0.
        4    1    3    3  502    0  0.82769380849E+03  0.60793161291E+01 -0.14093880658E+04  0.16344694343E+04  0.12699999809E+01 0. -1.
       -4    1    3    3    0  502 -0.82769380849E+03 -0.60793161291E+01  0.12245651212E+04  0.14780647306E+04  0.12699999809E+01 0.  1.
</event>
<event>
 5   0  0.5001658E-06  0.3128218E+04  0.7818609E-02  0.8208036E-01
        2   -1    0    0  501    0  0.00000000000E+00  0.00000000000E+00  0.12071781581E+04  0.12071781581E+04  0.25500000920E-02 0. -1.
       -2   -1    0    0    0  501  0.00000000000E+00  0.00000000000E+00 -0.20265751704E+04  0.20265751704E+04  0.25500000920E-02 0.  1.
    10030    2    1    2    0    0  0.00000000000E+00  0.00000000000E+00 -0.81939701231E+03  0.32337533285E+04  0.31282182030E+04 0.  0.
        3    1    3    3  502    0  0.39795094116E+03 -0.79811520874E+03 -0.17379933637E+04  0.19534517605E+04  0.10100000352E+00 0.  1.
       -3    1    3    3    0  502 -0.39795094116E+03  0.79811520874E+03  0.91859635143E+03  0.12803015680E+04  0.10100000352E+00 0. -1.
</event>
<event>
 5   0  0.5328368E-06  0.2403434E+04  0.7818609E-02  0.8438219E-01
        2   -1    0    0  501    0  0.00000000000E+00  0.00000000000E+00  0.11900778142E+04  0.11900778142E+04  0.25500000920E-02 0. -1.
       -2   -1    0    0    0  501  0.00000000000E+00  0.00000000000E+00 -0.12134698743E+04  0.12134698743E+04  0.25500000920E-02 0.  1.
    10030    2    1    2    0    0  0.00000000000E+00  0.00000000000E+00 -0.23392060142E+02  0.24035476885E+04  0.24034338564E+04 0.  0.
        1    1    3    3  502    0  0.12385709042E+03  0.93155054817E+03 -0.76072854892E+03  0.12090636575E+04  0.50400001928E-02 0.  1.
       -1    1    3    3    0  502 -0.12385709042E+03 -0.93155054817E+03  0.73733648878E+03  0.11944840310E+04  0.50400001928E-02 0. -1.
</event>
<event>
 5   0  0.4900679E-06  0.2404059E+04  0.7818609E-02  0.8437985E-01
       -2   -1    0    0    0  501  0.00000000000E+00  0.00000000000E+00  0.15660756557E+04  0.15660756557E+04  0.25500000920E-02 0. -1.
        2   -1    0    0  501    0  0.00000000000E+00  0.00000000000E+00 -0.92260888398E+03  0.92260888398E+03  0.25500000920E-02 0.  1.
    10030    2    1    2    0    0  0.00000000000E+00  0.00000000000E+00  0.64346677175E+03  0.24886845397E+04  0.24040593279E+04 0.  0.
        4    1    3    3  502    0 -0.56093310334E+03 -0.28067198554E+03 -0.73976462812E+03  0.96988454354E+03  0.12699999809E+01 0.  1.
       -4    1    3    3    0  502  0.56093310334E+03  0.28067198554E+03  0.13832313999E+04  0.15187999962E+04  0.12699999809E+01 0. -1.
</event>
<event>
 5   0  0.1885307E-06  0.2803456E+04  0.7818609E-02  0.8302196E-01
       -1   -1    0    0    0  501  0.00000000000E+00  0.00000000000E+00  0.14354936312E+04  0.14354936312E+04  0.50400001928E-02 0. -1.
        1   -1    0    0  501    0  0.00000000000E+00  0.00000000000E+00 -0.13687568138E+04  0.13687568139E+04  0.50400001928E-02 0.  1.
    10030    2    1    2    0    0  0.00000000000E+00  0.00000000000E+00  0.66736817331E+02  0.28042504450E+04  0.28034562161E+04 0.  0.
        3    1    3    3  502    0 -0.11960097164E+04  0.55472614796E+03  0.50961392856E+03  0.14134591283E+04  0.10100000352E+00 0. -1.
       -3    1    3    3    0  502  0.11960097164E+04 -0.55472614796E+03 -0.44287711123E+03  0.13907913168E+04  0.10100000352E+00 0.  1.
</event>
<event>
 5   0  0.5001658E-06  0.2836671E+04  0.7818609E-02  0.8291973E-01
        2   -1    0    0  501    0  0.00000000000E+00  0.00000000000E+00  0.12394698268E+04  0.12394698268E+04  0.25500000920E-02 0. -1.
       -2   -1    0    0    0  501  0.00000000000E+00  0.00000000000E+00 -0.16230126754E+04  0.16230126754E+04  0.25500000920E-02 0.  1.
    10030    2    1    2    0    0  0.00000000000E+00  0.00000000000E+00 -0.38354284861E+03  0.28624825022E+04  0.28366707526E+04 0.  0.
        3    1    3    3  502    0  0.44431100343E+03 -0.12212280704E+04 -0.76515383731E+03  0.15080685239E+04  0.10100000352E+00 0.  1.
       -3    1    3    3    0  502 -0.44431100343E+03  0.12212280704E+04  0.38161098870E+03  0.13544139783E+04  0.10100000352E+00 0. -1.
</event>
<event>
 5   0  0.1885307E-06  0.3034190E+04  0.7818609E-02  0.8234035E-01
        1   -1    0    0  501    0  0.00000000000E+00  0.00000000000E+00  0.17681956838E+04  0.17681956838E+04  0.50400001928E-02 0. -1.
       -1   -1    0    0    0  501  0.00000000000E+00  0.00000000000E+00 -0.13016531923E+04  0.13016531923E+04  0.50400001928E-02 0.  1.
    10030    2    1    2    0    0  0.00000000000E+00  0.00000000000E+00  0.46654249148E+03  0.30698488761E+04  0.30341902092E+04 0.  0.
        3    1    3    3  502    0  0.88927822317E+03 -0.27617722862E+03  0.14450480706E+04  0.17190850928E+04  0.10100000352E+00 0.  1.
       -3    1    3    3    0  502 -0.88927822317E+03  0.27617722862E+03 -0.97850557909E+03  0.13507637833E+04  0.10100000352E+00 0. -1.
</event>
<event>
 5   0  0.4900679E-06  0.3068738E+04  0.7818609E-02  0.8224370E-01
        2   -1    0    0  501    0  0.00000000000E+00  0.00000000000E+00  0.13815099353E+04  0.13815099353E+04  0.25500000920E-02 0.  1.
       -2   -1    0    0    0  501  0.00000000000E+00  0.00000000000E+00 -0.17041414898E+04  0.17041414898E+04  0.25500000920E-02 0. -1.
    10030    2    1    2    0    0  0.00000000000E+00  0.00000000000E+00 -0.32263155451E+03  0.30856514251E+04  0.30687381116E+04 0.  0.
        4    1    3    3  502    0 -0.26479285560E+03 -0.58834148701E+03 -0.15611184447E+04  0.16891871930E+04  0.12699999809E+01 0. -1.
       -4    1    3    3    0  502  0.26479285560E+03  0.58834148701E+03  0.12384868901E+04  0.13964642321E+04  0.12699999809E+01 0.  1.
</event>
<event>
 5   0  0.5114870E-06  0.3103227E+04  0.7818609E-02  0.8214853E-01
       -2   -1    0    0    0  501  0.00000000000E+00  0.00000000000E+00  0.16991856164E+04  0.16991856164E+04  0.25500000920E-02 0. -1.
        2   -1    0    0  501    0  0.00000000000E+00  0.00000000000E+00 -0.14168579051E+04  0.14168579051E+04  0.25500000920E-02 0.  1.
    10030    2    1    2    0    0  0.00000000000E+00  0.00000000000E+00  0.28232771125E+03  0.31160435215E+04  0.31032270770E+04 0.  0.
        2    1    3    3  502    0  0.75460920890E+03  0.74054515879E+03 -0.99915938309E+03  0.14547032904E+04  0.25500000920E-02 0.  1.
       -2    1    3    3    0  502 -0.75460920890E+03 -0.74054515879E+03  0.12814870943E+04  0.16613402311E+04  0.25500000920E-02 0. -1.
</event>
<event>
 5   0  0.5328368E-06  0.3094113E+04  0.7818609E-02  0.8217355E-01
       -2   -1    0    0    0  501  0.00000000000E+00  0.00000000000E+00  0.13410297048E+04  0.13410297048E+04  0.25500000920E-02 0. -1.
        2   -1    0    0  501    0  0.00000000000E+00  0.00000000000E+00 -0.17847364005E+04  0.17847364005E+04  0.25500000920E-02 0.  1.
    10030    2    1    2    0    0  0.00000000000E+00  0.00000000000E+00 -0.44370669565E+03  0.31257661053E+04  0.30941134616E+04 0.  0.
        1    1    3    3  502    0 -0.12164570455E+04  0.43941019556E+03 -0.10793805848E+04  0.16846101953E+04  0.50400001928E-02 0.  1.
       -1    1    3    3    0  502  0.12164570455E+04 -0.43941019556E+03  0.63567388912E+03  0.14411559099E+04  0.50400001928E-02 0. -1.
</event>
<event>
 5   0  0.5001658E-06  0.3079966E+04  0.7818609E-02  0.8221258E-01
        2   -1    0    0  501    0  0.00000000000E+00  0.00000000000E+00  0.28176338410E+04  0.28176338410E+04  0.25500000920E-02 0.  1.
       -2   -1    0    0    0  501  0.00000000000E+00  0.00000000000E+00 -0.84168081098E+03  0.84168081098E+03  0.25500000920E-02 0. -1.
    10030    2    1    2    0    0  0.00000000000E+00  0.00000000000E+00  0.19759530301E+04  0.36593146520E+04  0.30799664520E+04 0.  0.
        3    1    3    3  502    0 -0.84227195409E+03  0.19550647779E+03 -0.52605138156E+03  0.10121140715E+04  0.10100000352E+00 0.  1.
       -3    1    3    3    0  502  0.84227195409E+03 -0.19550647779E+03  0.25020044116E+04  0.26472005805E+04  0.10100000352E+00 0. -1.
</event>
<event>
 5   0  0.5114870E-06  0.3072377E+04  0.7818609E-02  0.8223360E-01
       -2   -1    0    0    0  501  0.00000000000E+00  0.00000000000E+00  0.11735714171E+04  0.11735714171E+04  0.25500000920E-02 0.  1.
        2   -1    0    0  501    0  0.00000000000E+00  0.00000000000E+00 -0.20108489259E+04  0.20108489259E+04  0.25500000920E-02 0. -1.
    10030    2    1    2    0    0  0.00000000000E+00  0.00000000000E+00 -0.83727750884E+03  0.31844203430E+04  0.30723768152E+04 0.  0.
        2    1    3    3  502    0 -0.11445368088E+03 -0.55072099750E+03 -0.19002739031E+04  0.19817755092E+04  0.25500000920E-02 0. -1.
       -2    1    3    3    0  502  0.11445368088E+03  0.55072099750E+03  0.10629963942E+04  0.12026448338E+04  0.25500000920E-02 0.  1.
</event>
<event>
 5   0  0.1836401E-06  0.3092602E+04  0.7818609E-02  0.8217771E-01
        1   -1    0    0  501    0  0.00000000000E+00  0.00000000000E+00  0.26974808987E+04  0.26974808987E+04  0.50400001928E-02 0. -1.
       -1   -1    0    0    0  501  0.00000000000E+00  0.00000000000E+00 -0.88639969739E+03  0.88639969740E+03  0.50400001928E-02 0.  1.
    10030    2    1    2    0    0  0.00000000000E+00  0.00000000000E+00  0.18110812013E+04  0.35838805961E+04  0.30926016571E+04 0.  0.
        2    1    3    3  502    0  0.47267447897E+03 -0.84997002983E+03  0.22986650803E+04  0.24959429813E+04  0.25500000920E-02 0. -1.
       -2    1    3    3    0  502 -0.47267447897E+03  0.84997002983E+03 -0.48758387896E+03  0.10879376148E+04  0.25500000920E-02 0.  1.
</event>
<event>
 5   0  0.1836401E-06  0.3098569E+04  0.7818609E-02  0.8216131E-01
        1   -1    0    0  501    0  0.00000000000E+00  0.00000000000E+00  0.12766104221E+04  0.12766104221E+04  0.50400001928E-02 0.  1.
       -1   -1    0    0    0  501  0.00000000000E+00  0.00000000000E+00 -0.18801998122E+04  0.18801998122E+04  0.50400001928E-02 0. -1.
    10030    2    1    2    0    0  0.00000000000E+00  0.00000000000E+00 -0.60358939014E+03  0.31568102343E+04  0.30985691381E+04 0.  0.
        2    1    3    3  502    0 -0.10427331287E+04 -0.10441546979E+04  0.17902015982E+03  0.14864722091E+04  0.25500000920E-02 0.  1.
       -2    1    3    3    0  502  0.10427331287E+04  0.10441546979E+04 -0.78260954997E+03  0.16703380252E+04  0.25500000920E-02 0. -1.
</event>
<event>
 5   0  0.1843709E-06  0.2996968E+04  0.7818609E-02  0.8244597E-01
        1   -1    0    0  501    0  0.00000000000E+00  0.00000000000E+00  0.20275955461E+04  0.20275955461E+04  0.50400001928E-02 0. -1.
       -1   -1    0    0    0  501  0.00000000000E+00  0.00000000000E+00 -0.11074469869E+04  0.11074469870E+04  0.50400001928E-02 0.  1.
    10030    2    1    2    0    0  0.00000000000E+00  0.00000000000E+00  0.92014855918E+03  0.31350425331E+04  0.29969681869E+04 0.  0.
        4    1    3    3  502    0  0.28788739063E+03  0.12438709932E+04  0.12806629205E+04  0.18083675861E+04  0.12699999809E+01 0. -1.
       -4    1    3    3    0  502 -0.28788739063E+03 -0.12438709932E+04 -0.36051436131E+03  0.13266749470E+04  0.12699999809E+01 0.  1.
</event>
<event>
 5   0  0.1853742E-06  0.3049450E+04  0.7818609E-02  0.8229749E-01
        1   -1    0    0  501    0  0.00000000000E+00  0.00000000000E+00  0.21422494196E+04  0.21422494196E+04  0.50400001928E-02 0. -1.
       -1   -1    0    0    0  501  0.00000000000E+00  0.00000000000E+00 -0.10852081143E+04  0.10852081143E+04  0.50400001928E-02 0.  1.
    10030    2    1    2    0    0  0.00000000000E+00  0.00000000000E+00  0.10570413054E+04  0.32274575339E+04  0.30494500835E+04 0.  0.
        5    1    3    3  502    0  0.12347669696E+04  0.35840232040E+03 -0.33886975249E+03  0.13296452503E+04  0.46999998093E+01 0.  1.
       -5    1    3    3    0  502 -0.12347669696E+04 -0.35840232040E+03  0.13959110579E+04  0.18978122836E+04  0.46999998093E+01 0. -1.
</event>
<event>
 5   0  0.1853742E-06  0.3079221E+04  0.7818609E-02  0.8221464E-01
        1   -1    0    0  501    0  0.00000000000E+00  0.00000000000E+00  0.21322879637E+04  0.21322879637E+04  0.50400001928E-02 0. -1.
       -1   -1    0    0    0  501  0.00000000000E+00  0.00000000000E+00 -0.11116701870E+04  0.11116701870E+04  0.50400001928E-02 0.  1.
    10030    2    1    2    0    0  0.00000000000E+00  0.00000000000E+00  0.10206177767E+04  0.32439581506E+04  0.30792213037E+04 0.  0.
        5    1    3    3  502    0 -0.56509747072E+02 -0.21352972985E+03  0.21155015138E+04  0.21270065918E+04  0.46999998093E+01 0. -1.
       -5    1    3    3    0  502  0.56509747072E+02  0.21352972985E+03 -0.10948837370E+04  0.11169515588E+04  0.46999998093E+01 0.  1.
</event>
<event>
 5   0  0.5001658E-06  0.3130581E+04  0.7818609E-02  0.8207395E-01
       -2   -1    0    0    0  501  0.00000000000E+00  0.00000000000E+00  0.11446011181E+04  0.11446011181E+04  0.25500000920E-02 0.  1.
        2   -1    0    0  501    0  0.00000000000E+00  0.00000000000E+00 -0.21406012202E+04  0.21406012202E+04  0.25500000920E-02 0. -1.
    10030    2    1    2    0    0  0.00000000000E+00  0.00000000000E+00 -0.99600010218E+03  0.32852023383E+04  0.31305811282E+04 0.  0.
        3    1    3    3  502    0 -0.11696076656E+04  0.66705028050E+03 -0.13356716817E+04  0.18965645308E+04  0.10100000352E+00 0. -1.
       -3    1    3    3    0  502  0.11696076656E+04 -0.66705028050E+03  0.33967157948E+03  0.13886378075E+04  0.10100000352E+00 0.  1.
</event>
<event>
 5   0  0.5001658E-06  0.3177315E+04  0.7818609E-02  0.8194834E-01
       -2   -1    0    0    0  501  0.00000000000E+00  0.00000000000E+00  0.15070267326E+04  0.15070267326E+04  0.25500000920E-02 0. -1.
        2   -1    0    0  501    0  0.00000000000E+00  0.00000000000E+00 -0.16747101980E+04  0.16747101980E+04  0.25500000920E-02 0.  1.
    10030    2    1    2    0    0  0.00000000000E+00  0.00000000000E+00 -0.16768346536E+03  0.31817369306E+04  0.31773152426E+04 0.  0.
        3    1    3    3  502    0 -0.18862336342E+03 -0.14247670137E+04  0.59407394024E+03  0.15551410460E+04  0.10100000352E+00 0. -1.
       -3    1    3    3    0  502  0.18862336342E+03  0.14247670137E+04 -0.76175740560E+03  0.16265958845E+04  0.10100000352E+00 0.  1.
</event>
<event>
 5   0  0.1649875E-06  0.3138373E+04  0.7818609E-02  0.8205285E-01
       -3   -1    0    0    0  501  0.00000000000E+00  0.00000000000E+00  0.19068177005E+04  0.19068177032E+04  0.10100000352E+00 0.  1.
        3   -1    0    0  501    0  0.00000000000E+00  0.00000000000E+00 -0.12913382153E+04  0.12913382193E+04  0.10100000352E+00 0. -1.
    10030    2    1    2    0    0  0.00000000000E+00  0.00000000000E+00  0.61547948521E+03  0.31981559225E+04  0.31383731945E+04 0.  0.
        1    1    3    3  502    0 -0.86423132080E+03 -0.54500069537E+03  0.15214031081E+04  0.18326453424E+04  0.50400001928E-02 0.  1.
       -1    1    3    3    0  502  0.86423132080E+03  0.54500069537E+03 -0.90592362286E+03  0.13655105801E+04  0.50400001928E-02 0. -1.
</event>
<event>
 5   0  0.5328368E-06  0.3094786E+04  0.7818609E-02  0.8217170E-01
        2   -1    0    0  501    0  0.00000000000E+00  0.00000000000E+00  0.28142090365E+04  0.28142090365E+04  0.25500000920E-02 0.  1.
       -2   -1    0    0    0  501  0.00000000000E+00  0.00000000000E+00 -0.85083437502E+03  0.85083437502E+03  0.25500000920E-02 0. -1.
    10030    2    1    2    0    0  0.00000000000E+00  0.00000000000E+00  0.19633746615E+04  0.36650434115E+04  0.30947864461E+04 0.  0.
        1    1    3    3  502    0 -0.43225880576E+03 -0.96894503688E+03  0.23156139855E+04  0.25471101840E+04  0.50400001928E-02 0.  1.
       -1    1    3    3    0  502  0.43225880576E+03  0.96894503688E+03 -0.35223932405E+03  0.11179332275E+04  0.50400001928E-02 0. -1.
</event>
<event>
 5   0  0.1836401E-06  0.3064340E+04  0.7818609E-02  0.8225593E-01
        1   -1    0    0  501    0  0.00000000000E+00  0.00000000000E+00  0.14333475065E+04  0.14333475065E+04  0.50400001928E-02 0. -1.
       -1   -1    0    0    0  501  0.00000000000E+00  0.00000000000E+00 -0.16378053801E+04  0.16378053801E+04  0.50400001928E-02 0.  1.
    10030    2    1    2    0    0  0.00000000000E+00  0.00000000000E+00 -0.20445787363E+03  0.30711528866E+04  0.30643395750E+04 0.  0.
        2    1    3    3  502    0  0.14193699031E+04  0.10953252079E+03  0.46554275999E+03  0.14977778061E+04  0.25500000920E-02 0. -1.
       -2    1    3    3    0  502 -0.14193699031E+04 -0.10953252079E+03 -0.67000063363E+03  0.15733750805E+04  0.25500000920E-02 0.  1.
</event>
<event>
 5   0  0.5001658E-06  0.3086794E+04  0.7818609E-02  0.8219372E-01
        2   -1    0    0  501    0  0.00000000000E+00  0.00000000000E+00  0.26079418788E+04  0.26079418788E+04  0.25500000920E-02 0. -1.
       -2   -1    0    0    0  501  0.00000000000E+00  0.00000000000E+00 -0.91339237882E+03  0.91339237882E+03  0.25500000920E-02 0.  1.
    10030    2    1    2    0    0  0.00000000000E+00  0.00000000000E+00  0.16945495000E+04  0.35213342577E+04  0.30867939591E+04 0.  0.
        3    1    3    3  502    0  0.15660005197E+02  0.70614987998E+03 -0.71819860798E+03  0.10073242474E+04  0.10100000352E+00 0.  1.
       -3    1    3    3    0  502 -0.15660005197E+02 -0.70614987998E+03  0.24127481080E+04  0.25140100102E+04  0.10100000352E+00 0. -1.
</event>
<event>
 5   0  0.4900679E-06  0.3004813E+04  0.7818609E-02  0.8242358E-01
        2   -1    0    0  501    0  0.00000000000E+00  0.00000000000E+00  0.27102632920E+04  0.27102632920E+04  0.25500000920E-02 0. -1.
       -2   -1    0    0    0  501  0.00000000000E+00  0.00000000000E+00 -0.83284369804E+03  0.83284369804E+03  0.25500000920E-02 0.  1.
    10030    2    1    2    0    0  0.00000000000E+00  0.00000000000E+00  0.18774195939E+04  0.35431069900E+04  0.30048132739E+04 0.  0.
        4    1    3    3  502    0  0.69000844331E+03 -0.91473602163E+03  0.20845867169E+04  0.23787301306E+04  0.12699999809E+01 0. -1.
       -4    1    3    3    0  502 -0.69000844331E+03  0.91473602163E+03 -0.20716712293E+03  0.11643768594E+04  0.12699999809E+01 0.  1.
</event>
<event>
 5   0  0.4927533E-06  0.2978336E+04  0.7818609E-02  0.8249944E-01
        2   -1    0    0  501    0  0.00000000000E+00  0.00000000000E+00  0.16652681229E+04  0.16652681229E+04  0.25500000920E-02 0. -1.
       -2   -1    0    0    0  501  0.00000000000E+00  0.00000000000E+00 -0.13316902775E+04  0.13316902775E+04  0.25500000920E-02 0.  1.
    10030    2    1    2    0    0  0.00000000000E+00  0.00000000000E+00  0.33357784540E+03  0.29969584005E+04  0.29783360246E+04 0.  0.
        5    1    3    3  502    0 -0.33512810825E+03  0.55012485252E+03  0.15178122765E+04  0.16488554815E+04  0.46999998093E+01 0. -1.
       -5    1    3    3    0  502  0.33512810825E+03 -0.55012485252E+03 -0.11842344311E+04  0.13481029190E+04  0.46999998093E+01 0.  1.
</event>
<event>
 5   0  0.1840431E-06  0.3046159E+04  0.7818609E-02  0.8230671E-01
       -1   -1    0    0    0  501  0.00000000000E+00  0.00000000000E+00  0.15706661927E+04  0.15706661927E+04  0.50400001928E-02 0. -1.
        1   -1    0    0  501    0  0.00000000000E+00  0.00000000000E+00 -0.14769346422E+04  0.14769346423E+04  0.50400001928E-02 0.  1.
    10030    2    1    2    0    0  0.00000000000E+00  0.00000000000E+00  0.93731550423E+02  0.30476008349E+04  0.30461590972E+04 0.  0.
        1    1    3    3  502    0 -0.12465392652E+04 -0.85645711949E+03  0.22692977459E+03  0.15293384386E+04  0.50400001928E-02 0. -1.
       -1    1    3    3    0  502  0.12465392652E+04  0.85645711949E+03 -0.13319822417E+03  0.15182623963E+04  0.50400001928E-02 0.  1.
</event>
<event>
 5   0  0.1885307E-06  0.3059062E+04  0.7818609E-02  0.8227064E-01
       -1   -1    0    0    0  501  0.00000000000E+00  0.00000000000E+00  0.11671835511E+04  0.11671835511E+04  0.50400001928E-02 0.  1.
        1   -1    0    0  501    0  0.00000000000E+00  0.00000000000E+00 -0.20043679584E+04  0.20043679584E+04  0.50400001928E-02 0. -1.
    10030    2    1    2    0    0  0.00000000000E+00  0.00000000000E+00 -0.83718440730E+03  0.31715515096E+04  0.30590621514E+04 0.  0.
        3    1    3    3  502    0 -0.14077854125E+04 -0.31462704906E+03  0.10865055155E+03  0.14466011545E+04  0.10100000352E+00 0. -1.
       -3    1    3    3    0  502  0.14077854125E+04  0.31462704906E+03 -0.94583495885E+03  0.17249503550E+04  0.10100000352E+00 0.  1.
</event>
<event>
 5   0  0.1843709E-06  0.3137983E+04  0.7818609E-02  0.8205390E-01
        1   -1    0    0  501    0  0.00000000000E+00  0.00000000000E+00  0.16673955480E+04  0.16673955480E+04  0.50400001928E-02 0.  1.
       -1   -1    0    0    0  501  0.00000000000E+00  0.00000000000E+00 -0.14763947992E+04  0.14763947992E+04  0.50400001928E-02 0. -1.
    10030    2    1    2    0    0  0.00000000000E+00  0.00000000000E+00  0.19100074874E+03  0.31437903472E+04  0.31379828650E+04 0.  0.
        4    1    3    3  502    0 -0.19782852866E+03 -0.14659543306E+04 -0.42851090814E+03  0.15400589071E+04  0.12699999809E+01 0. -1.
       -4    1    3    3    0  502  0.19782852866E+03  0.14659543306E+04  0.61951165688E+03  0.16037314401E+04  0.12699999809E+01 0.  1.
</event>
<event>
 5   0  0.1853742E-06  0.2944585E+04  0.7818609E-02  0.8259734E-01
       -1   -1    0    0    0  501  0.00000000000E+00  0.00000000000E+00  0.11835738237E+04  0.11835738237E+04  0.50400001928E-02 0. -1.
        1   -1    0    0  501    0  0.00000000000E+00  0.00000000000E+00 -0.18314404696E+04  0.18314404696E+04  0.50400001928E-02 0.  1.
    10030    2    1    2    0    0  0.00000000000E+00  0.00000000000E+00 -0.64786664591E+03  0.30150142932E+04  0.29445848600E+04 0.  0.
        5    1    3    3  502    0  0.26126746167E+01 -0.80424479600E+03  0.93877273806E+03  0.12361767114E+04  0.46999998093E+01 0. -1.
       -5    1    3    3    0  502 -0.26126746167E+01  0.80424479600E+03 -0.15866393840E+04  0.17788375819E+04  0.46999998093E+01 0.  1.
</event>
<event>
 5   0  0.5001658E-06  0.3050284E+04  0.7818609E-02  0.8229516E-01
        2   -1    0    0  501    0  0.00000000000E+00  0.00000000000E+00  0.16016443248E+04  0.16016443248E+04  0.25500000920E-02 0.  1.
       -2   -1    0    0    0  501  0.00000000000E+00  0.00000000000E+00 -0.14522942446E+04  0.14522942446E+04  0.25500000920E-02 0. -1.
    10030    2    1    2    0    0  0.00000000000E+00  0.00000000000E+00  0.14935008019E+03  0.30539385694E+04  0.30502844686E+04 0.  0.
        3    1    3    3  502    0  0.31822457219E+02  0.87836834374E+02 -0.14494267557E+04  0.14524344766E+04  0.10100000352E+00 0. -1.
       -3    1    3    3    0  502 -0.31822457219E+02 -0.87836834374E+02  0.15987768359E+04  0.16015040929E+04  0.10100000352E+00 0.  1.
</event>
<event>
 5   0  0.1836401E-06  0.3072410E+04  0.7818609E-02  0.8223351E-01
       -1   -1    0    0    0  501  0.00000000000E+00  0.00000000000E+00  0.11163135713E+04  0.11163135713E+04  0.50400001928E-02 0. -1.
        1   -1    0    0  501    0  0.00000000000E+00  0.00000000000E+00 -0.21140349880E+04  0.21140349880E+04  0.50400001928E-02 0.  1.
    10030    2    1    2    0    0  0.00000000000E+00  0.00000000000E+00 -0.99772141665E+03  0.32303485593E+04  0.30724100946E+04 0.  0.
        2    1    3    3  502    0 -0.67147626538E+03  0.12127506671E+04 -0.11949207747E+04  0.18301585214E+04  0.25500000920E-02 0.  1.
       -2    1    3    3    0  502  0.67147626538E+03 -0.12127506671E+04  0.19719935809E+03  0.14001900379E+04  0.25500000920E-02 0. -1.
</event>
<event>
 5   0  0.1843709E-06  0.2354106E+04  0.7818609E-02  0.8456888E-01
        1   -1    0    0  501    0  0.00000000000E+00  0.00000000000E+00  0.14602248392E+04  0.14602248392E+04  0.50400001928E-02 0. -1.
       -1   -1    0    0    0  501  0.00000000000E+00  0.00000000000E+00 -0.94879472116E+03  0.94879472117E+03  0.50400001928E-02 0.  1.
    10030    2    1    2    0    0  0.00000000000E+00  0.00000000000E+00  0.51143011802E+03  0.24090195604E+04  0.23541058762E+04 0.  0.
        4    1    3    3  502    0 -0.65134030484E+03  0.55262211761E+03  0.10844307091E+04  0.13804444839E+04  0.12699999809E+01 0.  1.
       -4    1    3    3    0  502  0.65134030484E+03 -0.55262211761E+03 -0.57300059105E+03  0.10285750764E+04  0.12699999809E+01 0. -1.
</event>
<event>
 5   0  0.1885307E-06  0.2498791E+04  0.7818609E-02  0.8403416E-01
        1   -1    0    0  501    0  0.00000000000E+00  0.00000000000E+00  0.23395505168E+04  0.23395505168E+04  0.50400001928E-02 0. -1.
       -1   -1    0    0    0  501  0.00000000000E+00  0.00000000000E+00 -0.66721752889E+03  0.66721752891E+03  0.50400001928E-02 0.  1.
    10030    2    1    2    0    0  0.00000000000E+00  0.00000000000E+00  0.16723329879E+04  0.30067680457E+04  0.24987909993E+04 0.  0.
        3    1    3    3  502    0  0.10469479305E+04 -0.16577235375E+03  0.40348631630E+02  0.10607584384E+04  0.10100000352E+00 0.  1.
       -3    1    3    3    0  502 -0.10469479305E+04  0.16577235375E+03  0.16319843563E+04  0.19460096073E+04  0.10100000352E+00 0. -1.
</event>
<event>
 5   0  0.1843709E-06  0.3063964E+04  0.7818609E-02  0.8225698E-01
        1   -1    0    0  501    0  0.00000000000E+00  0.00000000000E+00  0.14598213085E+04  0.14598213086E+04  0.50400001928E-02 0.  1.
       -1   -1    0    0    0  501  0.00000000000E+00  0.00000000000E+00 -0.16077092134E+04  0.16077092134E+04  0.50400001928E-02 0. -1.
    10030    2    1    2    0    0  0.00000000000E+00  0.00000000000E+00 -0.14788790489E+03  0.30675305220E+04  0.30639635558E+04 0.  0.
        4    1    3    3  502    0  0.38015824985E+03 -0.10906615829E+04 -0.10815467128E+04  0.15823425319E+04  0.12699999809E+01 0. -1.
       -4    1    3    3    0  502 -0.38015824985E+03  0.10906615829E+04  0.93365880791E+03  0.14851879901E+04  0.12699999809E+01 0.  1.
</event>
<event>
 5   0  0.5114870E-06  0.3084010E+04  0.7818609E-02  0.8220140E-01
       -2   -1    0    0    0  501  0.00000000000E+00  0.00000000000E+00  0.19194318634E+04  0.19194318634E+04  0.25500000920E-02 0.  1.
        2   -1    0    0  501    0  0.00000000000E+00  0.00000000000E+00 -0.12387933294E+04  0.12387933294E+04  0.25500000920E-02 0. -1.
    10030    2    1    2    0    0  0.00000000000E+00  0.00000000000E+00  0.68063853400E+03  0.31582251928E+04  0.30840099796E+04 0.  0.
        2    1    3    3  502    0 -0.52751169443E+03 -0.14467962146E+04  0.42154710721E+03  0.15966182506E+04  0.25500000920E-02 0. -1.
       -2    1    3    3    0  502  0.52751169443E+03  0.14467962146E+04  0.25909142679E+03  0.15616069422E+04  0.25500000920E-02 0.  1.
</event>
<event>
 5   0  0.4927533E-06  0.3116437E+04  0.7818609E-02  0.8211241E-01
        2   -1    0    0  501    0  0.00000000000E+00  0.00000000000E+00  0.19306047505E+04  0.19306047505E+04  0.25500000920E-02 0.  1.
       -2   -1    0    0    0  501  0.00000000000E+00  0.00000000000E+00 -0.12576602829E+04  0.12576602829E+04  0.25500000920E-02 0. -1.
    10030    2    1    2    0    0  0.00000000000E+00  0.00000000000E+00  0.67294446756E+03  0.31882650334E+04  0.31164370147E+04 0.  0.
        5    1    3    3  502    0 -0.10256818584E+04 -0.96347725437E+02 -0.85953913444E+03  0.13416913849E+04  0.46999998093E+01 0. -1.
       -5    1    3    3    0  502  0.10256818584E+04  0.96347725437E+02  0.15324836020E+04  0.18465736485E+04  0.46999998093E+01 0.  1.
</event>
<event>
 5   0  0.5001658E-06  0.2987164E+04  0.7818609E-02  0.8247406E-01
        2   -1    0    0  501    0  0.00000000000E+00  0.00000000000E+00  0.26235318378E+04  0.26235318378E+04  0.25500000920E-02 0. -1.
       -2   -1    0    0    0  501  0.00000000000E+00  0.00000000000E+00 -0.85029943437E+03  0.85029943437E+03  0.25500000920E-02 0.  1.
    10030    2    1    2    0    0  0.00000000000E+00  0.00000000000E+00  0.17732324035E+04  0.34738312722E+04  0.29871642993E+04 0.  0.
        3    1    3    3  502    0 -0.89515498828E+02  0.10887982748E+04  0.20710214333E+04  0.23415004794E+04  0.10100000352E+00 0. -1.
       -3    1    3    3    0  502  0.89515498828E+02 -0.10887982748E+04 -0.29778902983E+03  0.11323307928E+04  0.10100000352E+00 0.  1.
</event>
<event>
 5   0  0.4927533E-06  0.3115196E+04  0.7818609E-02  0.8211580E-01
       -2   -1    0    0    0  501  0.00000000000E+00  0.00000000000E+00  0.10627387347E+04  0.10627387348E+04  0.25500000920E-02 0. -1.
        2   -1    0    0  501    0  0.00000000000E+00  0.00000000000E+00 -0.22828855593E+04  0.22828855593E+04  0.25500000920E-02 0.  1.
    10030    2    1    2    0    0  0.00000000000E+00  0.00000000000E+00 -0.12201468246E+04  0.33456242941E+04  0.31151956028E+04 0.  0.
        5    1    3    3  502    0  0.51874199760E+03  0.23262836675E+03  0.94732257832E+03  0.11048309257E+04  0.46999998093E+01 0. -1.
       -5    1    3    3    0  502 -0.51874199760E+03 -0.23262836675E+03 -0.21674694029E+04  0.22407933683E+04  0.46999998093E+01 0.  1.
</event>
<event>
 5   0  0.1843709E-06  0.2629942E+04  0.7818609E-02  0.8358101E-01
        1   -1    0    0  501    0  0.00000000000E+00  0.00000000000E+00  0.74299683569E+03  0.74299683571E+03  0.50400001928E-02 0.  1.
       -1   -1    0    0    0  501  0.00000000000E+00  0.00000000000E+00 -0.23272628177E+04  0.23272628178E+04  0.50400001928E-02 0. -1.
    10030    2    1    2    0    0  0.00000000000E+00  0.00000000000E+00 -0.15842659821E+04  0.30702596535E+04  0.26299421358E+04 0.  0.
        4    1    3    3  502    0 -0.72625080293E+03 -0.25932564525E+03  0.45130171520E+03  0.89351265804E+03  0.12699999809E+01 0.  1.
       -4    1    3    3    0  502  0.72625080293E+03  0.25932564525E+03 -0.20355676973E+04  0.21767469954E+04  0.12699999809E+01 0. -1.
</event>
<event>
 5   0  0.1853742E-06  0.3200139E+04  0.7818609E-02  0.8188780E-01
       -1   -1    0    0    0  501  0.00000000000E+00  0.00000000000E+00  0.18964769598E+04  0.18964769598E+04  0.50400001928E-02 0.  1.
        1   -1    0    0  501    0  0.00000000000E+00  0.00000000000E+00 -0.13499885817E+04  0.13499885817E+04  0.50400001928E-02 0. -1.
    10030    2    1    2    0    0  0.00000000000E+00  0.00000000000E+00  0.54648837818E+03  0.32464655415E+04  0.32001388977E+04 0.  0.
        5    1    3    3  502    0 -0.81741990844E+03 -0.11099547190E+04  0.10974245891E+04  0.17619698078E+04  0.46999998093E+01 0.  1.
       -5    1    3    3    0  502  0.81741990844E+03  0.11099547190E+04 -0.55093621089E+03  0.14844957337E+04  0.46999998093E+01 0. -1.
</event>
<event>
 5   0  0.1885307E-06  0.3137174E+04  0.7818609E-02  0.8205609E-01
       -1   -1    0    0    0  501  0.00000000000E+00  0.00000000000E+00  0.13756432848E+04  0.13756432848E+04  0.50400001928E-02 0. -1.
        1   -1    0    0  501    0  0.00000000000E+00  0.00000000000E+00 -0.17885920735E+04  0.17885920735E+04  0.50400001928E-02 0.  1.
    10030    2    1    2    0    0  0.00000000000E+00  0.00000000000E+00 -0.41294878876E+03  0.31642353583E+04  0.31371736803E+04 0.  0.
        3    1    3    3  502    0 -0.60268658376E+03 -0.94363772674E+03  0.90153774367E+03  0.14375164664E+04  0.10100000352E+00 0. -1.
       -3    1    3    3    0  502  0.60268658376E+03  0.94363772674E+03 -0.13144865324E+04  0.17267188919E+04  0.10100000352E+00 0.  1.
</event>
<event>
 5   0  0.1853742E-06  0.3127882E+04  0.7818609E-02  0.8208127E-01
        1   -1    0    0  501    0  0.00000000000E+00  0.00000000000E+00  0.14483239807E+04  0.14483239807E+04  0.50400001928E-02 0.  1.
       -1   -1    0    0    0  501  0.00000000000E+00  0.00000000000E+00 -0.16887871556E+04  0.16887871556E+04  0.50400001928E-02 0. -1.
    10030    2    1    2    0    0  0.00000000000E+00  0.00000000000E+00 -0.24046317491E+03  0.31371111362E+04  0.31278816702E+04 0.  0.
        5    1    3    3  502    0 -0.43546037589E+03  0.69922933865E+03  0.12131050707E+04  0.14663537805E+04  0.46999998093E+01 0.  1.
       -5    1    3    3    0  502  0.43546037589E+03 -0.69922933865E+03 -0.14535682456E+04  0.16707573557E+04  0.46999998093E+01 0. -1.
</event>
<event>
 5   0  0.5114870E-06  0.3082347E+04  0.7818609E-02  0.8220599E-01
       -2   -1    0    0    0  501  0.00000000000E+00  0.00000000000E+00  0.93235918116E+03  0.93235918116E+03  0.25500000920E-02 0.  1.
        2   -1    0    0  501    0  0.00000000000E+00  0.00000000000E+00 -0.25475325895E+04  0.25475325895E+04  0.25500000920E-02 0. -1.
    10030    2    1    2    0    0  0.00000000000E+00  0.00000000000E+00 -0.16151734084E+04  0.34798917707E+04  0.30823467678E+04 0.  0.
        2    1    3    3  502    0  0.36563696342E+02  0.10474652331E+04 -0.20832258373E+04  0.23320270598E+04  0.25500000920E-02 0. -1.
       -2    1    3    3    0  502 -0.36563696342E+02 -0.10474652331E+04  0.46805242887E+03  0.11478647109E+04  0.25500000920E-02 0.  1.
</event>
<event>
 5   0  0.5001658E-06  0.2837924E+04  0.7818609E-02  0.8291590E-01
        2   -1    0    0  501    0  0.00000000000E+00  0.00000000000E+00  0.19107368749E+04  0.19107368749E+04  0.25500000920E-02 0.  1.
       -2   -1    0    0    0  501  0.00000000000E+00  0.00000000000E+00 -0.10537573109E+04  0.10537573109E+04  0.25500000920E-02 0. -1.
    10030    2    1    2    0    0  0.00000000000E+00  0.00000000000E+00  0.85697956403E+03  0.29644941858E+04  0.28379238546E+04 0.  0.
        3    1    3    3  502    0  0.50339973813E+03 -0.12413123186E+04  0.91754246750E+03  0.16236230346E+04  0.10100000352E+00 0.  1.
       -3    1    3    3    0  502 -0.50339973813E+03  0.12413123186E+04 -0.60562903469E+02  0.13408711512E+04  0.10100000352E+00 0. -1.
</event>
<event>
 5   0  0.5001658E-06  0.3051027E+04  0.7818609E-02  0.8229308E-01
       -2   -1    0    0    0  501  0.00000000000E+00  0.00000000000E+00  0.13109800146E+04  0.13109800146E+04  0.25500000920E-02 0. -1.
        2   -1    0    0  501    0  0.00000000000E+00  0.00000000000E+00 -0.17751543542E+04  0.17751543542E+04  0.25500000920E-02 0.  1.
    10030    2    1    2    0    0  0.00000000000E+00  0.00000000000E+00 -0.46417433957E+03  0.30861343688E+04  0.30510272900E+04 0.  0.
        3    1    3    3  502    0 -0.13097980484E+04 -0.64176814531E+03  0.21999473439E+03  0.14750711757E+04  0.10100000352E+00 0.  1.
       -3    1    3    3    0  502  0.13097980484E+04  0.64176814531E+03 -0.68416907396E+03  0.16110631930E+04  0.10100000352E+00 0. -1.
</event>
<event>
 5   0  0.1836401E-06  0.3392425E+04  0.7818609E-02  0.8139768E-01
        1   -1    0    0  501    0  0.00000000000E+00  0.00000000000E+00  0.17658330246E+04  0.17658330246E+04  0.50400001928E-02 0. -1.
       -1   -1    0    0    0  501  0.00000000000E+00  0.00000000000E+00 -0.16293370135E+04  0.16293370135E+04  0.50400001928E-02 0.  1.
    10030    2    1    2    0    0  0.00000000000E+00  0.00000000000E+00  0.13649601111E+03  0.33951700381E+04  0.33924251541E+04 0.  0.
        2    1    3    3  502    0 -0.69499754248E+03 -0.10342823968E+04  0.12199942773E+04  0.17438886710E+04  0.25500000920E-02 0. -1.
       -2    1    3    3    0  502  0.69499754248E+03  0.10342823968E+04 -0.10834982662E+04  0.16512813670E+04  0.25500000920E-02 0.  1.
</event>
<event>
 5   0  0.4900679E-06  0.3082624E+04  0.7818609E-02  0.8220523E-01
       -2   -1    0    0    0  501  0.00000000000E+00  0.00000000000E+00  0.17166039808E+04  0.17166039808E+04  0.25500000920E-02 0.  1.
        2   -1    0    0  501    0  0.00000000000E+00  0.00000000000E+00 -0.13839204818E+04  0.13839204818E+04  0.25500000920E-02 0. -1.
    10030    2    1    2    0    0  0.00000000000E+00  0.00000000000E+00  0.33268349898E+03  0.31005244626E+04  0.30826244716E+04 0.  0.
        4    1    3    3  502    0  0.13703821414E+04 -0.70176287543E+03  0.93648647585E+02  0.15424623266E+04  0.12699999809E+01 0.  1.
       -4    1    3    3    0  502 -0.13703821414E+04  0.70176287543E+03  0.23903485140E+03  0.15580621361E+04  0.12699999809E+01 0. -1.
</event>
<event>
 5   0  0.5001658E-06  0.3089792E+04  0.7818609E-02  0.8218545E-01
       -2   -1    0    0    0  501  0.00000000000E+00  0.00000000000E+00  0.10869263855E+04  0.10869263855E+04  0.25500000920E-02 0.  1.
        2   -1    0    0  501    0  0.00000000000E+00  0.00000000000E+00 -0.21958278046E+04  0.21958278046E+04  0.25500000920E-02 0. -1.
    10030    2    1    2    0    0  0.00000000000E+00  0.00000000000E+00 -0.11089014191E+04  0.32827541901E+04  0.30897916945E+04 0.  0.
        3    1    3    3  502    0  0.43457882906E+02  0.56093099707E+03  0.97421411694E+03  0.11250001453E+04  0.10100000352E+00 0.  1.
       -3    1    3    3    0  502 -0.43457882906E+02 -0.56093099707E+03 -0.20831155361E+04  0.21577540448E+04  0.10100000352E+00 0. -1.
</event>
<event>
 5   0  0.5001658E-06  0.3021270E+04  0.7818609E-02  0.8237683E-01
        2   -1    0    0  501    0  0.00000000000E+00  0.00000000000E+00  0.17133121428E+04  0.17133121428E+04  0.25500000920E-02 0. -1.
       -2   -1    0    0    0  501  0.00000000000E+00  0.00000000000E+00 -0.13319337493E+04  0.13319337493E+04  0.25500000920E-02 0.  1.
    10030    2    1    2    0    0  0.00000000000E+00  0.00000000000E+00  0.38137839345E+03  0.30452458921E+04  0.30212701079E+04 0.  0.
        3    1    3    3  502    0  0.30904069796E+03  0.59120874520E+03  0.15567987775E+04  0.16937108305E+04  0.10100000352E+00 0. -1.
       -3    1    3    3    0  502 -0.30904069796E+03 -0.59120874520E+03 -0.11754203841E+04  0.13515350617E+04  0.10100000352E+00 0.  1.
</event>
<event>
 5   0  0.5001658E-06  0.3135252E+04  0.7818609E-02  0.8206129E-01
        2   -1    0    0  501    0  0.00000000000E+00  0.00000000000E+00  0.14692932162E+04  0.14692932162E+04  0.25500000920E-02 0. -1.
       -2   -1    0    0    0  501  0.00000000000E+00  0.00000000000E+00 -0.16725401544E+04  0.16725401544E+04  0.25500000920E-02 0.  1.
    10030    2    1    2    0    0  0.00000000000E+00  0.00000000000E+00 -0.20324693819E+03  0.31418333706E+04  0.31352523999E+04 0.  0.
        3    1    3    3  502    0 -0.60290429539E+03 -0.91500846052E+03  0.10217638727E+04  0.14982441370E+04  0.10100000352E+00 0. -1.
       -3    1    3    3    0  502  0.60290429539E+03  0.91500846052E+03 -0.12250108109E+04  0.16435892337E+04  0.10100000352E+00 0.  1.
</event>
<event>
 5   0  0.4927533E-06  0.3102881E+04  0.7818609E-02  0.8214948E-01
        2   -1    0    0  501    0  0.00000000000E+00  0.00000000000E+00  0.12472966122E+04  0.12472966122E+04  0.25500000920E-02 0. -1.
       -2   -1    0    0    0  501  0.00000000000E+00  0.00000000000E+00 -0.19297469681E+04  0.19297469681E+04  0.25500000920E-02 0.  1.
    10030    2    1    2    0    0  0.00000000000E+00  0.00000000000E+00 -0.68245035583E+03  0.31770435803E+04  0.31028805041E+04 0.  0.
        5    1    3    3  502    0 -0.15514095513E+04  0.44508688782E+01 -0.33374580885E+03  0.15869151713E+04  0.46999998093E+01 0. -1.
       -5    1    3    3    0  502  0.15514095513E+04 -0.44508688782E+01 -0.34870454698E+03  0.15901284090E+04  0.46999998093E+01 0.  1.
</event>
<event>
 5   0  0.1885307E-06  0.3071096E+04  0.7818609E-02  0.8223715E-01
       -1   -1    0    0    0  501  0.00000000000E+00  0.00000000000E+00  0.12264076399E+04  0.12264076399E+04  0.50400001928E-02 0.  1.
        1   -1    0    0  501    0  0.00000000000E+00  0.00000000000E+00 -0.19226130994E+04  0.19226130995E+04  0.50400001928E-02 0. -1.
    10030    2    1    2    0    0  0.00000000000E+00  0.00000000000E+00 -0.69620545951E+03  0.31490207394E+04  0.30710958265E+04 0.  0.
        3    1    3    3  502    0 -0.10934320903E+04  0.40741824298E+03  0.67538456080E+03  0.13482313140E+04  0.10100000352E+00 0.  1.
       -3    1    3    3    0  502  0.10934320903E+04 -0.40741824298E+03 -0.13715900203E+04  0.18007894254E+04  0.10100000352E+00 0. -1.
</event>
<event>
 5   0  0.1836401E-06  0.3020935E+04  0.7818609E-02  0.8237778E-01
        1   -1    0    0  501    0  0.00000000000E+00  0.00000000000E+00  0.23988584537E+04  0.23988584537E+04  0.50400001928E-02 0.  1.
       -1   -1    0    0    0  501  0.00000000000E+00  0.00000000000E+00 -0.95108213497E+03  0.95108213499E+03  0.50400001928E-02 0. -1.
    10030    2    1    2    0    0  0.00000000000E+00  0.00000000000E+00  0.14477763187E+04  0.33499405887E+04  0.30209345704E+04 0.  0.
        2    1    3    3  502    0  0.13733218210E+04 -0.48339392219E+03  0.11699795509E+04  0.18677619381E+04  0.25500000920E-02 0.  1.
       -2    1    3    3    0  502 -0.13733218210E+04  0.48339392219E+03  0.27779676783E+03  0.14821786506E+04  0.25500000920E-02 0. -1.
</event>
<event>
 5   0  0.1843709E-06  0.2991338E+04  0.7818609E-02  0.8246209E-01
        1   -1    0    0  501    0  0.00000000000E+00  0.00000000000E+00  0.13356128808E+04  0.13356128808E+04  0.50400001928E-02 0.  1.
       -1   -1    0    0    0  501  0.00000000000E+00  0.00000000000E+00 -0.16749061882E+04  0.16749061882E+04  0.50400001928E-02 0. -1.
    10030    2    1    2    0    0  0.00000000000E+00  0.00000000000E+00 -0.33929330735E+03  0.30105190690E+04  0.29913383487E+04 0.  0.
        4    1    3    3  502    0 -0.10369675679E+04  0.13804687704E+03 -0.12454564491E+04  0.16265060887E+04  0.12699999809E+01 0. -1.
       -4    1    3    3    0  502  0.10369675679E+04 -0.13804687704E+03  0.90616314176E+03  0.13840129803E+04  0.12699999809E+01 0.  1.
</event>
<event>
 5   0  0.5001658E-06  0.3096642E+04  0.7818609E-02  0.8216660E-01
       -2   -1    0    0    0  501  0.00000000000E+00  0.00000000000E+00  0.10502715976E+04  0.10502715976E+04  0.25500000920E-02 0. -1.
        2   -1    0    0  501    0  0.00000000000E+00  0.00000000000E+00 -0.22825502889E+04  0.22825502889E+04  0.25500000920E-02 0.  1.
    10030    2    1    2    0    0  0.00000000000E+00  0.00000000000E+00 -0.12322786913E+04  0.33328218864E+04  0.30966418833E+04 0.  0.
        3    1    3    3  502    0  0.46550686297E+03  0.75502149060E+03 -0.19820030652E+04  0.21714258567E+04  0.10100000352E+00 0.  1.
       -3    1    3    3    0  502 -0.46550686297E+03 -0.75502149060E+03  0.74972437389E+03  0.11613960297E+04  0.10100000352E+00 0. -1.
</event>
<event>
 5   0  0.5001658E-06  0.3034555E+04  0.7818609E-02  0.8233932E-01
       -2   -1    0    0    0  501  0.00000000000E+00  0.00000000000E+00  0.81989467566E+03  0.81989467566E+03  0.25500000920E-02 0.  1.
        2   -1    0    0  501    0  0.00000000000E+00  0.00000000000E+00 -0.28078369051E+04  0.28078369051E+04  0.25500000920E-02 0. -1.
    10030    2    1    2    0    0  0.00000000000E+00  0.00000000000E+00 -0.19879422294E+04  0.36277315808E+04  0.30345546814E+04 0.  0.
        3    1    3    3  502    0  0.14989775741E+04 -0.61557549112E+02 -0.12650234027E+04  0.19623983589E+04  0.10100000352E+00 0.  1.
       -3    1    3    3    0  502 -0.14989775741E+04  0.61557549112E+02 -0.72291882677E+03  0.16653332219E+04  0.10100000352E+00 0. -1.
</event>
<event>
 5   0  0.5328368E-06  0.3112714E+04  0.7818609E-02  0.8212257E-01
        2   -1    0    0  501    0  0.00000000000E+00  0.00000000000E+00  0.14023213776E+04  0.14023213776E+04  0.25500000920E-02 0.  1.
       -2   -1    0    0    0  501  0.00000000000E+00  0.00000000000E+00 -0.17273128907E+04  0.17273128907E+04  0.25500000920E-02 0. -1.
    10030    2    1    2    0    0  0.00000000000E+00  0.00000000000E+00 -0.32499151316E+03  0.31296342683E+04  0.31127144375E+04 0.  0.
        1    1    3    3  502    0 -0.10369451873E+04 -0.22217453149E+02  0.10041991524E+04  0.14436636985E+04  0.50400001928E-02 0.  1.
       -1    1    3    3    0  502  0.10369451873E+04  0.22217453149E+02 -0.13291906656E+04  0.16859705698E+04  0.50400001928E-02 0. -1.
</event>
<event>
 5   0  0.1840431E-06  0.2898866E+04  0.7818609E-02  0.8273215E-01
        1   -1    0    0  501    0  0.00000000000E+00  0.00000000000E+00  0.13950075805E+04  0.13950075805E+04  0.50400001928E-02 0.  1.
       -1   -1    0    0    0  501  0.00000000000E+00  0.00000000000E+00 -0.15059816166E+04  0.15059816166E+04  0.50400001928E-02 0. -1.
    10030    2    1    2    0    0  0.00000000000E+00  0.00000000000E+00 -0.11097403611E+03  0.29009891971E+04  0.28988658274E+04 0.  0.
        1    1    3    3  502    0  0.75052590534E+03 -0.11491311575E+04 -0.52172979565E+03  0.14683301847E+04  0.50400001928E-02 0. -1.
       -1    1    3    3    0  502 -0.75052590534E+03  0.11491311575E+04  0.41075575953E+03  0.14326590124E+04  0.50400001928E-02 0.  1.
</event>
<event>
 5   0  0.5114870E-06  0.2621016E+04  0.7818609E-02  0.8361097E-01
       -2   -1    0    0    0  501  0.00000000000E+00  0.00000000000E+00  0.19823870585E+04  0.19823870585E+04  0.25500000920E-02 0. -1.
        2   -1    0    0  501    0  0.00000000000E+00  0.00000000000E+00 -0.86634489483E+03  0.86634489483E+03  0.25500000920E-02 0.  1.
    10030    2    1    2    0    0  0.00000000000E+00  0.00000000000E+00  0.11160421637E+04  0.28487319533E+04  0.26210157632E+04 0.  0.
        2    1    3    3  502    0  0.11859529132E+04  0.42946511563E+03  0.94459989456E+03  0.15758152045E+04  0.25500000920E-02 0.  1.
       -2    1    3    3    0  502 -0.11859529132E+04 -0.42946511563E+03  0.17144226912E+03  0.12729167489E+04  0.25500000920E-02 0. -1.
</event>
<event>
 5   0  0.5001658E-06  0.3087899E+04  0.7818609E-02  0.8219067E-01
        2   -1    0    0  501    0  0.00000000000E+00  0.00000000000E+00  0.12008511417E+04  0.12008511417E+04  0.25500000920E-02 0. -1.
       -2   -1    0    0    0  501  0.00000000000E+00  0.00000000000E+00 -0.19850759026E+04  0.19850759026E+04  0.25500000920E-02 0.  1.
    10030    2    1    2    0    0  0.00000000000E+00  0.00000000000E+00 -0.78422476088E+03  0.31859270443E+04  0.30878993921E+04 0.  0.
        3    1    3    3  502    0 -0.99077031502E+03 -0.41894590526E+02  0.82883988753E+03  0.12924227417E+04  0.10100000352E+00 0. -1.
       -3    1    3    3    0  502  0.99077031502E+03  0.41894590526E+02 -0.16130646484E+04  0.18935043026E+04  0.10100000352E+00 0.  1.
</event>
<event>
 5   0  0.1840431E-06  0.3058294E+04  0.7818609E-02  0.8227278E-01
        1   -1    0    0  501    0  0.00000000000E+00  0.00000000000E+00  0.29073350183E+04  0.29073350183E+04  0.50400001928E-02 0.  1.
       -1   -1    0    0    0  501  0.00000000000E+00  0.00000000000E+00 -0.80427283276E+03  0.80427283277E+03  0.50400001928E-02 0. -1.
    10030    2    1    2    0    0  0.00000000000E+00  0.00000000000E+00  0.21030621855E+04  0.37116078510E+04  0.30582940153E+04 0.  0.
        1    1    3    3  502    0 -0.12976901048E+04  0.72125739966E+03  0.14959195682E+04  0.21076022393E+04  0.50400001928E-02 0.  1.
       -1    1    3    3    0  502  0.12976901048E+04 -0.72125739966E+03  0.60714261731E+03  0.16040056117E+04  0.50400001928E-02 0. -1.
</event>
<event>
 5   0  0.4900679E-06  0.2961757E+04  0.7818609E-02  0.8254737E-01
        2   -1    0    0  501    0  0.00000000000E+00  0.00000000000E+00  0.22584718845E+04  0.22584718845E+04  0.25500000920E-02 0.  1.
       -2   -1    0    0    0  501  0.00000000000E+00  0.00000000000E+00 -0.97101071338E+03  0.97101071339E+03  0.25500000920E-02 0. -1.
    10030    2    1    2    0    0  0.00000000000E+00  0.00000000000E+00  0.12874611711E+04  0.32294825979E+04  0.29617565030E+04 0.  0.
        4    1    3    3  502    0 -0.13403704237E+04  0.41884704622E+03  0.11563006812E+04  0.18190818011E+04  0.12699999809E+01 0. -1.
       -4    1    3    3    0  502  0.13403704237E+04 -0.41884704622E+03  0.13116048996E+03  0.14104007969E+04  0.12699999809E+01 0.  1.
</event>
<event>
 5   0  0.1649875E-06  0.2514424E+04  0.7818609E-02  0.8397865E-01
        3   -1    0    0  501    0  0.00000000000E+00  0.00000000000E+00  0.13324164296E+04  0.13324164335E+04  0.10100000352E+00 0.  1.
       -3   -1    0    0    0  501  0.00000000000E+00  0.00000000000E+00 -0.11862521992E+04  0.11862522035E+04  0.10100000352E+00 0. -1.
    10030    2    1    2    0    0  0.00000000000E+00  0.00000000000E+00  0.14616423046E+03  0.25186686370E+04  0.25144239341E+04 0.  0.
        5    1    3    3  502    0 -0.24572665202E+03  0.11756138460E+04  0.44534147474E+03  0.12809373996E+04  0.46999998093E+01 0.  1.
       -5    1    3    3    0  502  0.24572665202E+03 -0.11756138460E+04 -0.29917724428E+03  0.12377312374E+04  0.46999998093E+01 0. -1.
</event>
<event>
 5   0  0.4927533E-06  0.3101799E+04  0.7818609E-02  0.8215244E-01
       -2   -1    0    0    0  501  0.00000000000E+00  0.00000000000E+00  0.16584351984E+04  0.16584351984E+04  0.25500000920E-02 0.  1.
        2   -1    0    0  501    0  0.00000000000E+00  0.00000000000E+00 -0.14503367495E+04  0.14503367495E+04  0.25500000920E-02 0. -1.
    10030    2    1    2    0    0  0.00000000000E+00  0.00000000000E+00  0.20809844885E+03  0.31087719479E+04  0.31017991650E+04 0.  0.
        5    1    3    3  502    0 -0.79711157233E+03 -0.13297775617E+04  0.64309078873E+02  0.15517258037E+04  0.46999998093E+01 0.  1.
       -5    1    3    3    0  502  0.79711157233E+03  0.13297775617E+04  0.14378936998E+03  0.15570461442E+04  0.46999998093E+01 0. -1.
</event>
<event>
 5   0  0.4900679E-06  0.2759671E+04  0.7818609E-02  0.8315899E-01
        2   -1    0    0  501    0  0.00000000000E+00  0.00000000000E+00  0.25237780422E+04  0.25237780422E+04  0.25500000920E-02 0.  1.
       -2   -1    0    0    0  501  0.00000000000E+00  0.00000000000E+00 -0.75440313866E+03  0.75440313867E+03  0.25500000920E-02 0. -1.
    10030    2    1    2    0    0  0.00000000000E+00  0.00000000000E+00  0.17693749036E+04  0.32781811809E+04  0.27596710502E+04 0.  0.
        4    1    3    3  502    0  0.12610485335E+04  0.36363430453E+03  0.37865375962E+03  0.13659625155E+04  0.12699999809E+01 0. -1.
       -4    1    3    3    0  502 -0.12610485335E+04 -0.36363430453E+03  0.13907211440E+04  0.19122186654E+04  0.12699999809E+01 0.  1.
</event>
<event>
 5   0  0.5001658E-06  0.3116698E+04  0.7818609E-02  0.8211170E-01
       -2   -1    0    0    0  501  0.00000000000E+00  0.00000000000E+00  0.14010424660E+04  0.14010424660E+04  0.25500000920E-02 0.  1.
        2   -1    0    0  501    0  0.00000000000E+00  0.00000000000E+00 -0.17333175340E+04  0.17333175340E+04  0.25500000920E-02 0. -1.
    10030    2    1    2    0    0  0.00000000000E+00  0.00000000000E+00 -0.33227506798E+03  0.31343600001E+04  0.31166979143E+04 0.  0.
        3    1    3    3  502    0  0.74963492322E+03  0.87635688834E+03  0.88789426179E+03  0.14554415633E+04  0.10100000352E+00 0.  1.
       -3    1    3    3    0  502 -0.74963492322E+03 -0.87635688834E+03 -0.12201693298E+04  0.16789184368E+04  0.10100000352E+00 0. -1.
</event>
<event>
 5   0  0.5001658E-06  0.3106932E+04  0.7818609E-02  0.8213838E-01
       -2   -1    0    0    0  501  0.00000000000E+00  0.00000000000E+00  0.15973105646E+04  0.15973105647E+04  0.25500000920E-02 0.  1.
        2   -1    0    0  501    0  0.00000000000E+00  0.00000000000E+00 -0.15108252284E+04  0.15108252284E+04  0.25500000920E-02 0. -1.
    10030    2    1    2    0    0  0.00000000000E+00  0.00000000000E+00  0.86485336278E+02  0.31081357930E+04  0.31069323125E+04 0.  0.
        3    1    3    3  502    0 -0.69285778487E+03  0.39075264012E+02  0.14336293323E+04  0.15927560576E+04  0.10100000352E+00 0.  1.
       -3    1    3    3    0  502  0.69285778487E+03 -0.39075264012E+02 -0.13471439960E+04  0.15153797354E+04  0.10100000352E+00 0. -1.
</event>
<event>
 5   0  0.4900679E-06  0.3222378E+04  0.7818609E-02  0.8182932E-01
        2   -1    0    0  501    0  0.00000000000E+00  0.00000000000E+00  0.25884585538E+04  0.25884585538E+04  0.25500000920E-02 0.  1.
       -2   -1    0    0    0  501  0.00000000000E+00  0.00000000000E+00 -0.10028864884E+04  0.10028864884E+04  0.25500000920E-02 0. -1.
    10030    2    1    2    0    0  0.00000000000E+00  0.00000000000E+00  0.15855720653E+04  0.35913450422E+04  0.32223780718E+04 0.  0.
        4    1    3    3  502    0 -0.94163291163E+03 -0.51187464126E+03 -0.54797371723E+03  0.12037296193E+04  0.12699999809E+01 0. -1.
       -4    1    3    3    0  502  0.94163291163E+03  0.51187464126E+03  0.21335457826E+04  0.23876154229E+04  0.12699999809E+01 0.  1.
</event>
<event>
 5   0  0.5001658E-06  0.3098241E+04  0.7818609E-02  0.8216221E-01
        2   -1    0    0  501    0  0.00000000000E+00  0.00000000000E+00  0.18097699433E+04  0.18097699433E+04  0.25500000920E-02 0. -1.
       -2   -1    0    0    0  501  0.00000000000E+00  0.00000000000E+00 -0.13260105124E+04  0.13260105124E+04  0.25500000920E-02 0.  1.
    10030    2    1    2    0    0  0.00000000000E+00  0.00000000000E+00  0.48375943095E+03  0.31357804557E+04  0.30982407717E+04 0.  0.
        3    1    3    3  502    0 -0.17707573085E+03 -0.57318628206E+02  0.17984123920E+04  0.18080178046E+04  0.10100000352E+00 0. -1.
       -3    1    3    3    0  502  0.17707573085E+03  0.57318628206E+02 -0.13146529611E+04  0.13277626512E+04  0.10100000352E+00 0.  1.
</event>
<event>
 5   0  0.1853742E-06  0.2972819E+04  0.7818609E-02  0.8251535E-01
       -1   -1    0    0    0  501  0.00000000000E+00  0.00000000000E+00  0.12818997165E+04  0.12818997165E+04  0.50400001928E-02 0. -1.
        1   -1    0    0  501    0  0.00000000000E+00  0.00000000000E+00 -0.17235464666E+04  0.17235464666E+04  0.50400001928E-02 0.  1.
    10030    2    1    2    0    0  0.00000000000E+00  0.00000000000E+00 -0.44164675014E+03  0.30054461831E+04  0.29728193534E+04 0.  0.
        5    1    3    3  502    0  0.10488574452E+04  0.10244344097E+04  0.26450120100E+02  0.14663865449E+04  0.46999998093E+01 0.  1.
       -5    1    3    3    0  502 -0.10488574452E+04 -0.10244344097E+04 -0.46809687024E+03  0.15390596382E+04  0.46999998093E+01 0. -1.
</event>
<event>
 5   0  0.5328368E-06  0.3062539E+04  0.7818609E-02  0.8226095E-01
        2   -1    0    0  501    0  0.00000000000E+00  0.00000000000E+00  0.21137430911E+04  0.21137430911E+04  0.25500000920E-02 0. -1.
       -2   -1    0    0    0  501  0.00000000000E+00  0.00000000000E+00 -0.11093049200E+04  0.11093049200E+04  0.25500000920E-02 0.  1.
    10030    2    1    2    0    0  0.00000000000E+00  0.00000000000E+00  0.10044381711E+04  0.32230480111E+04  0.30625385618E+04 0.  0.
        1    1    3    3  502    0 -0.10505370623E+04 -0.25437993009E+03 -0.63926967637E+03  0.12557877955E+04  0.50400001928E-02 0.  1.
       -1    1    3    3    0  502  0.10505370623E+04  0.25437993009E+03  0.16437078475E+04  0.19672602156E+04  0.50400001928E-02 0. -1.
</event>
<event>
 5   0  0.1885307E-06  0.3087744E+04  0.7818609E-02  0.8219110E-01
        1   -1    0    0  501    0  0.00000000000E+00  0.00000000000E+00  0.19296389372E+04  0.19296389372E+04  0.50400001928E-02 0. -1.
       -1   -1    0    0    0  501  0.00000000000E+00  0.00000000000E+00 -0.12352262798E+04  0.12352262798E+04  0.50400001928E-02 0.  1.
    10030    2    1    2    0    0  0.00000000000E+00  0.00000000000E+00  0.69441265743E+03  0.31648652170E+04  0.30877439828E+04 0.  0.
        3    1    3    3  502    0  0.14058494310E+04 -0.35825249610E+03  0.88839321868E+03  0.17011760622E+04  0.10100000352E+00 0. -1.
       -3    1    3    3    0  502 -0.14058494310E+04  0.35825249610E+03 -0.19398056125E+03  0.14636891548E+04  0.10100000352E+00 0.  1.
</event>
<event>
 5   0  0.4900679E-06  0.3123632E+04  0.7818609E-02  0.8209282E-01
       -2   -1    0    0    0  501  0.00000000000E+00  0.00000000000E+00  0.95304751628E+03  0.95304751628E+03  0.25500000920E-02 0. -1.
        2   -1    0    0  501    0  0.00000000000E+00  0.00000000000E+00 -0.25594419606E+04  0.25594419606E+04  0.25500000920E-02 0.  1.
    10030    2    1    2    0    0  0.00000000000E+00  0.00000000000E+00 -0.16063944443E+04  0.35124894769E+04  0.31236323750E+04 0.  0.
        4    1    3    3  502    0 -0.79657064418E+03 -0.57043340095E+03 -0.21708959953E+04  0.23817451777E+04  0.12699999809E+01 0.  1.
       -4    1    3    3    0  502  0.79657064418E+03  0.57043340095E+03  0.56450155102E+03  0.11307442992E+04  0.12699999809E+01 0. -1.
</event>
<event>
 5   0  0.4900679E-06  0.2951681E+04  0.7818609E-02  0.8257665E-01
       -2   -1    0    0    0  501  0.00000000000E+00  0.00000000000E+00  0.76254385439E+03  0.76254385439E+03  0.25500000920E-02 0.  1.
        2   -1    0    0  501    0  0.00000000000E+00  0.00000000000E+00 -0.28563663557E+04  0.28563663557E+04  0.25500000920E-02 0. -1.
    10030    2    1    2    0    0  0.00000000000E+00  0.00000000000E+00 -0.20938225013E+04  0.36189102101E+04  0.29516806131E+04 0.  0.
        4    1    3    3  502    0  0.48680497273E+02  0.36445301448E+03  0.70548681564E+03  0.79555581232E+03  0.12699999809E+01 0.  1.
       -4    1    3    3    0  502 -0.48680497273E+02 -0.36445301448E+03 -0.27993093169E+04  0.28233543977E+04  0.12699999809E+01 0. -1.
</event>
<event>
 5   0  0.4900679E-06  0.3146659E+04  0.7818609E-02  0.8203048E-01
        2   -1    0    0  501    0  0.00000000000E+00  0.00000000000E+00  0.22949345163E+04  0.22949345163E+04  0.25500000920E-02 0. -1.
       -2   -1    0    0    0  501  0.00000000000E+00  0.00000000000E+00 -0.10786215177E+04  0.10786215177E+04  0.25500000920E-02 0.  1.
    10030    2    1    2    0    0  0.00000000000E+00  0.00000000000E+00  0.12163129986E+04  0.33735560339E+04  0.31466590224E+04 0.  0.
        4    1    3    3  502    0 -0.68585494974E+03  0.14083255686E+04  0.76567317237E+03  0.17435695968E+04  0.12699999809E+01 0. -1.
       -4    1    3    3    0  502  0.68585494974E+03 -0.14083255686E+04  0.45063982623E+03  0.16299864371E+04  0.12699999809E+01 0.  1.
</event>
<event>
 5   0  0.5328368E-06  0.3134319E+04  0.7818609E-02  0.8206382E-01
        2   -1    0    0  501    0  0.00000000000E+00  0.00000000000E+00  0.23728823363E+04  0.23728823363E+04  0.25500000920E-02 0.  1.
       -2   -1    0    0    0  501  0.00000000000E+00  0.00000000000E+00 -0.10350234332E+04  0.10350234332E+04  0.25500000920E-02 0. -1.
    10030    2    1    2    0    0  0.00000000000E+00  0.00000000000E+00  0.13378589031E+04  0.34079057696E+04  0.31343189515E+04 0.  0.
        1    1    3    3  502    0 -0.10362851727E+04 -0.11425674628E+04  0.36792268199E+03  0.15857851261E+04  0.50400001928E-02 0.  1.
       -1    1    3    3    0  502  0.10362851727E+04  0.11425674628E+04  0.96993622109E+03  0.18221206434E+04  0.50400001928E-02 0. -1.
</event>
<event>
 5   0  0.1843709E-06  0.3069505E+04  0.7818609E-02  0.8224157E-01
       -1   -1    0    0    0  501  0.00000000000E+00  0.00000000000E+00  0.12170000709E+04  0.12170000709E+04  0.50400001928E-02 0. -1.
        1   -1    0    0  501    0  0.00000000000E+00  0.00000000000E+00 -0.19354682704E+04  0.19354682704E+04  0.50400001928E-02 0.  1.
    10030    2    1    2    0    0  0.00000000000E+00  0.00000000000E+00 -0.71846819945E+03  0.31524683413E+04  0.30695048606E+04 0.  0.
        4    1    3    3  502    0 -0.58872411633E+03 -0.13212098224E+04 -0.88620263729E+03  0.16963337546E+04  0.12699999809E+01 0.  1.
       -4    1    3    3    0  502  0.58872411633E+03  0.13212098224E+04  0.16773443784E+03  0.14561345866E+04  0.12699999809E+01 0. -1.
</event>
<event>
 5   0  0.1853742E-06  0.3082244E+04  0.7818609E-02  0.8220628E-01
        1   -1    0    0  501    0  0.00000000000E+00  0.00000000000E+00  0.78001095879E+03  0.78001095881E+03  0.50400001928E-02 0.  1.
       -1   -1    0    0    0  501  0.00000000000E+00  0.00000000000E+00 -0.30449013791E+04  0.30449013791E+04  0.50400001928E-02 0. -1.
    10030    2    1    2    0    0  0.00000000000E+00  0.00000000000E+00 -0.22648904203E+04  0.38249123379E+04  0.30822436271E+04 0.  0.
        5    1    3    3  502    0 -0.50179744099E+03 -0.12618477811E+04 -0.20367005734E+04  0.24479035541E+04  0.46999998093E+01 0. -1.
       -5    1    3    3    0  502  0.50179744099E+03  0.12618477811E+04 -0.22818984689E+03  0.13770087838E+04  0.46999998093E+01 0.  1.
</event>
<event>
 5   0  0.4900679E-06  0.3051248E+04  0.7818609E-02  0.8229246E-01
       -2   -1    0    0    0  501  0.00000000000E+00  0.00000000000E+00  0.11570363651E+04  0.11570363651E+04  0.25500000920E-02 0. -1.
        2   -1    0    0  501    0  0.00000000000E+00  0.00000000000E+00 -0.20116293675E+04  0.20116293675E+04  0.25500000920E-02 0.  1.
    10030    2    1    2    0    0  0.00000000000E+00  0.00000000000E+00 -0.85459300238E+03  0.31686657327E+04  0.30512478309E+04 0.  0.
        4    1    3    3  502    0 -0.23615557986E+03 -0.12050707559E+04  0.51283754334E+03  0.13307775710E+04  0.12699999809E+01 0. -1.
       -4    1    3    3    0  502  0.23615557986E+03  0.12050707559E+04 -0.13674305457E+04  0.18378881617E+04  0.12699999809E+01 0.  1.
</event>
<event>
 5   0  0.5328368E-06  0.3105669E+04  0.7818609E-02  0.8214184E-01
        2   -1    0    0  501    0  0.00000000000E+00  0.00000000000E+00  0.13033515405E+04  0.13033515405E+04  0.25500000920E-02 0.  1.
       -2   -1    0    0    0  501  0.00000000000E+00  0.00000000000E+00 -0.18500730768E+04  0.18500730768E+04  0.25500000920E-02 0. -1.
    10030    2    1    2    0    0  0.00000000000E+00  0.00000000000E+00 -0.54672153633E+03  0.31534246173E+04  0.31056693930E+04 0.  0.
        1    1    3    3  502    0  0.22583931550E+02  0.91610834800E+03  0.99952290342E+03  0.13560274974E+04  0.50400001928E-02 0.  1.
       -1    1    3    3    0  502 -0.22583931550E+02 -0.91610834800E+03 -0.15462444397E+04  0.17973971199E+04  0.50400001928E-02 0. -1.
</event>
<event>
 5   0  0.5114870E-06  0.3093604E+04  0.7818609E-02  0.8217495E-01
       -2   -1    0    0    0  501  0.00000000000E+00  0.00000000000E+00  0.76775289894E+03  0.76775289894E+03  0.25500000920E-02 0.  1.
        2   -1    0    0  501    0  0.00000000000E+00  0.00000000000E+00 -0.31163631039E+04  0.31163631039E+04  0.25500000920E-02 0. -1.
    10030    2    1    2    0    0  0.00000000000E+00  0.00000000000E+00 -0.23486102050E+04  0.38841160029E+04  0.30936042457E+04 0.  0.
        2    1    3    3  502    0  0.79488867800E+03  0.21698579948E+03 -0.28178838690E+04  0.29358815280E+04  0.25500000920E-02 0. -1.
       -2    1    3    3    0  502 -0.79488867800E+03 -0.21698579948E+03  0.46927366397E+03  0.94823447485E+03  0.25500000920E-02 0.  1.
</event>
<event>
 5   0  0.4927533E-06  0.3122141E+04  0.7818609E-02  0.8209688E-01
        2   -1    0    0  501    0  0.00000000000E+00  0.00000000000E+00  0.18735064488E+04  0.18735064488E+04  0.25500000920E-02 0. -1.
       -2   -1    0    0    0  501  0.00000000000E+00  0.00000000000E+00 -0.13007384420E+04  0.13007384420E+04  0.25500000920E-02 0.  1.
    10030    2    1    2    0    0  0.00000000000E+00  0.00000000000E+00  0.57276800676E+03  0.31742448908E+04  0.31221414826E+04 0.  0.
        5    1    3    3  502    0  0.12879300612E+04 -0.19829639970E+02 -0.61024216289E+03  0.14253331696E+04  0.46999998093E+01 0.  1.
       -5    1    3    3    0  502 -0.12879300612E+04  0.19829639970E+02  0.11830101697E+04  0.17489117212E+04  0.46999998093E+01 0. -1.
</event>
<event>
 5   0  0.5114870E-06  0.3047139E+04  0.7818609E-02  0.8230397E-01
        2   -1    0    0  501    0  0.00000000000E+00  0.00000000000E+00  0.15684636098E+04  0.15684636098E+04  0.25500000920E-02 0.  1.
       -2   -1    0    0    0  501  0.00000000000E+00  0.00000000000E+00 -0.14799605679E+04  0.14799605679E+04  0.25500000920E-02 0. -1.
    10030    2    1    2    0    0  0.00000000000E+00  0.00000000000E+00  0.88503041856E+02  0.30484241777E+04  0.30471391794E+04 0.  0.
        2    1    3    3  502    0  0.10112417100E+03  0.15532503942E+03 -0.14686402620E+04  0.14802892235E+04  0.25500000920E-02 0. -1.
       -2    1    3    3    0  502 -0.10112417100E+03 -0.15532503942E+03  0.15571433039E+04  0.15681349542E+04  0.25500000920E-02 0.  1.
</event>
<event>
 5   0  0.1885307E-06  0.2382518E+04  0.7818609E-02  0.8446078E-01
       -1   -1    0    0    0  501  0.00000000000E+00  0.00000000000E+00  0.11339641160E+04  0.11339641160E+04  0.50400001928E-02 0. -1.
        1   -1    0    0  501    0  0.00000000000E+00  0.00000000000E+00 -0.12514490670E+04  0.12514490670E+04  0.50400001928E-02 0.  1.
    10030    2    1    2    0    0  0.00000000000E+00  0.00000000000E+00 -0.11748495098E+03  0.23854131830E+04  0.23825182769E+04 0.  0.
        3    1    3    3  502    0  0.35194042179E+03 -0.10019651620E+04  0.48163739864E+03  0.11660921234E+04  0.10100000352E+00 0. -1.
       -3    1    3    3    0  502 -0.35194042179E+03  0.10019651620E+04 -0.59912234962E+03  0.12193210596E+04  0.10100000352E+00 0.  1.
</event>
<event>
 5   0  0.5328368E-06  0.3136189E+04  0.7818609E-02  0.8205876E-01
       -2   -1    0    0    0  501  0.00000000000E+00  0.00000000000E+00  0.85220381994E+03  0.85220381994E+03  0.25500000920E-02 0. -1.
        2   -1    0    0  501    0  0.00000000000E+00  0.00000000000E+00 -0.28853672560E+04  0.28853672560E+04  0.25500000920E-02 0.  1.
    10030    2    1    2    0    0  0.00000000000E+00  0.00000000000E+00 -0.20331634361E+04  0.37375710760E+04  0.31361894060E+04 0.  0.
        1    1    3    3  502    0  0.10035697069E+04  0.96188500343E+03 -0.18813611847E+04  0.23392081617E+04  0.50400001928E-02 0.  1.
       -1    1    3    3    0  502 -0.10035697069E+04 -0.96188500343E+03 -0.15180225136E+03  0.13983629143E+04  0.50400001928E-02 0. -1.
</event>
<event>
 5   0  0.1843709E-06  0.3004524E+04  0.7818609E-02  0.8242440E-01
       -1   -1    0    0    0  501  0.00000000000E+00  0.00000000000E+00  0.12663327373E+04  0.12663327373E+04  0.50400001928E-02 0. -1.
        1   -1    0    0  501    0  0.00000000000E+00  0.00000000000E+00 -0.17821467616E+04  0.17821467617E+04  0.50400001928E-02 0.  1.
    10030    2    1    2    0    0  0.00000000000E+00  0.00000000000E+00 -0.51581402437E+03  0.30484794989E+04  0.30045237805E+04 0.  0.
        4    1    3    3  502    0  0.87964432183E+03 -0.10428223521E+04  0.38021093839E+03  0.14162678283E+04  0.12699999809E+01 0. -1.
       -4    1    3    3    0  502 -0.87964432183E+03  0.10428223521E+04 -0.89602496276E+03  0.16322116706E+04  0.12699999809E+01 0.  1.
</event>
<event>
 5   0  0.1843709E-06  0.3109227E+04  0.7818609E-02  0.8213210E-01
        1   -1    0    0  501    0  0.00000000000E+00  0.00000000000E+00  0.20264968768E+04  0.20264968768E+04  0.50400001928E-02 0. -1.
       -1   -1    0    0    0  501  0.00000000000E+00  0.00000000000E+00 -0.11926112775E+04  0.11926112775E+04  0.50400001928E-02 0.  1.
    10030    2    1    2    0    0  0.00000000000E+00  0.00000000000E+00  0.83388559933E+03  0.32191081543E+04  0.31092269323E+04 0.  0.
        4    1    3    3  502    0  0.11006555829E+04  0.34285640862E+03 -0.66290687346E+03  0.13298271936E+04  0.12699999809E+01 0.  1.
       -4    1    3    3    0  502 -0.11006555829E+04 -0.34285640862E+03  0.14967924728E+04  0.18892809607E+04  0.12699999809E+01 0. -1.
</event>
<event>
 5   0  0.5001658E-06  0.3101707E+04  0.7818609E-02  0.8215270E-01
        2   -1    0    0  501    0  0.00000000000E+00  0.00000000000E+00  0.21621576862E+04  0.21621576862E+04  0.25500000920E-02 0.  1.
       -2   -1    0    0    0  501  0.00000000000E+00  0.00000000000E+00 -0.11123823155E+04  0.11123823155E+04  0.25500000920E-02 0. -1.
    10030    2    1    2    0    0  0.00000000000E+00  0.00000000000E+00  0.10497753708E+04  0.32745400017E+04  0.31017066098E+04 0.  0.
        3    1    3    3  502    0 -0.56260430999E+03  0.13719170245E+04  0.45183078153E+02  0.14834828791E+04  0.10100000352E+00 0. -1.
       -3    1    3    3    0  502  0.56260430999E+03 -0.13719170245E+04  0.10045922926E+04  0.17910571226E+04  0.10100000352E+00 0.  1.
</event>
<event>
 5   0  0.4927533E-06  0.2891038E+04  0.7818609E-02  0.8275549E-01
        2   -1    0    0  501    0  0.00000000000E+00  0.00000000000E+00  0.24778389130E+04  0.24778389130E+04  0.25500000920E-02 0. -1.
       -2   -1    0    0    0  501  0.00000000000E+00  0.00000000000E+00 -0.84328530611E+03  0.84328530611E+03  0.25500000920E-02 0.  1.
    10030    2    1    2    0    0  0.00000000000E+00  0.00000000000E+00  0.16345536069E+04  0.33211242191E+04  0.28910379771E+04 0.  0.
        5    1    3    3  502    0 -0.33185285221E+03 -0.13707665394E+04  0.45332329629E+03  0.14814355612E+04  0.46999998093E+01 0.  1.
       -5    1    3    3    0  502  0.33185285221E+03  0.13707665394E+04  0.11812303106E+04  0.18396886578E+04  0.46999998093E+01 0. -1.
</event>
<event>
 5   0  0.4927533E-06  0.3094455E+04  0.7818609E-02  0.8217261E-01
        2   -1    0    0  501    0  0.00000000000E+00  0.00000000000E+00  0.21134245446E+04  0.21134245446E+04  0.25500000920E-02 0.  1.
       -2   -1    0    0    0  501  0.00000000000E+00  0.00000000000E+00 -0.11327177147E+04  0.11327177147E+04  0.25500000920E-02 0. -1.
    10030    2    1    2    0    0  0.00000000000E+00  0.00000000000E+00  0.98070682987E+03  0.32461422593E+04  0.30944553125E+04 0.  0.
        5    1    3    3  502    0 -0.12499617136E+04  0.91016183036E+03  0.54868950267E+03  0.16406953109E+04  0.46999998093E+01 0. -1.
       -5    1    3    3    0  502  0.12499617136E+04 -0.91016183036E+03  0.43201732720E+03  0.16054469483E+04  0.46999998093E+01 0.  1.
</event>
<event>
 5   0  0.5328368E-06  0.2604914E+04  0.7818609E-02  0.8366534E-01
       -2   -1    0    0    0  501  0.00000000000E+00  0.00000000000E+00  0.15275863194E+04  0.15275863194E+04  0.25500000920E-02 0. -1.
        2   -1    0    0  501    0  0.00000000000E+00  0.00000000000E+00 -0.11105063382E+04  0.11105063382E+04  0.25500000920E-02 0.  1.
    10030    2    1    2    0    0  0.00000000000E+00  0.00000000000E+00  0.41707998120E+03  0.26380926575E+04  0.26049140406E+04 0.  0.
        1    1    3    3  502    0  0.31361844090E+03 -0.67663907154E+03  0.12899407206E+04  0.14900147725E+04  0.50400001928E-02 0. -1.
       -1    1    3    3    0  502 -0.31361844090E+03  0.67663907154E+03 -0.87286073940E+03  0.11480778850E+04  0.50400001928E-02 0.  1.
</event>
<event>
 5   0  0.1843709E-06  0.3081515E+04  0.7818609E-02  0.8220829E-01
       -1   -1    0    0    0  501  0.00000000000E+00  0.00000000000E+00  0.91433745959E+03  0.91433745961E+03  0.50400001928E-02 0. -1.
        1   -1    0    0  501    0  0.00000000000E+00  0.00000000000E+00 -0.25963432410E+04  0.25963432410E+04  0.50400001928E-02 0.  1.
    10030    2    1    2    0    0  0.00000000000E+00  0.00000000000E+00 -0.16820057814E+04  0.35106807006E+04  0.30815151359E+04 0.  0.
        4    1    3    3  502    0  0.14528447664E+04  0.35174153761E+03 -0.41556145753E+03  0.15515066749E+04  0.12699999809E+01 0. -1.
       -4    1    3    3    0  502 -0.14528447664E+04 -0.35174153761E+03 -0.12664443239E+04  0.19591740257E+04  0.12699999809E+01 0.  1.
</event>
<event>
 5   0  0.1649875E-06  0.3095940E+04  0.7818609E-02  0.8216853E-01
        3   -1    0    0  501    0  0.00000000000E+00  0.00000000000E+00  0.99260656705E+03  0.99260657219E+03  0.10100000352E+00 0. -1.
       -3   -1    0    0    0  501  0.00000000000E+00  0.00000000000E+00 -0.24140600243E+04  0.24140600265E+04  0.10100000352E+00 0.  1.
    10030    2    1    2    0    0  0.00000000000E+00  0.00000000000E+00 -0.14214534573E+04  0.34066665987E+04  0.30959404683E+04 0.  0.
        5    1    3    3  502    0  0.97567685585E+03  0.80225231671E+02  0.60870684491E+03  0.11527911901E+04  0.46999998093E+01 0. -1.
       -5    1    3    3    0  502 -0.97567685585E+03 -0.80225231671E+02 -0.20301603022E+04  0.22538754086E+04  0.46999998093E+01 0.  1.
</event>
<event>
 5   0  0.4927533E-06  0.3075022E+04  0.7818609E-02  0.8222626E-01
       -2   -1    0    0    0  501  0.00000000000E+00  0.00000000000E+00  0.79413693748E+03  0.79413693748E+03  0.25500000920E-02 0.  1.
        2   -1    0    0  501    0  0.00000000000E+00  0.00000000000E+00 -0.29767419313E+04  0.29767419313E+04  0.25500000920E-02 0. -1.
    10030    2    1    2    0    0  0.00000000000E+00  0.00000000000E+00 -0.21826049938E+04  0.37708788687E+04  0.30750224201E+04 0.  0.
        5    1    3    3  502    0  0.13061334887E+04 -0.48676632864E+03 -0.29563527857E+03  0.14249029641E+04  0.46999998093E+01 0.  1.
       -5    1    3    3    0  502 -0.13061334887E+04  0.48676632864E+03 -0.18869697152E+04  0.23459759047E+04  0.46999998093E+01 0. -1.
</event>
<event>
 5   0  0.5114870E-06  0.3030084E+04  0.7818609E-02  0.8235192E-01
       -2   -1    0    0    0  501  0.00000000000E+00  0.00000000000E+00  0.19879880013E+04  0.19879880013E+04  0.25500000920E-02 0. -1.
        2   -1    0    0  501    0  0.00000000000E+00  0.00000000000E+00 -0.11546104348E+04  0.11546104348E+04  0.25500000920E-02 0.  1.
    10030    2    1    2    0    0  0.00000000000E+00  0.00000000000E+00  0.83337756646E+03  0.31425984361E+04  0.30300836230E+04 0.  0.
        2    1    3    3  502    0 -0.86953597825E+03  0.75563714365E+03 -0.60385777772E+03  0.13006631101E+04  0.25500000920E-02 0.  1.
       -2    1    3    3    0  502  0.86953597825E+03 -0.75563714365E+03  0.14372353442E+04  0.18419353259E+04  0.25500000920E-02 0. -1.
</event>
<event>
 5   0  0.5001658E-06  0.3076888E+04  0.7818609E-02  0.8222109E-01
       -2   -1    0    0    0  501  0.00000000000E+00  0.00000000000E+00  0.15644646710E+04  0.15644646710E+04  0.25500000920E-02 0. -1.
        2   -1    0    0  501    0  0.00000000000E+00  0.00000000000E+00 -0.15128564089E+04  0.15128564089E+04  0.25500000920E-02 0.  1.
    10030    2    1    2    0    0  0.00000000000E+00  0.00000000000E+00  0.51608262097E+02  0.30773210800E+04  0.30768883009E+04 0.  0.
        3    1    3    3  502    0  0.21071620138E+03 -0.58455529458E+03  0.14333770116E+04  0.15622662633E+04  0.10100000352E+00 0. -1.
       -3    1    3    3    0  502 -0.21071620138E+03  0.58455529458E+03 -0.13817687495E+04  0.15150548166E+04  0.10100000352E+00 0.  1.
</event>
<event>
 5   0  0.1840431E-06  0.3127022E+04  0.7818609E-02  0.8208361E-01
       -1   -1    0    0    0  501  0.00000000000E+00  0.00000000000E+00  0.10949562952E+04  0.10949562952E+04  0.50400001928E-02 0.  1.
        1   -1    0    0  501    0  0.00000000000E+00  0.00000000000E+00 -0.22325701002E+04  0.22325701002E+04  0.50400001928E-02 0. -1.
    10030    2    1    2    0    0  0.00000000000E+00  0.00000000000E+00 -0.11376138049E+04  0.33275263954E+04  0.31270220247E+04 0.  0.
        1    1    3    3  502    0 -0.79510191934E+03 -0.11572436376E+03 -0.19960719858E+04  0.21517161901E+04  0.50400001928E-02 0. -1.
       -1    1    3    3    0  502  0.79510191934E+03  0.11572436376E+03  0.85845818083E+03  0.11758102052E+04  0.50400001928E-02 0.  1.
</event>
<event>
 5   0  0.5001658E-06  0.3086146E+04  0.7818609E-02  0.8219550E-01
        2   -1    0    0  501    0  0.00000000000E+00  0.00000000000E+00  0.21442344064E+04  0.21442344064E+04  0.25500000920E-02 0. -1.
       -2   -1    0    0    0  501  0.00000000000E+00  0.00000000000E+00 -0.11104540778E+04  0.11104540778E+04  0.25500000920E-02 0.  1.
    10030    2    1    2    0    0  0.00000000000E+00  0.00000000000E+00  0.10337803285E+04  0.32546884842E+04  0.30861457130E+04 0.  0.
        3    1    3    3  502    0  0.93529332830E+03 -0.10464232635E+04  0.11932403313E+04  0.18421720209E+04  0.10100000352E+00 0. -1.
       -3    1    3    3    0  502 -0.93529332830E+03  0.10464232635E+04 -0.15946000276E+03  0.14125164633E+04  0.10100000352E+00 0.  1.
</event>
<event>
 5   0  0.4927533E-06  0.3088172E+04  0.7818609E-02  0.8218992E-01
        2   -1    0    0  501    0  0.00000000000E+00  0.00000000000E+00  0.22225199000E+04  0.22225199000E+04  0.25500000920E-02 0. -1.
       -2   -1    0    0    0  501  0.00000000000E+00  0.00000000000E+00 -0.10727469530E+04  0.10727469530E+04  0.25500000920E-02 0.  1.
    10030    2    1    2    0    0  0.00000000000E+00  0.00000000000E+00  0.11497729470E+04  0.32952668530E+04  0.30881719193E+04 0.  0.
        5    1    3    3  502    0 -0.79267499282E+03 -0.97449894226E+03 -0.38321134498E+03  0.13133372977E+04  0.46999998093E+01 0.  1.
       -5    1    3    3    0  502  0.79267499282E+03  0.97449894226E+03  0.15329842920E+04  0.19819295553E+04  0.46999998093E+01 0. -1.
</event>
<event>
 5   0  0.1840431E-06  0.3100104E+04  0.7818609E-02  0.8215709E-01
        1   -1    0    0  501    0  0.00000000000E+00  0.00000000000E+00  0.14032348901E+04  0.14032348901E+04  0.50400001928E-02 0.  1.
       -1   -1    0    0    0  501  0.00000000000E+00  0.00000000000E+00 -0.17122307819E+04  0.17122307819E+04  0.50400001928E-02 0. -1.
    10030    2    1    2    0    0  0.00000000000E+00  0.00000000000E+00 -0.30899589182E+03  0.31154656719E+04  0.31001044969E+04 0.  0.
        1    1    3    3  502    0  0.41149842589E+03  0.58965696035E+03 -0.15344866508E+04  0.16946018904E+04  0.50400001928E-02 0. -1.
       -1    1    3    3    0  502 -0.41149842589E+03 -0.58965696035E+03  0.12254907590E+04  0.14208637816E+04  0.50400001928E-02 0.  1.
</event>
<event>
 5   0  0.1836401E-06  0.3153588E+04  0.7818609E-02  0.8201183E-01
       -1   -1    0    0    0  501  0.00000000000E+00  0.00000000000E+00  0.11785608300E+04  0.11785608301E+04  0.50400001928E-02 0.  1.
        1   -1    0    0  501    0  0.00000000000E+00  0.00000000000E+00 -0.21095889137E+04  0.21095889137E+04  0.50400001928E-02 0. -1.
    10030    2    1    2    0    0  0.00000000000E+00  0.00000000000E+00 -0.93102808369E+03  0.32881497438E+04  0.31535877101E+04 0.  0.
        2    1    3    3  502    0  0.41139106196E+03  0.13893574191E+04 -0.11139188618E+04  0.18276684257E+04  0.25500000920E-02 0. -1.
       -2    1    3    3    0  502 -0.41139106196E+03 -0.13893574191E+04  0.18289077808E+03  0.14604813181E+04  0.25500000920E-02 0.  1.
</event>
<event>
 5   0  0.4900679E-06  0.3112348E+04  0.7818609E-02  0.8212357E-01
        2   -1    0    0  501    0  0.00000000000E+00  0.00000000000E+00  0.16673026137E+04  0.16673026137E+04  0.25500000920E-02 0.  1.
       -2   -1    0    0    0  501  0.00000000000E+00  0.00000000000E+00 -0.14524525310E+04  0.14524525310E+04  0.25500000920E-02 0. -1.
    10030    2    1    2    0    0  0.00000000000E+00  0.00000000000E+00  0.21485008274E+03  0.31197551447E+04  0.31123482460E+04 0.  0.
        4    1    3    3  502    0  0.14314542243E+04  0.39700241248E+03  0.57221396787E+03  0.15918864752E+04  0.12699999809E+01 0.  1.
       -4    1    3    3    0  502 -0.14314542243E+04 -0.39700241248E+03 -0.35736388514E+03  0.15278686695E+04  0.12699999809E+01 0. -1.
</event>
<event>
 5   0  0.4900679E-06  0.3115441E+04  0.7818609E-02  0.8211513E-01
        2   -1    0    0  501    0  0.00000000000E+00  0.00000000000E+00  0.24260297873E+04  0.24260297873E+04  0.25500000920E-02 0.  1.
       -2   -1    0    0    0  501  0.00000000000E+00  0.00000000000E+00 -0.10001911941E+04  0.10001911941E+04  0.25500000920E-02 0. -1.
    10030    2    1    2    0    0  0.00000000000E+00  0.00000000000E+00  0.14258385932E+04  0.34262209813E+04  0.31154413041E+04 0.  0.
        4    1    3    3  502    0  0.15069241093E+04 -0.89904587760E+02  0.29042323894E+03  0.15372866930E+04  0.12699999809E+01 0.  1.
       -4    1    3    3    0  502 -0.15069241093E+04  0.89904587760E+02  0.11354153542E+04  0.18889342883E+04  0.12699999809E+01 0. -1.
</event>
<event>
 5   0  0.5114870E-06  0.3087315E+04  0.7818609E-02  0.8219228E-01
        2   -1    0    0  501    0  0.00000000000E+00  0.00000000000E+00  0.20961951278E+04  0.20961951278E+04  0.25500000920E-02 0.  1.
       -2   -1    0    0    0  501  0.00000000000E+00  0.00000000000E+00 -0.11367633842E+04  0.11367633842E+04  0.25500000920E-02 0. -1.
    10030    2    1    2    0    0  0.00000000000E+00  0.00000000000E+00  0.95943174360E+03  0.32329585121E+04  0.30873146050E+04 0.  0.
        2    1    3    3  502    0  0.24873086869E+03  0.13822162098E+04  0.11506348808E+04  0.18155851190E+04  0.25500000920E-02 0.  1.
       -2    1    3    3    0  502 -0.24873086869E+03 -0.13822162098E+04 -0.19120313719E+03  0.14173733930E+04  0.25500000920E-02 0. -1.
</event>
<event>
 5   0  0.5328368E-06  0.3049672E+04  0.7818609E-02  0.8229687E-01
       -2   -1    0    0    0  501  0.00000000000E+00  0.00000000000E+00  0.12496504924E+04  0.12496504924E+04  0.25500000920E-02 0.  1.
        2   -1    0    0  501    0  0.00000000000E+00  0.00000000000E+00 -0.18606205743E+04  0.18606205743E+04  0.25500000920E-02 0. -1.
    10030    2    1    2    0    0  0.00000000000E+00  0.00000000000E+00 -0.61097008192E+03  0.31102710667E+04  0.30496723868E+04 0.  0.
        1    1    3    3  502    0 -0.89836359630E+03  0.11530993279E+04  0.13722595984E+03  0.14681710307E+04  0.50400001928E-02 0.  1.
       -1    1    3    3    0  502  0.89836359630E+03 -0.11530993279E+04 -0.74819604177E+03  0.16421000360E+04  0.50400001928E-02 0. -1.
</event>
<event>
 5   0  0.4900679E-06  0.3182662E+04  0.7818609E-02  0.8193411E-01
        2   -1    0    0  501    0  0.00000000000E+00  0.00000000000E+00  0.22750109881E+04  0.22750109881E+04  0.25500000920E-02 0.  1.
       -2   -1    0    0    0  501  0.00000000000E+00  0.00000000000E+00 -0.11131085784E+04  0.11131085784E+04  0.25500000920E-02 0. -1.
    10030    2    1    2    0    0  0.00000000000E+00  0.00000000000E+00  0.11619024097E+04  0.33881195665E+04  0.31826619342E+04 0.  0.
        4    1    3    3  502    0 -0.18006880780E+03  0.10629873509E+04  0.18269656386E+04  0.21213608701E+04  0.12699999809E+01 0.  1.
       -4    1    3    3    0  502  0.18006880780E+03 -0.10629873509E+04 -0.66506322888E+03  0.12667586964E+04  0.12699999809E+01 0. -1.
</event>
<event>
 5   0  0.4927533E-06  0.3058789E+04  0.7818609E-02  0.8227140E-01
       -2   -1    0    0    0  501  0.00000000000E+00  0.00000000000E+00  0.13684423272E+04  0.13684423272E+04  0.25500000920E-02 0. -1.
        2   -1    0    0  501    0  0.00000000000E+00  0.00000000000E+00 -0.17092773895E+04  0.17092773895E+04  0.25500000920E-02 0.  1.
    10030    2    1    2    0    0  0.00000000000E+00  0.00000000000E+00 -0.34083506229E+03  0.30777197167E+04  0.30587889948E+04 0.  0.
        5    1    3    3  502    0  0.30491994650E+03 -0.14954687939E+04 -0.26911821295E+03  0.15497902406E+04  0.46999998093E+01 0. -1.
       -5    1    3    3    0  502 -0.30491994650E+03  0.14954687939E+04 -0.71716849341E+02  0.15279294761E+04  0.46999998093E+01 0.  1.
</event>
<event>
 5   0  0.1885307E-06  0.3161812E+04  0.7818609E-02  0.8198976E-01
        1   -1    0    0  501    0  0.00000000000E+00  0.00000000000E+00  0.14737409568E+04  0.14737409568E+04  0.50400001928E-02 0. -1.
       -1   -1    0    0    0  501  0.00000000000E+00  0.00000000000E+00 -0.16958635588E+04  0.16958635588E+04  0.50400001928E-02 0.  1.
    10030    2    1    2    0    0  0.00000000000E+00  0.00000000000E+00 -0.22212260204E+03  0.31696045156E+04  0.31618118753E+04 0.  0.
        3    1    3    3  502    0 -0.62133425228E+03  0.98066290150E+03 -0.11867892537E+04  0.16601881587E+04  0.10100000352E+00 0.  1.
       -3    1    3    3    0  502  0.62133425228E+03 -0.98066290150E+03  0.96466665165E+03  0.15094163569E+04  0.10100000352E+00 0. -1.
</event>
<event>
 5   0  0.1885307E-06  0.3082268E+04  0.7818609E-02  0.8220621E-01
       -1   -1    0    0    0  501  0.00000000000E+00  0.00000000000E+00  0.13942847582E+04  0.13942847582E+04  0.50400001928E-02 0.  1.
        1   -1    0    0  501    0  0.00000000000E+00  0.00000000000E+00 -0.17034494557E+04  0.17034494557E+04  0.50400001928E-02 0. -1.
    10030    2    1    2    0    0  0.00000000000E+00  0.00000000000E+00 -0.30916469748E+03  0.30977342139E+04  0.30822677446E+04 0.  0.
        3    1    3    3  502    0  0.83195765452E+03 -0.36722061641E+03  0.10958832973E+04  0.14240662666E+04  0.10100000352E+00 0.  1.
       -3    1    3    3    0  502 -0.83195765452E+03  0.36722061641E+03 -0.14050479948E+04  0.16736679473E+04  0.10100000352E+00 0. -1.
</event>
<event>
 5   0  0.1843709E-06  0.3032255E+04  0.7818609E-02  0.8234580E-01
       -1   -1    0    0    0  501  0.00000000000E+00  0.00000000000E+00  0.15052215448E+04  0.15052215448E+04  0.50400001928E-02 0.  1.
        1   -1    0    0  501    0  0.00000000000E+00  0.00000000000E+00 -0.15271127318E+04  0.15271127318E+04  0.50400001928E-02 0. -1.
    10030    2    1    2    0    0  0.00000000000E+00  0.00000000000E+00 -0.21891187066E+02  0.30323342766E+04  0.30322552566E+04 0.  0.
        4    1    3    3  502    0 -0.55691697272E+03 -0.63072901687E+03 -0.12721944473E+04  0.15252724124E+04  0.12699999809E+01 0. -1.
       -4    1    3    3    0  502  0.55691697272E+03  0.63072901687E+03  0.12503032603E+04  0.15070618643E+04  0.12699999809E+01 0.  1.
</event>
<event>
 5   0  0.1840431E-06  0.3057960E+04  0.7818609E-02  0.8227371E-01
        1   -1    0    0  501    0  0.00000000000E+00  0.00000000000E+00  0.20284907499E+04  0.20284907499E+04  0.50400001928E-02 0.  1.
       -1   -1    0    0    0  501  0.00000000000E+00  0.00000000000E+00 -0.11524726648E+04  0.11524726648E+04  0.50400001928E-02 0. -1.
    10030    2    1    2    0    0  0.00000000000E+00  0.00000000000E+00  0.87601808512E+03  0.31809634148E+04  0.30579601960E+04 0.  0.
        1    1    3    3  502    0 -0.73830989287E+03  0.98499059492E+03  0.13813907523E+04  0.18502833244E+04  0.50400001928E-02 0.  1.
       -1    1    3    3    0  502  0.73830989287E+03 -0.98499059492E+03 -0.50537266721E+03  0.13306800903E+04  0.50400001928E-02 0. -1.
</event>
<event>
 5   0  0.5328368E-06  0.3103766E+04  0.7818609E-02  0.8214705E-01
       -2   -1    0    0    0  501  0.00000000000E+00  0.00000000000E+00  0.13186726457E+04  0.13186726457E+04  0.25500000920E-02 0. -1.
        2   -1    0    0  501    0  0.00000000000E+00  0.00000000000E+00 -0.18263371138E+04  0.18263371138E+04  0.25500000920E-02 0.  1.
    10030    2    1    2    0    0  0.00000000000E+00  0.00000000000E+00 -0.50766446804E+03  0.31450097595E+04  0.31037659665E+04 0.  0.
        1    1    3    3  502    0  0.11666040718E+02  0.15416613464E+04 -0.43363021615E+03  0.16015276981E+04  0.50400001928E-02 0.  1.
       -1    1    3    3    0  502 -0.11666040718E+02 -0.15416613464E+04 -0.74034251894E+02  0.15434820614E+04  0.50400001928E-02 0. -1.
</event>
<event>
 5   0  0.4900679E-06  0.2916350E+04  0.7818609E-02  0.8268029E-01
       -2   -1    0    0    0  501  0.00000000000E+00  0.00000000000E+00  0.13115581063E+04  0.13115581063E+04  0.25500000920E-02 0. -1.
        2   -1    0    0  501    0  0.00000000000E+00  0.00000000000E+00 -0.16211820886E+04  0.16211820886E+04  0.25500000920E-02 0.  1.
    10030    2    1    2    0    0  0.00000000000E+00  0.00000000000E+00 -0.30962398223E+03  0.29327401949E+04  0.29163501231E+04 0.  0.
        4    1    3    3  502    0  0.71797211061E+03 -0.83346157926E+03  0.80771442557E+03  0.13647513920E+04  0.12699999809E+01 0. -1.
       -4    1    3    3    0  502 -0.71797211061E+03  0.83346157926E+03 -0.11173384078E+04  0.15679888029E+04  0.12699999809E+01 0.  1.
</event>
<event>
 5   0  0.5114870E-06  0.3063016E+04  0.7818609E-02  0.8225962E-01
       -2   -1    0    0    0  501  0.00000000000E+00  0.00000000000E+00  0.14194421823E+04  0.14194421823E+04  0.25500000920E-02 0.  1.
        2   -1    0    0  501    0  0.00000000000E+00  0.00000000000E+00 -0.16524214754E+04  0.16524214754E+04  0.25500000920E-02 0. -1.
    10030    2    1    2    0    0  0.00000000000E+00  0.00000000000E+00 -0.23297929308E+03  0.30718636576E+04  0.30630159941E+04 0.  0.
        2    1    3    3  502    0  0.94881498772E+03  0.11212805191E+04  0.31834883543E+03  0.15029523827E+04  0.25500000920E-02 0.  1.
       -2    1    3    3    0  502 -0.94881498772E+03 -0.11212805191E+04 -0.55132812851E+03  0.15689112750E+04  0.25500000920E-02 0. -1.
</event>
<event>
 5   0  0.1649875E-06  0.3119952E+04  0.7818609E-02  0.8210284E-01
       -3   -1    0    0    0  501  0.00000000000E+00  0.00000000000E+00  0.15474180794E+04  0.15474180827E+04  0.10100000352E+00 0.  1.
        3   -1    0    0  501    0  0.00000000000E+00  0.00000000000E+00 -0.15726356764E+04  0.15726356797E+04  0.10100000352E+00 0. -1.
    10030    2    1    2    0    0  0.00000000000E+00  0.00000000000E+00 -0.25217596999E+02  0.31200537624E+04  0.31199518511E+04 0.  0.
        4    1    3    3  502    0 -0.77392267052E+03  0.56427584164E+03  0.12187558105E+04  0.15500744705E+04  0.12699999809E+01 0.  1.
       -4    1    3    3    0  502  0.77392267052E+03 -0.56427584164E+03 -0.12439734075E+04  0.15699792919E+04  0.12699999809E+01 0. -1.
</event>
<event>
 5   0  0.1885307E-06  0.3074306E+04  0.7818609E-02  0.8222825E-01
        1   -1    0    0  501    0  0.00000000000E+00  0.00000000000E+00  0.23106076283E+04  0.23106076283E+04  0.50400001928E-02 0. -1.
       -1   -1    0    0    0  501  0.00000000000E+00  0.00000000000E+00 -0.10226051643E+04  0.10226051644E+04  0.50400001928E-02 0.  1.
    10030    2    1    2    0    0  0.00000000000E+00  0.00000000000E+00  0.12880024639E+04  0.33332127927E+04  0.30743059662E+04 0.  0.
        3    1    3    3  502    0 -0.11207134727E+04  0.90195367079E+03  0.56800055560E+02  0.14397032224E+04  0.10100000352E+00 0.  1.
       -3    1    3    3    0  502  0.11207134727E+04 -0.90195367079E+03  0.12312024084E+04  0.18935095703E+04  0.10100000352E+00 0. -1.
</event>
<event>
 5   0  0.5328368E-06  0.3179642E+04  0.7818609E-02  0.8194214E-01
        2   -1    0    0  501    0  0.00000000000E+00  0.00000000000E+00  0.16006468001E+04  0.16006468001E+04  0.25500000920E-02 0. -1.
       -2   -1    0    0    0  501  0.00000000000E+00  0.00000000000E+00 -0.15790686210E+04  0.15790686210E+04  0.25500000920E-02 0.  1.
    10030    2    1    2    0    0  0.00000000000E+00  0.00000000000E+00  0.21578179097E+02  0.31797154210E+04  0.31796422033E+04 0.  0.
        1    1    3    3  502    0 -0.69564621875E+03 -0.22214784231E+03 -0.14014253610E+04  0.15802741433E+04  0.50400001928E-02 0.  1.
       -1    1    3    3    0  502  0.69564621875E+03  0.22214784231E+03  0.14230035401E+04  0.15994412777E+04  0.50400001928E-02 0. -1.
</event>
<event>
 5   0  0.1843709E-06  0.3083084E+04  0.7818609E-02  0.8220396E-01
        1   -1    0    0  501    0  0.00000000000E+00  0.00000000000E+00  0.21740315021E+04  0.21740315021E+04  0.50400001928E-02 0.  1.
       -1   -1    0    0    0  501  0.00000000000E+00  0.00000000000E+00 -0.10930625452E+04  0.10930625452E+04  0.50400001928E-02 0. -1.
    10030    2    1    2    0    0  0.00000000000E+00  0.00000000000E+00  0.10809689569E+04  0.32670940473E+04  0.30830844342E+04 0.  0.
        4    1    3    3  502    0 -0.15870508408E+03 -0.43873015708E+03  0.20974187741E+04  0.21486829877E+04  0.12699999809E+01 0.  1.
       -4    1    3    3    0  502  0.15870508408E+03  0.43873015708E+03 -0.10164498172E+04  0.11184110596E+04  0.12699999809E+01 0. -1.
</event>
<event>
 5   0  0.1885307E-06  0.3107814E+04  0.7818609E-02  0.8213597E-01
       -1   -1    0    0    0  501  0.00000000000E+00  0.00000000000E+00  0.13402152702E+04  0.13402152702E+04  0.50400001928E-02 0.  1.
        1   -1    0    0  501    0  0.00000000000E+00  0.00000000000E+00 -0.18016707416E+04  0.18016707416E+04  0.50400001928E-02 0. -1.
    10030    2    1    2    0    0  0.00000000000E+00  0.00000000000E+00 -0.46145547142E+03  0.31418860118E+04  0.31078137909E+04 0.  0.
        3    1    3    3  502    0 -0.68084001700E+03 -0.43975852320E+03  0.11095885983E+04  0.13740878993E+04  0.10100000352E+00 0.  1.
       -3    1    3    3    0  502  0.68084001700E+03  0.43975852320E+03 -0.15710440697E+04  0.17677981125E+04  0.10100000352E+00 0. -1.
</event>
<event>
 5   0  0.1840431E-06  0.3127143E+04  0.7818609E-02  0.8208328E-01
        1   -1    0    0  501    0  0.00000000000E+00  0.00000000000E+00  0.14043305159E+04  0.14043305159E+04  0.50400001928E-02 0. -1.
       -1   -1    0    0    0  501  0.00000000000E+00  0.00000000000E+00 -0.17408695181E+04  0.17408695181E+04  0.50400001928E-02 0.  1.
    10030    2    1    2    0    0  0.00000000000E+00  0.00000000000E+00 -0.33653900226E+03  0.31452000340E+04  0.31271432257E+04 0.  0.
        1    1    3    3  502    0 -0.29890844693E+03 -0.41733447523E+03 -0.16537002552E+04  0.17315423350E+04  0.50400001928E-02 0.  1.
       -1    1    3    3    0  502  0.29890844693E+03  0.41733447523E+03  0.13171612529E+04  0.14136576990E+04  0.50400001928E-02 0. -1.
</event>
<event>
 5   0  0.1649875E-06  0.2997618E+04  0.7818609E-02  0.8244411E-01
        3   -1    0    0  501    0  0.00000000000E+00  0.00000000000E+00  0.11903045584E+04  0.11903045627E+04  0.10100000352E+00 0. -1.
       -3   -1    0    0    0  501  0.00000000000E+00  0.00000000000E+00 -0.18872725705E+04  0.18872725732E+04  0.10100000352E+00 0.  1.
    10030    2    1    2    0    0  0.00000000000E+00  0.00000000000E+00 -0.69696801214E+03  0.30775771359E+04  0.29976184910E+04 0.  0.
        4    1    3    3  502    0 -0.98500617249E+03  0.64322027107E+03 -0.13019420378E+04  0.17547148371E+04  0.12699999809E+01 0.  1.
       -4    1    3    3    0  502  0.98500617249E+03 -0.64322027107E+03  0.60497402561E+03  0.13228622988E+04  0.12699999809E+01 0. -1.
</event>
<event>
 5   0  0.1885307E-06  0.3046408E+04  0.7818609E-02  0.8230601E-01
       -1   -1    0    0    0  501  0.00000000000E+00  0.00000000000E+00  0.12426924676E+04  0.12426924676E+04  0.50400001928E-02 0.  1.
        1   -1    0    0  501    0  0.00000000000E+00  0.00000000000E+00 -0.18670356853E+04  0.18670356853E+04  0.50400001928E-02 0. -1.
    10030    2    1    2    0    0  0.00000000000E+00  0.00000000000E+00 -0.62434321772E+03  0.31097281529E+04  0.30464084971E+04 0.  0.
        3    1    3    3  502    0 -0.14684275043E+04  0.16156812739E+03 -0.69105694565E+03  0.16309332628E+04  0.10100000352E+00 0. -1.
       -3    1    3    3    0  502  0.14684275043E+04 -0.16156812739E+03  0.66713727927E+02  0.14787948901E+04  0.10100000352E+00 0.  1.
</event>
<event>
 5   0  0.4900679E-06  0.3148001E+04  0.7818609E-02  0.8202687E-01
        2   -1    0    0  501    0  0.00000000000E+00  0.00000000000E+00  0.19882644792E+04  0.19882644792E+04  0.25500000920E-02 0.  1.
       -2   -1    0    0    0  501  0.00000000000E+00  0.00000000000E+00 -0.12460503644E+04  0.12460503644E+04  0.25500000920E-02 0. -1.
    10030    2    1    2    0    0  0.00000000000E+00  0.00000000000E+00  0.74221411477E+03  0.32343148436E+04  0.31480010666E+04 0.  0.
        4    1    3    3  502    0 -0.20889298499E+03 -0.14532260000E+04  0.95409263491E+03  0.17509415910E+04  0.12699999809E+01 0. -1.
       -4    1    3    3    0  502  0.20889298499E+03  0.14532260000E+04 -0.21187852013E+03  0.14833732526E+04  0.12699999809E+01 0.  1.
</event>
<event>
 5   0  0.5328368E-06  0.3195416E+04  0.7818609E-02  0.8190029E-01
       -2   -1    0    0    0  501  0.00000000000E+00  0.00000000000E+00  0.14850662963E+04  0.14850662963E+04  0.25500000920E-02 0.  1.
        2   -1    0    0  501    0  0.00000000000E+00  0.00000000000E+00 -0.17188930272E+04  0.17188930272E+04  0.25500000920E-02 0. -1.
    10030    2    1    2    0    0  0.00000000000E+00  0.00000000000E+00 -0.23382673086E+03  0.32039593235E+04  0.31954155296E+04 0.  0.
        1    1    3    3  502    0 -0.12748715401E+03  0.89005917264E+03  0.12073039486E+04  0.15053375467E+04  0.50400001928E-02 0.  1.
       -1    1    3    3    0  502  0.12748715401E+03 -0.89005917264E+03 -0.14411306795E+04  0.16986217768E+04  0.50400001928E-02 0. -1.
</event>
<event>
 5   0  0.1843709E-06  0.3210502E+04  0.7818609E-02  0.8186049E-01
       -1   -1    0    0    0  501  0.00000000000E+00  0.00000000000E+00  0.25509537404E+04  0.25509537404E+04  0.50400001928E-02 0. -1.
        1   -1    0    0  501    0  0.00000000000E+00  0.00000000000E+00 -0.10101439833E+04  0.10101439833E+04  0.50400001928E-02 0.  1.
    10030    2    1    2    0    0  0.00000000000E+00  0.00000000000E+00  0.15408097571E+04  0.35610977237E+04  0.32105018752E+04 0.  0.
        4    1    3    3  502    0 -0.17739919676E+03  0.15046883114E+04  0.18213869649E+03  0.15260188424E+04  0.12699999809E+01 0. -1.
       -4    1    3    3    0  502  0.17739919676E+03 -0.15046883114E+04  0.13586710606E+04  0.20350788814E+04  0.12699999809E+01 0.  1.
</event>
<event>
 5   0  0.4927533E-06  0.3095341E+04  0.7818609E-02  0.8217018E-01
       -2   -1    0    0    0  501  0.00000000000E+00  0.00000000000E+00  0.97693585722E+03  0.97693585723E+03  0.25500000920E-02 0.  1.
        2   -1    0    0  501    0  0.00000000000E+00  0.00000000000E+00 -0.24518329065E+04  0.24518329065E+04  0.25500000920E-02 0. -1.
    10030    2    1    2    0    0  0.00000000000E+00  0.00000000000E+00 -0.14748970493E+04  0.34287687637E+04  0.30953406806E+04 0.  0.
        5    1    3    3  502    0 -0.55714703586E+03 -0.14248484814E+04 -0.99641657754E+03  0.18257804087E+04  0.46999998093E+01 0.  1.
       -5    1    3    3    0  502  0.55714703586E+03  0.14248484814E+04 -0.47848047171E+03  0.16029883551E+04  0.46999998093E+01 0. -1.
</event>
<event>
 5   0  0.1843709E-06  0.3116966E+04  0.7818609E-02  0.8211097E-01
        1   -1    0    0  501    0  0.00000000000E+00  0.00000000000E+00  0.21545285826E+04  0.21545285826E+04  0.50400001928E-02 0. -1.
       -1   -1    0    0    0  501  0.00000000000E+00  0.00000000000E+00 -0.11273318970E+04  0.11273318970E+04  0.50400001928E-02 0.  1.
    10030    2    1    2    0    0  0.00000000000E+00  0.00000000000E+00  0.10271966856E+04  0.32818604796E+04  0.31169657003E+04 0.  0.
        4    1    3    3  502    0 -0.14627822540E+04  0.53743282537E+03  0.49532458985E+03  0.16352106979E+04  0.12699999809E+01 0.  1.
       -4    1    3    3    0  502  0.14627822540E+04 -0.53743282537E+03  0.53187209579E+03  0.16466497817E+04  0.12699999809E+01 0. -1.
</event>
<event>
 5   0  0.1840431E-06  0.3018236E+04  0.7818609E-02  0.8238543E-01
       -1   -1    0    0    0  501  0.00000000000E+00  0.00000000000E+00  0.13697858259E+04  0.13697858259E+04  0.50400001928E-02 0. -1.
        1   -1    0    0  501    0  0.00000000000E+00  0.00000000000E+00 -0.16626223754E+04  0.16626223754E+04  0.50400001928E-02 0.  1.
    10030    2    1    2    0    0  0.00000000000E+00  0.00000000000E+00 -0.29283654955E+03  0.30324082013E+04  0.30182356195E+04 0.  0.
        1    1    3    3  502    0 -0.14016290497E+04  0.19074379028E+03  0.38187337658E+03  0.14651875178E+04  0.50400001928E-02 0. -1.
       -1    1    3    3    0  502  0.14016290497E+04 -0.19074379028E+03 -0.67470992613E+03  0.15672206835E+04  0.50400001928E-02 0.  1.
</event>
<event>
 5   0  0.1885307E-06  0.3105109E+04  0.7818609E-02  0.8214337E-01
        1   -1    0    0  501    0  0.00000000000E+00  0.00000000000E+00  0.15021554825E+04  0.15021554825E+04  0.50400001928E-02 0.  1.
       -1   -1    0    0    0  501  0.00000000000E+00  0.00000000000E+00 -0.16046448677E+04  0.16046448677E+04  0.50400001928E-02 0. -1.
    10030    2    1    2    0    0  0.00000000000E+00  0.00000000000E+00 -0.10248938521E+03  0.31068003502E+04  0.31051093929E+04 0.  0.
        3    1    3    3  502    0  0.14314010838E+03 -0.14605494698E+04  0.45571874361E+03  0.15366760972E+04  0.10100000352E+00 0. -1.
       -3    1    3    3    0  502 -0.14314010838E+03  0.14605494698E+04 -0.55820812882E+03  0.15701242529E+04  0.10100000352E+00 0.  1.
</event>
<event>
 5   0  0.1885307E-06  0.3103014E+04  0.7818609E-02  0.8214911E-01
        1   -1    0    0  501    0  0.00000000000E+00  0.00000000000E+00  0.20203423483E+04  0.20203423483E+04  0.50400001928E-02 0. -1.
       -1   -1    0    0    0  501  0.00000000000E+00  0.00000000000E+00 -0.11914681686E+04  0.11914681686E+04  0.50400001928E-02 0.  1.
    10030    2    1    2    0    0  0.00000000000E+00  0.00000000000E+00  0.82887417971E+03  0.32118105169E+04  0.31030137593E+04 0.  0.
        3    1    3    3  502    0 -0.15127106315E+04  0.32524244012E+03  0.53289394987E+03  0.16364755029E+04  0.10100000352E+00 0.  1.
       -3    1    3    3    0  502  0.15127106315E+04 -0.32524244012E+03  0.29598022984E+03  0.15753350140E+04  0.10100000352E+00 0. -1.
</event>
<event>
 5   0  0.4927533E-06  0.3125052E+04  0.7818609E-02  0.8208896E-01
       -2   -1    0    0    0  501  0.00000000000E+00  0.00000000000E+00  0.12518847325E+04  0.12518847325E+04  0.25500000920E-02 0.  1.
        2   -1    0    0  501    0  0.00000000000E+00  0.00000000000E+00 -0.19502493729E+04  0.19502493729E+04  0.25500000920E-02 0. -1.
    10030    2    1    2    0    0  0.00000000000E+00  0.00000000000E+00 -0.69836464040E+03  0.32021341053E+04  0.31250519448E+04 0.  0.
        5    1    3    3  502    0  0.25744166976E+03  0.86687119508E+03 -0.16548669929E+04  0.18858283952E+04  0.46999998093E+01 0. -1.
       -5    1    3    3    0  502 -0.25744166976E+03 -0.86687119508E+03  0.95650235246E+03  0.13163057101E+04  0.46999998093E+01 0.  1.
</event>
<event>
 5   0  0.5328368E-06  0.3076742E+04  0.7818609E-02  0.8222150E-01
       -2   -1    0    0    0  501  0.00000000000E+00  0.00000000000E+00  0.10608583703E+04  0.10608583704E+04  0.25500000920E-02 0. -1.
        2   -1    0    0  501    0  0.00000000000E+00  0.00000000000E+00 -0.22308208168E+04  0.22308208168E+04  0.25500000920E-02 0.  1.
    10030    2    1    2    0    0  0.00000000000E+00  0.00000000000E+00 -0.11699624465E+04  0.32916791872E+04  0.30767417417E+04 0.  0.
        1    1    3    3  502    0 -0.68160692532E+03 -0.56199993602E+03  0.76242639161E+03  0.11669301313E+04  0.50400001928E-02 0. -1.
       -1    1    3    3    0  502  0.68160692532E+03  0.56199993602E+03 -0.19323888381E+04  0.21247490558E+04  0.50400001928E-02 0.  1.
</event>
<event>
 5   0  0.1843709E-06  0.3126241E+04  0.7818609E-02  0.8208573E-01
       -1   -1    0    0    0  501  0.00000000000E+00  0.00000000000E+00  0.10671307988E+04  0.10671307988E+04  0.50400001928E-02 0. -1.
        1   -1    0    0  501    0  0.00000000000E+00  0.00000000000E+00 -0.22896402918E+04  0.22896402918E+04  0.50400001928E-02 0.  1.
    10030    2    1    2    0    0  0.00000000000E+00  0.00000000000E+00 -0.12225094930E+04  0.33567710906E+04  0.31262409847E+04 0.  0.
        4    1    3    3  502    0 -0.11702862642E+04 -0.10315805124E+04 -0.50596374829E+03  0.16400393962E+04  0.12699999809E+01 0.  1.
       -4    1    3    3    0  502  0.11702862642E+04  0.10315805124E+04 -0.71654574468E+03  0.17167316944E+04  0.12699999809E+01 0. -1.
</event>
<event>
 5   0  0.1885307E-06  0.2975047E+04  0.7818609E-02  0.8250892E-01
        1   -1    0    0  501    0  0.00000000000E+00  0.00000000000E+00  0.14326119592E+04  0.14326119592E+04  0.50400001928E-02 0. -1.
       -1   -1    0    0    0  501  0.00000000000E+00  0.00000000000E+00 -0.15445402205E+04  0.15445402205E+04  0.50400001928E-02 0.  1.
    10030    2    1    2    0    0  0.00000000000E+00  0.00000000000E+00 -0.11192826126E+03  0.29771521797E+04  0.29750474224E+04 0.  0.
        3    1    3    3  502    0  0.31826429947E+03 -0.52184987595E+02 -0.15091317397E+04  0.15432090122E+04  0.10100000352E+00 0.  1.
       -3    1    3    3    0  502 -0.31826429947E+03  0.52184987595E+02  0.13972034785E+04  0.14339431675E+04  0.10100000352E+00 0. -1.
</event>
<event>
 5   0  0.4927533E-06  0.3086510E+04  0.7818609E-02  0.8219450E-01
       -2   -1    0    0    0  501  0.00000000000E+00  0.00000000000E+00  0.90951366794E+03  0.90951366795E+03  0.25500000920E-02 0.  1.
        2   -1    0    0  501    0  0.00000000000E+00  0.00000000000E+00 -0.26185816258E+04  0.26185816258E+04  0.25500000920E-02 0. -1.
    10030    2    1    2    0    0  0.00000000000E+00  0.00000000000E+00 -0.17090679579E+04  0.35280952938E+04  0.30865098602E+04 0.  0.
        5    1    3    3  502    0 -0.11444288685E+04  0.90269603030E+03 -0.14340557102E+04  0.20447775987E+04  0.46999998093E+01 0. -1.
       -5    1    3    3    0  502  0.11444288685E+04 -0.90269603030E+03 -0.27501224770E+03  0.14833176951E+04  0.46999998093E+01 0.  1.
</event>
<event>
 5   0  0.1853742E-06  0.3104551E+04  0.7818609E-02  0.8214490E-01
       -1   -1    0    0    0  501  0.00000000000E+00  0.00000000000E+00  0.11897108604E+04  0.11897108604E+04  0.50400001928E-02 0. -1.
        1   -1    0    0  501    0  0.00000000000E+00  0.00000000000E+00 -0.20253315033E+04  0.20253315033E+04  0.50400001928E-02 0.  1.
    10030    2    1    2    0    0  0.00000000000E+00  0.00000000000E+00 -0.83562064289E+03  0.32150423637E+04  0.31045507793E+04 0.  0.
        5    1    3    3  502    0 -0.10765916393E+04  0.18313892143E+03 -0.15602251481E+04  0.19044458577E+04  0.46999998093E+01 0.  1.
       -5    1    3    3    0  502  0.10765916393E+04 -0.18313892143E+03  0.72460450519E+03  0.13105965059E+04  0.46999998093E+01 0. -1.
</event>
<event>
 5   0  0.1885307E-06  0.3107339E+04  0.7818609E-02  0.8213727E-01
       -1   -1    0    0    0  501  0.00000000000E+00  0.00000000000E+00  0.17917920436E+04  0.17917920436E+04  0.50400001928E-02 0. -1.
        1   -1    0    0  501    0  0.00000000000E+00  0.00000000000E+00 -0.13471926602E+04  0.13471926602E+04  0.50400001928E-02 0.  1.
    10030    2    1    2    0    0  0.00000000000E+00  0.00000000000E+00  0.44459938340E+03  0.31389847038E+04  0.31073391123E+04 0.  0.
        3    1    3    3  502    0  0.14914222123E+04 -0.43332366740E+03  0.26491298318E+03  0.15755280115E+04  0.10100000352E+00 0. -1.
       -3    1    3    3    0  502 -0.14914222123E+04  0.43332366740E+03  0.17968640022E+03  0.15634566923E+04  0.10100000352E+00 0.  1.
</event>
<event>
 5   0  0.4900679E-06  0.3061388E+04  0.7818609E-02  0.8226415E-01
        2   -1    0    0  501    0  0.00000000000E+00  0.00000000000E+00  0.34859471975E+04  0.34859471975E+04  0.25500000920E-02 0. -1.
       -2   -1    0    0    0  501  0.00000000000E+00  0.00000000000E+00 -0.67213425305E+03  0.67213425305E+03  0.25500000920E-02 0.  1.
    10030    2    1    2    0    0  0.00000000000E+00  0.00000000000E+00  0.28138129445E+04  0.41580814506E+04  0.30613882575E+04 0.  0.
        4    1    3    3  502    0 -0.85877348434E+03  0.22291906279E+03  0.31010756683E+04  0.32255010029E+04  0.12699999809E+01 0. -1.
       -4    1    3    3    0  502  0.85877348434E+03 -0.22291906279E+03 -0.28726272388E+03  0.93258044768E+03  0.12699999809E+01 0.  1.
</event>
<event>
 5   0  0.5114870E-06  0.3120798E+04  0.7818609E-02  0.8210053E-01
        2   -1    0    0  501    0  0.00000000000E+00  0.00000000000E+00  0.15752334625E+04  0.15752334625E+04  0.25500000920E-02 0. -1.
       -2   -1    0    0    0  501  0.00000000000E+00  0.00000000000E+00 -0.15457042602E+04  0.15457042602E+04  0.25500000920E-02 0.  1.
    10030    2    1    2    0    0  0.00000000000E+00  0.00000000000E+00  0.29529202274E+02  0.31209377227E+04  0.31207980221E+04 0.  0.
        2    1    3    3  502    0  0.14936411997E+04 -0.44665373774E+03  0.80960304902E+02  0.15610951815E+04  0.25500000920E-02 0.  1.
       -2    1    3    3    0  502 -0.14936411997E+04  0.44665373774E+03 -0.51431102628E+02  0.15598425411E+04  0.25500000920E-02 0. -1.
</event>
<event>
 5   0  0.1836401E-06  0.3139442E+04  0.7818609E-02  0.8204996E-01
       -1   -1    0    0    0  501  0.00000000000E+00  0.00000000000E+00  0.20332669248E+04  0.20332669248E+04  0.50400001928E-02 0. -1.
        1   -1    0    0  501    0  0.00000000000E+00  0.00000000000E+00 -0.12118549057E+04  0.12118549057E+04  0.50400001928E-02 0.  1.
    10030    2    1    2    0    0  0.00000000000E+00  0.00000000000E+00  0.82141201909E+03  0.32451218306E+04  0.31394423056E+04 0.  0.
        2    1    3    3  502    0 -0.40409629861E+03 -0.54490540194E+02  0.19775688107E+04  0.20191685018E+04  0.25500000920E-02 0. -1.
       -2    1    3    3    0  502  0.40409629861E+03  0.54490540194E+02 -0.11561567916E+04  0.12259533288E+04  0.25500000920E-02 0.  1.
</event>
<event>
 5   0  0.5114870E-06  0.3148932E+04  0.7818609E-02  0.8202436E-01
       -2   -1    0    0    0  501  0.00000000000E+00  0.00000000000E+00  0.94983965192E+03  0.94983965193E+03  0.25500000920E-02 0. -1.
        2   -1    0    0  501    0  0.00000000000E+00  0.00000000000E+00 -0.26098543187E+04  0.26098543187E+04  0.25500000920E-02 0.  1.
    10030    2    1    2    0    0  0.00000000000E+00  0.00000000000E+00 -0.16600146668E+04  0.35596939706E+04  0.31489319571E+04 0.  0.
        2    1    3    3  502    0  0.27252567194E+03 -0.12931014212E+04 -0.17975529696E+04  0.22310486785E+04  0.25500000920E-02 0.  1.
       -2    1    3    3    0  502 -0.27252567194E+03  0.12931014212E+04  0.13753830282E+03  0.13286452921E+04  0.25500000920E-02 0. -1.
</event>
<event>
 5   0  0.1836401E-06  0.3112140E+04  0.7818609E-02  0.8212414E-01
        1   -1    0    0  501    0  0.00000000000E+00  0.00000000000E+00  0.10194830792E+04  0.10194830792E+04  0.50400001928E-02 0.  1.
       -1   -1    0    0    0  501  0.00000000000E+00  0.00000000000E+00 -0.23750799816E+04  0.23750799816E+04  0.50400001928E-02 0. -1.
    10030    2    1    2    0    0  0.00000000000E+00  0.00000000000E+00 -0.13555969024E+04  0.33945630608E+04  0.31121400052E+04 0.  0.
        2    1    3    3  502    0  0.11435456949E+04  0.48000363546E+03  0.34730445429E+03  0.12879132852E+04  0.25500000920E-02 0.  1.
       -2    1    3    3    0  502 -0.11435456949E+04 -0.48000363546E+03 -0.17029013567E+04  0.21066497756E+04  0.25500000920E-02 0. -1.
</event>
<event>
 5   0  0.1840431E-06  0.2963207E+04  0.7818609E-02  0.8254316E-01
        1   -1    0    0  501    0  0.00000000000E+00  0.00000000000E+00  0.81731855815E+03  0.81731855817E+03  0.50400001928E-02 0. -1.
       -1   -1    0    0    0  501  0.00000000000E+00  0.00000000000E+00 -0.26857943622E+04  0.26857943622E+04  0.50400001928E-02 0.  1.
    10030    2    1    2    0    0  0.00000000000E+00  0.00000000000E+00 -0.18684758040E+04  0.35031129203E+04  0.29632074349E+04 0.  0.
        1    1    3    3  502    0  0.17603246537E+03  0.91442997793E+03 -0.22965852261E+04  0.24781996115E+04  0.50400001928E-02 0.  1.
       -1    1    3    3    0  502 -0.17603246537E+03 -0.91442997793E+03  0.42810942211E+03  0.10249133089E+04  0.50400001928E-02 0. -1.
</event>
<event>
 5   0  0.5114870E-06  0.3411020E+04  0.7818609E-02  0.8135207E-01
        2   -1    0    0  501    0  0.00000000000E+00  0.00000000000E+00  0.23655497011E+04  0.23655497011E+04  0.25500000920E-02 0.  1.
       -2   -1    0    0    0  501  0.00000000000E+00  0.00000000000E+00 -0.12296358058E+04  0.12296358058E+04  0.25500000920E-02 0. -1.
    10030    2    1    2    0    0  0.00000000000E+00  0.00000000000E+00  0.11359138954E+04  0.35951855069E+04  0.34110201482E+04 0.  0.
        2    1    3    3  502    0 -0.16880461431E+04  0.21750509867E+03  0.45270810409E+03  0.17611793994E+04  0.25500000920E-02 0. -1.
       -2    1    3    3    0  502  0.16880461431E+04 -0.21750509867E+03  0.68320579127E+03  0.18340061075E+04  0.25500000920E-02 0.  1.
</event>
<event>
 5   0  0.4900679E-06  0.3249759E+04  0.7818609E-02  0.8175798E-01
        2   -1    0    0  501    0  0.00000000000E+00  0.00000000000E+00  0.18522044358E+04  0.18522044358E+04  0.25500000920E-02 0.  1.
       -2   -1    0    0    0  501  0.00000000000E+00  0.00000000000E+00 -0.14254542122E+04  0.14254542122E+04  0.25500000920E-02 0. -1.
    10030    2    1    2    0    0  0.00000000000E+00  0.00000000000E+00  0.42675022362E+03  0.32776586480E+04  0.32497585233E+04 0.  0.
        4    1    3    3  502    0 -0.57221843221E+03 -0.11859229470E+04 -0.74684037324E+03  0.15138095410E+04  0.12699999809E+01 0.  1.
       -4    1    3    3    0  502  0.57221843221E+03  0.11859229470E+04  0.11735905969E+04  0.17638491070E+04  0.12699999809E+01 0. -1.
</event>
<event>
 5   0  0.5328368E-06  0.3125566E+04  0.7818609E-02  0.8208756E-01
        2   -1    0    0  501    0  0.00000000000E+00  0.00000000000E+00  0.21562018186E+04  0.21562018186E+04  0.25500000920E-02 0. -1.
       -2   -1    0    0    0  501  0.00000000000E+00  0.00000000000E+00 -0.11326820487E+04  0.11326820487E+04  0.25500000920E-02 0.  1.
    10030    2    1    2    0    0  0.00000000000E+00  0.00000000000E+00  0.10235197699E+04  0.32888838672E+04  0.31255662483E+04 0.  0.
        1    1    3    3  502    0 -0.14030070220E+04 -0.65649720321E+03  0.72963913797E+03  0.17122472232E+04  0.50400001928E-02 0.  1.
       -1    1    3    3    0  502  0.14030070220E+04  0.65649720321E+03  0.29388063196E+03  0.15766366441E+04  0.50400001928E-02 0. -1.
</event>
<event>
 5   0  0.5328368E-06  0.3090556E+04  0.7818609E-02  0.8218335E-01
        2   -1    0    0  501    0  0.00000000000E+00  0.00000000000E+00  0.23501840995E+04  0.23501840995E+04  0.25500000920E-02 0.  1.
       -2   -1    0    0    0  501  0.00000000000E+00  0.00000000000E+00 -0.10160412607E+04  0.10160412607E+04  0.25500000920E-02 0. -1.
    10030    2    1    2    0    0  0.00000000000E+00  0.00000000000E+00  0.13341428387E+04  0.33662253602E+04  0.30905559470E+04 0.  0.
        1    1    3    3  502    0 -0.51548334723E+03  0.45029964865E+03 -0.84192539474E+03  0.10850489506E+04  0.50400001928E-02 0. -1.
       -1    1    3    3    0  502  0.51548334723E+03 -0.45029964865E+03  0.21760682335E+04  0.22811764096E+04  0.50400001928E-02 0.  1.
</event>
<event>
 5   0  0.1836401E-06  0.2695642E+04  0.7818609E-02  0.8336420E-01
       -1   -1    0    0    0  501  0.00000000000E+00  0.00000000000E+00  0.77402079375E+03  0.77402079377E+03  0.50400001928E-02 0.  1.
        1   -1    0    0  501    0  0.00000000000E+00  0.00000000000E+00 -0.23469935733E+04  0.23469935733E+04  0.50400001928E-02 0. -1.
    10030    2    1    2    0    0  0.00000000000E+00  0.00000000000E+00 -0.15729727795E+04  0.31210143670E+04  0.26956422823E+04 0.  0.
        2    1    3    3  502    0  0.20424104022E+03 -0.89820787083E+03 -0.19256873898E+04  0.21346577489E+04  0.25500000920E-02 0. -1.
       -2    1    3    3    0  502 -0.20424104022E+03  0.89820787083E+03  0.35271461032E+03  0.98635661810E+03  0.25500000920E-02 0.  1.
</event>
<event>
 5   0  0.1836401E-06  0.3095073E+04  0.7818609E-02  0.8217091E-01
        1   -1    0    0  501    0  0.00000000000E+00  0.00000000000E+00  0.21178066876E+04  0.21178066876E+04  0.50400001928E-02 0.  1.
       -1   -1    0    0    0  501  0.00000000000E+00  0.00000000000E+00 -0.11308250408E+04  0.11308250408E+04  0.50400001928E-02 0. -1.
    10030    2    1    2    0    0  0.00000000000E+00  0.00000000000E+00  0.98698164685E+03  0.32486317285E+04  0.30950727513E+04 0.  0.
        2    1    3    3  502    0 -0.13537596449E+04  0.72502733101E+03  0.69412647652E+03  0.16852718986E+04  0.25500000920E-02 0. -1.
       -2    1    3    3    0  502  0.13537596449E+04 -0.72502733101E+03  0.29285517032E+03  0.15633598299E+04  0.25500000920E-02 0.  1.
</event>
<event>
 5   0  0.5328368E-06  0.3075945E+04  0.7818609E-02  0.8222371E-01
        2   -1    0    0  501    0  0.00000000000E+00  0.00000000000E+00  0.15045565689E+04  0.15045565689E+04  0.25500000920E-02 0.  1.
       -2   -1    0    0    0  501  0.00000000000E+00  0.00000000000E+00 -0.15721310017E+04  0.15721310017E+04  0.25500000920E-02 0. -1.
    10030    2    1    2    0    0  0.00000000000E+00  0.00000000000E+00 -0.67574432791E+02  0.30766875706E+04  0.30759453998E+04 0.  0.
        1    1    3    3  502    0 -0.92473200996E+03 -0.38888579331E+03 -0.11998294363E+04  0.15639540040E+04  0.50400001928E-02 0. -1.
       -1    1    3    3    0  502  0.92473200996E+03  0.38888579331E+03  0.11322550035E+04  0.15127335666E+04  0.50400001928E-02 0.  1.
</event>
<event>
 5   0  0.4927533E-06  0.3001089E+04  0.7818609E-02  0.8243420E-01
       -2   -1    0    0    0  501  0.00000000000E+00  0.00000000000E+00  0.29996384954E+04  0.29996384954E+04  0.25500000920E-02 0.  1.
        2   -1    0    0  501    0  0.00000000000E+00  0.00000000000E+00 -0.75063483187E+03  0.75063483188E+03  0.25500000920E-02 0. -1.
    10030    2    1    2    0    0  0.00000000000E+00  0.00000000000E+00  0.22490036636E+04  0.37502733273E+04  0.30010885610E+04 0.  0.
        5    1    3    3  502    0  0.14075001425E+04  0.33682401103E+03  0.16198125277E+04  0.21721698323E+04  0.46999998093E+01 0. -1.
       -5    1    3    3    0  502 -0.14075001425E+04 -0.33682401103E+03  0.62919113590E+03  0.15781034950E+04  0.46999998093E+01 0.  1.
</event>
<event>
 5   0  0.4900679E-06  0.3302531E+04  0.7818609E-02  0.8162252E-01
        2   -1    0    0  501    0  0.00000000000E+00  0.00000000000E+00  0.29650385059E+04  0.29650385059E+04  0.25500000920E-02 0. -1.
       -2   -1    0    0    0  501  0.00000000000E+00  0.00000000000E+00 -0.91960942307E+03  0.91960942307E+03  0.25500000920E-02 0.  1.
    10030    2    1    2    0    0  0.00000000000E+00  0.00000000000E+00  0.20454290829E+04  0.38846479290E+04  0.33025307568E+04 0.  0.
        4    1    3    3  502    0 -0.60446307278E+03  0.10178093780E+04 -0.33145303534E+03  0.12292982810E+04  0.12699999809E+01 0.  1.
       -4    1    3    3    0  502  0.60446307278E+03 -0.10178093780E+04  0.23768821182E+04  0.26553496480E+04  0.12699999809E+01 0. -1.
</event>
<event>
 5   0  0.1840431E-06  0.3100680E+04  0.7818609E-02  0.8215551E-01
        1   -1    0    0  501    0  0.00000000000E+00  0.00000000000E+00  0.27355910655E+04  0.27355910655E+04  0.50400001928E-02 0.  1.
       -1   -1    0    0    0  501  0.00000000000E+00  0.00000000000E+00 -0.87862304738E+03  0.87862304739E+03  0.50400001928E-02 0. -1.
    10030    2    1    2    0    0  0.00000000000E+00  0.00000000000E+00  0.18569680182E+04  0.36142141129E+04  0.31006795116E+04 0.  0.
        1    1    3    3  502    0 -0.13104206010E+04 -0.52499532621E+03  0.18145786804E+03  0.14232881655E+04  0.50400001928E-02 0. -1.
       -1    1    3    3    0  502  0.13104206010E+04  0.52499532621E+03  0.16755101501E+04  0.21909259475E+04  0.50400001928E-02 0.  1.
</event>
<event>
 5   0  0.5001658E-06  0.3064551E+04  0.7818609E-02  0.8225534E-01
       -2   -1    0    0    0  501  0.00000000000E+00  0.00000000000E+00  0.10336883856E+04  0.10336883856E+04  0.25500000920E-02 0.  1.
        2   -1    0    0  501    0  0.00000000000E+00  0.00000000000E+00 -0.22713499797E+04  0.22713499797E+04  0.25500000920E-02 0. -1.
    10030    2    1    2    0    0  0.00000000000E+00  0.00000000000E+00 -0.12376615941E+04  0.33050383654E+04  0.30645509255E+04 0.  0.
        3    1    3    3  502    0  0.61100386314E+03 -0.12518889339E+04  0.69465832348E+02  0.13947677712E+04  0.10100000352E+00 0.  1.
       -3    1    3    3    0  502 -0.61100386314E+03  0.12518889339E+04 -0.13071274265E+04  0.19102705941E+04  0.10100000352E+00 0. -1.
</event>
<event>
 5   0  0.5328368E-06  0.2802957E+04  0.7818609E-02  0.8302351E-01
       -2   -1    0    0    0  501  0.00000000000E+00  0.00000000000E+00  0.12540758099E+04  0.12540758099E+04  0.25500000920E-02 0.  1.
        2   -1    0    0  501    0  0.00000000000E+00  0.00000000000E+00 -0.15662069288E+04  0.15662069288E+04  0.25500000920E-02 0. -1.
    10030    2    1    2    0    0  0.00000000000E+00  0.00000000000E+00 -0.31213111896E+03  0.28202827387E+04  0.28029571690E+04 0.  0.
        1    1    3    3  502    0 -0.88844520270E+03 -0.16964566603E+03  0.92107838400E+03  0.12909298663E+04  0.50400001928E-02 0.  1.
       -1    1    3    3    0  502  0.88844520270E+03  0.16964566603E+03 -0.12332095030E+04  0.15293528724E+04  0.50400001928E-02 0. -1.
</event>
<event>
 5   0  0.1843709E-06  0.3123120E+04  0.7818609E-02  0.8209421E-01
        1   -1    0    0  501    0  0.00000000000E+00  0.00000000000E+00  0.12798216299E+04  0.12798216299E+04  0.50400001928E-02 0. -1.
       -1   -1    0    0    0  501  0.00000000000E+00  0.00000000000E+00 -0.19053204014E+04  0.19053204015E+04  0.50400001928E-02 0.  1.
    10030    2    1    2    0    0  0.00000000000E+00  0.00000000000E+00 -0.62549877158E+03  0.31851420313E+04  0.31231204022E+04 0.  0.
        4    1    3    3  502    0 -0.75095574714E+03 -0.20967314952E+03  0.10671054453E+04  0.13215948729E+04  0.12699999809E+01 0. -1.
       -4    1    3    3    0  502  0.75095574714E+03  0.20967314952E+03 -0.16926042169E+04  0.18635471584E+04  0.12699999809E+01 0.  1.
</event>
<event>
 5   0  0.5001658E-06  0.2956117E+04  0.7818609E-02  0.8256374E-01
        2   -1    0    0  501    0  0.00000000000E+00  0.00000000000E+00  0.25587623530E+04  0.25587623530E+04  0.25500000920E-02 0. -1.
       -2   -1    0    0    0  501  0.00000000000E+00  0.00000000000E+00 -0.85379435488E+03  0.85379435488E+03  0.25500000920E-02 0.  1.
    10030    2    1    2    0    0  0.00000000000E+00  0.00000000000E+00  0.17049679981E+04  0.34125567079E+04  0.29561169480E+04 0.  0.
        3    1    3    3  502    0  0.73568414831E+03  0.30300597949E+03 -0.58548650500E+03  0.98784525480E+03  0.10100000352E+00 0.  1.
       -3    1    3    3    0  502 -0.73568414831E+03 -0.30300597949E+03  0.22904545031E+04  0.24247114531E+04  0.10100000352E+00 0. -1.
</event>
<event>
 5   0  0.5328368E-06  0.3151652E+04  0.7818609E-02  0.8201704E-01
        2   -1    0    0  501    0  0.00000000000E+00  0.00000000000E+00  0.18237661820E+04  0.18237661820E+04  0.25500000920E-02 0.  1.
       -2   -1    0    0    0  501  0.00000000000E+00  0.00000000000E+00 -0.13615934992E+04  0.13615934993E+04  0.25500000920E-02 0. -1.
    10030    2    1    2    0    0  0.00000000000E+00  0.00000000000E+00  0.46217268271E+03  0.31853596812E+04  0.31516523777E+04 0.  0.
        1    1    3    3  502    0 -0.40115677437E+03  0.72991579793E+03 -0.11209518987E+04  0.13965088574E+04  0.50400001928E-02 0. -1.
       -1    1    3    3    0  502  0.40115677437E+03 -0.72991579793E+03  0.15831245814E+04  0.17888508238E+04  0.50400001928E-02 0.  1.
</event>
<event>
 5   0  0.1836401E-06  0.3099414E+04  0.7818609E-02  0.8215899E-01
        1   -1    0    0  501    0  0.00000000000E+00  0.00000000000E+00  0.22816172812E+04  0.22816172812E+04  0.50400001928E-02 0. -1.
       -1   -1    0    0    0  501  0.00000000000E+00  0.00000000000E+00 -0.10525833233E+04  0.10525833233E+04  0.50400001928E-02 0.  1.
    10030    2    1    2    0    0  0.00000000000E+00  0.00000000000E+00  0.12290339579E+04  0.33342006045E+04  0.30994143320E+04 0.  0.
        2    1    3    3  502    0 -0.91736169333E+03  0.21768832367E+03 -0.70854913660E+03  0.11793992376E+04  0.25500000920E-02 0.  1.
       -2    1    3    3    0  502  0.91736169333E+03 -0.21768832367E+03  0.19375830945E+04  0.21548013669E+04  0.25500000920E-02 0. -1.
</event>
<event>
 5   0  0.4927533E-06  0.2683132E+04  0.7818609E-02  0.8340499E-01
       -2   -1    0    0    0  501  0.00000000000E+00  0.00000000000E+00  0.86109202872E+03  0.86109202873E+03  0.25500000920E-02 0. -1.
        2   -1    0    0  501    0  0.00000000000E+00  0.00000000000E+00 -0.20901361976E+04  0.20901361976E+04  0.25500000920E-02 0.  1.
    10030    2    1    2    0    0  0.00000000000E+00  0.00000000000E+00 -0.12290441689E+04  0.29512282263E+04  0.26831322134E+04 0.  0.
        5    1    3    3  502    0 -0.65596712253E+03  0.17665371148E+02 -0.19015554974E+04  0.20116014344E+04  0.46999998093E+01 0.  1.
       -5    1    3    3    0  502  0.65596712253E+03 -0.17665371148E+02  0.67251132850E+03  0.93962679195E+03  0.46999998093E+01 0. -1.
</event>
<event>
 5   0  0.1840431E-06  0.3013571E+04  0.7818609E-02  0.8239866E-01
       -1   -1    0    0    0  501  0.00000000000E+00  0.00000000000E+00  0.16375272935E+04  0.16375272935E+04  0.50400001928E-02 0. -1.
        1   -1    0    0  501    0  0.00000000000E+00  0.00000000000E+00 -0.13864819437E+04  0.13864819437E+04  0.50400001928E-02 0.  1.
    10030    2    1    2    0    0  0.00000000000E+00  0.00000000000E+00  0.25104534984E+03  0.30240092372E+04  0.30135706560E+04 0.  0.
        1    1    3    3  502    0 -0.45640115572E+03  0.13172640502E+04 -0.44822302788E+03  0.14643737487E+04  0.50400001928E-02 0.  1.
       -1    1    3    3    0  502  0.45640115572E+03 -0.13172640502E+04  0.69926837772E+03  0.15596354885E+04  0.50400001928E-02 0. -1.
</event>
<event>
 5   0  0.5328368E-06  0.3175204E+04  0.7818609E-02  0.8195397E-01
        2   -1    0    0  501    0  0.00000000000E+00  0.00000000000E+00  0.18686690177E+04  0.18686690177E+04  0.25500000920E-02 0. -1.
       -2   -1    0    0    0  501  0.00000000000E+00  0.00000000000E+00 -0.13488104392E+04  0.13488104392E+04  0.25500000920E-02 0.  1.
    10030    2    1    2    0    0  0.00000000000E+00  0.00000000000E+00  0.51985857848E+03  0.32174794569E+04  0.31752041059E+04 0.  0.
        1    1    3    3  502    0  0.21244641382E+03 -0.55421965779E+03 -0.12321521926E+04  0.13676592900E+04  0.50400001928E-02 0.  1.
       -1    1    3    3    0  502 -0.21244641382E+03  0.55421965779E+03  0.17520107711E+04  0.18498201669E+04  0.50400001928E-02 0. -1.
</event>
<event>
 5   0  0.5114870E-06  0.3123800E+04  0.7818609E-02  0.8209236E-01
       -2   -1    0    0    0  501  0.00000000000E+00  0.00000000000E+00  0.24802594099E+04  0.24802594099E+04  0.25500000920E-02 0.  1.
        2   -1    0    0  501    0  0.00000000000E+00  0.00000000000E+00 -0.98357932662E+03  0.98357932663E+03  0.25500000920E-02 0. -1.
    10030    2    1    2    0    0  0.00000000000E+00  0.00000000000E+00  0.14966800833E+04  0.34638387365E+04  0.31238001730E+04 0.  0.
        2    1    3    3  502    0 -0.14382830342E+04  0.31027901264E+03  0.16727431182E+03  0.14808483540E+04  0.25500000920E-02 0. -1.
       -2    1    3    3    0  502  0.14382830342E+04 -0.31027901264E+03  0.13294057715E+04  0.19829903826E+04  0.25500000920E-02 0.  1.
</event>
<event>
 5   0  0.1649875E-06  0.2857906E+04  0.7818609E-02  0.8285513E-01
       -3   -1    0    0    0  501  0.00000000000E+00  0.00000000000E+00  0.17265113156E+04  0.17265113186E+04  0.10100000352E+00 0. -1.
        3   -1    0    0  501    0  0.00000000000E+00  0.00000000000E+00 -0.11826781293E+04  0.11826781336E+04  0.10100000352E+00 0.  1.
    10030    2    1    2    0    0  0.00000000000E+00  0.00000000000E+00  0.54383318633E+03  0.29091894522E+04  0.28579063550E+04 0.  0.
        4    1    3    3  502    0  0.74795963083E+03 -0.48678380995E+03  0.14079640751E+04  0.16669632679E+04  0.12699999809E+01 0. -1.
       -4    1    3    3    0  502 -0.74795963083E+03  0.48678380995E+03 -0.86413088878E+03  0.12422261842E+04  0.12699999809E+01 0.  1.
</event>
<event>
 5   0  0.1885307E-06  0.3104798E+04  0.7818609E-02  0.8214422E-01
       -1   -1    0    0    0  501  0.00000000000E+00  0.00000000000E+00  0.20643028836E+04  0.20643028836E+04  0.50400001928E-02 0. -1.
        1   -1    0    0  501    0  0.00000000000E+00  0.00000000000E+00 -0.11674369291E+04  0.11674369291E+04  0.50400001928E-02 0.  1.
    10030    2    1    2    0    0  0.00000000000E+00  0.00000000000E+00  0.89686595449E+03  0.32317398127E+04  0.31047984921E+04 0.  0.
        3    1    3    3  502    0 -0.45044506449E+03  0.43151484809E+03 -0.10312499925E+04  0.12052312548E+04  0.10100000352E+00 0.  1.
       -3    1    3    3    0  502  0.45044506449E+03 -0.43151484809E+03  0.19281159470E+04  0.20265085580E+04  0.10100000352E+00 0. -1.
</event>
<event>
 5   0  0.5001658E-06  0.3012059E+04  0.7818609E-02  0.8240296E-01
       -2   -1    0    0    0  501  0.00000000000E+00  0.00000000000E+00  0.14679150116E+04  0.14679150116E+04  0.25500000920E-02 0. -1.
        2   -1    0    0  501    0  0.00000000000E+00  0.00000000000E+00 -0.15451333831E+04  0.15451333831E+04  0.25500000920E-02 0.  1.
    10030    2    1    2    0    0  0.00000000000E+00  0.00000000000E+00 -0.77218371457E+02  0.30130483948E+04  0.30120587564E+04 0.  0.
        3    1    3    3  502    0  0.33078380724E+02 -0.11970158628E+03  0.14627842876E+04  0.14680465018E+04  0.10100000352E+00 0. -1.
       -3    1    3    3    0  502 -0.33078380724E+02  0.11970158628E+03 -0.15400026591E+04  0.15450018930E+04  0.10100000352E+00 0.  1.
</event>
<event>
 5   0  0.4927533E-06  0.3115816E+04  0.7818609E-02  0.8211411E-01
        2   -1    0    0  501    0  0.00000000000E+00  0.00000000000E+00  0.17612719390E+04  0.17612719390E+04  0.25500000920E-02 0.  1.
       -2   -1    0    0    0  501  0.00000000000E+00  0.00000000000E+00 -0.13780253861E+04  0.13780253861E+04  0.25500000920E-02 0. -1.
    10030    2    1    2    0    0  0.00000000000E+00  0.00000000000E+00  0.38324655290E+03  0.31392973251E+04  0.31158160689E+04 0.  0.
        5    1    3    3  502    0  0.45348964331E+03 -0.13524850357E+04  0.82259091004E+03  0.16466774195E+04  0.46999998093E+01 0.  1.
       -5    1    3    3    0  502 -0.45348964331E+03  0.13524850357E+04 -0.43934435714E+03  0.14926199056E+04  0.46999998093E+01 0. -1.
</event>
<event>
 5   0  0.1649875E-06  0.3254612E+04  0.7818609E-02  0.8174541E-01
        3   -1    0    0  501    0  0.00000000000E+00  0.00000000000E+00  0.26716833826E+04  0.26716833845E+04  0.10100000352E+00 0.  1.
       -3   -1    0    0    0  501  0.00000000000E+00  0.00000000000E+00 -0.99118233390E+03  0.99118233905E+03  0.10100000352E+00 0. -1.
    10030    2    1    2    0    0  0.00000000000E+00  0.00000000000E+00  0.16805010487E+04  0.36628657235E+04  0.32546123477E+04 0.  0.
        4    1    3    3  502    0 -0.10134191245E+04  0.58936079527E+03 -0.42992989836E+03  0.12486816245E+04  0.12699999809E+01 0. -1.
       -4    1    3    3    0  502  0.10134191245E+04 -0.58936079527E+03  0.21104309470E+04  0.24141840990E+04  0.12699999809E+01 0.  1.
</event>
<event>
 5   0  0.5328368E-06  0.3119211E+04  0.7818609E-02  0.8210485E-01
        2   -1    0    0  501    0  0.00000000000E+00  0.00000000000E+00  0.23572142372E+04  0.23572142372E+04  0.25500000920E-02 0.  1.
       -2   -1    0    0    0  501  0.00000000000E+00  0.00000000000E+00 -0.10318827393E+04  0.10318827393E+04  0.25500000920E-02 0. -1.
    10030    2    1    2    0    0  0.00000000000E+00  0.00000000000E+00  0.13253314979E+04  0.33890969766E+04  0.31192105952E+04 0.  0.
        1    1    3    3  502    0  0.60631529280E+03  0.13501939796E+04  0.12846858141E+03  0.14856467256E+04  0.50400001928E-02 0. -1.
       -1    1    3    3    0  502 -0.60631529280E+03 -0.13501939796E+04  0.11968629165E+04  0.19034502509E+04  0.50400001928E-02 0.  1.
</event>
<event>
 5   0  0.1840431E-06  0.3042442E+04  0.7818609E-02  0.8231714E-01
        1   -1    0    0  501    0  0.00000000000E+00  0.00000000000E+00  0.25472122425E+04  0.25472122425E+04  0.50400001928E-02 0. -1.
       -1   -1    0    0    0  501  0.00000000000E+00  0.00000000000E+00 -0.90848848074E+03  0.90848848076E+03  0.50400001928E-02 0.  1.
    10030    2    1    2    0    0  0.00000000000E+00  0.00000000000E+00  0.16387237618E+04  0.34557007233E+04  0.30424417696E+04 0.  0.
        1    1    3    3  502    0  0.73286631476E+03 -0.10660486072E+04 -0.89700869557E+02  0.12967647876E+04  0.50400001928E-02 0.  1.
       -1    1    3    3    0  502 -0.73286631476E+03  0.10660486072E+04  0.17284246313E+04  0.21589359357E+04  0.50400001928E-02 0. -1.
</event>
<event>
 5   0  0.5001658E-06  0.3151053E+04  0.7818609E-02  0.8201865E-01
        2   -1    0    0  501    0  0.00000000000E+00  0.00000000000E+00  0.15518051118E+04  0.15518051118E+04  0.25500000920E-02 0. -1.
       -2   -1    0    0    0  501  0.00000000000E+00  0.00000000000E+00 -0.15996102353E+04  0.15996102353E+04  0.25500000920E-02 0.  1.
    10030    2    1    2    0    0  0.00000000000E+00  0.00000000000E+00 -0.47805123520E+02  0.31514153471E+04  0.31510527384E+04 0.  0.
        3    1    3    3  502    0 -0.95978588119E+03 -0.31663021677E+02 -0.12730826618E+04  0.15946570034E+04  0.10100000352E+00 0.  1.
       -3    1    3    3    0  502  0.95978588119E+03  0.31663021677E+02  0.12252775383E+04  0.15567583437E+04  0.10100000352E+00 0. -1.
</event>
<event>
 5   0  0.4900679E-06  0.3091490E+04  0.7818609E-02  0.8218077E-01
        2   -1    0    0  501    0  0.00000000000E+00  0.00000000000E+00  0.19847511898E+04  0.19847511898E+04  0.25500000920E-02 0.  1.
       -2   -1    0    0    0  501  0.00000000000E+00  0.00000000000E+00 -0.12038427044E+04  0.12038427044E+04  0.25500000920E-02 0. -1.
    10030    2    1    2    0    0  0.00000000000E+00  0.00000000000E+00  0.78090848536E+03  0.31885938942E+04  0.30914904107E+04 0.  0.
        4    1    3    3  502    0  0.46860778346E+03  0.14606379540E+04  0.19402510045E+03  0.15461901047E+04  0.12699999809E+01 0.  1.
       -4    1    3    3    0  502 -0.46860778346E+03 -0.14606379540E+04  0.58688338491E+03  0.16424037895E+04  0.12699999809E+01 0. -1.
</event>
<event>
 5   0  0.5114870E-06  0.3102543E+04  0.7818609E-02  0.8215040E-01
       -2   -1    0    0    0  501  0.00000000000E+00  0.00000000000E+00  0.16963903767E+04  0.16963903767E+04  0.25500000920E-02 0. -1.
        2   -1    0    0  501    0  0.00000000000E+00  0.00000000000E+00 -0.14185671939E+04  0.14185671939E+04  0.25500000920E-02 0.  1.
    10030    2    1    2    0    0  0.00000000000E+00  0.00000000000E+00  0.27782318281E+03  0.31149575706E+04  0.31025433028E+04 0.  0.
        2    1    3    3  502    0  0.15325966073E+04 -0.98468339425E+02 -0.80814187287E+02  0.15378814348E+04  0.25500000920E-02 0. -1.
       -2    1    3    3    0  502 -0.15325966073E+04  0.98468339425E+02  0.35863737010E+03  0.15770761357E+04  0.25500000920E-02 0.  1.
</event>
<event>
 5   0  0.5114870E-06  0.3158139E+04  0.7818609E-02  0.8199961E-01
        2   -1    0    0  501    0  0.00000000000E+00  0.00000000000E+00  0.21645443799E+04  0.21645443799E+04  0.25500000920E-02 0. -1.
       -2   -1    0    0    0  501  0.00000000000E+00  0.00000000000E+00 -0.11519564641E+04  0.11519564641E+04  0.25500000920E-02 0.  1.
    10030    2    1    2    0    0  0.00000000000E+00  0.00000000000E+00  0.10125879158E+04  0.33165008440E+04  0.31581392561E+04 0.  0.
        2    1    3    3  502    0 -0.35608958811E+03 -0.95042313733E+03  0.17766456611E+04  0.20461118591E+04  0.25500000920E-02 0. -1.
       -2    1    3    3    0  502  0.35608958811E+03  0.95042313733E+03 -0.76405774533E+03  0.12703889849E+04  0.25500000920E-02 0.  1.
</event>
<event>
 5   0  0.5328368E-06  0.3097842E+04  0.7818609E-02  0.8216330E-01
        2   -1    0    0  501    0  0.00000000000E+00  0.00000000000E+00  0.21599465945E+04  0.21599465945E+04  0.25500000920E-02 0.  1.
       -2   -1    0    0    0  501  0.00000000000E+00  0.00000000000E+00 -0.11107481499E+04  0.11107481500E+04  0.25500000920E-02 0. -1.
    10030    2    1    2    0    0  0.00000000000E+00  0.00000000000E+00  0.10491984446E+04  0.32706947445E+04  0.30978422709E+04 0.  0.
        1    1    3    3  502    0 -0.12098632298E+04 -0.82866859554E+03  0.10511195202E+04  0.18042485754E+04  0.50400001928E-02 0. -1.
       -1    1    3    3    0  502  0.12098632298E+04  0.82866859554E+03 -0.19210755953E+01  0.14664461691E+04  0.50400001928E-02 0.  1.
</event>
<event>
 5   0  0.1649875E-06  0.3088131E+04  0.7818609E-02  0.8219003E-01
       -3   -1    0    0    0  501  0.00000000000E+00  0.00000000000E+00  0.23962745426E+04  0.23962745448E+04  0.10100000352E+00 0. -1.
        3   -1    0    0  501    0  0.00000000000E+00  0.00000000000E+00 -0.99493517293E+03  0.99493517805E+03  0.10100000352E+00 0.  1.
    10030    2    1    2    0    0  0.00000000000E+00  0.00000000000E+00  0.14013393697E+04  0.33912097228E+04  0.30881307218E+04 0.  0.
        4    1    3    3  502    0  0.14458161889E+04 -0.51731725397E+03  0.87819781198E+03  0.17689642742E+04  0.12699999809E+01 0.  1.
       -4    1    3    3    0  502 -0.14458161889E+04  0.51731725397E+03  0.52314155773E+03  0.16222454487E+04  0.12699999809E+01 0. -1.
</event>
<event>
 5   0  0.1840431E-06  0.3105539E+04  0.7818609E-02  0.8214219E-01
        1   -1    0    0  501    0  0.00000000000E+00  0.00000000000E+00  0.18460898799E+04  0.18460898799E+04  0.50400001928E-02 0.  1.
       -1   -1    0    0    0  501  0.00000000000E+00  0.00000000000E+00 -0.13060539656E+04  0.13060539656E+04  0.50400001928E-02 0. -1.
    10030    2    1    2    0    0  0.00000000000E+00  0.00000000000E+00  0.54003591431E+03  0.31521438455E+04  0.31055389281E+04 0.  0.
        1    1    3    3  502    0 -0.10190417911E+04 -0.97359260910E+02 -0.91505133150E+03  0.13730418555E+04  0.50400001928E-02 0. -1.
       -1    1    3    3    0  502  0.10190417911E+04  0.97359260910E+02  0.14550872458E+04  0.17791019900E+04  0.50400001928E-02 0.  1.
</event>
<event>
 5   0  0.5328368E-06  0.3054537E+04  0.7818609E-02  0.8228327E-01
        2   -1    0    0  501    0  0.00000000000E+00  0.00000000000E+00  0.26435800836E+04  0.26435800836E+04  0.25500000920E-02 0.  1.
       -2   -1    0    0    0  501  0.00000000000E+00  0.00000000000E+00 -0.88234468342E+03  0.88234468342E+03  0.25500000920E-02 0. -1.
    10030    2    1    2    0    0  0.00000000000E+00  0.00000000000E+00  0.17612354002E+04  0.35259247670E+04  0.30545368434E+04 0.  0.
        1    1    3    3  502    0  0.24879547402E+03 -0.79209571261E+03 -0.59909493829E+03  0.10238308214E+04  0.50400001928E-02 0. -1.
       -1    1    3    3    0  502 -0.24879547402E+03  0.79209571261E+03  0.23603303385E+04  0.25020939456E+04  0.50400001928E-02 0.  1.
</event>
<event>
 5   0  0.1836401E-06  0.3075316E+04  0.7818609E-02  0.8222545E-01
        1   -1    0    0  501    0  0.00000000000E+00  0.00000000000E+00  0.15141813232E+04  0.15141813232E+04  0.50400001928E-02 0.  1.
       -1   -1    0    0    0  501  0.00000000000E+00  0.00000000000E+00 -0.15614985982E+04  0.15614985982E+04  0.50400001928E-02 0. -1.
    10030    2    1    2    0    0  0.00000000000E+00  0.00000000000E+00 -0.47317274934E+02  0.30756799214E+04  0.30753159276E+04 0.  0.
        2    1    3    3  502    0 -0.85550615370E+03 -0.12020061487E+04 -0.45693324293E+03  0.15445056002E+04  0.25500000920E-02 0. -1.
       -2    1    3    3    0  502  0.85550615370E+03  0.12020061487E+04  0.40961596800E+03  0.15311743212E+04  0.25500000920E-02 0.  1.
</event>
<event>
 5   0  0.1885307E-06  0.3170300E+04  0.7818609E-02  0.8196705E-01
        1   -1    0    0  501    0  0.00000000000E+00  0.00000000000E+00  0.82276698283E+03  0.82276698284E+03  0.50400001928E-02 0. -1.
       -1   -1    0    0    0  501  0.00000000000E+00  0.00000000000E+00 -0.30539646214E+04  0.30539646214E+04  0.50400001928E-02 0.  1.
    10030    2    1    2    0    0  0.00000000000E+00  0.00000000000E+00 -0.22311976386E+04  0.38767316043E+04  0.31703004635E+04 0.  0.
        3    1    3    3  502    0  0.15010448440E+04 -0.98822970188E+02 -0.50442995944E+03  0.15866162729E+04  0.10100000352E+00 0. -1.
       -3    1    3    3    0  502 -0.15010448440E+04  0.98822970188E+02 -0.17267676791E+04  0.22901153314E+04  0.10100000352E+00 0.  1.
</event>
<event>
 5   0  0.1843709E-06  0.3132943E+04  0.7818609E-02  0.8206755E-01
        1   -1    0    0  501    0  0.00000000000E+00  0.00000000000E+00  0.18706911798E+04  0.18706911798E+04  0.50400001928E-02 0. -1.
       -1   -1    0    0    0  501  0.00000000000E+00  0.00000000000E+00 -0.13117252456E+04  0.13117252456E+04  0.50400001928E-02 0.  1.
    10030    2    1    2    0    0  0.00000000000E+00  0.00000000000E+00  0.55896593417E+03  0.31824164254E+04  0.31329429278E+04 0.  0.
        4    1    3    3  502    0 -0.95324136943E+03  0.44277519207E+03 -0.90037184324E+03  0.13839761732E+04  0.12699999809E+01 0.  1.
       -4    1    3    3    0  502  0.95324136943E+03 -0.44277519207E+03  0.14593377774E+04  0.17984402522E+04  0.12699999809E+01 0. -1.
</event>
<event>
 5   0  0.5328368E-06  0.3144873E+04  0.7818609E-02  0.8203530E-01
       -2   -1    0    0    0  501  0.00000000000E+00  0.00000000000E+00  0.15500380952E+04  0.15500380953E+04  0.25500000920E-02 0.  1.
        2   -1    0    0  501    0  0.00000000000E+00  0.00000000000E+00 -0.15951583429E+04  0.15951583429E+04  0.25500000920E-02 0. -1.
    10030    2    1    2    0    0  0.00000000000E+00  0.00000000000E+00 -0.45120247694E+02  0.31451964382E+04  0.31448727793E+04 0.  0.
        1    1    3    3  502    0 -0.19479120513E+03  0.12870330498E+04  0.85966359684E+03  0.15599420453E+04  0.50400001928E-02 0.  1.
       -1    1    3    3    0  502  0.19479120513E+03 -0.12870330498E+04 -0.90478384454E+03  0.15852543929E+04  0.50400001928E-02 0. -1.
</event>
<event>
 5   0  0.1836401E-06  0.2959205E+04  0.7818609E-02  0.8255477E-01
       -1   -1    0    0    0  501  0.00000000000E+00  0.00000000000E+00  0.12549697037E+04  0.12549697037E+04  0.50400001928E-02 0.  1.
        1   -1    0    0  501    0  0.00000000000E+00  0.00000000000E+00 -0.17444437351E+04  0.17444437351E+04  0.50400001928E-02 0. -1.
    10030    2    1    2    0    0  0.00000000000E+00  0.00000000000E+00 -0.48947403142E+03  0.29994134388E+04  0.29592053239E+04 0.  0.
        2    1    3    3  502    0 -0.41233098143E+03  0.62929450864E+03 -0.15360950368E+04  0.17104433282E+04  0.25500000920E-02 0. -1.
       -2    1    3    3    0  502  0.41233098143E+03 -0.62929450864E+03  0.10466210054E+04  0.12889701105E+04  0.25500000920E-02 0.  1.
</event>
<event>
 5   0  0.1853742E-06  0.3052438E+04  0.7818609E-02  0.8228913E-01
        1   -1    0    0  501    0  0.00000000000E+00  0.00000000000E+00  0.19041106873E+04  0.19041106874E+04  0.50400001928E-02 0. -1.
       -1   -1    0    0    0  501  0.00000000000E+00  0.00000000000E+00 -0.12233242349E+04  0.12233242349E+04  0.50400001928E-02 0.  1.
    10030    2    1    2    0    0  0.00000000000E+00  0.00000000000E+00  0.68078645241E+03  0.31274349223E+04  0.30524382057E+04 0.  0.
        5    1    3    3  502    0  0.18477343844E+03  0.91944371377E+03  0.15740551233E+04  0.18322635148E+04  0.46999998093E+01 0. -1.
       -5    1    3    3    0  502 -0.18477343844E+03 -0.91944371377E+03 -0.89326867093E+03  0.12951714075E+04  0.46999998093E+01 0.  1.
</event>
<event>
 5   0  0.1853742E-06  0.3042134E+04  0.7818609E-02  0.8231800E-01
       -1   -1    0    0    0  501  0.00000000000E+00  0.00000000000E+00  0.10600461367E+04  0.10600461367E+04  0.50400001928E-02 0.  1.
        1   -1    0    0  501    0  0.00000000000E+00  0.00000000000E+00 -0.21825893067E+04  0.21825893067E+04  0.50400001928E-02 0. -1.
    10030    2    1    2    0    0  0.00000000000E+00  0.00000000000E+00 -0.11225431700E+04  0.32426354434E+04  0.30421343577E+04 0.  0.
        5    1    3    3  502    0  0.68103995388E+03 -0.11001394500E+04  0.29112237444E+03  0.13262339745E+04  0.46999998093E+01 0.  1.
       -5    1    3    3    0  502 -0.68103995388E+03  0.11001394500E+04 -0.14136655445E+04  0.19164014689E+04  0.46999998093E+01 0. -1.
</event>
<event>
 5   0  0.5328368E-06  0.3134052E+04  0.7818609E-02  0.8206454E-01
        2   -1    0    0  501    0  0.00000000000E+00  0.00000000000E+00  0.98024570932E+03  0.98024570932E+03  0.25500000920E-02 0.  1.
       -2   -1    0    0    0  501  0.00000000000E+00  0.00000000000E+00 -0.25050555565E+04  0.25050555565E+04  0.25500000920E-02 0. -1.
    10030    2    1    2    0    0  0.00000000000E+00  0.00000000000E+00 -0.15248098471E+04  0.34853012658E+04  0.31340516657E+04 0.  0.
        1    1    3    3  502    0  0.22521740487E+03  0.26090489872E+03  0.93757067538E+03  0.99891592088E+03  0.50400001928E-02 0.  1.
       -1    1    3    3    0  502 -0.22521740487E+03 -0.26090489872E+03 -0.24623805225E+04  0.24863853449E+04  0.50400001928E-02 0. -1.
</event>
<event>
 5   0  0.1853742E-06  0.3135857E+04  0.7818609E-02  0.8205965E-01
       -1   -1    0    0    0  501  0.00000000000E+00  0.00000000000E+00  0.10365801623E+04  0.10365801623E+04  0.50400001928E-02 0.  1.
        1   -1    0    0  501    0  0.00000000000E+00  0.00000000000E+00 -0.23716453136E+04  0.23716453136E+04  0.50400001928E-02 0. -1.
    10030    2    1    2    0    0  0.00000000000E+00  0.00000000000E+00 -0.13350651513E+04  0.34082254760E+04  0.31358574484E+04 0.  0.
        5    1    3    3  502    0  0.13692899261E+04  0.73352281110E+03 -0.89902978563E+03  0.17947944901E+04  0.46999998093E+01 0.  1.
       -5    1    3    3    0  502 -0.13692899261E+04 -0.73352281110E+03 -0.43603536572E+03  0.16134309859E+04  0.46999998093E+01 0. -1.
</event>
<event>
 5   0  0.5114870E-06  0.2853404E+04  0.7818609E-02  0.8286878E-01
        2   -1    0    0  501    0  0.00000000000E+00  0.00000000000E+00  0.14113858696E+04  0.14113858696E+04  0.25500000920E-02 0. -1.
       -2   -1    0    0    0  501  0.00000000000E+00  0.00000000000E+00 -0.14421844372E+04  0.14421844372E+04  0.25500000920E-02 0.  1.
    10030    2    1    2    0    0  0.00000000000E+00  0.00000000000E+00 -0.30798567692E+02  0.28535703068E+04  0.28534040976E+04 0.  0.
        2    1    3    3  502    0 -0.54295821165E+03 -0.57824770241E+03  0.11705469834E+04  0.14139852422E+04  0.25500000920E-02 0. -1.
       -2    1    3    3    0  502  0.54295821165E+03  0.57824770241E+03 -0.12013455511E+04  0.14395850646E+04  0.25500000920E-02 0.  1.
</event>
<event>
 5   0  0.1836401E-06  0.3080283E+04  0.7818609E-02  0.8221170E-01
        1   -1    0    0  501    0  0.00000000000E+00  0.00000000000E+00  0.11374300754E+04  0.11374300754E+04  0.50400001928E-02 0. -1.
       -1   -1    0    0    0  501  0.00000000000E+00  0.00000000000E+00 -0.20854346947E+04  0.20854346947E+04  0.50400001928E-02 0.  1.
    10030    2    1    2    0    0  0.00000000000E+00  0.00000000000E+00 -0.94800461933E+03  0.32228647701E+04  0.30802831961E+04 0.  0.
        2    1    3    3  502    0  0.23424317308E+03  0.10589822442E+04 -0.16181094789E+04  0.19479711352E+04  0.25500000920E-02 0.  1.
       -2    1    3    3    0  502 -0.23424317308E+03 -0.10589822442E+04  0.67010485956E+03  0.12748936350E+04  0.25500000920E-02 0. -1.
</event>
<event>
 5   0  0.4927533E-06  0.3095488E+04  0.7818609E-02  0.8216977E-01
        2   -1    0    0  501    0  0.00000000000E+00  0.00000000000E+00  0.17519125296E+04  0.17519125296E+04  0.25500000920E-02 0.  1.
       -2   -1    0    0    0  501  0.00000000000E+00  0.00000000000E+00 -0.13673692540E+04  0.13673692540E+04  0.25500000920E-02 0. -1.
    10030    2    1    2    0    0  0.00000000000E+00  0.00000000000E+00  0.38454327562E+03  0.31192817836E+04  0.30954878960E+04 0.  0.
        5    1    3    3  502    0 -0.48013984701E+03 -0.13681803016E+04 -0.35321886540E+03  0.14923931343E+04  0.46999998093E+01 0.  1.
       -5    1    3    3    0  502  0.48013984701E+03  0.13681803016E+04  0.73776214102E+03  0.16268886493E+04  0.46999998093E+01 0. -1.
</event>
<event>
 5   0  0.4900679E-06  0.3096225E+04  0.7818609E-02  0.8216775E-01
        2   -1    0    0  501    0  0.00000000000E+00  0.00000000000E+00  0.22242894176E+04  0.22242894176E+04  0.25500000920E-02 0. -1.
       -2   -1    0    0    0  501  0.00000000000E+00  0.00000000000E+00 -0.10774914740E+04  0.10774914740E+04  0.25500000920E-02 0.  1.
    10030    2    1    2    0    0  0.00000000000E+00  0.00000000000E+00  0.11467979436E+04  0.33017808915E+04  0.30962253684E+04 0.  0.
        4    1    3    3  502    0  0.77782786169E+02  0.21678380076E+03 -0.10591190180E+04  0.10838727256E+04  0.12699999809E+01 0.  1.
       -4    1    3    3    0  502 -0.77782786169E+02 -0.21678380076E+03  0.22059169616E+04  0.22179081659E+04  0.12699999809E+01 0. -1.
</event>
<event>
 5   0  0.4900679E-06  0.3144906E+04  0.7818609E-02  0.8203521E-01
       -2   -1    0    0    0  501  0.00000000000E+00  0.00000000000E+00  0.19391102985E+04  0.19391102985E+04  0.25500000920E-02 0. -1.
        2   -1    0    0  501    0  0.00000000000E+00  0.00000000000E+00 -0.12751255563E+04  0.12751255563E+04  0.25500000920E-02 0.  1.
    10030    2    1    2    0    0  0.00000000000E+00  0.00000000000E+00  0.66398474212E+03  0.32142358548E+04  0.31449064203E+04 0.  0.
        4    1    3    3  502    0  0.11658458633E+04 -0.10056905323E+04  0.55814387136E+01  0.15396891859E+04  0.12699999809E+01 0.  1.
       -4    1    3    3    0  502 -0.11658458633E+04  0.10056905323E+04  0.65840330341E+03  0.16745466690E+04  0.12699999809E+01 0. -1.
</event>
<event>
 5   0  0.1649875E-06  0.3107134E+04  0.7818609E-02  0.8213783E-01
        3   -1    0    0  501    0  0.00000000000E+00  0.00000000000E+00  0.24394730249E+04  0.24394730270E+04  0.10100000352E+00 0.  1.
       -3   -1    0    0    0  501  0.00000000000E+00  0.00000000000E+00 -0.98938200956E+03  0.98938201471E+03  0.10100000352E+00 0. -1.
    10030    2    1    2    0    0  0.00000000000E+00  0.00000000000E+00  0.14500910153E+04  0.34288550417E+04  0.31071342012E+04 0.  0.
        1    1    3    3  502    0  0.11928674945E+04  0.13287674583E+03  0.18135781026E+04  0.21747769135E+04  0.50400001928E-02 0.  1.
       -1    1    3    3    0  502 -0.11928674945E+04 -0.13287674583E+03 -0.36348708727E+03  0.12540781282E+04  0.50400001928E-02 0. -1.
</event>
<event>
 5   0  0.1853742E-06  0.3096016E+04  0.7818609E-02  0.8216832E-01
       -1   -1    0    0    0  501  0.00000000000E+00  0.00000000000E+00  0.14164388382E+04  0.14164388382E+04  0.50400001928E-02 0. -1.
        1   -1    0    0  501    0  0.00000000000E+00  0.00000000000E+00 -0.16917978141E+04  0.16917978141E+04  0.50400001928E-02 0.  1.
    10030    2    1    2    0    0  0.00000000000E+00  0.00000000000E+00 -0.27535897585E+03  0.31082366523E+04  0.30960155880E+04 0.  0.
        5    1    3    3  502    0  0.13444217098E+04 -0.63724845074E+03 -0.56686048596E+03  0.15921395109E+04  0.46999998093E+01 0.  1.
       -5    1    3    3    0  502 -0.13444217098E+04  0.63724845074E+03  0.29150151011E+03  0.15160971414E+04  0.46999998093E+01 0. -1.
</event>
<event>
 5   0  0.4900679E-06  0.3081113E+04  0.7818609E-02  0.8220940E-01
        2   -1    0    0  501    0  0.00000000000E+00  0.00000000000E+00  0.21521349100E+04  0.21521349100E+04  0.25500000920E-02 0. -1.
       -2   -1    0    0    0  501  0.00000000000E+00  0.00000000000E+00 -0.11027721432E+04  0.11027721432E+04  0.25500000920E-02 0.  1.
    10030    2    1    2    0    0  0.00000000000E+00  0.00000000000E+00  0.10493627668E+04  0.32549070532E+04  0.30811130632E+04 0.  0.
        4    1    3    3  502    0 -0.66810870944E+03 -0.10162666713E+04  0.15236114445E+04  0.19495026652E+04  0.12699999809E+01 0. -1.
       -4    1    3    3    0  502  0.66810870944E+03  0.10162666713E+04 -0.47424867769E+03  0.13054043880E+04  0.12699999809E+01 0.  1.
</event>
<event>
 5   0  0.4927533E-06  0.2653902E+04  0.7818609E-02  0.8350119E-01
       -2   -1    0    0    0  501  0.00000000000E+00  0.00000000000E+00  0.99282552316E+03  0.99282552316E+03  0.25500000920E-02 0. -1.
        2   -1    0    0  501    0  0.00000000000E+00  0.00000000000E+00 -0.17735227170E+04  0.17735227170E+04  0.25500000920E-02 0.  1.
    10030    2    1    2    0    0  0.00000000000E+00  0.00000000000E+00 -0.78069719386E+03  0.27663482402E+04  0.26539017460E+04 0.  0.
        5    1    3    3  502    0  0.92131509828E+03  0.19372926753E+03 -0.13650756996E+04  0.16582539899E+04  0.46999998093E+01 0.  1.
       -5    1    3    3    0  502 -0.92131509828E+03 -0.19372926753E+03  0.58437850577E+03  0.11080942502E+04  0.46999998093E+01 0. -1.
</event>
<event>
 5   0  0.1853742E-06  0.3091052E+04  0.7818609E-02  0.8218198E-01
       -1   -1    0    0    0  501  0.00000000000E+00  0.00000000000E+00  0.26876439849E+04  0.26876439849E+04  0.50400001928E-02 0.  1.
        1   -1    0    0  501    0  0.00000000000E+00  0.00000000000E+00 -0.88875252440E+03  0.88875252441E+03  0.50400001928E-02 0. -1.
    10030    2    1    2    0    0  0.00000000000E+00  0.00000000000E+00  0.17988914605E+04  0.35763965093E+04  0.30910518445E+04 0.  0.
        5    1    3    3  502    0 -0.15773008075E+03  0.14875432658E+04  0.44989692552E+03  0.15620797290E+04  0.46999998093E+01 0. -1.
       -5    1    3    3    0  502  0.15773008075E+03 -0.14875432658E+04  0.13489945350E+04  0.20143167803E+04  0.46999998093E+01 0.  1.
</event>
<event>
 5   0  0.4900679E-06  0.3078744E+04  0.7818609E-02  0.8221596E-01
        2   -1    0    0  501    0  0.00000000000E+00  0.00000000000E+00  0.19932865361E+04  0.19932865361E+04  0.25500000920E-02 0.  1.
       -2   -1    0    0    0  501  0.00000000000E+00  0.00000000000E+00 -0.11888240213E+04  0.11888240213E+04  0.25500000920E-02 0. -1.
    10030    2    1    2    0    0  0.00000000000E+00  0.00000000000E+00  0.80446251482E+03  0.31821105574E+04  0.30787444944E+04 0.  0.
        4    1    3    3  502    0 -0.11822957977E+04  0.64008444794E+03  0.11771594921E+04  0.17869632163E+04  0.12699999809E+01 0.  1.
       -4    1    3    3    0  502  0.11822957977E+04 -0.64008444794E+03 -0.37269697727E+03  0.13951473411E+04  0.12699999809E+01 0. -1.
</event>
<event>
 5   0  0.5328368E-06  0.3107593E+04  0.7818609E-02  0.8213657E-01
        2   -1    0    0  501    0  0.00000000000E+00  0.00000000000E+00  0.19846892959E+04  0.19846892959E+04  0.25500000920E-02 0. -1.
       -2   -1    0    0    0  501  0.00000000000E+00  0.00000000000E+00 -0.12164543001E+04  0.12164543001E+04  0.25500000920E-02 0.  1.
    10030    2    1    2    0    0  0.00000000000E+00  0.00000000000E+00  0.76823499571E+03  0.32011435960E+04  0.31075931705E+04 0.  0.
        1    1    3    3  502    0  0.36080893091E+02  0.39284685346E+02  0.19837459194E+04  0.19844628971E+04  0.50400001928E-02 0. -1.
       -1    1    3    3    0  502 -0.36080893091E+02 -0.39284685346E+02 -0.12155109237E+04  0.12166806989E+04  0.50400001928E-02 0.  1.
</event>
<event>
 5   0  0.1885307E-06  0.3258190E+04  0.7818609E-02  0.8173616E-01
       -1   -1    0    0    0  501  0.00000000000E+00  0.00000000000E+00  0.19336255166E+04  0.19336255166E+04  0.50400001928E-02 0. -1.
        1   -1    0    0  501    0  0.00000000000E+00  0.00000000000E+00 -0.13725257428E+04  0.13725257428E+04  0.50400001928E-02 0.  1.
    10030    2    1    2    0    0  0.00000000000E+00  0.00000000000E+00  0.56109977378E+03  0.33061512594E+04  0.32581901715E+04 0.  0.
        3    1    3    3  502    0 -0.40064746094E+03  0.15790527596E+04  0.28560139643E+03  0.16539329410E+04  0.10100000352E+00 0.  1.
       -3    1    3    3    0  502  0.40064746094E+03 -0.15790527596E+04  0.27549837735E+03  0.16522183184E+04  0.10100000352E+00 0. -1.
</event>
<event>
 5   0  0.5001658E-06  0.3182950E+04  0.7818609E-02  0.8193335E-01
       -2   -1    0    0    0  501  0.00000000000E+00  0.00000000000E+00  0.14913746089E+04  0.14913746089E+04  0.25500000920E-02 0.  1.
        2   -1    0    0  501    0  0.00000000000E+00  0.00000000000E+00 -0.16982941876E+04  0.16982941876E+04  0.25500000920E-02 0. -1.
    10030    2    1    2    0    0  0.00000000000E+00  0.00000000000E+00 -0.20691957872E+03  0.31896687965E+04  0.31829500969E+04 0.  0.
        3    1    3    3  502    0 -0.85648726391E+03 -0.60683286077E+03 -0.13022190506E+04  0.16726000777E+04  0.10100000352E+00 0. -1.
       -3    1    3    3    0  502  0.85648726391E+03  0.60683286077E+03  0.10952994719E+04  0.15170687188E+04  0.10100000352E+00 0.  1.
</event>
<event>
 5   0  0.1885307E-06  0.3136737E+04  0.7818609E-02  0.8205727E-01
        1   -1    0    0  501    0  0.00000000000E+00  0.00000000000E+00  0.20483894072E+04  0.20483894072E+04  0.50400001928E-02 0.  1.
       -1   -1    0    0    0  501  0.00000000000E+00  0.00000000000E+00 -0.12008361580E+04  0.12008361580E+04  0.50400001928E-02 0. -1.
    10030    2    1    2    0    0  0.00000000000E+00  0.00000000000E+00  0.84755324921E+03  0.32492255652E+04  0.31367372002E+04 0.  0.
        3    1    3    3  502    0 -0.13802904592E+04 -0.44216649222E+03 -0.19693450482E+03  0.14627016675E+04  0.10100000352E+00 0. -1.
       -3    1    3    3    0  502  0.13802904592E+04  0.44216649222E+03  0.10444877540E+04  0.17865238977E+04  0.10100000352E+00 0.  1.
</event>
<event>
 5   0  0.1853742E-06  0.3111854E+04  0.7818609E-02  0.8212492E-01
       -1   -1    0    0    0  501  0.00000000000E+00  0.00000000000E+00  0.16943949679E+04  0.16943949680E+04  0.50400001928E-02 0.  1.
        1   -1    0    0  501    0  0.00000000000E+00  0.00000000000E+00 -0.14287746522E+04  0.14287746522E+04  0.50400001928E-02 0. -1.
    10030    2    1    2    0    0  0.00000000000E+00  0.00000000000E+00  0.26562031579E+03  0.31231696201E+04  0.31118538404E+04 0.  0.
        5    1    3    3  502    0  0.15889600543E+02 -0.16022265152E+02 -0.14286032934E+04  0.14287892259E+04  0.46999998093E+01 0. -1.
       -5    1    3    3    0  502 -0.15889600543E+02  0.16022265152E+02  0.16942236091E+04  0.16943803942E+04  0.46999998093E+01 0.  1.
</event>
<event>
 5   0  0.1840431E-06  0.3076889E+04  0.7818609E-02  0.8222109E-01
        1   -1    0    0  501    0  0.00000000000E+00  0.00000000000E+00  0.17383907494E+04  0.17383907494E+04  0.50400001928E-02 0. -1.
       -1   -1    0    0    0  501  0.00000000000E+00  0.00000000000E+00 -0.13614960771E+04  0.13614960771E+04  0.50400001928E-02 0.  1.
    10030    2    1    2    0    0  0.00000000000E+00  0.00000000000E+00  0.37689467238E+03  0.30998868265E+04  0.30768894590E+04 0.  0.
        1    1    3    3  502    0 -0.40103253663E+03  0.14834820064E+04  0.11533616663E+03  0.15410543112E+04  0.50400001928E-02 0.  1.
       -1    1    3    3    0  502  0.40103253663E+03 -0.14834820064E+04  0.26155850575E+03  0.15588325153E+04  0.50400001928E-02 0. -1.
</event>
<event>
 5   0  0.1840431E-06  0.3165039E+04  0.7818609E-02  0.8198112E-01
       -1   -1    0    0    0  501  0.00000000000E+00  0.00000000000E+00  0.15519978493E+04  0.15519978493E+04  0.50400001928E-02 0. -1.
        1   -1    0    0  501    0  0.00000000000E+00  0.00000000000E+00 -0.16136409169E+04  0.16136409169E+04  0.50400001928E-02 0.  1.
    10030    2    1    2    0    0  0.00000000000E+00  0.00000000000E+00 -0.61643067609E+02  0.31656387661E+04  0.31650385353E+04 0.  0.
        1    1    3    3  502    0  0.47379088047E+03 -0.13762866641E+04  0.59036343609E+03  0.15707233260E+04  0.50400001928E-02 0. -1.
       -1    1    3    3    0  502 -0.47379088047E+03  0.13762866641E+04 -0.65200650370E+03  0.15949154401E+04  0.50400001928E-02 0.  1.
</event>
<event>
 5   0  0.5001658E-06  0.3120537E+04  0.7818609E-02  0.8210124E-01
       -2   -1    0    0    0  501  0.00000000000E+00  0.00000000000E+00  0.11967074670E+04  0.11967074670E+04  0.25500000920E-02 0. -1.
        2   -1    0    0  501    0  0.00000000000E+00  0.00000000000E+00 -0.20342803319E+04  0.20342803319E+04  0.25500000920E-02 0.  1.
    10030    2    1    2    0    0  0.00000000000E+00  0.00000000000E+00 -0.83757286490E+03  0.32309877988E+04  0.31205374300E+04 0.  0.
        3    1    3    3  502    0  0.12240182581E+04  0.21333003173E+03 -0.13959642766E+04  0.18688088908E+04  0.10100000352E+00 0.  1.
       -3    1    3    3    0  502 -0.12240182581E+04 -0.21333003173E+03  0.55839141175E+03  0.13621789080E+04  0.10100000352E+00 0. -1.
</event>
<event>
 5   0  0.1840431E-06  0.3073850E+04  0.7818609E-02  0.8222951E-01
       -1   -1    0    0    0  501  0.00000000000E+00  0.00000000000E+00  0.16797064355E+04  0.16797064355E+04  0.50400001928E-02 0.  1.
        1   -1    0    0  501    0  0.00000000000E+00  0.00000000000E+00 -0.14062801830E+04  0.14062801830E+04  0.50400001928E-02 0. -1.
    10030    2    1    2    0    0  0.00000000000E+00  0.00000000000E+00  0.27342625257E+03  0.30859866185E+04  0.30738496212E+04 0.  0.
        1    1    3    3  502    0  0.53214637197E+03  0.14412461068E+04  0.17892402008E+03  0.15467333017E+04  0.50400001928E-02 0.  1.
       -1    1    3    3    0  502 -0.53214637197E+03 -0.14412461068E+04  0.94502232483E+02  0.15392533169E+04  0.50400001928E-02 0. -1.
</event>
<event>
 5   0  0.1836401E-06  0.3124535E+04  0.7818609E-02  0.8209037E-01
       -1   -1    0    0    0  501  0.00000000000E+00  0.00000000000E+00  0.24387524600E+04  0.24387524600E+04  0.50400001928E-02 0. -1.
        1   -1    0    0  501    0  0.00000000000E+00  0.00000000000E+00 -0.10007899934E+04  0.10007899935E+04  0.50400001928E-02 0.  1.
    10030    2    1    2    0    0  0.00000000000E+00  0.00000000000E+00  0.14379624666E+04  0.34395424535E+04  0.31245345628E+04 0.  0.
        2    1    3    3  502    0  0.42942693273E+03 -0.21266658541E+02 -0.93437902713E+03  0.10285542901E+04  0.25500000920E-02 0.  1.
       -2    1    3    3    0  502 -0.42942693273E+03  0.21266658541E+02  0.23723414937E+04  0.24109881634E+04  0.25500000920E-02 0. -1.
</event>
<event>
 5   0  0.1853742E-06  0.3104482E+04  0.7818609E-02  0.8214509E-01
       -1   -1    0    0    0  501  0.00000000000E+00  0.00000000000E+00  0.11703401538E+04  0.11703401538E+04  0.50400001928E-02 0.  1.
        1   -1    0    0  501    0  0.00000000000E+00  0.00000000000E+00 -0.20587618005E+04  0.20587618005E+04  0.50400001928E-02 0. -1.
    10030    2    1    2    0    0  0.00000000000E+00  0.00000000000E+00 -0.88842164671E+03  0.32291019543E+04  0.31044816651E+04 0.  0.
        5    1    3    3  502    0  0.26160095309E+03  0.71376225361E+03 -0.18518800387E+04  0.20018424966E+04  0.46999998093E+01 0. -1.
       -5    1    3    3    0  502 -0.26160095309E+03 -0.71376225361E+03  0.96345839202E+03  0.12272594577E+04  0.46999998093E+01 0.  1.
</event>
<event>
 5   0  0.4900679E-06  0.3095489E+04  0.7818609E-02  0.8216977E-01
       -2   -1    0    0    0  501  0.00000000000E+00  0.00000000000E+00  0.13539847543E+04  0.13539847543E+04  0.25500000920E-02 0.  1.
        2   -1    0    0  501    0  0.00000000000E+00  0.00000000000E+00 -0.17692315663E+04  0.17692315663E+04  0.25500000920E-02 0. -1.
    10030    2    1    2    0    0  0.00000000000E+00  0.00000000000E+00 -0.41524681202E+03  0.31232163207E+04  0.30954886966E+04 0.  0.
        4    1    3    3  502    0 -0.94980811600E+03  0.20842792448E+02 -0.14404278080E+04  0.17255155062E+04  0.12699999809E+01 0. -1.
       -4    1    3    3    0  502  0.94980811600E+03 -0.20842792448E+02  0.10251809960E+04  0.13977008144E+04  0.12699999809E+01 0.  1.
</event>
<event>
 5   0  0.5001658E-06  0.3067336E+04  0.7818609E-02  0.8224760E-01
        2   -1    0    0  501    0  0.00000000000E+00  0.00000000000E+00  0.14142810217E+04  0.14142810217E+04  0.25500000920E-02 0.  1.
       -2   -1    0    0    0  501  0.00000000000E+00  0.00000000000E+00 -0.16631325869E+04  0.16631325869E+04  0.25500000920E-02 0. -1.
    10030    2    1    2    0    0  0.00000000000E+00  0.00000000000E+00 -0.24885156512E+03  0.30774136086E+04  0.30673355566E+04 0.  0.
        3    1    3    3  502    0 -0.71715422227E+03 -0.52140326448E+03  0.11310711278E+04  0.14371824690E+04  0.10100000352E+00 0.  1.
       -3    1    3    3    0  502  0.71715422227E+03  0.52140326448E+03 -0.13799226929E+04  0.16402311396E+04  0.10100000352E+00 0. -1.
</event>
<event>
 5   0  0.1840431E-06  0.3219798E+04  0.7818609E-02  0.8183608E-01
        1   -1    0    0  501    0  0.00000000000E+00  0.00000000000E+00  0.24392520873E+04  0.24392520873E+04  0.50400001928E-02 0.  1.
       -1   -1    0    0    0  501  0.00000000000E+00  0.00000000000E+00 -0.10625286437E+04  0.10625286437E+04  0.50400001928E-02 0. -1.
    10030    2    1    2    0    0  0.00000000000E+00  0.00000000000E+00  0.13767234436E+04  0.35017807310E+04  0.32197982620E+04 0.  0.
        1    1    3    3  502    0 -0.48934889289E+03 -0.12339595182E+04  0.16789872614E+04  0.21403543294E+04  0.50400001928E-02 0.  1.
       -1    1    3    3    0  502  0.48934889289E+03  0.12339595182E+04 -0.30226381777E+03  0.13614264016E+04  0.50400001928E-02 0. -1.
</event>
<event>
 5   0  0.1836401E-06  0.3182937E+04  0.7818609E-02  0.8193338E-01
        1   -1    0    0  501    0  0.00000000000E+00  0.00000000000E+00  0.16634757797E+04  0.16634757797E+04  0.50400001928E-02 0. -1.
       -1   -1    0    0    0  501  0.00000000000E+00  0.00000000000E+00 -0.15225781823E+04  0.15225781823E+04  0.50400001928E-02 0.  1.
    10030    2    1    2    0    0  0.00000000000E+00  0.00000000000E+00  0.14089759731E+03  0.31860539620E+04  0.31829369639E+04 0.  0.
        2    1    3    3  502    0 -0.24740638933E+03 -0.40860047862E+03 -0.14491312735E+04  0.15258262419E+04  0.25500000920E-02 0.  1.
       -2    1    3    3    0  502  0.24740638933E+03  0.40860047862E+03  0.15900288708E+04  0.16602277201E+04  0.25500000920E-02 0. -1.
</event>
<event>
 5   0  0.1843709E-06  0.3096421E+04  0.7818609E-02  0.8216721E-01
        1   -1    0    0  501    0  0.00000000000E+00  0.00000000000E+00  0.17321434153E+04  0.17321434154E+04  0.50400001928E-02 0.  1.
       -1   -1    0    0    0  501  0.00000000000E+00  0.00000000000E+00 -0.13838089997E+04  0.13838089997E+04  0.50400001928E-02 0. -1.
    10030    2    1    2    0    0  0.00000000000E+00  0.00000000000E+00  0.34833441569E+03  0.31159524150E+04  0.30964209319E+04 0.  0.
        4    1    3    3  502    0  0.44706201590E+03  0.73245960752E+03 -0.11226010151E+04  0.14130096159E+04  0.12699999809E+01 0. -1.
       -4    1    3    3    0  502 -0.44706201590E+03 -0.73245960752E+03  0.14709354308E+04  0.17029427991E+04  0.12699999809E+01 0.  1.
</event>
<event>
 5   0  0.1885307E-06  0.3062524E+04  0.7818609E-02  0.8226099E-01
       -1   -1    0    0    0  501  0.00000000000E+00  0.00000000000E+00  0.12496759814E+04  0.12496759814E+04  0.50400001928E-02 0. -1.
        1   -1    0    0  501    0  0.00000000000E+00  0.00000000000E+00 -0.18762968010E+04  0.18762968010E+04  0.50400001928E-02 0.  1.
    10030    2    1    2    0    0  0.00000000000E+00  0.00000000000E+00 -0.62662081959E+03  0.31259727824E+04  0.30625238260E+04 0.  0.
        3    1    3    3  502    0 -0.57156392622E+03  0.40084533960E+03  0.10777901389E+04  0.12841315749E+04  0.10100000352E+00 0. -1.
       -3    1    3    3    0  502  0.57156392622E+03 -0.40084533960E+03 -0.17044109585E+04  0.18418412075E+04  0.10100000352E+00 0.  1.
</event>
<event>
 5   0  0.1840431E-06  0.3014217E+04  0.7818609E-02  0.8239683E-01
       -1   -1    0    0    0  501  0.00000000000E+00  0.00000000000E+00  0.12959505541E+04  0.12959505541E+04  0.50400001928E-02 0.  1.
        1   -1    0    0  501    0  0.00000000000E+00  0.00000000000E+00 -0.17526717537E+04  0.17526717537E+04  0.50400001928E-02 0. -1.
    10030    2    1    2    0    0  0.00000000000E+00  0.00000000000E+00 -0.45672119957E+03  0.30486223078E+04  0.30142169334E+04 0.  0.
        1    1    3    3  502    0  0.30564214519E+03 -0.85677403353E+03  0.98697784085E+03  0.13422384750E+04  0.50400001928E-02 0.  1.
       -1    1    3    3    0  502 -0.30564214519E+03  0.85677403353E+03 -0.14436990404E+04  0.17063838328E+04  0.50400001928E-02 0. -1.
</event>
<event>
 5   0  0.4900679E-06  0.3149288E+04  0.7818609E-02  0.8202340E-01
       -2   -1    0    0    0  501  0.00000000000E+00  0.00000000000E+00  0.10721233491E+04  0.10721233491E+04  0.25500000920E-02 0. -1.
        2   -1    0    0  501    0  0.00000000000E+00  0.00000000000E+00 -0.23127035088E+04  0.23127035088E+04  0.25500000920E-02 0.  1.
    10030    2    1    2    0    0  0.00000000000E+00  0.00000000000E+00 -0.12405801597E+04  0.33848268579E+04  0.31492878124E+04 0.  0.
        4    1    3    3  502    0  0.26182821534E+03  0.11254081054E+04 -0.17700677380E+04  0.21138209073E+04  0.12699999809E+01 0.  1.
       -4    1    3    3    0  502 -0.26182821534E+03 -0.11254081054E+04  0.52948757823E+03  0.12710059506E+04  0.12699999809E+01 0. -1.
</event>
<event>
 5   0  0.4900679E-06  0.2968131E+04  0.7818609E-02  0.8252890E-01
        2   -1    0    0  501    0  0.00000000000E+00  0.00000000000E+00  0.16588996686E+04  0.16588996686E+04  0.25500000920E-02 0. -1.
       -2   -1    0    0    0  501  0.00000000000E+00  0.00000000000E+00 -0.13276575315E+04  0.13276575315E+04  0.25500000920E-02 0.  1.
    10030    2    1    2    0    0  0.00000000000E+00  0.00000000000E+00  0.33124213709E+03  0.29865572001E+04  0.29681311555E+04 0.  0.
        4    1    3    3  502    0 -0.86232374576E+03 -0.10629289022E+04 -0.41155031939E+03  0.14292639266E+04  0.12699999809E+01 0.  1.
       -4    1    3    3    0  502  0.86232374576E+03  0.10629289022E+04  0.74279245648E+03  0.15572932736E+04  0.12699999809E+01 0. -1.
</event>
<event>
 5   0  0.1840431E-06  0.3122899E+04  0.7818609E-02  0.8209481E-01
       -1   -1    0    0    0  501  0.00000000000E+00  0.00000000000E+00  0.19186238640E+04  0.19186238641E+04  0.50400001928E-02 0.  1.
        1   -1    0    0  501    0  0.00000000000E+00  0.00000000000E+00 -0.12707675819E+04  0.12707675819E+04  0.50400001928E-02 0. -1.
    10030    2    1    2    0    0  0.00000000000E+00  0.00000000000E+00  0.64785628216E+03  0.31893914459E+04  0.31228992992E+04 0.  0.
        1    1    3    3  502    0  0.10349518746E+04 -0.76461243951E+03  0.12272764370E+04  0.17781915022E+04  0.50400001928E-02 0.  1.
       -1    1    3    3    0  502 -0.10349518746E+04  0.76461243951E+03 -0.57942015487E+03  0.14111999438E+04  0.50400001928E-02 0. -1.
</event>
<event>
 5   0  0.1843709E-06  0.3099913E+04  0.7818609E-02  0.8215762E-01
       -1   -1    0    0    0  501  0.00000000000E+00  0.00000000000E+00  0.11793813528E+04  0.11793813528E+04  0.50400001928E-02 0.  1.
        1   -1    0    0  501    0  0.00000000000E+00  0.00000000000E+00 -0.20369709483E+04  0.20369709483E+04  0.50400001928E-02 0. -1.
    10030    2    1    2    0    0  0.00000000000E+00  0.00000000000E+00 -0.85758959544E+03  0.32163523011E+04  0.30999132586E+04 0.  0.
        4    1    3    3  502    0 -0.11970866748E+03 -0.14403404077E+04  0.15210400826E+03  0.14532886490E+04  0.12699999809E+01 0.  1.
       -4    1    3    3    0  502  0.11970866748E+03  0.14403404077E+04 -0.10096936037E+04  0.17630636521E+04  0.12699999809E+01 0. -1.
</event>
<event>
 5   0  0.4900679E-06  0.3101186E+04  0.7818609E-02  0.8215412E-01
       -2   -1    0    0    0  501  0.00000000000E+00  0.00000000000E+00  0.12322577204E+04  0.12322577204E+04  0.25500000920E-02 0. -1.
        2   -1    0    0  501    0  0.00000000000E+00  0.00000000000E+00 -0.19511660009E+04  0.19511660009E+04  0.25500000920E-02 0.  1.
    10030    2    1    2    0    0  0.00000000000E+00  0.00000000000E+00 -0.71890828051E+03  0.31834237214E+04  0.31011864623E+04 0.  0.
        4    1    3    3  502    0 -0.66364146851E+03 -0.15693164652E+03  0.10700584074E+04  0.12688869723E+04  0.12699999809E+01 0. -1.
       -4    1    3    3    0  502  0.66364146851E+03  0.15693164652E+03 -0.17889666879E+04  0.19145367491E+04  0.12699999809E+01 0.  1.
</event>
<event>
 5   0  0.4900679E-06  0.3104547E+04  0.7818609E-02  0.8214491E-01
        2   -1    0    0  501    0  0.00000000000E+00  0.00000000000E+00  0.18450454695E+04  0.18450454695E+04  0.25500000920E-02 0. -1.
       -2   -1    0    0    0  501  0.00000000000E+00  0.00000000000E+00 -0.13059583778E+04  0.13059583778E+04  0.25500000920E-02 0.  1.
    10030    2    1    2    0    0  0.00000000000E+00  0.00000000000E+00  0.53908709166E+03  0.31510038473E+04  0.31045467226E+04 0.  0.
        4    1    3    3  502    0 -0.84694426475E+03  0.78775075536E+03 -0.78117001303E+03  0.13957413952E+04  0.12699999809E+01 0.  1.
       -4    1    3    3    0  502  0.84694426475E+03 -0.78775075536E+03  0.13202571047E+04  0.17552624520E+04  0.12699999809E+01 0. -1.
</event>
<event>
 5   0  0.4927533E-06  0.2880203E+04  0.7818609E-02  0.8278792E-01
        2   -1    0    0  501    0  0.00000000000E+00  0.00000000000E+00  0.22186521762E+04  0.22186521762E+04  0.25500000920E-02 0. -1.
       -2   -1    0    0    0  501  0.00000000000E+00  0.00000000000E+00 -0.93475305188E+03  0.93475305188E+03  0.25500000920E-02 0.  1.
    10030    2    1    2    0    0  0.00000000000E+00  0.00000000000E+00  0.12838991244E+04  0.31534052281E+04  0.28802026962E+04 0.  0.
        5    1    3    3  502    0  0.88100677130E+03 -0.51543675150E+03 -0.47029725593E+03  0.11238547837E+04  0.46999998093E+01 0.  1.
       -5    1    3    3    0  502 -0.88100677130E+03  0.51543675150E+03  0.17541963803E+04  0.20295504444E+04  0.46999998093E+01 0. -1.
</event>
<event>
 5   0  0.5328368E-06  0.3094544E+04  0.7818609E-02  0.8217237E-01
       -2   -1    0    0    0  501  0.00000000000E+00  0.00000000000E+00  0.15166945551E+04  0.15166945551E+04  0.25500000920E-02 0.  1.
        2   -1    0    0  501    0  0.00000000000E+00  0.00000000000E+00 -0.15784663232E+04  0.15784663232E+04  0.25500000920E-02 0. -1.
    10030    2    1    2    0    0  0.00000000000E+00  0.00000000000E+00 -0.61771768150E+02  0.30951608783E+04  0.30945444109E+04 0.  0.
        1    1    3    3  502    0  0.13402623174E+04 -0.54556063259E+03 -0.57881961863E+03  0.15585158434E+04  0.50400001928E-02 0. -1.
       -1    1    3    3    0  502 -0.13402623174E+04  0.54556063259E+03  0.51704785048E+03  0.15366450348E+04  0.50400001928E-02 0.  1.
</event>
<event>
 5   0  0.1649875E-06  0.3174247E+04  0.7818609E-02  0.8195652E-01
       -3   -1    0    0    0  501  0.00000000000E+00  0.00000000000E+00  0.87877234348E+03  0.87877234928E+03  0.10100000352E+00 0. -1.
        3   -1    0    0  501    0  0.00000000000E+00  0.00000000000E+00 -0.28664547651E+04  0.28664547668E+04  0.10100000352E+00 0.  1.
    10030    2    1    2    0    0  0.00000000000E+00  0.00000000000E+00 -0.19876824216E+04  0.37452271161E+04  0.31742471142E+04 0.  0.
        1    1    3    3  502    0  0.16860417409E+02 -0.51504099225E+03  0.77731760134E+03  0.93261682954E+03  0.50400001928E-02 0. -1.
       -1    1    3    3    0  502 -0.16860417409E+02  0.51504099225E+03 -0.27650000229E+04  0.28126102866E+04  0.50400001928E-02 0.  1.
</event>
<event>
 5   0  0.4927533E-06  0.2991188E+04  0.7818609E-02  0.8246252E-01
        2   -1    0    0  501    0  0.00000000000E+00  0.00000000000E+00  0.10555403713E+04  0.10555403713E+04  0.25500000920E-02 0.  1.
       -2   -1    0    0    0  501  0.00000000000E+00  0.00000000000E+00 -0.21191051237E+04  0.21191051237E+04  0.25500000920E-02 0. -1.
    10030    2    1    2    0    0  0.00000000000E+00  0.00000000000E+00 -0.10635647524E+04  0.31746454950E+04  0.29911877300E+04 0.  0.
        5    1    3    3  502    0  0.12492098636E+04 -0.10501857899E+03 -0.13974192726E+04  0.18773270622E+04  0.46999998093E+01 0. -1.
       -5    1    3    3    0  502 -0.12492098636E+04  0.10501857899E+03  0.33385452019E+03  0.12973184327E+04  0.46999998093E+01 0.  1.
</event>
<event>
 5   0  0.1836401E-06  0.3104599E+04  0.7818609E-02  0.8214477E-01
        1   -1    0    0  501    0  0.00000000000E+00  0.00000000000E+00  0.22052500425E+04  0.22052500425E+04  0.50400001928E-02 0. -1.
       -1   -1    0    0    0  501  0.00000000000E+00  0.00000000000E+00 -0.10926806560E+04  0.10926806560E+04  0.50400001928E-02 0.  1.
    10030    2    1    2    0    0  0.00000000000E+00  0.00000000000E+00  0.11125693865E+04  0.32979306984E+04  0.31045992095E+04 0.  0.
        2    1    3    3  502    0 -0.87697023107E+03  0.12663559333E+04  0.35222899040E+03  0.15801263866E+04  0.25500000920E-02 0.  1.
       -2    1    3    3    0  502  0.87697023107E+03 -0.12663559333E+04  0.76034039609E+03  0.17178043118E+04  0.25500000920E-02 0. -1.
</event>
<event>
 5   0  0.4927533E-06  0.3068158E+04  0.7818609E-02  0.8224531E-01
       -2   -1    0    0    0  501  0.00000000000E+00  0.00000000000E+00  0.14670198961E+04  0.14670198962E+04  0.25500000920E-02 0. -1.
        2   -1    0    0  501    0  0.00000000000E+00  0.00000000000E+00 -0.16042034255E+04  0.16042034255E+04  0.25500000920E-02 0.  1.
    10030    2    1    2    0    0  0.00000000000E+00  0.00000000000E+00 -0.13718352939E+03  0.30712233217E+04  0.30681579769E+04 0.  0.
        5    1    3    3  502    0  0.24826550369E+03  0.65150101983E+01 -0.15839397538E+04  0.16032983002E+04  0.46999998093E+01 0.  1.
       -5    1    3    3    0  502 -0.24826550369E+03 -0.65150101983E+01  0.14467562245E+04  0.14679250215E+04  0.46999998093E+01 0. -1.
</event>
<event>
 5   0  0.1885307E-06  0.3103388E+04  0.7818609E-02  0.8214809E-01
       -1   -1    0    0    0  501  0.00000000000E+00  0.00000000000E+00  0.80192527965E+03  0.80192527967E+03  0.50400001928E-02 0.  1.
        1   -1    0    0  501    0  0.00000000000E+00  0.00000000000E+00 -0.30024672575E+04  0.30024672575E+04  0.50400001928E-02 0. -1.
    10030    2    1    2    0    0  0.00000000000E+00  0.00000000000E+00 -0.22005419779E+04  0.38043925372E+04  0.31033880809E+04 0.  0.
        3    1    3    3  502    0 -0.58768737627E+03  0.74379697464E+03 -0.26062349293E+04  0.27732780078E+04  0.10100000352E+00 0. -1.
       -3    1    3    3    0  502  0.58768737627E+03 -0.74379697464E+03  0.40569295141E+03  0.10311145294E+04  0.10100000352E+00 0.  1.
</event>
<event>
 5   0  0.1843709E-06  0.3122091E+04  0.7818609E-02  0.8209701E-01
        1   -1    0    0  501    0  0.00000000000E+00  0.00000000000E+00  0.11673843099E+04  0.11673843099E+04  0.50400001928E-02 0. -1.
       -1   -1    0    0    0  501  0.00000000000E+00  0.00000000000E+00 -0.20874554929E+04  0.20874554929E+04  0.50400001928E-02 0.  1.
    10030    2    1    2    0    0  0.00000000000E+00  0.00000000000E+00 -0.92007118296E+03  0.32548398028E+04  0.31220908315E+04 0.  0.
        4    1    3    3  502    0 -0.14438465141E+04 -0.47602517926E+03 -0.90612234791E+02  0.15229920938E+04  0.12699999809E+01 0. -1.
       -4    1    3    3    0  502  0.14438465141E+04  0.47602517926E+03 -0.82945894817E+03  0.17318477090E+04  0.12699999809E+01 0.  1.
</event>
<event>
 5   0  0.1885307E-06  0.2876578E+04  0.7818609E-02  0.8279881E-01
        1   -1    0    0  501    0  0.00000000000E+00  0.00000000000E+00  0.75539927872E+03  0.75539927874E+03  0.50400001928E-02 0. -1.
       -1   -1    0    0    0  501  0.00000000000E+00  0.00000000000E+00 -0.27385180598E+04  0.27385180598E+04  0.50400001928E-02 0.  1.
    10030    2    1    2    0    0  0.00000000000E+00  0.00000000000E+00 -0.19831187810E+04  0.34939173385E+04  0.28765775269E+04 0.  0.
        3    1    3    3  502    0  0.68498864837E+02  0.73318290426E+03  0.50907301050E+03  0.89521204516E+03  0.10100000352E+00 0. -1.
       -3    1    3    3    0  502 -0.68498864837E+02 -0.73318290426E+03 -0.24921917915E+04  0.25987052933E+04  0.10100000352E+00 0.  1.
</event>
<event>
 5   0  0.1885307E-06  0.2383260E+04  0.7818609E-02  0.8445797E-01
        1   -1    0    0  501    0  0.00000000000E+00  0.00000000000E+00  0.23148277343E+04  0.23148277343E+04  0.50400001928E-02 0. -1.
       -1   -1    0    0    0  501  0.00000000000E+00  0.00000000000E+00 -0.61342883501E+03  0.61342883503E+03  0.50400001928E-02 0.  1.
    10030    2    1    2    0    0  0.00000000000E+00  0.00000000000E+00  0.17013988993E+04  0.29282565694E+04  0.23832600197E+04 0.  0.
        3    1    3    3  502    0  0.48256389138E+03  0.48572674007E+03 -0.34761251951E+03  0.76787554278E+03  0.10100000352E+00 0.  1.
       -3    1    3    3    0  502 -0.48256389138E+03 -0.48572674007E+03  0.20490114188E+04  0.21603810266E+04  0.10100000352E+00 0. -1.
</event>
<event>
 5   0  0.5114870E-06  0.3139548E+04  0.7818609E-02  0.8204967E-01
       -2   -1    0    0    0  501  0.00000000000E+00  0.00000000000E+00  0.15510031402E+04  0.15510031402E+04  0.25500000920E-02 0. -1.
        2   -1    0    0  501    0  0.00000000000E+00  0.00000000000E+00 -0.15887722687E+04  0.15887722688E+04  0.25500000920E-02 0.  1.
    10030    2    1    2    0    0  0.00000000000E+00  0.00000000000E+00 -0.37769128507E+02  0.31397754090E+04  0.31395482337E+04 0.  0.
        2    1    3    3  502    0  0.21102603597E+03 -0.23373010291E+03  0.15190918025E+04  0.15513870096E+04  0.25500000920E-02 0. -1.
       -2    1    3    3    0  502 -0.21102603597E+03  0.23373010291E+03 -0.15568609310E+04  0.15883883994E+04  0.25500000920E-02 0.  1.
</event>
<event>
 5   0  0.1853742E-06  0.3105398E+04  0.7818609E-02  0.8214258E-01
        1   -1    0    0  501    0  0.00000000000E+00  0.00000000000E+00  0.15198781874E+04  0.15198781874E+04  0.50400001928E-02 0.  1.
       -1   -1    0    0    0  501  0.00000000000E+00  0.00000000000E+00 -0.15862281551E+04  0.15862281551E+04  0.50400001928E-02 0. -1.
    10030    2    1    2    0    0  0.00000000000E+00  0.00000000000E+00 -0.66349967672E+02  0.31061063424E+04  0.31053976062E+04 0.  0.
        5    1    3    3  502    0 -0.74497675621E+03 -0.13398763012E+04 -0.27938683182E+03  0.15583125366E+04  0.46999998093E+01 0.  1.
       -5    1    3    3    0  502  0.74497675621E+03  0.13398763012E+04  0.21303686415E+03  0.15477938058E+04  0.46999998093E+01 0. -1.
</event>
<event>
 5   0  0.1836401E-06  0.3242488E+04  0.7818609E-02  0.8177685E-01
        1   -1    0    0  501    0  0.00000000000E+00  0.00000000000E+00  0.24223981542E+04  0.24223981542E+04  0.50400001928E-02 0.  1.
       -1   -1    0    0    0  501  0.00000000000E+00  0.00000000000E+00 -0.10850538655E+04  0.10850538655E+04  0.50400001928E-02 0. -1.
    10030    2    1    2    0    0  0.00000000000E+00  0.00000000000E+00  0.13373442887E+04  0.35074520197E+04  0.32424882304E+04 0.  0.
        2    1    3    3  502    0  0.61117978407E+02  0.42618714416E+03 -0.10220823031E+04  0.11090640754E+04  0.25500000920E-02 0. -1.
       -2    1    3    3    0  502 -0.61117978407E+02 -0.42618714416E+03  0.23594265918E+04  0.23983879443E+04  0.25500000920E-02 0.  1.
</event>
<event>
 5   0  0.1885307E-06  0.3103549E+04  0.7818609E-02  0.8214764E-01
        1   -1    0    0  501    0  0.00000000000E+00  0.00000000000E+00  0.15778473738E+04  0.15778473738E+04  0.50400001928E-02 0.  1.
       -1   -1    0    0    0  501  0.00000000000E+00  0.00000000000E+00 -0.15261328615E+04  0.15261328615E+04  0.50400001928E-02 0. -1.
    10030    2    1    2    0    0  0.00000000000E+00  0.00000000000E+00  0.51714512286E+02  0.31039802354E+04  0.31035494052E+04 0.  0.
        3    1    3    3  502    0  0.16493861423E+03 -0.15049992122E+04 -0.31445067607E+03  0.15463203462E+04  0.10100000352E+00 0. -1.
       -3    1    3    3    0  502 -0.16493861423E+03  0.15049992122E+04  0.36616518836E+03  0.15576598892E+04  0.10100000352E+00 0.  1.
</event>
<event>
 5   0  0.5328368E-06  0.3102979E+04  0.7818609E-02  0.8214921E-01
        2   -1    0    0  501    0  0.00000000000E+00  0.00000000000E+00  0.22936706243E+04  0.22936706243E+04  0.25500000920E-02 0. -1.
       -2   -1    0    0    0  501  0.00000000000E+00  0.00000000000E+00 -0.10494617488E+04  0.10494617488E+04  0.25500000920E-02 0.  1.
    10030    2    1    2    0    0  0.00000000000E+00  0.00000000000E+00  0.12442088755E+04  0.33431323731E+04  0.31029789458E+04 0.  0.
        1    1    3    3  502    0 -0.16109368002E+02  0.13533671457E+04 -0.19505324274E+03  0.13674457614E+04  0.50400001928E-02 0.  1.
       -1    1    3    3    0  502  0.16109368002E+02 -0.13533671457E+04  0.14392621182E+04  0.19756866117E+04  0.50400001928E-02 0. -1.
</event>
<event>
 5   0  0.5114870E-06  0.2317442E+04  0.7818609E-02  0.8471076E-01
        2   -1    0    0  501    0  0.00000000000E+00  0.00000000000E+00  0.87810902100E+03  0.87810902101E+03  0.25500000920E-02 0. -1.
       -2   -1    0    0    0  501  0.00000000000E+00  0.00000000000E+00 -0.15290062019E+04  0.15290062019E+04  0.25500000920E-02 0.  1.
    10030    2    1    2    0    0  0.00000000000E+00  0.00000000000E+00 -0.65089718087E+03  0.24071152229E+04  0.23174418129E+04 0.  0.
        2    1    3    3  502    0  0.44746678904E+02 -0.46129043389E+03 -0.14285421955E+04  0.15018401826E+04  0.25500000920E-02 0.  1.
       -2    1    3    3    0  502 -0.44746678904E+02  0.46129043389E+03  0.77764501468E+03  0.90527504026E+03  0.25500000920E-02 0. -1.
</event>
<event>
 5   0  0.1885307E-06  0.3133832E+04  0.7818609E-02  0.8206514E-01
        1   -1    0    0  501    0  0.00000000000E+00  0.00000000000E+00  0.13930235657E+04  0.13930235657E+04  0.50400001928E-02 0.  1.
       -1   -1    0    0    0  501  0.00000000000E+00  0.00000000000E+00 -0.17625152442E+04  0.17625152442E+04  0.50400001928E-02 0. -1.
    10030    2    1    2    0    0  0.00000000000E+00  0.00000000000E+00 -0.36949167850E+03  0.31555388099E+04  0.31338316931E+04 0.  0.
        3    1    3    3  502    0  0.24076276042E+03 -0.13169466156E+04  0.63508678530E+03  0.14817726986E+04  0.10100000352E+00 0.  1.
       -3    1    3    3    0  502 -0.24076276042E+03  0.13169466156E+04 -0.10045784638E+04  0.16737661113E+04  0.10100000352E+00 0. -1.
</event>
<event>
 5   0  0.5328368E-06  0.2974772E+04  0.7818609E-02  0.8250972E-01
        2   -1    0    0  501    0  0.00000000000E+00  0.00000000000E+00  0.26975510516E+04  0.26975510516E+04  0.25500000920E-02 0.  1.
       -2   -1    0    0    0  501  0.00000000000E+00  0.00000000000E+00 -0.82012052953E+03  0.82012052953E+03  0.25500000920E-02 0. -1.
    10030    2    1    2    0    0  0.00000000000E+00  0.00000000000E+00  0.18774305220E+04  0.35176715811E+04  0.29747719219E+04 0.  0.
        1    1    3    3  502    0 -0.50672677820E+03 -0.10351349314E+02  0.25922892101E+04  0.26413713346E+04  0.50400001928E-02 0.  1.
       -1    1    3    3    0  502  0.50672677820E+03  0.10351349314E+02 -0.71485868806E+03  0.87630024655E+03  0.50400001928E-02 0. -1.
</event>
<event>
 5   0  0.1840431E-06  0.3105301E+04  0.7818609E-02  0.8214285E-01
       -1   -1    0    0    0  501  0.00000000000E+00  0.00000000000E+00  0.87021798429E+03  0.87021798430E+03  0.50400001928E-02 0. -1.
        1   -1    0    0  501    0  0.00000000000E+00  0.00000000000E+00 -0.27702524407E+04  0.27702524407E+04  0.50400001928E-02 0.  1.
    10030    2    1    2    0    0  0.00000000000E+00  0.00000000000E+00 -0.19000344564E+04  0.36404704250E+04  0.31053009483E+04 0.  0.
        1    1    3    3  502    0  0.45265122272E+03 -0.10072140901E+04 -0.22296151373E+04  0.24880829997E+04  0.50400001928E-02 0.  1.
       -1    1    3    3    0  502 -0.45265122272E+03  0.10072140901E+04  0.32958068093E+03  0.11523874253E+04  0.50400001928E-02 0. -1.
</event>
<event>
 5   0  0.1885307E-06  0.3085661E+04  0.7818609E-02  0.8219684E-01
        1   -1    0    0  501    0  0.00000000000E+00  0.00000000000E+00  0.18415312204E+04  0.18415312204E+04  0.50400001928E-02 0. -1.
       -1   -1    0    0    0  501  0.00000000000E+00  0.00000000000E+00 -0.12925796840E+04  0.12925796840E+04  0.50400001928E-02 0.  1.
    10030    2    1    2    0    0  0.00000000000E+00  0.00000000000E+00  0.54895153635E+03  0.31341109044E+04  0.30856609295E+04 0.  0.
        3    1    3    3  502    0 -0.11061443429E+04 -0.72362870799E+03 -0.53371390604E+03  0.14254979334E+04  0.10100000352E+00 0.  1.
       -3    1    3    3    0  502  0.11061443429E+04  0.72362870799E+03  0.10826654424E+04  0.17086129710E+04  0.10100000352E+00 0. -1.
</event>
<event>
 5   0  0.4900679E-06  0.3062660E+04  0.7818609E-02  0.8226061E-01
        2   -1    0    0  501    0  0.00000000000E+00  0.00000000000E+00  0.21723949018E+04  0.21723949018E+04  0.25500000920E-02 0. -1.
       -2   -1    0    0    0  501  0.00000000000E+00  0.00000000000E+00 -0.10794405229E+04  0.10794405229E+04  0.25500000920E-02 0.  1.
    10030    2    1    2    0    0  0.00000000000E+00  0.00000000000E+00  0.10929543789E+04  0.32518354247E+04  0.30626596864E+04 0.  0.
        4    1    3    3  502    0 -0.79252804560E+03 -0.35365514924E+03  0.18860725372E+04  0.20761608551E+04  0.12699999809E+01 0. -1.
       -4    1    3    3    0  502  0.79252804560E+03  0.35365514924E+03 -0.79311815832E+03  0.11756745696E+04  0.12699999809E+01 0.  1.
</event>
<event>
 5   0  0.1649875E-06  0.3034632E+04  0.7818609E-02  0.8233910E-01
       -4   -1    0    0    0  501  0.00000000000E+00  0.00000000000E+00  0.15508477111E+04  0.15508482311E+04  0.12699999809E+01 0.  1.
        4   -1    0    0  501    0  0.00000000000E+00  0.00000000000E+00 -0.14845081829E+04  0.14845087262E+04  0.12699999809E+01 0. -1.
    10030    2    1    2    0    0  0.00000000000E+00  0.00000000000E+00  0.66339528163E+02  0.30353569573E+04  0.30346319258E+04 0.  0.
        4    1    3    3  502    0  0.19886563710E+01 -0.11650718622E+04 -0.93909627907E+03  0.14964290271E+04  0.12699999809E+01 0. -1.
       -4    1    3    3    0  502 -0.19886563710E+01  0.11650718622E+04  0.10054358072E+04  0.15389279302E+04  0.12699999809E+01 0.  1.
</event>
<event>
 5   0  0.5328368E-06  0.2479334E+04  0.7818609E-02  0.8410385E-01
        2   -1    0    0  501    0  0.00000000000E+00  0.00000000000E+00  0.99874947660E+03  0.99874947660E+03  0.25500000920E-02 0.  1.
       -2   -1    0    0    0  501  0.00000000000E+00  0.00000000000E+00 -0.15386983456E+04  0.15386983456E+04  0.25500000920E-02 0. -1.
    10030    2    1    2    0    0  0.00000000000E+00  0.00000000000E+00 -0.53994886896E+03  0.25374478222E+04  0.24793339164E+04 0.  0.
        1    1    3    3  502    0  0.53842377126E+03 -0.53362877353E+03 -0.12738397366E+04  0.14823385240E+04  0.50400001928E-02 0. -1.
       -1    1    3    3    0  502 -0.53842377126E+03  0.53362877353E+03  0.73389086760E+03  0.10551092981E+04  0.50400001928E-02 0.  1.
</event>
<event>
 5   0  0.4927533E-06  0.2658270E+04  0.7818609E-02  0.8348673E-01
        2   -1    0    0  501    0  0.00000000000E+00  0.00000000000E+00  0.14236500567E+04  0.14236500567E+04  0.25500000920E-02 0.  1.
       -2   -1    0    0    0  501  0.00000000000E+00  0.00000000000E+00 -0.12408950565E+04  0.12408950565E+04  0.25500000920E-02 0. -1.
    10030    2    1    2    0    0  0.00000000000E+00  0.00000000000E+00  0.18275500024E+03  0.26645451132E+04  0.26582703531E+04 0.  0.
        5    1    3    3  502    0 -0.18673903179E+03 -0.80273202796E+03  0.11365891130E+04  0.14039612091E+04  0.46999998093E+01 0.  1.
       -5    1    3    3    0  502  0.18673903179E+03  0.80273202796E+03 -0.95383411281E+03  0.12605839042E+04  0.46999998093E+01 0. -1.
</event>
<event>
 5   0  0.4900679E-06  0.3078150E+04  0.7818609E-02  0.8221760E-01
        2   -1    0    0  501    0  0.00000000000E+00  0.00000000000E+00  0.11927937164E+04  0.11927937164E+04  0.25500000920E-02 0. -1.
       -2   -1    0    0    0  501  0.00000000000E+00  0.00000000000E+00 -0.19858856499E+04  0.19858856499E+04  0.25500000920E-02 0.  1.
    10030    2    1    2    0    0  0.00000000000E+00  0.00000000000E+00 -0.79309193356E+03  0.31786793663E+04  0.30781500448E+04 0.  0.
        4    1    3    3  502    0  0.25341112888E+02  0.92460573629E+03  0.87375573171E+03  0.12723948409E+04  0.12699999809E+01 0. -1.
       -4    1    3    3    0  502 -0.25341112888E+02 -0.92460573629E+03 -0.16668476653E+04  0.19062845254E+04  0.12699999809E+01 0.  1.
</event>
<event>
 5   0  0.1885307E-06  0.3133096E+04  0.7818609E-02  0.8206713E-01
       -1   -1    0    0    0  501  0.00000000000E+00  0.00000000000E+00  0.14420092708E+04  0.14420092709E+04  0.50400001928E-02 0. -1.
        1   -1    0    0  501    0  0.00000000000E+00  0.00000000000E+00 -0.17018420990E+04  0.17018420990E+04  0.50400001928E-02 0.  1.
    10030    2    1    2    0    0  0.00000000000E+00  0.00000000000E+00 -0.25983282812E+03  0.31438513698E+04  0.31330956476E+04 0.  0.
        3    1    3    3  502    0  0.63734345723E+03  0.54563708443E+03  0.11975557968E+04  0.14622128460E+04  0.10100000352E+00 0. -1.
       -3    1    3    3    0  502 -0.63734345723E+03 -0.54563708443E+03 -0.14573886249E+04  0.16816385238E+04  0.10100000352E+00 0.  1.
</event>
<event>
 5   0  0.1885307E-06  0.3083782E+04  0.7818609E-02  0.8220203E-01
        1   -1    0    0  501    0  0.00000000000E+00  0.00000000000E+00  0.17952517936E+04  0.17952517936E+04  0.50400001928E-02 0. -1.
       -1   -1    0    0    0  501  0.00000000000E+00  0.00000000000E+00 -0.13242868840E+04  0.13242868841E+04  0.50400001928E-02 0.  1.
    10030    2    1    2    0    0  0.00000000000E+00  0.00000000000E+00  0.47096490959E+03  0.31195386777E+04  0.30837823554E+04 0.  0.
        3    1    3    3  502    0  0.68904680299E+03  0.13615143116E+04  0.11735403918E+02  0.15259896616E+04  0.10100000352E+00 0.  1.
       -3    1    3    3    0  502 -0.68904680299E+03 -0.13615143116E+04  0.45922950567E+03  0.15935490161E+04  0.10100000352E+00 0. -1.
</event>
<event>
 5   0  0.5001658E-06  0.3110193E+04  0.7818609E-02  0.8212946E-01
       -2   -1    0    0    0  501  0.00000000000E+00  0.00000000000E+00  0.11924423197E+04  0.11924423197E+04  0.25500000920E-02 0. -1.
        2   -1    0    0  501    0  0.00000000000E+00  0.00000000000E+00 -0.20280433492E+04  0.20280433492E+04  0.25500000920E-02 0.  1.
    10030    2    1    2    0    0  0.00000000000E+00  0.00000000000E+00 -0.83560102958E+03  0.32204856689E+04  0.31101927373E+04 0.  0.
        3    1    3    3  502    0  0.34845061399E+03 -0.11868808334E+04  0.55807524019E+03  0.13570379239E+04  0.10100000352E+00 0. -1.
       -3    1    3    3    0  502 -0.34845061399E+03  0.11868808334E+04 -0.13936762698E+04  0.18634477450E+04  0.10100000352E+00 0.  1.
</event>
<event>
 5   0  0.4900679E-06  0.2558376E+04  0.7818609E-02  0.8382479E-01
       -2   -1    0    0    0  501  0.00000000000E+00  0.00000000000E+00  0.94158719946E+03  0.94158719946E+03  0.25500000920E-02 0.  1.
        2   -1    0    0  501    0  0.00000000000E+00  0.00000000000E+00 -0.17378336509E+04  0.17378336509E+04  0.25500000920E-02 0. -1.
    10030    2    1    2    0    0  0.00000000000E+00  0.00000000000E+00 -0.79624645144E+03  0.26794208504E+04  0.25583759853E+04 0.  0.
        4    1    3    3  502    0  0.25984613183E+03  0.18523443617E+03  0.89923043508E+03  0.95417440588E+03  0.12699999809E+01 0.  1.
       -4    1    3    3    0  502 -0.25984613183E+03 -0.18523443617E+03 -0.16954768865E+04  0.17252464445E+04  0.12699999809E+01 0. -1.
</event>
<event>
 5   0  0.1836401E-06  0.3090782E+04  0.7818609E-02  0.8218272E-01
        1   -1    0    0  501    0  0.00000000000E+00  0.00000000000E+00  0.18055773888E+04  0.18055773888E+04  0.50400001928E-02 0.  1.
       -1   -1    0    0    0  501  0.00000000000E+00  0.00000000000E+00 -0.13226981513E+04  0.13226981514E+04  0.50400001928E-02 0. -1.
    10030    2    1    2    0    0  0.00000000000E+00  0.00000000000E+00  0.48287923749E+03  0.31282755402E+04  0.30907823439E+04 0.  0.
        2    1    3    3  502    0 -0.84664173702E+03  0.36819246086E+03  0.14957737306E+04  0.17577562323E+04  0.25500000920E-02 0.  1.
       -2    1    3    3    0  502  0.84664173702E+03 -0.36819246086E+03 -0.10128944931E+04  0.13705193079E+04  0.25500000920E-02 0. -1.
</event>
<event>
 5   0  0.1840431E-06  0.3139380E+04  0.7818609E-02  0.8205013E-01
        1   -1    0    0  501    0  0.00000000000E+00  0.00000000000E+00  0.16645025178E+04  0.16645025178E+04  0.50400001928E-02 0.  1.
       -1   -1    0    0    0  501  0.00000000000E+00  0.00000000000E+00 -0.14802785421E+04  0.14802785421E+04  0.50400001928E-02 0. -1.
    10030    2    1    2    0    0  0.00000000000E+00  0.00000000000E+00  0.18422397572E+03  0.31447810599E+04  0.31393804231E+04 0.  0.
        1    1    3    3  502    0  0.61407984671E+03 -0.16968411193E+03 -0.13449431738E+04  0.14882066042E+04  0.50400001928E-02 0. -1.
       -1    1    3    3    0  502 -0.61407984671E+03  0.16968411193E+03  0.15291671495E+04  0.16565744557E+04  0.50400001928E-02 0.  1.
</event>
<event>
 5   0  0.1836401E-06  0.3021083E+04  0.7818609E-02  0.8237736E-01
        1   -1    0    0  501    0  0.00000000000E+00  0.00000000000E+00  0.18127921938E+04  0.18127921938E+04  0.50400001928E-02 0.  1.
       -1   -1    0    0    0  501  0.00000000000E+00  0.00000000000E+00 -0.12586858786E+04  0.12586858786E+04  0.50400001928E-02 0. -1.
    10030    2    1    2    0    0  0.00000000000E+00  0.00000000000E+00  0.55410631524E+03  0.30714780724E+04  0.30210832065E+04 0.  0.
        2    1    3    3  502    0 -0.46353520468E+03 -0.10847509379E+04 -0.68218229725E+03  0.13626893153E+04  0.25500000920E-02 0. -1.
       -2    1    3    3    0  502  0.46353520468E+03  0.10847509379E+04  0.12362886125E+04  0.17087887572E+04  0.25500000920E-02 0.  1.
</event>
<event>
 5   0  0.4900679E-06  0.2367556E+04  0.7818609E-02  0.8451751E-01
        2   -1    0    0  501    0  0.00000000000E+00  0.00000000000E+00  0.24905119274E+04  0.24905119274E+04  0.25500000920E-02 0. -1.
       -2   -1    0    0    0  501  0.00000000000E+00  0.00000000000E+00 -0.56266743667E+03  0.56266743668E+03  0.25500000920E-02 0.  1.
    10030    2    1    2    0    0  0.00000000000E+00  0.00000000000E+00  0.19278444907E+04  0.30531793641E+04  0.23675556696E+04 0.  0.
        4    1    3    3  502    0  0.63739239117E+02 -0.10556054650E+04  0.27793386266E+03  0.10934415546E+04  0.12699999809E+01 0.  1.
       -4    1    3    3    0  502 -0.63739239117E+02  0.10556054650E+04  0.16499106281E+04  0.19597378095E+04  0.12699999809E+01 0. -1.
</event>
<event>
 5   0  0.4900679E-06  0.2920051E+04  0.7818609E-02  0.8266937E-01
       -2   -1    0    0    0  501  0.00000000000E+00  0.00000000000E+00  0.14133617084E+04  0.14133617084E+04  0.25500000920E-02 0.  1.
        2   -1    0    0  501    0  0.00000000000E+00  0.00000000000E+00 -0.15082299338E+04  0.15082299338E+04  0.25500000920E-02 0. -1.
    10030    2    1    2    0    0  0.00000000000E+00  0.00000000000E+00 -0.94868225410E+02  0.29215916422E+04  0.29200509830E+04 0.  0.
        4    1    3    3  502    0 -0.14385355745E+04  0.14830473141E+02 -0.29670062524E+03  0.14688898584E+04  0.12699999809E+01 0. -1.
       -4    1    3    3    0  502  0.14385355745E+04 -0.14830473141E+02  0.20183239983E+03  0.14527017838E+04  0.12699999809E+01 0.  1.
</event>
<event>
 5   0  0.4927533E-06  0.3089563E+04  0.7818609E-02  0.8218608E-01
        2   -1    0    0  501    0  0.00000000000E+00  0.00000000000E+00  0.23713392180E+04  0.23713392181E+04  0.25500000920E-02 0.  1.
       -2   -1    0    0    0  501  0.00000000000E+00  0.00000000000E+00 -0.10063302419E+04  0.10063302420E+04  0.25500000920E-02 0. -1.
    10030    2    1    2    0    0  0.00000000000E+00  0.00000000000E+00  0.13650089761E+04  0.33776694600E+04  0.30895633148E+04 0.  0.
        5    1    3    3  502    0 -0.36750587089E+03 -0.14309779063E+04  0.18924337589E+03  0.14894943701E+04  0.46999998093E+01 0. -1.
       -5    1    3    3    0  502  0.36750587089E+03  0.14309779063E+04  0.11757656002E+04  0.18881750899E+04  0.46999998093E+01 0.  1.
</event>
<event>
 5   0  0.1885307E-06  0.2935804E+04  0.7818609E-02  0.8262304E-01
        1   -1    0    0  501    0  0.00000000000E+00  0.00000000000E+00  0.20993734534E+04  0.20993734534E+04  0.50400001928E-02 0. -1.
       -1   -1    0    0    0  501  0.00000000000E+00  0.00000000000E+00 -0.10263714493E+04  0.10263714493E+04  0.50400001928E-02 0.  1.
    10030    2    1    2    0    0  0.00000000000E+00  0.00000000000E+00  0.10730020040E+04  0.31257449027E+04  0.29358044717E+04 0.  0.
        3    1    3    3  502    0  0.13360765691E+03  0.15580147542E+03  0.20840209666E+04  0.20941032699E+04  0.10100000352E+00 0. -1.
       -3    1    3    3    0  502 -0.13360765691E+03 -0.15580147542E+03 -0.10110189625E+04  0.10316416328E+04  0.10100000352E+00 0.  1.
</event>
<event>
 5   0  0.1836401E-06  0.3082736E+04  0.7818609E-02  0.8220492E-01
       -1   -1    0    0    0  501  0.00000000000E+00  0.00000000000E+00  0.18450505115E+04  0.18450505115E+04  0.50400001928E-02 0.  1.
        1   -1    0    0  501    0  0.00000000000E+00  0.00000000000E+00 -0.12876693996E+04  0.12876693996E+04  0.50400001928E-02 0. -1.
    10030    2    1    2    0    0  0.00000000000E+00  0.00000000000E+00  0.55738111186E+03  0.31327199111E+04  0.30827358528E+04 0.  0.
        2    1    3    3  502    0  0.14965378860E+04  0.75503001606E+02 -0.88398779790E+02  0.15010465321E+04  0.25500000920E-02 0. -1.
       -2    1    3    3    0  502 -0.14965378860E+04 -0.75503001606E+02  0.64577989165E+03  0.16316733790E+04  0.25500000920E-02 0.  1.
</event>
<event>
 5   0  0.5328368E-06  0.3156237E+04  0.7818609E-02  0.8200471E-01
       -2   -1    0    0    0  501  0.00000000000E+00  0.00000000000E+00  0.97822089864E+03  0.97822089864E+03  0.25500000920E-02 0.  1.
        2   -1    0    0  501    0  0.00000000000E+00  0.00000000000E+00 -0.25459062187E+04  0.25459062187E+04  0.25500000920E-02 0. -1.
    10030    2    1    2    0    0  0.00000000000E+00  0.00000000000E+00 -0.15676853200E+04  0.35241271173E+04  0.31562374240E+04 0.  0.
        1    1    3    3  502    0  0.75562983770E+03 -0.60251221672E+02 -0.23293208460E+04  0.24495596063E+04  0.50400001928E-02 0. -1.
       -1    1    3    3    0  502 -0.75562983770E+03  0.60251221672E+02  0.76163552594E+03  0.10745675110E+04  0.50400001928E-02 0.  1.
</event>
<event>
 5   0  0.1843709E-06  0.3110326E+04  0.7818609E-02  0.8212910E-01
       -1   -1    0    0    0  501  0.00000000000E+00  0.00000000000E+00  0.92569296942E+03  0.92569296943E+03  0.50400001928E-02 0. -1.
        1   -1    0    0  501    0  0.00000000000E+00  0.00000000000E+00 -0.26126711185E+04  0.26126711185E+04  0.50400001928E-02 0.  1.
    10030    2    1    2    0    0  0.00000000000E+00  0.00000000000E+00 -0.16869781491E+04  0.35383640880E+04  0.31103255687E+04 0.  0.
        4    1    3    3  502    0  0.61366619146E+02 -0.79316280485E+03 -0.23636712527E+04  0.24939559942E+04  0.12699999809E+01 0.  1.
       -4    1    3    3    0  502 -0.61366619146E+02  0.79316280485E+03  0.67669310364E+03  0.10444080938E+04  0.12699999809E+01 0. -1.
</event>
<event>
 5   0  0.4900679E-06  0.3033839E+04  0.7818609E-02  0.8234134E-01
        2   -1    0    0  501    0  0.00000000000E+00  0.00000000000E+00  0.15704734259E+04  0.15704734259E+04  0.25500000920E-02 0.  1.
       -2   -1    0    0    0  501  0.00000000000E+00  0.00000000000E+00 -0.14651913388E+04  0.14651913388E+04  0.25500000920E-02 0. -1.
    10030    2    1    2    0    0  0.00000000000E+00  0.00000000000E+00  0.10528208707E+03  0.30356647647E+04  0.30338385333E+04 0.  0.
        4    1    3    3  502    0  0.91042766783E+03 -0.11930937371E+04 -0.16815271109E+03  0.15101748743E+04  0.12699999809E+01 0.  1.
       -4    1    3    3    0  502 -0.91042766783E+03  0.11930937371E+04  0.27343479816E+03  0.15254898904E+04  0.12699999809E+01 0. -1.
</event>
<event>
 5   0  0.5114870E-06  0.3136241E+04  0.7818609E-02  0.8205862E-01
        2   -1    0    0  501    0  0.00000000000E+00  0.00000000000E+00  0.13757993966E+04  0.13757993966E+04  0.25500000920E-02 0.  1.
       -2   -1    0    0    0  501  0.00000000000E+00  0.00000000000E+00 -0.17873259990E+04  0.17873259990E+04  0.25500000920E-02 0. -1.
    10030    2    1    2    0    0  0.00000000000E+00  0.00000000000E+00 -0.41152660248E+03  0.31631253956E+04  0.31362410819E+04 0.  0.
        2    1    3    3  502    0 -0.10042990763E+04 -0.10843359334E+04 -0.73427914472E+03  0.16503232755E+04  0.25500000920E-02 0. -1.
       -2    1    3    3    0  502  0.10042990763E+04  0.10843359334E+04  0.32275254224E+03  0.15128021201E+04  0.25500000920E-02 0.  1.
</event>
<event>
 5   0  0.1843709E-06  0.3135668E+04  0.7818609E-02  0.8206017E-01
        1   -1    0    0  501    0  0.00000000000E+00  0.00000000000E+00  0.14124561605E+04  0.14124561605E+04  0.50400001928E-02 0.  1.
       -1   -1    0    0    0  501  0.00000000000E+00  0.00000000000E+00 -0.17403045000E+04  0.17403045000E+04  0.50400001928E-02 0. -1.
    10030    2    1    2    0    0  0.00000000000E+00  0.00000000000E+00 -0.32784833942E+03  0.31527606605E+04  0.31356682300E+04 0.  0.
        4    1    3    3  502    0  0.24294690353E+02  0.81950655078E+03  0.11797439611E+04  0.14366553676E+04  0.12699999809E+01 0.  1.
       -4    1    3    3    0  502 -0.24294690353E+02 -0.81950655078E+03 -0.15075923005E+04  0.17161052929E+04  0.12699999809E+01 0. -1.
</event>
<event>
 5   0  0.4900679E-06  0.3084347E+04  0.7818609E-02  0.8220047E-01
        2   -1    0    0  501    0  0.00000000000E+00  0.00000000000E+00  0.74723518868E+03  0.74723518868E+03  0.25500000920E-02 0. -1.
       -2   -1    0    0    0  501  0.00000000000E+00  0.00000000000E+00 -0.31827981604E+04  0.31827981604E+04  0.25500000920E-02 0.  1.
    10030    2    1    2    0    0  0.00000000000E+00  0.00000000000E+00 -0.24355629717E+04  0.39300333491E+04  0.30843467924E+04 0.  0.
        4    1    3    3  502    0  0.13436723872E+04  0.74212089430E+03 -0.14071955066E+04  0.20824023897E+04  0.12699999809E+01 0.  1.
       -4    1    3    3    0  502 -0.13436723872E+04 -0.74212089430E+03 -0.10283674652E+04  0.18476309594E+04  0.12699999809E+01 0. -1.
</event>
<event>
 5   0  0.1885307E-06  0.3033168E+04  0.7818609E-02  0.8234323E-01
        1   -1    0    0  501    0  0.00000000000E+00  0.00000000000E+00  0.25223559864E+04  0.25223559864E+04  0.50400001928E-02 0. -1.
       -1   -1    0    0    0  501  0.00000000000E+00  0.00000000000E+00 -0.91185653462E+03  0.91185653463E+03  0.50400001928E-02 0.  1.
    10030    2    1    2    0    0  0.00000000000E+00  0.00000000000E+00  0.16104994518E+04  0.34342125211E+04  0.30331678416E+04 0.  0.
        3    1    3    3  502    0  0.10966243902E+04 -0.75048260294E+01 -0.38082025465E+03  0.11608899397E+04  0.10100000352E+00 0. -1.
       -3    1    3    3    0  502 -0.10966243902E+04  0.75048260294E+01  0.19913197065E+04  0.22733225814E+04  0.10100000352E+00 0.  1.
</event>
<event>
 5   0  0.4927533E-06  0.3040205E+04  0.7818609E-02  0.8232343E-01
        2   -1    0    0  501    0  0.00000000000E+00  0.00000000000E+00  0.79887662093E+03  0.79887662094E+03  0.25500000920E-02 0.  1.
       -2   -1    0    0    0  501  0.00000000000E+00  0.00000000000E+00 -0.28924503775E+04  0.28924503775E+04  0.25500000920E-02 0. -1.
    10030    2    1    2    0    0  0.00000000000E+00  0.00000000000E+00 -0.20935737565E+04  0.36913269984E+04  0.30402045877E+04 0.  0.
        5    1    3    3  502    0 -0.26502660986E+01 -0.13482639958E+04 -0.19438545002E+03  0.13622153352E+04  0.46999998093E+01 0.  1.
       -5    1    3    3    0  502  0.26502660986E+01  0.13482639958E+04 -0.18991883065E+04  0.23291116632E+04  0.46999998093E+01 0. -1.
</event>
<event>
 5   0  0.4927533E-06  0.3088710E+04  0.7818609E-02  0.8218843E-01
       -2   -1    0    0    0  501  0.00000000000E+00  0.00000000000E+00  0.17779398171E+04  0.17779398171E+04  0.25500000920E-02 0.  1.
        2   -1    0    0  501    0  0.00000000000E+00  0.00000000000E+00 -0.13414581016E+04  0.13414581016E+04  0.25500000920E-02 0. -1.
    10030    2    1    2    0    0  0.00000000000E+00  0.00000000000E+00  0.43648171545E+03  0.31193979188E+04  0.30887096153E+04 0.  0.
        5    1    3    3  502    0 -0.12178526982E+04  0.36201674747E+03 -0.66842762679E+03  0.14356318826E+04  0.46999998093E+01 0. -1.
       -5    1    3    3    0  502  0.12178526982E+04 -0.36201674747E+03  0.11049093422E+04  0.16837660362E+04  0.46999998093E+01 0.  1.
</event>
<event>
 5   0  0.5328368E-06  0.2376015E+04  0.7818609E-02  0.8448538E-01
        2   -1    0    0  501    0  0.00000000000E+00  0.00000000000E+00  0.11946226481E+04  0.11946226481E+04  0.25500000920E-02 0. -1.
       -2   -1    0    0    0  501  0.00000000000E+00  0.00000000000E+00 -0.11814289627E+04  0.11814289628E+04  0.25500000920E-02 0.  1.
    10030    2    1    2    0    0  0.00000000000E+00  0.00000000000E+00  0.13193685388E+02  0.23760516109E+04  0.23760149798E+04 0.  0.
        1    1    3    3  502    0  0.11799404804E+04  0.13456046573E+03  0.38152675189E+02  0.11882010280E+04  0.50400001928E-02 0. -1.
       -1    1    3    3    0  502 -0.11799404804E+04 -0.13456046573E+03 -0.24958989802E+02  0.11878505829E+04  0.50400001928E-02 0.  1.
</event>
<event>
 5   0  0.1843709E-06  0.3096305E+04  0.7818609E-02  0.8216753E-01
       -1   -1    0    0    0  501  0.00000000000E+00  0.00000000000E+00  0.15244847599E+04  0.15244847599E+04  0.50400001928E-02 0.  1.
        1   -1    0    0  501    0  0.00000000000E+00  0.00000000000E+00 -0.15721873951E+04  0.15721873951E+04  0.50400001928E-02 0. -1.
    10030    2    1    2    0    0  0.00000000000E+00  0.00000000000E+00 -0.47702635219E+02  0.30966721550E+04  0.30963047159E+04 0.  0.
        4    1    3    3  502    0  0.15299651456E+04 -0.56682931985E+02 -0.25359102607E+03  0.15518750990E+04  0.12699999809E+01 0. -1.
       -4    1    3    3    0  502 -0.15299651456E+04  0.56682931985E+02  0.20588839085E+03  0.15447970559E+04  0.12699999809E+01 0.  1.
</event>
<event>
 5   0  0.1885307E-06  0.3034519E+04  0.7818609E-02  0.8233942E-01
        1   -1    0    0  501    0  0.00000000000E+00  0.00000000000E+00  0.27920842567E+04  0.27920842567E+04  0.50400001928E-02 0.  1.
       -1   -1    0    0    0  501  0.00000000000E+00  0.00000000000E+00 -0.82450087352E+03  0.82450087354E+03  0.50400001928E-02 0. -1.
    10030    2    1    2    0    0  0.00000000000E+00  0.00000000000E+00  0.19675833832E+04  0.36165851303E+04  0.30345186825E+04 0.  0.
        3    1    3    3  502    0 -0.33878721153E+03 -0.90529160552E+03  0.23776275730E+04  0.25666013620E+04  0.10100000352E+00 0.  1.
       -3    1    3    3    0  502  0.33878721153E+03  0.90529160552E+03 -0.41004418978E+03  0.10499837682E+04  0.10100000352E+00 0. -1.
</event>
<event>
 5   0  0.1885307E-06  0.2913233E+04  0.7818609E-02  0.8268951E-01
       -1   -1    0    0    0  501  0.00000000000E+00  0.00000000000E+00  0.79278407527E+03  0.79278407529E+03  0.50400001928E-02 0.  1.
        1   -1    0    0  501    0  0.00000000000E+00  0.00000000000E+00 -0.26763051162E+04  0.26763051162E+04  0.50400001928E-02 0. -1.
    10030    2    1    2    0    0  0.00000000000E+00  0.00000000000E+00 -0.18835210409E+04  0.34690891915E+04  0.29132333080E+04 0.  0.
        3    1    3    3  502    0  0.19377353113E+03  0.14161151477E+04 -0.60748221229E+03  0.15530502057E+04  0.10100000352E+00 0. -1.
       -3    1    3    3    0  502 -0.19377353113E+03 -0.14161151477E+04 -0.12760388286E+04  0.19160389858E+04  0.10100000352E+00 0.  1.
</event>
<event>
 5   0  0.4900679E-06  0.3128998E+04  0.7818609E-02  0.8207825E-01
       -2   -1    0    0    0  501  0.00000000000E+00  0.00000000000E+00  0.12413893742E+04  0.12413893742E+04  0.25500000920E-02 0.  1.
        2   -1    0    0  501    0  0.00000000000E+00  0.00000000000E+00 -0.19717073254E+04  0.19717073254E+04  0.25500000920E-02 0. -1.
    10030    2    1    2    0    0  0.00000000000E+00  0.00000000000E+00 -0.73031795118E+03  0.32130966996E+04  0.31289976176E+04 0.  0.
        4    1    3    3  502    0  0.98309183998E+03 -0.11661683083E+04 -0.76097570711E+01  0.15252795188E+04  0.12699999809E+01 0. -1.
       -4    1    3    3    0  502 -0.98309183998E+03  0.11661683083E+04 -0.72270819411E+03  0.16878171808E+04  0.12699999809E+01 0.  1.
</event>
<event>
 5   0  0.1853742E-06  0.2998730E+04  0.7818609E-02  0.8244094E-01
       -1   -1    0    0    0  501  0.00000000000E+00  0.00000000000E+00  0.14859207356E+04  0.14859207357E+04  0.50400001928E-02 0. -1.
        1   -1    0    0  501    0  0.00000000000E+00  0.00000000000E+00 -0.15129305130E+04  0.15129305130E+04  0.50400001928E-02 0.  1.
    10030    2    1    2    0    0  0.00000000000E+00  0.00000000000E+00 -0.27009777351E+02  0.29988512487E+04  0.29987296116E+04 0.  0.
        5    1    3    3  502    0 -0.80391028558E+03  0.22615987799E+02  0.12519671217E+04  0.14880278875E+04  0.46999998093E+01 0. -1.
       -5    1    3    3    0  502  0.80391028558E+03 -0.22615987799E+02 -0.12789768991E+04  0.15108233611E+04  0.46999998093E+01 0.  1.
</event>
<event>
 5   0  0.1840431E-06  0.2321961E+04  0.7818609E-02  0.8469312E-01
       -1   -1    0    0    0  501  0.00000000000E+00  0.00000000000E+00  0.21268549622E+04  0.21268549622E+04  0.50400001928E-02 0. -1.
        1   -1    0    0  501    0  0.00000000000E+00  0.00000000000E+00 -0.63374097926E+03  0.63374097928E+03  0.50400001928E-02 0.  1.
    10030    2    1    2    0    0  0.00000000000E+00  0.00000000000E+00  0.14931139830E+04  0.27605959415E+04  0.23219605049E+04 0.  0.
        1    1    3    3  502    0  0.90811564759E+03 -0.51850810474E+03  0.14695332121E+03  0.10559924066E+04  0.50400001928E-02 0.  1.
       -1    1    3    3    0  502 -0.90811564759E+03  0.51850810474E+03  0.13461606618E+04  0.17046035350E+04  0.50400001928E-02 0. -1.
</event>
<event>
 5   0  0.1836401E-06  0.2736909E+04  0.7818609E-02  0.8323128E-01
        1   -1    0    0  501    0  0.00000000000E+00  0.00000000000E+00  0.17874102755E+04  0.17874102755E+04  0.50400001928E-02 0. -1.
       -1   -1    0    0    0  501  0.00000000000E+00  0.00000000000E+00 -0.10476987658E+04  0.10476987658E+04  0.50400001928E-02 0.  1.
    10030    2    1    2    0    0  0.00000000000E+00  0.00000000000E+00  0.73971150966E+03  0.28351090413E+04  0.27369088692E+04 0.  0.
        2    1    3    3  502    0  0.92676931633E+03  0.13050053175E+03  0.14040436623E+04  0.16873856584E+04  0.25500000920E-02 0. -1.
       -2    1    3    3    0  502 -0.92676931633E+03 -0.13050053175E+03 -0.66433215268E+03  0.11477233829E+04  0.25500000920E-02 0.  1.
</event>
<event>
 5   0  0.5001658E-06  0.3327109E+04  0.7818609E-02  0.8156032E-01
        2   -1    0    0  501    0  0.00000000000E+00  0.00000000000E+00  0.26171773397E+04  0.26171773397E+04  0.25500000920E-02 0. -1.
       -2   -1    0    0    0  501  0.00000000000E+00  0.00000000000E+00 -0.10574038048E+04  0.10574038048E+04  0.25500000920E-02 0.  1.
    10030    2    1    2    0    0  0.00000000000E+00  0.00000000000E+00  0.15597735348E+04  0.36745811445E+04  0.33271088211E+04 0.  0.
        3    1    3    3  502    0 -0.68471530439E+03  0.15159697830E+04  0.80235426968E+03  0.18468275002E+04  0.10100000352E+00 0.  1.
       -3    1    3    3    0  502  0.68471530439E+03 -0.15159697830E+04  0.75741926515E+03  0.18277536444E+04  0.10100000352E+00 0. -1.
</event>
<event>
 5   0  0.4900679E-06  0.2997419E+04  0.7818609E-02  0.8244468E-01
       -2   -1    0    0    0  501  0.00000000000E+00  0.00000000000E+00  0.94980013897E+03  0.94980013897E+03  0.25500000920E-02 0.  1.
        2   -1    0    0  501    0  0.00000000000E+00  0.00000000000E+00 -0.23648455414E+04  0.23648455414E+04  0.25500000920E-02 0. -1.
    10030    2    1    2    0    0  0.00000000000E+00  0.00000000000E+00 -0.14150454025E+04  0.33146456804E+04  0.29974193059E+04 0.  0.
        4    1    3    3  502    0  0.12074966742E+04 -0.88686617565E+03 -0.75104786738E+03  0.16759040378E+04  0.12699999809E+01 0.  1.
       -4    1    3    3    0  502 -0.12074966742E+04  0.88686617565E+03 -0.66399753508E+03  0.16387416426E+04  0.12699999809E+01 0. -1.
</event>
<event>
 5   0  0.5328368E-06  0.3063346E+04  0.7818609E-02  0.8225870E-01
        2   -1    0    0  501    0  0.00000000000E+00  0.00000000000E+00  0.13714695516E+04  0.13714695516E+04  0.25500000920E-02 0. -1.
       -2   -1    0    0    0  501  0.00000000000E+00  0.00000000000E+00 -0.17105901365E+04  0.17105901365E+04  0.25500000920E-02 0.  1.
    10030    2    1    2    0    0  0.00000000000E+00  0.00000000000E+00 -0.33912058488E+03  0.30820596880E+04  0.30633460708E+04 0.  0.
        1    1    3    3  502    0 -0.25621662125E+03  0.14202035435E+04 -0.68591790065E+03  0.15978449326E+04  0.50400001928E-02 0.  1.
       -1    1    3    3    0  502  0.25621662125E+03 -0.14202035435E+04  0.34679731577E+03  0.14842147555E+04  0.50400001928E-02 0. -1.
</event>
<event>
 5   0  0.5001658E-06  0.3099445E+04  0.7818609E-02  0.8215890E-01
        2   -1    0    0  501    0  0.00000000000E+00  0.00000000000E+00  0.19407291256E+04  0.19407291256E+04  0.25500000920E-02 0.  1.
       -2   -1    0    0    0  501  0.00000000000E+00  0.00000000000E+00 -0.12374934795E+04  0.12374934795E+04  0.25500000920E-02 0. -1.
    10030    2    1    2    0    0  0.00000000000E+00  0.00000000000E+00  0.70323564604E+03  0.31782226051E+04  0.30994448783E+04 0.  0.
        3    1    3    3  502    0 -0.10112236497E+04  0.11443192117E+04  0.62214113992E+03  0.16489691738E+04  0.10100000352E+00 0.  1.
       -3    1    3    3    0  502  0.10112236497E+04 -0.11443192117E+04  0.81094506122E+02  0.15292534313E+04  0.10100000352E+00 0. -1.
</event>
<event>
 5   0  0.1853742E-06  0.2814109E+04  0.7818609E-02  0.8298902E-01
       -1   -1    0    0    0  501  0.00000000000E+00  0.00000000000E+00  0.18560447447E+04  0.18560447447E+04  0.50400001928E-02 0.  1.
        1   -1    0    0  501    0  0.00000000000E+00  0.00000000000E+00 -0.10666779362E+04  0.10666779362E+04  0.50400001928E-02 0. -1.
    10030    2    1    2    0    0  0.00000000000E+00  0.00000000000E+00  0.78936680843E+03  0.29227226809E+04  0.28141087241E+04 0.  0.
        5    1    3    3  502    0 -0.68081909039E+03 -0.18492366901E+03 -0.86970607733E+03  0.11198759521E+04  0.46999998093E+01 0. -1.
       -5    1    3    3    0  502  0.68081909039E+03  0.18492366901E+03  0.16590728858E+04  0.18028467288E+04  0.46999998093E+01 0.  1.
</event>
<event>
 5   0  0.1843709E-06  0.3111453E+04  0.7818609E-02  0.8212602E-01
       -1   -1    0    0    0  501  0.00000000000E+00  0.00000000000E+00  0.14611162639E+04  0.14611162639E+04  0.50400001928E-02 0. -1.
        1   -1    0    0  501    0  0.00000000000E+00  0.00000000000E+00 -0.16564627632E+04  0.16564627632E+04  0.50400001928E-02 0.  1.
    10030    2    1    2    0    0  0.00000000000E+00  0.00000000000E+00 -0.19534649924E+03  0.31175790271E+04  0.31114528336E+04 0.  0.
        4    1    3    3  502    0 -0.19473496731E+03 -0.15118853203E+04 -0.40903279998E+03  0.15782992028E+04  0.12699999809E+01 0.  1.
       -4    1    3    3    0  502  0.19473496731E+03  0.15118853203E+04  0.21368630074E+03  0.15392798243E+04  0.12699999809E+01 0. -1.
</event>
<event>
 5   0  0.1853742E-06  0.3012050E+04  0.7818609E-02  0.8240298E-01
        1   -1    0    0  501    0  0.00000000000E+00  0.00000000000E+00  0.16395433764E+04  0.16395433764E+04  0.50400001928E-02 0.  1.
       -1   -1    0    0    0  501  0.00000000000E+00  0.00000000000E+00 -0.13833795955E+04  0.13833795955E+04  0.50400001928E-02 0. -1.
    10030    2    1    2    0    0  0.00000000000E+00  0.00000000000E+00  0.25616378092E+03  0.30229229719E+04  0.30120497027E+04 0.  0.
        5    1    3    3  502    0 -0.71597638072E+03 -0.74025221263E+02  0.14557280385E+04  0.16239667863E+04  0.46999998093E+01 0.  1.
       -5    1    3    3    0  502  0.71597638072E+03  0.74025221263E+02 -0.11995642575E+04  0.13989561856E+04  0.46999998093E+01 0. -1.
</event>
<event>
 5   0  0.1885307E-06  0.3145177E+04  0.7818609E-02  0.8203448E-01
       -1   -1    0    0    0  501  0.00000000000E+00  0.00000000000E+00  0.17968848479E+04  0.17968848479E+04  0.50400001928E-02 0.  1.
        1   -1    0    0  501    0  0.00000000000E+00  0.00000000000E+00 -0.13762896521E+04  0.13762896521E+04  0.50400001928E-02 0. -1.
    10030    2    1    2    0    0  0.00000000000E+00  0.00000000000E+00  0.42059519573E+03  0.31731745000E+04  0.31451766388E+04 0.  0.
        3    1    3    3  502    0  0.84468289586E+03 -0.17418562011E+03  0.15369955343E+04  0.17624372634E+04  0.10100000352E+00 0.  1.
       -3    1    3    3    0  502 -0.84468289586E+03  0.17418562011E+03 -0.11164003385E+04  0.14107372367E+04  0.10100000352E+00 0. -1.
</event>
<event>
 5   0  0.4900679E-06  0.3145270E+04  0.7818609E-02  0.8203423E-01
       -2   -1    0    0    0  501  0.00000000000E+00  0.00000000000E+00  0.14140779407E+04  0.14140779407E+04  0.25500000920E-02 0. -1.
        2   -1    0    0  501    0  0.00000000000E+00  0.00000000000E+00 -0.17489706459E+04  0.17489706459E+04  0.25500000920E-02 0.  1.
    10030    2    1    2    0    0  0.00000000000E+00  0.00000000000E+00 -0.33489270524E+03  0.31630485866E+04  0.31452699784E+04 0.  0.
        4    1    3    3  502    0 -0.23699493404E+03  0.10273436706E+04  0.10060159142E+04  0.14572821445E+04  0.12699999809E+01 0. -1.
       -4    1    3    3    0  502  0.23699493404E+03 -0.10273436706E+04 -0.13409086194E+04  0.17057664421E+04  0.12699999809E+01 0.  1.
</event>
<event>
 5   0  0.5328368E-06  0.2737721E+04  0.7818609E-02  0.8322869E-01
       -2   -1    0    0    0  501  0.00000000000E+00  0.00000000000E+00  0.11710762351E+04  0.11710762351E+04  0.25500000920E-02 0. -1.
        2   -1    0    0  501    0  0.00000000000E+00  0.00000000000E+00 -0.16000488233E+04  0.16000488233E+04  0.25500000920E-02 0.  1.
    10030    2    1    2    0    0  0.00000000000E+00  0.00000000000E+00 -0.42897258825E+03  0.27711250584E+04  0.27377210610E+04 0.  0.
        1    1    3    3  502    0  0.11241727791E+04 -0.74212212694E+03 -0.46090996677E+03  0.14237091297E+04  0.50400001928E-02 0.  1.
       -1    1    3    3    0  502 -0.11241727791E+04  0.74212212694E+03  0.31937378514E+02  0.13474159287E+04  0.50400001928E-02 0. -1.
</event>
<event>
 5   0  0.5114870E-06  0.3089250E+04  0.7818609E-02  0.8218694E-01
       -2   -1    0    0    0  501  0.00000000000E+00  0.00000000000E+00  0.13111831154E+04  0.13111831154E+04  0.25500000920E-02 0. -1.
        2   -1    0    0  501    0  0.00000000000E+00  0.00000000000E+00 -0.18196291370E+04  0.18196291370E+04  0.25500000920E-02 0.  1.
    10030    2    1    2    0    0  0.00000000000E+00  0.00000000000E+00 -0.50844602162E+03  0.31308122524E+04  0.30892503950E+04 0.  0.
        2    1    3    3  502    0 -0.54792867964E+03 -0.33615677161E+02  0.12089848479E+04  0.13277801830E+04  0.25500000920E-02 0. -1.
       -2    1    3    3    0  502  0.54792867964E+03  0.33615677161E+02 -0.17174308696E+04  0.18030320694E+04  0.25500000920E-02 0.  1.
</event>
<event>
 5   0  0.1885307E-06  0.2507372E+04  0.7818609E-02  0.8400364E-01
       -1   -1    0    0    0  501  0.00000000000E+00  0.00000000000E+00  0.10836651092E+04  0.10836651092E+04  0.50400001928E-02 0.  1.
        1   -1    0    0  501    0  0.00000000000E+00  0.00000000000E+00 -0.14503821374E+04  0.14503821374E+04  0.50400001928E-02 0. -1.
    10030    2    1    2    0    0  0.00000000000E+00  0.00000000000E+00 -0.36671702819E+03  0.25340472465E+04  0.25073719447E+04 0.  0.
        3    1    3    3  502    0  0.68029730111E+01 -0.83169367530E+03  0.76468735480E+03  0.11298262746E+04  0.10100000352E+00 0.  1.
       -3    1    3    3    0  502 -0.68029730111E+01  0.83169367530E+03 -0.11314043830E+04  0.14042209719E+04  0.10100000352E+00 0. -1.
</event>
<event>
 5   0  0.5001658E-06  0.3114973E+04  0.7818609E-02  0.8211641E-01
        2   -1    0    0  501    0  0.00000000000E+00  0.00000000000E+00  0.24671981765E+04  0.24671981765E+04  0.25500000920E-02 0. -1.
       -2   -1    0    0    0  501  0.00000000000E+00  0.00000000000E+00 -0.98320603117E+03  0.98320603117E+03  0.25500000920E-02 0.  1.
    10030    2    1    2    0    0  0.00000000000E+00  0.00000000000E+00  0.14839921453E+04  0.34504042077E+04  0.31149729548E+04 0.  0.
        3    1    3    3  502    0  0.11070840404E+04 -0.10587177250E+04  0.43017613117E+03  0.15910907603E+04  0.10100000352E+00 0. -1.
       -3    1    3    3    0  502 -0.11070840404E+04  0.10587177250E+04  0.10538160142E+04  0.18593134474E+04  0.10100000352E+00 0.  1.
</event>
<event>
 5   0  0.4927533E-06  0.3131779E+04  0.7818609E-02  0.8207070E-01
       -2   -1    0    0    0  501  0.00000000000E+00  0.00000000000E+00  0.92149976919E+03  0.92149976919E+03  0.25500000920E-02 0. -1.
        2   -1    0    0  501    0  0.00000000000E+00  0.00000000000E+00 -0.26608898743E+04  0.26608898743E+04  0.25500000920E-02 0.  1.
    10030    2    1    2    0    0  0.00000000000E+00  0.00000000000E+00 -0.17393901051E+04  0.35823896435E+04  0.31317786671E+04 0.  0.
        5    1    3    3  502    0 -0.89851409133E+03  0.63488478371E+02  0.59547132963E+03  0.10797993117E+04  0.46999998093E+01 0. -1.
       -5    1    3    3    0  502  0.89851409133E+03 -0.63488478371E+02 -0.23348614347E+04  0.25025903318E+04  0.46999998093E+01 0.  1.
</event>
<event>
 5   0  0.5328368E-06  0.3160848E+04  0.7818609E-02  0.8199234E-01
       -2   -1    0    0    0  501  0.00000000000E+00  0.00000000000E+00  0.17686017763E+04  0.17686017763E+04  0.25500000920E-02 0.  1.
        2   -1    0    0  501    0  0.00000000000E+00  0.00000000000E+00 -0.14122682454E+04  0.14122682455E+04  0.25500000920E-02 0. -1.
    10030    2    1    2    0    0  0.00000000000E+00  0.00000000000E+00  0.35633353085E+03  0.31808700218E+04  0.31608480682E+04 0.  0.
        1    1    3    3  502    0  0.12280337704E+04  0.46551605987E+03 -0.70658829443E+03  0.14913212803E+04  0.50400001928E-02 0.  1.
       -1    1    3    3    0  502 -0.12280337704E+04 -0.46551605987E+03  0.10629218253E+04  0.16895487415E+04  0.50400001928E-02 0. -1.
</event>
<event>
 5   0  0.1885307E-06  0.3015199E+04  0.7818609E-02  0.8239404E-01
       -1   -1    0    0    0  501  0.00000000000E+00  0.00000000000E+00  0.15834433251E+04  0.15834433251E+04  0.50400001928E-02 0. -1.
        1   -1    0    0  501    0  0.00000000000E+00  0.00000000000E+00 -0.14353882275E+04  0.14353882275E+04  0.50400001928E-02 0.  1.
    10030    2    1    2    0    0  0.00000000000E+00  0.00000000000E+00  0.14805509753E+03  0.30188315526E+04  0.30151987714E+04 0.  0.
        3    1    3    3  502    0  0.69931028622E+03 -0.26431960912E+03  0.13847863677E+04  0.15737004246E+04  0.10100000352E+00 0. -1.
       -3    1    3    3    0  502 -0.69931028622E+03  0.26431960912E+03 -0.12367312702E+04  0.14451311280E+04  0.10100000352E+00 0.  1.
</event>
<event>
 5   0  0.1843709E-06  0.3031159E+04  0.7818609E-02  0.8234889E-01
       -1   -1    0    0    0  501  0.00000000000E+00  0.00000000000E+00  0.93738424078E+03  0.93738424079E+03  0.50400001928E-02 0.  1.
        1   -1    0    0  501    0  0.00000000000E+00  0.00000000000E+00 -0.24504154162E+04  0.24504154162E+04  0.50400001928E-02 0. -1.
    10030    2    1    2    0    0  0.00000000000E+00  0.00000000000E+00 -0.15130311754E+04  0.33877996570E+04  0.30311587187E+04 0.  0.
        4    1    3    3  502    0 -0.88196182803E+03  0.15344701608E+03 -0.21233420001E+04  0.23043405814E+04  0.12699999809E+01 0. -1.
       -4    1    3    3    0  502  0.88196182803E+03 -0.15344701608E+03  0.61031082468E+03  0.10834590756E+04  0.12699999809E+01 0.  1.
</event>
<event>
 5   0  0.1853742E-06  0.3098944E+04  0.7818609E-02  0.8216028E-01
        1   -1    0    0  501    0  0.00000000000E+00  0.00000000000E+00  0.21578350649E+04  0.21578350649E+04  0.50400001928E-02 0. -1.
       -1   -1    0    0    0  501  0.00000000000E+00  0.00000000000E+00 -0.11126258765E+04  0.11126258766E+04  0.50400001928E-02 0.  1.
    10030    2    1    2    0    0  0.00000000000E+00  0.00000000000E+00  0.10452091883E+04  0.32704609414E+04  0.30989437752E+04 0.  0.
        5    1    3    3  502    0  0.82487503539E+03 -0.10354158464E+04  0.13723629025E+04  0.19068053978E+04  0.46999998093E+01 0. -1.
       -5    1    3    3    0  502 -0.82487503539E+03  0.10354158464E+04 -0.32715371417E+03  0.13636555436E+04  0.46999998093E+01 0.  1.
</event>
<event>
 5   0  0.4900679E-06  0.3096746E+04  0.7818609E-02  0.8216632E-01
        2   -1    0    0  501    0  0.00000000000E+00  0.00000000000E+00  0.17100948113E+04  0.17100948113E+04  0.25500000920E-02 0.  1.
       -2   -1    0    0    0  501  0.00000000000E+00  0.00000000000E+00 -0.14019448433E+04  0.14019448433E+04  0.25500000920E-02 0. -1.
    10030    2    1    2    0    0  0.00000000000E+00  0.00000000000E+00  0.30814996796E+03  0.31120396547E+04  0.30967457773E+04 0.  0.
        4    1    3    3  502    0  0.36677217168E+03 -0.10039784220E+04 -0.97170867669E+03  0.14445462481E+04  0.12699999809E+01 0. -1.
       -4    1    3    3    0  502 -0.36677217168E+03  0.10039784220E+04  0.12798586447E+04  0.16674934065E+04  0.12699999809E+01 0.  1.
</event>
<event>
 5   0  0.4927533E-06  0.3075380E+04  0.7818609E-02  0.8222527E-01
       -2   -1    0    0    0  501  0.00000000000E+00  0.00000000000E+00  0.80396397443E+03  0.80396397444E+03  0.25500000920E-02 0. -1.
        2   -1    0    0  501    0  0.00000000000E+00  0.00000000000E+00 -0.29410405206E+04  0.29410405206E+04  0.25500000920E-02 0.  1.
    10030    2    1    2    0    0  0.00000000000E+00  0.00000000000E+00 -0.21370765462E+04  0.37450044951E+04  0.30753800584E+04 0.  0.
        5    1    3    3  502    0 -0.51949579574E+03  0.14309286509E+04 -0.80443848727E+03  0.17217944289E+04  0.46999998093E+01 0. -1.
       -5    1    3    3    0  502  0.51949579574E+03 -0.14309286509E+04 -0.13326380589E+04  0.20232100662E+04  0.46999998093E+01 0.  1.
</event>
<event>
 5   0  0.5114870E-06  0.3140851E+04  0.7818609E-02  0.8204615E-01
        2   -1    0    0  501    0  0.00000000000E+00  0.00000000000E+00  0.12091113275E+04  0.12091113275E+04  0.25500000920E-02 0. -1.
       -2   -1    0    0    0  501  0.00000000000E+00  0.00000000000E+00 -0.20397097321E+04  0.20397097321E+04  0.25500000920E-02 0.  1.
    10030    2    1    2    0    0  0.00000000000E+00  0.00000000000E+00 -0.83059840468E+03  0.32488210596E+04  0.31408509305E+04 0.  0.
        2    1    3    3  502    0  0.89582685091E+03  0.67419907389E+03 -0.15527301038E+04  0.19152077990E+04  0.25500000920E-02 0.  1.
       -2    1    3    3    0  502 -0.89582685091E+03 -0.67419907389E+03  0.72213169913E+03  0.13336132606E+04  0.25500000920E-02 0. -1.
</event>
<event>
 5   0  0.5001658E-06  0.3097505E+04  0.7818609E-02  0.8216423E-01
        2   -1    0    0  501    0  0.00000000000E+00  0.00000000000E+00  0.21417479482E+04  0.21417479482E+04  0.25500000920E-02 0.  1.
       -2   -1    0    0    0  501  0.00000000000E+00  0.00000000000E+00 -0.11199426245E+04  0.11199426245E+04  0.25500000920E-02 0. -1.
    10030    2    1    2    0    0  0.00000000000E+00  0.00000000000E+00  0.10218053237E+04  0.32616905726E+04  0.30975053305E+04 0.  0.
        3    1    3    3  502    0  0.38620194571E+03 -0.14969819619E+04  0.41366130760E+03  0.16003820246E+04  0.10100000352E+00 0. -1.
       -3    1    3    3    0  502 -0.38620194571E+03  0.14969819619E+04  0.60814401607E+03  0.16613085480E+04  0.10100000352E+00 0.  1.
</event>
<event>
 5   0  0.5114870E-06  0.2755913E+04  0.7818609E-02  0.8317088E-01
        2   -1    0    0  501    0  0.00000000000E+00  0.00000000000E+00  0.28448057211E+04  0.28448057211E+04  0.25500000920E-02 0. -1.
       -2   -1    0    0    0  501  0.00000000000E+00  0.00000000000E+00 -0.66744967314E+03  0.66744967315E+03  0.25500000920E-02 0.  1.
    10030    2    1    2    0    0  0.00000000000E+00  0.00000000000E+00  0.21773560480E+04  0.35122553942E+04  0.27559133867E+04 0.  0.
        2    1    3    3  502    0  0.10404834526E+04  0.65884511295E+03  0.30090920827E+03  0.12677653764E+04  0.25500000920E-02 0. -1.
       -2    1    3    3    0  502 -0.10404834526E+04 -0.65884511295E+03  0.18764468397E+04  0.22444900178E+04  0.25500000920E-02 0.  1.
</event>
<event>
 5   0  0.5001658E-06  0.3059065E+04  0.7818609E-02  0.8227063E-01
        2   -1    0    0  501    0  0.00000000000E+00  0.00000000000E+00  0.17587079009E+04  0.17587079009E+04  0.25500000920E-02 0. -1.
       -2   -1    0    0    0  501  0.00000000000E+00  0.00000000000E+00 -0.13302208761E+04  0.13302208761E+04  0.25500000920E-02 0.  1.
    10030    2    1    2    0    0  0.00000000000E+00  0.00000000000E+00  0.42848702483E+03  0.30889287769E+04  0.30590651936E+04 0.  0.
        3    1    3    3  502    0 -0.87558674426E+03 -0.37793267323E+03  0.14217371687E+04  0.17119643218E+04  0.10100000352E+00 0.  1.
       -3    1    3    3    0  502  0.87558674426E+03  0.37793267323E+03 -0.99325014384E+03  0.13769644551E+04  0.10100000352E+00 0. -1.
</event>
<event>
 5   0  0.5001658E-06  0.3334102E+04  0.7818609E-02  0.8154272E-01
       -2   -1    0    0    0  501  0.00000000000E+00  0.00000000000E+00  0.13595208015E+04  0.13595208015E+04  0.25500000920E-02 0.  1.
        2   -1    0    0  501    0  0.00000000000E+00  0.00000000000E+00 -0.20441455517E+04  0.20441455517E+04  0.25500000920E-02 0. -1.
    10030    2    1    2    0    0  0.00000000000E+00  0.00000000000E+00 -0.68462475019E+03  0.34036663532E+04  0.33341016174E+04 0.  0.
        3    1    3    3  502    0  0.10504054261E+04 -0.67059660753E+02  0.97741322181E+03  0.14363791886E+04  0.10100000352E+00 0.  1.
       -3    1    3    3    0  502 -0.10504054261E+04  0.67059660753E+02 -0.16620379720E+04  0.19672871645E+04  0.10100000352E+00 0. -1.
</event>
<event>
 5   0  0.4900679E-06  0.3175504E+04  0.7818609E-02  0.8195317E-01
        2   -1    0    0  501    0  0.00000000000E+00  0.00000000000E+00  0.15620443818E+04  0.15620443818E+04  0.25500000920E-02 0.  1.
       -2   -1    0    0    0  501  0.00000000000E+00  0.00000000000E+00 -0.16138824282E+04  0.16138824282E+04  0.25500000920E-02 0. -1.
    10030    2    1    2    0    0  0.00000000000E+00  0.00000000000E+00 -0.51838046386E+02  0.31759268100E+04  0.31755037269E+04 0.  0.
        4    1    3    3  502    0  0.11443305002E+03 -0.66440482282E+03  0.14117792574E+04  0.15644970361E+04  0.12699999809E+01 0.  1.
       -4    1    3    3    0  502 -0.11443305002E+03  0.66440482282E+03 -0.14636173038E+04  0.16114297739E+04  0.12699999809E+01 0. -1.
</event>
<event>
 5   0  0.1853742E-06  0.3001917E+04  0.7818609E-02  0.8243184E-01
       -1   -1    0    0    0  501  0.00000000000E+00  0.00000000000E+00  0.11762539675E+04  0.11762539675E+04  0.50400001928E-02 0.  1.
        1   -1    0    0  501    0  0.00000000000E+00  0.00000000000E+00 -0.19152978283E+04  0.19152978283E+04  0.50400001928E-02 0. -1.
    10030    2    1    2    0    0  0.00000000000E+00  0.00000000000E+00 -0.73904386076E+03  0.30915517958E+04  0.30019171671E+04 0.  0.
        5    1    3    3  502    0 -0.56105395514E+03 -0.64280358413E+03 -0.16412526771E+04  0.18497865899E+04  0.46999998093E+01 0. -1.
       -5    1    3    3    0  502  0.56105395514E+03  0.64280358413E+03  0.90220881630E+03  0.12417652059E+04  0.46999998093E+01 0.  1.
</event>
<event>
 5   0  0.1836401E-06  0.3050116E+04  0.7818609E-02  0.8229563E-01
       -1   -1    0    0    0  501  0.00000000000E+00  0.00000000000E+00  0.11382782378E+04  0.11382782378E+04  0.50400001928E-02 0. -1.
        1   -1    0    0  501    0  0.00000000000E+00  0.00000000000E+00 -0.20432630682E+04  0.20432630682E+04  0.50400001928E-02 0.  1.
    10030    2    1    2    0    0  0.00000000000E+00  0.00000000000E+00 -0.90498483033E+03  0.31815413060E+04  0.30501159878E+04 0.  0.
        2    1    3    3  502    0  0.81387864606E+02 -0.58125458454E+03  0.10157529331E+04  0.11731303839E+04  0.25500000920E-02 0. -1.
       -2    1    3    3    0  502 -0.81387864606E+02  0.58125458454E+03 -0.19207377634E+04  0.20084109222E+04  0.25500000920E-02 0.  1.
</event>
<event>
 5   0  0.1836401E-06  0.3073902E+04  0.7818609E-02  0.8222937E-01
        1   -1    0    0  501    0  0.00000000000E+00  0.00000000000E+00  0.29788222732E+04  0.29788222732E+04  0.50400001928E-02 0.  1.
       -1   -1    0    0    0  501  0.00000000000E+00  0.00000000000E+00 -0.79300436412E+03  0.79300436413E+03  0.50400001928E-02 0. -1.
    10030    2    1    2    0    0  0.00000000000E+00  0.00000000000E+00  0.21858179091E+04  0.37718266373E+04  0.30739024465E+04 0.  0.
        2    1    3    3  502    0  0.11999908235E+04  0.52252873832E+03  0.20815815697E+04  0.24588607302E+04  0.25500000920E-02 0.  1.
       -2    1    3    3    0  502 -0.11999908235E+04 -0.52252873832E+03  0.10423633938E+03  0.13129659072E+04  0.25500000920E-02 0. -1.
</event>
<event>
 5   0  0.1885307E-06  0.3125477E+04  0.7818609E-02  0.8208781E-01
       -1   -1    0    0    0  501  0.00000000000E+00  0.00000000000E+00  0.17726258096E+04  0.17726258096E+04  0.50400001928E-02 0.  1.
        1   -1    0    0  501    0  0.00000000000E+00  0.00000000000E+00 -0.13777024442E+04  0.13777024443E+04  0.50400001928E-02 0. -1.
    10030    2    1    2    0    0  0.00000000000E+00  0.00000000000E+00  0.39492336532E+03  0.31503282538E+04  0.31254765465E+04 0.  0.
        3    1    3    3  502    0 -0.63681275556E+02 -0.14804971410E+04  0.69761665219E+03  0.16378632706E+04  0.10100000352E+00 0. -1.
       -3    1    3    3    0  502  0.63681275556E+02  0.14804971410E+04 -0.30269328687E+03  0.15124649833E+04  0.10100000352E+00 0.  1.
</event>
<event>
 5   0  0.5328368E-06  0.3064993E+04  0.7818609E-02  0.8225412E-01
       -2   -1    0    0    0  501  0.00000000000E+00  0.00000000000E+00  0.10654079888E+04  0.10654079888E+04  0.25500000920E-02 0. -1.
        2   -1    0    0  501    0  0.00000000000E+00  0.00000000000E+00 -0.22043620877E+04  0.22043620877E+04  0.25500000920E-02 0.  1.
    10030    2    1    2    0    0  0.00000000000E+00  0.00000000000E+00 -0.11389540989E+04  0.32697700764E+04  0.30649926449E+04 0.  0.
        1    1    3    3  502    0 -0.34023168371E+03 -0.10070576305E+04 -0.17471436016E+04  0.20450998592E+04  0.50400001928E-02 0.  1.
       -1    1    3    3    0  502  0.34023168371E+03  0.10070576305E+04  0.60818950267E+03  0.12246702172E+04  0.50400001928E-02 0. -1.
</event>
<event>
 5   0  0.1885307E-06  0.3103137E+04  0.7818609E-02  0.8214878E-01
       -1   -1    0    0    0  501  0.00000000000E+00  0.00000000000E+00  0.12944650434E+04  0.12944650435E+04  0.50400001928E-02 0.  1.
        1   -1    0    0  501    0  0.00000000000E+00  0.00000000000E+00 -0.18597370363E+04  0.18597370363E+04  0.50400001928E-02 0. -1.
    10030    2    1    2    0    0  0.00000000000E+00  0.00000000000E+00 -0.56527199286E+03  0.31542020798E+04  0.31031368539E+04 0.  0.
        3    1    3    3  502    0 -0.63405043319E+03 -0.48928932595E+03 -0.16333911321E+04  0.18191730531E+04  0.10100000352E+00 0. -1.
       -3    1    3    3    0  502  0.63405043319E+03  0.48928932595E+03  0.10681191393E+04  0.13350290267E+04  0.10100000352E+00 0.  1.
</event>
<event>
 5   0  0.5001658E-06  0.3081240E+04  0.7818609E-02  0.8220905E-01
       -2   -1    0    0    0  501  0.00000000000E+00  0.00000000000E+00  0.13840001025E+04  0.13840001025E+04  0.25500000920E-02 0.  1.
        2   -1    0    0  501    0  0.00000000000E+00  0.00000000000E+00 -0.17149639009E+04  0.17149639010E+04  0.25500000920E-02 0. -1.
    10030    2    1    2    0    0  0.00000000000E+00  0.00000000000E+00 -0.33096379844E+03  0.30989640035E+04  0.30812401495E+04 0.  0.
        3    1    3    3  502    0  0.89102081487E+03 -0.66347256045E+03 -0.12390469893E+04  0.16641368282E+04  0.10100000352E+00 0. -1.
       -3    1    3    3    0  502 -0.89102081487E+03  0.66347256045E+03  0.90808319091E+03  0.14348271752E+04  0.10100000352E+00 0.  1.
</event>
<event>
 5   0  0.1840431E-06  0.3020635E+04  0.7818609E-02  0.8237863E-01
        1   -1    0    0  501    0  0.00000000000E+00  0.00000000000E+00  0.18909893595E+04  0.18909893595E+04  0.50400001928E-02 0.  1.
       -1   -1    0    0    0  501  0.00000000000E+00  0.00000000000E+00 -0.12062782972E+04  0.12062782972E+04  0.50400001928E-02 0. -1.
    10030    2    1    2    0    0  0.00000000000E+00  0.00000000000E+00  0.68471106228E+03  0.30972676566E+04  0.30206353137E+04 0.  0.
        1    1    3    3  502    0  0.21507586934E+03 -0.13887855604E+04 -0.22492177310E+03  0.14232261824E+04  0.50400001928E-02 0.  1.
       -1    1    3    3    0  502 -0.21507586934E+03  0.13887855604E+04  0.90963283537E+03  0.16740414742E+04  0.50400001928E-02 0. -1.
</event>
<event>
 5   0  0.4900679E-06  0.3023702E+04  0.7818609E-02  0.8236995E-01
        2   -1    0    0  501    0  0.00000000000E+00  0.00000000000E+00  0.91288148060E+03  0.91288148060E+03  0.25500000920E-02 0. -1.
       -2   -1    0    0    0  501  0.00000000000E+00  0.00000000000E+00 -0.25038229469E+04  0.25038229469E+04  0.25500000920E-02 0.  1.
    10030    2    1    2    0    0  0.00000000000E+00  0.00000000000E+00 -0.15909414663E+04  0.34167044275E+04  0.30237021010E+04 0.  0.
        4    1    3    3  502    0  0.18157647497E+03  0.13176948114E+04 -0.16074828602E+04  0.20864545025E+04  0.12699999809E+01 0.  1.
       -4    1    3    3    0  502 -0.18157647497E+03 -0.13176948114E+04  0.16541393930E+02  0.13302499250E+04  0.12699999809E+01 0. -1.
</event>
<event>
 5   0  0.4900679E-06  0.3109801E+04  0.7818609E-02  0.8213053E-01
        2   -1    0    0  501    0  0.00000000000E+00  0.00000000000E+00  0.12039935194E+04  0.12039935194E+04  0.25500000920E-02 0.  1.
       -2   -1    0    0    0  501  0.00000000000E+00  0.00000000000E+00 -0.20080798896E+04  0.20080798896E+04  0.25500000920E-02 0. -1.
    10030    2    1    2    0    0  0.00000000000E+00  0.00000000000E+00 -0.80408637021E+03  0.32120734089E+04  0.31098007482E+04 0.  0.
        4    1    3    3  502    0  0.13672467933E+04  0.26330804076E+03  0.31283016328E+03  0.14270806712E+04  0.12699999809E+01 0.  1.
       -4    1    3    3    0  502 -0.13672467933E+04 -0.26330804076E+03 -0.11169165335E+04  0.17849927377E+04  0.12699999809E+01 0. -1.
</event>
<event>
 5   0  0.1853742E-06  0.3110132E+04  0.7818609E-02  0.8212963E-01
       -1   -1    0    0    0  501  0.00000000000E+00  0.00000000000E+00  0.16551502617E+04  0.16551502618E+04  0.50400001928E-02 0. -1.
        1   -1    0    0  501    0  0.00000000000E+00  0.00000000000E+00 -0.14610337007E+04  0.14610337007E+04  0.50400001928E-02 0.  1.
    10030    2    1    2    0    0  0.00000000000E+00  0.00000000000E+00  0.19411656109E+03  0.31161839624E+04  0.31101320307E+04 0.  0.
        5    1    3    3  502    0 -0.94455517803E+03  0.12216317555E+04 -0.86709605888E+02  0.15466445216E+04  0.46999998093E+01 0.  1.
       -5    1    3    3    0  502  0.94455517803E+03 -0.12216317555E+04  0.28082616698E+03  0.15695394409E+04  0.46999998093E+01 0. -1.
</event>
<event>
 5   0  0.1885307E-06  0.3085169E+04  0.7818609E-02  0.8219820E-01
       -1   -1    0    0    0  501  0.00000000000E+00  0.00000000000E+00  0.16473064432E+04  0.16473064432E+04  0.50400001928E-02 0.  1.
        1   -1    0    0  501    0  0.00000000000E+00  0.00000000000E+00 -0.14445197894E+04  0.14445197894E+04  0.50400001928E-02 0. -1.
    10030    2    1    2    0    0  0.00000000000E+00  0.00000000000E+00  0.20278665376E+03  0.30918262327E+04  0.30851688813E+04 0.  0.
        3    1    3    3  502    0  0.71468948083E+03  0.13565835361E+04 -0.67691825867E+02  0.15348231618E+04  0.10100000352E+00 0.  1.
       -3    1    3    3    0  502 -0.71468948083E+03 -0.13565835361E+04  0.27047847962E+03  0.15570030709E+04  0.10100000352E+00 0. -1.
</event>
<event>
 5   0  0.1836401E-06  0.3063667E+04  0.7818609E-02  0.8225781E-01
        1   -1    0    0  501    0  0.00000000000E+00  0.00000000000E+00  0.19205036256E+04  0.19205036256E+04  0.50400001928E-02 0.  1.
       -1   -1    0    0    0  501  0.00000000000E+00  0.00000000000E+00 -0.12218219097E+04  0.12218219097E+04  0.50400001928E-02 0. -1.
    10030    2    1    2    0    0  0.00000000000E+00  0.00000000000E+00  0.69868171592E+03  0.31423255353E+04  0.30636666969E+04 0.  0.
        2    1    3    3  502    0  0.10745385248E+02  0.25731690724E+03 -0.11994571876E+04  0.12267946034E+04  0.25500000920E-02 0. -1.
       -2    1    3    3    0  502 -0.10745385248E+02 -0.25731690724E+03  0.18981389035E+04  0.19155309319E+04  0.25500000920E-02 0.  1.
</event>
<event>
 5   0  0.4900679E-06  0.3089875E+04  0.7818609E-02  0.8218522E-01
       -2   -1    0    0    0  501  0.00000000000E+00  0.00000000000E+00  0.14588293208E+04  0.14588293208E+04  0.25500000920E-02 0.  1.
        2   -1    0    0  501    0  0.00000000000E+00  0.00000000000E+00 -0.16361280669E+04  0.16361280669E+04  0.25500000920E-02 0. -1.
    10030    2    1    2    0    0  0.00000000000E+00  0.00000000000E+00 -0.17729874615E+03  0.30949573877E+04  0.30898748172E+04 0.  0.
        4    1    3    3  502    0  0.44938394019E+02  0.15438905006E+04 -0.53769017515E+02  0.15454805263E+04  0.12699999809E+01 0.  1.
       -4    1    3    3    0  502 -0.44938394019E+02 -0.15438905006E+04 -0.12352972864E+03  0.15494768614E+04  0.12699999809E+01 0. -1.
</event>
<event>
 5   0  0.1885307E-06  0.3065233E+04  0.7818609E-02  0.8225345E-01
        1   -1    0    0  501    0  0.00000000000E+00  0.00000000000E+00  0.18147388724E+04  0.18147388724E+04  0.50400001928E-02 0.  1.
       -1   -1    0    0    0  501  0.00000000000E+00  0.00000000000E+00 -0.12943534658E+04  0.12943534658E+04  0.50400001928E-02 0. -1.
    10030    2    1    2    0    0  0.00000000000E+00  0.00000000000E+00  0.52038540658E+03  0.31090923381E+04  0.30652331389E+04 0.  0.
        3    1    3    3  502    0 -0.24880321567E+03 -0.17366312299E+03 -0.12635849898E+04  0.12995033501E+04  0.10100000352E+00 0. -1.
       -3    1    3    3    0  502  0.24880321567E+03  0.17366312299E+03  0.17839703963E+04  0.18095889880E+04  0.10100000352E+00 0.  1.
</event>
<event>
 5   0  0.5114870E-06  0.3135407E+04  0.7818609E-02  0.8206088E-01
       -2   -1    0    0    0  501  0.00000000000E+00  0.00000000000E+00  0.11665477309E+04  0.11665477309E+04  0.25500000920E-02 0.  1.
        2   -1    0    0  501    0  0.00000000000E+00  0.00000000000E+00 -0.21068092654E+04  0.21068092655E+04  0.25500000920E-02 0. -1.
    10030    2    1    2    0    0  0.00000000000E+00  0.00000000000E+00 -0.94026153458E+03  0.32733569963E+04  0.31354065561E+04 0.  0.
        2    1    3    3  502    0  0.44366828530E+03  0.19553938302E+03  0.10863070155E+04  0.11895966248E+04  0.25500000920E-02 0.  1.
       -2    1    3    3    0  502 -0.44366828530E+03 -0.19553938302E+03 -0.20265685501E+04  0.20837603715E+04  0.25500000920E-02 0. -1.
</event>
<event>
 5   0  0.4900679E-06  0.3075241E+04  0.7818609E-02  0.8222566E-01
        2   -1    0    0  501    0  0.00000000000E+00  0.00000000000E+00  0.23068058203E+04  0.23068058203E+04  0.25500000920E-02 0.  1.
       -2   -1    0    0    0  501  0.00000000000E+00  0.00000000000E+00 -0.10249138594E+04  0.10249138594E+04  0.25500000920E-02 0. -1.
    10030    2    1    2    0    0  0.00000000000E+00  0.00000000000E+00  0.12818919609E+04  0.33317196796E+04  0.30752412953E+04 0.  0.
        4    1    3    3  502    0 -0.70923353429E+03 -0.10105948436E+04  0.16338766977E+04  0.20478937522E+04  0.12699999809E+01 0.  1.
       -4    1    3    3    0  502  0.70923353429E+03  0.10105948436E+04 -0.35198473681E+03  0.12838259274E+04  0.12699999809E+01 0. -1.
</event>
<event>
 5   0  0.1853742E-06  0.3131369E+04  0.7818609E-02  0.8207181E-01
       -1   -1    0    0    0  501  0.00000000000E+00  0.00000000000E+00  0.35093914313E+04  0.35093914313E+04  0.50400001928E-02 0.  1.
        1   -1    0    0  501    0  0.00000000000E+00  0.00000000000E+00 -0.69851648962E+03  0.69851648964E+03  0.50400001928E-02 0. -1.
    10030    2    1    2    0    0  0.00000000000E+00  0.00000000000E+00  0.28108749417E+04  0.42079079209E+04  0.31313688913E+04 0.  0.
        5    1    3    3  502    0 -0.28864035857E+02 -0.12641375646E+04  0.16472474679E+03  0.12751600868E+04  0.46999998093E+01 0. -1.
       -5    1    3    3    0  502  0.28864035857E+02  0.12641375646E+04  0.26461501949E+04  0.29327478341E+04  0.46999998093E+01 0.  1.
</event>
<event>
 5   0  0.1836401E-06  0.3252851E+04  0.7818609E-02  0.8174997E-01
       -1   -1    0    0    0  501  0.00000000000E+00  0.00000000000E+00  0.10497188315E+04  0.10497188316E+04  0.50400001928E-02 0.  1.
        1   -1    0    0  501    0  0.00000000000E+00  0.00000000000E+00 -0.25199698739E+04  0.25199698739E+04  0.50400001928E-02 0. -1.
    10030    2    1    2    0    0  0.00000000000E+00  0.00000000000E+00 -0.14702510423E+04  0.35696887054E+04  0.32528509536E+04 0.  0.
        2    1    3    3  502    0  0.10401390055E+04 -0.54934012609E+03 -0.19677374060E+04  0.22925213683E+04  0.25500000920E-02 0. -1.
       -2    1    3    3    0  502 -0.10401390055E+04  0.54934012609E+03  0.49748636371E+03  0.12771673371E+04  0.25500000920E-02 0.  1.
</event>
<event>
 5   0  0.5114870E-06  0.3092668E+04  0.7818609E-02  0.8217753E-01
        2   -1    0    0  501    0  0.00000000000E+00  0.00000000000E+00  0.10325539099E+04  0.10325539099E+04  0.25500000920E-02 0. -1.
       -2   -1    0    0    0  501  0.00000000000E+00  0.00000000000E+00 -0.23157617509E+04  0.23157617509E+04  0.25500000920E-02 0.  1.
    10030    2    1    2    0    0  0.00000000000E+00  0.00000000000E+00 -0.12832078410E+04  0.33483156609E+04  0.30926680070E+04 0.  0.
        2    1    3    3  502    0 -0.68827409950E+03 -0.11219154345E+04 -0.15203186886E+04  0.20109163068E+04  0.25500000920E-02 0.  1.
       -2    1    3    3    0  502  0.68827409950E+03  0.11219154345E+04  0.23711084766E+03  0.13373993540E+04  0.25500000920E-02 0. -1.
</event>
<event>
 5   0  0.5001658E-06  0.3102525E+04  0.7818609E-02  0.8215045E-01
        2   -1    0    0  501    0  0.00000000000E+00  0.00000000000E+00  0.11951168625E+04  0.11951168625E+04  0.25500000920E-02 0.  1.
       -2   -1    0    0    0  501  0.00000000000E+00  0.00000000000E+00 -0.20135402288E+04  0.20135402288E+04  0.25500000920E-02 0. -1.
    10030    2    1    2    0    0  0.00000000000E+00  0.00000000000E+00 -0.81842336630E+03  0.32086570913E+04  0.31025253461E+04 0.  0.
        3    1    3    3  502    0  0.85117734885E+03 -0.50986493368E+03 -0.16424591849E+04  0.19188896044E+04  0.10100000352E+00 0. -1.
       -3    1    3    3    0  502 -0.85117734885E+03  0.50986493368E+03  0.82403581856E+03  0.12897674869E+04  0.10100000352E+00 0.  1.
</event>
<event>
 5   0  0.4927533E-06  0.3118790E+04  0.7818609E-02  0.8210600E-01
       -2   -1    0    0    0  501  0.00000000000E+00  0.00000000000E+00  0.10068493943E+04  0.10068493943E+04  0.25500000920E-02 0.  1.
        2   -1    0    0  501    0  0.00000000000E+00  0.00000000000E+00 -0.24151695921E+04  0.24151695921E+04  0.25500000920E-02 0. -1.
    10030    2    1    2    0    0  0.00000000000E+00  0.00000000000E+00 -0.14083201978E+04  0.34220189865E+04  0.31187895351E+04 0.  0.
        5    1    3    3  502    0 -0.11108928951E+04 -0.94462738642E+03 -0.13104073891E+04  0.19605084899E+04  0.46999998093E+01 0.  1.
       -5    1    3    3    0  502  0.11108928951E+04  0.94462738642E+03 -0.97912808737E+02  0.14615104966E+04  0.46999998093E+01 0. -1.
</event>
<event>
 5   0  0.1836401E-06  0.3043617E+04  0.7818609E-02  0.8231384E-01
       -1   -1    0    0    0  501  0.00000000000E+00  0.00000000000E+00  0.75132366311E+03  0.75132366313E+03  0.50400001928E-02 0.  1.
        1   -1    0    0  501    0  0.00000000000E+00  0.00000000000E+00 -0.30824285815E+04  0.30824285815E+04  0.50400001928E-02 0. -1.
    10030    2    1    2    0    0  0.00000000000E+00  0.00000000000E+00 -0.23311049184E+04  0.38337522446E+04  0.30436172776E+04 0.  0.
        2    1    3    3  502    0  0.13133657299E+03 -0.35123697855E+03 -0.30233229806E+04  0.30464895463E+04  0.25500000920E-02 0. -1.
       -2    1    3    3    0  502 -0.13133657299E+03  0.35123697855E+03  0.69221806223E+03  0.78726269834E+03  0.25500000920E-02 0.  1.
</event>
<event>
 5   0  0.5114870E-06  0.3116860E+04  0.7818609E-02  0.8211126E-01
       -2   -1    0    0    0  501  0.00000000000E+00  0.00000000000E+00  0.11386129056E+04  0.11386129056E+04  0.25500000920E-02 0.  1.
        2   -1    0    0  501    0  0.00000000000E+00  0.00000000000E+00 -0.21330372840E+04  0.21330372840E+04  0.25500000920E-02 0. -1.
    10030    2    1    2    0    0  0.00000000000E+00  0.00000000000E+00 -0.99442437846E+03  0.32716501896E+04  0.31168598170E+04 0.  0.
        2    1    3    3  502    0 -0.13591067688E+04  0.64196790021E+02 -0.12948252327E+04  0.18782611161E+04  0.25500000920E-02 0. -1.
       -2    1    3    3    0  502  0.13591067688E+04 -0.64196790021E+02  0.30040085427E+03  0.13933890735E+04  0.25500000920E-02 0.  1.
</event>
<event>
 5   0  0.1836401E-06  0.2747686E+04  0.7818609E-02  0.8319696E-01
       -1   -1    0    0    0  501  0.00000000000E+00  0.00000000000E+00  0.74862168426E+03  0.74862168428E+03  0.50400001928E-02 0. -1.
        1   -1    0    0  501    0  0.00000000000E+00  0.00000000000E+00 -0.25212268611E+04  0.25212268611E+04  0.50400001928E-02 0.  1.
    10030    2    1    2    0    0  0.00000000000E+00  0.00000000000E+00 -0.17726051769E+04  0.32698485454E+04  0.27476863716E+04 0.  0.
        2    1    3    3  502    0  0.91725356490E+03  0.76981570943E+03 -0.84925277309E+02  0.12004926620E+04  0.25500000920E-02 0. -1.
       -2    1    3    3    0  502 -0.91725356490E+03 -0.76981570943E+03 -0.16876798995E+04  0.20693558834E+04  0.25500000920E-02 0.  1.
</event>
<event>
 5   0  0.4927533E-06  0.2859113E+04  0.7818609E-02  0.8285147E-01
        2   -1    0    0  501    0  0.00000000000E+00  0.00000000000E+00  0.21626814268E+04  0.21626814268E+04  0.25500000920E-02 0.  1.
       -2   -1    0    0    0  501  0.00000000000E+00  0.00000000000E+00 -0.94495298827E+03  0.94495298828E+03  0.25500000920E-02 0. -1.
    10030    2    1    2    0    0  0.00000000000E+00  0.00000000000E+00  0.12177284386E+04  0.31076344151E+04  0.28591133430E+04 0.  0.
        5    1    3    3  502    0 -0.82925225064E+03 -0.10967520067E+04  0.18359281123E+03  0.13871743473E+04  0.46999998093E+01 0. -1.
       -5    1    3    3    0  502  0.82925225064E+03  0.10967520067E+04  0.10341356273E+04  0.17204600679E+04  0.46999998093E+01 0.  1.
</event>
<event>
 5   0  0.1840431E-06  0.3120941E+04  0.7818609E-02  0.8210014E-01
       -1   -1    0    0    0  501  0.00000000000E+00  0.00000000000E+00  0.14161378397E+04  0.14161378397E+04  0.50400001928E-02 0. -1.
        1   -1    0    0  501    0  0.00000000000E+00  0.00000000000E+00 -0.17195136403E+04  0.17195136403E+04  0.50400001928E-02 0.  1.
    10030    2    1    2    0    0  0.00000000000E+00  0.00000000000E+00 -0.30337580060E+03  0.31356514801E+04  0.31209410966E+04 0.  0.
        1    1    3    3  502    0  0.10337567207E+04  0.10256859199E+04  0.41165428159E+03  0.15133221109E+04  0.50400001928E-02 0. -1.
       -1    1    3    3    0  502 -0.10337567207E+04 -0.10256859199E+04 -0.71503008218E+03  0.16223293692E+04  0.50400001928E-02 0.  1.
</event>
<event>
 5   0  0.1843709E-06  0.3101526E+04  0.7818609E-02  0.8215319E-01
        1   -1    0    0  501    0  0.00000000000E+00  0.00000000000E+00  0.18224864946E+04  0.18224864947E+04  0.50400001928E-02 0. -1.
       -1   -1    0    0    0  501  0.00000000000E+00  0.00000000000E+00 -0.13195518311E+04  0.13195518311E+04  0.50400001928E-02 0.  1.
    10030    2    1    2    0    0  0.00000000000E+00  0.00000000000E+00  0.50293466354E+03  0.31420383258E+04  0.31015256834E+04 0.  0.
        4    1    3    3  502    0 -0.14710003460E+02  0.63357881485E+02 -0.13181688382E+04  0.13197732018E+04  0.12699999809E+01 0.  1.
       -4    1    3    3    0  502  0.14710003460E+02 -0.63357881485E+02  0.18211035017E+04  0.18222651240E+04  0.12699999809E+01 0. -1.
</event>
<event>
 5   0  0.1840431E-06  0.3100864E+04  0.7818609E-02  0.8215501E-01
       -1   -1    0    0    0  501  0.00000000000E+00  0.00000000000E+00  0.10891801491E+04  0.10891801491E+04  0.50400001928E-02 0.  1.
        1   -1    0    0  501    0  0.00000000000E+00  0.00000000000E+00 -0.22070173320E+04  0.22070173320E+04  0.50400001928E-02 0. -1.
    10030    2    1    2    0    0  0.00000000000E+00  0.00000000000E+00 -0.11178371828E+04  0.32961974811E+04  0.31008640517E+04 0.  0.
        1    1    3    3  502    0 -0.93764260384E+03  0.67424296164E+03  0.54068213233E+03  0.12751919040E+04  0.50400001928E-02 0.  1.
       -1    1    3    3    0  502  0.93764260384E+03 -0.67424296164E+03 -0.16585193152E+04  0.20210055771E+04  0.50400001928E-02 0. -1.
</event>
<event>
 5   0  0.4927533E-06  0.3074230E+04  0.7818609E-02  0.8222846E-01
       -2   -1    0    0    0  501  0.00000000000E+00  0.00000000000E+00  0.14165869421E+04  0.14165869421E+04  0.25500000920E-02 0. -1.
        2   -1    0    0  501    0  0.00000000000E+00  0.00000000000E+00 -0.16678983708E+04  0.16678983708E+04  0.25500000920E-02 0.  1.
    10030    2    1    2    0    0  0.00000000000E+00  0.00000000000E+00 -0.25131142863E+03  0.30844853129E+04  0.30742303446E+04 0.  0.
        5    1    3    3  502    0 -0.12482214546E+04 -0.11483157376E+03  0.76695111107E+03  0.14695166507E+04  0.46999998093E+01 0. -1.
       -5    1    3    3    0  502  0.12482214546E+04  0.11483157376E+03 -0.10182625397E+04  0.16149686622E+04  0.46999998093E+01 0.  1.
</event>
<event>
 5   0  0.1853742E-06  0.3113848E+04  0.7818609E-02  0.8211948E-01
       -1   -1    0    0    0  501  0.00000000000E+00  0.00000000000E+00  0.10560385141E+04  0.10560385141E+04  0.50400001928E-02 0. -1.
        1   -1    0    0  501    0  0.00000000000E+00  0.00000000000E+00 -0.22953823094E+04  0.22953823094E+04  0.50400001928E-02 0.  1.
    10030    2    1    2    0    0  0.00000000000E+00  0.00000000000E+00 -0.12393437954E+04  0.33514208235E+04  0.31138478597E+04 0.  0.
        5    1    3    3  502    0  0.47321094264E+02  0.13949386978E+04 -0.13621573621E+04  0.19502789610E+04  0.46999998093E+01 0.  1.
       -5    1    3    3    0  502 -0.47321094264E+02 -0.13949386978E+04  0.12281356675E+03  0.14011418625E+04  0.46999998093E+01 0. -1.
</event>
<event>
 5   0  0.1885307E-06  0.2925951E+04  0.7818609E-02  0.8265198E-01
       -1   -1    0    0    0  501  0.00000000000E+00  0.00000000000E+00  0.10957196516E+04  0.10957196516E+04  0.50400001928E-02 0.  1.
        1   -1    0    0  501    0  0.00000000000E+00  0.00000000000E+00 -0.19533262805E+04  0.19533262805E+04  0.50400001928E-02 0. -1.
    10030    2    1    2    0    0  0.00000000000E+00  0.00000000000E+00 -0.85760662891E+03  0.30490459320E+04  0.29259514633E+04 0.  0.
        3    1    3    3  502    0 -0.88492508021E+03 -0.83667970448E+03  0.41596300716E+03  0.12869151328E+04  0.10100000352E+00 0. -1.
       -3    1    3    3    0  502  0.88492508021E+03  0.83667970448E+03 -0.12735696361E+04  0.17621307992E+04  0.10100000352E+00 0.  1.
</event>
<event>
 5   0  0.5328368E-06  0.3110858E+04  0.7818609E-02  0.8212764E-01
       -2   -1    0    0    0  501  0.00000000000E+00  0.00000000000E+00  0.13873713631E+04  0.13873713631E+04  0.25500000920E-02 0. -1.
        2   -1    0    0  501    0  0.00000000000E+00  0.00000000000E+00 -0.17438445172E+04  0.17438445172E+04  0.25500000920E-02 0.  1.
    10030    2    1    2    0    0  0.00000000000E+00  0.00000000000E+00 -0.35647315411E+03  0.31312158803E+04  0.31108583670E+04 0.  0.
        1    1    3    3  502    0  0.41968560006E+03  0.58225837806E+03 -0.15671940623E+04  0.17237337528E+04  0.50400001928E-02 0.  1.
       -1    1    3    3    0  502 -0.41968560006E+03 -0.58225837806E+03  0.12107209082E+04  0.14074821275E+04  0.50400001928E-02 0. -1.
</event>
<event>
 5   0  0.1885307E-06  0.3159338E+04  0.7818609E-02  0.8199639E-01
        1   -1    0    0  501    0  0.00000000000E+00  0.00000000000E+00  0.24305458565E+04  0.24305458565E+04  0.50400001928E-02 0. -1.
       -1   -1    0    0    0  501  0.00000000000E+00  0.00000000000E+00 -0.10266639741E+04  0.10266639741E+04  0.50400001928E-02 0.  1.
    10030    2    1    2    0    0  0.00000000000E+00  0.00000000000E+00  0.14038818824E+04  0.34572098306E+04  0.31593378219E+04 0.  0.
        3    1    3    3  502    0 -0.14508735566E+04  0.56236958565E+03  0.99973923179E+03  0.18495329599E+04  0.10100000352E+00 0. -1.
       -3    1    3    3    0  502  0.14508735566E+04 -0.56236958565E+03  0.40414265063E+03  0.16076768706E+04  0.10100000352E+00 0.  1.
</event>
<event>
 5   0  0.5001658E-06  0.2667743E+04  0.7818609E-02  0.8345548E-01
        2   -1    0    0  501    0  0.00000000000E+00  0.00000000000E+00  0.16677776918E+04  0.16677776918E+04  0.25500000920E-02 0. -1.
       -2   -1    0    0    0  501  0.00000000000E+00  0.00000000000E+00 -0.10668170498E+04  0.10668170498E+04  0.25500000920E-02 0.  1.
    10030    2    1    2    0    0  0.00000000000E+00  0.00000000000E+00  0.60096064196E+03  0.27345947416E+04  0.26677433736E+04 0.  0.
        3    1    3    3  502    0  0.90082326279E+03  0.57747215809E+03 -0.51587939653E+03  0.11878923378E+04  0.10100000352E+00 0. -1.
       -3    1    3    3    0  502 -0.90082326279E+03 -0.57747215809E+03  0.11168400385E+04  0.15467024038E+04  0.10100000352E+00 0.  1.
</event>
<event>
 5   0  0.1840431E-06  0.3088134E+04  0.7818609E-02  0.8219002E-01
       -1   -1    0    0    0  501  0.00000000000E+00  0.00000000000E+00  0.16037827885E+04  0.16037827885E+04  0.50400001928E-02 0.  1.
        1   -1    0    0  501    0  0.00000000000E+00  0.00000000000E+00 -0.14865747543E+04  0.14865747544E+04  0.50400001928E-02 0. -1.
    10030    2    1    2    0    0  0.00000000000E+00  0.00000000000E+00  0.11720803411E+03  0.30903575428E+04  0.30881340676E+04 0.  0.
        1    1    3    3  502    0 -0.11136355416E+04  0.44535169949E+03  0.10317345040E+04  0.15820867051E+04  0.50400001928E-02 0.  1.
       -1    1    3    3    0  502  0.11136355416E+04 -0.44535169949E+03 -0.91452646991E+03  0.15082708377E+04  0.50400001928E-02 0. -1.
</event>
<event>
 5   0  0.1840431E-06  0.3054834E+04  0.7818609E-02  0.8228244E-01
       -1   -1    0    0    0  501  0.00000000000E+00  0.00000000000E+00  0.11814180459E+04  0.11814180459E+04  0.50400001928E-02 0.  1.
        1   -1    0    0  501    0  0.00000000000E+00  0.00000000000E+00 -0.19747471658E+04  0.19747471658E+04  0.50400001928E-02 0. -1.
    10030    2    1    2    0    0  0.00000000000E+00  0.00000000000E+00 -0.79332911989E+03  0.31561652117E+04  0.30548335063E+04 0.  0.
        1    1    3    3  502    0 -0.93467009838E+03 -0.11806075970E+04 -0.66120363078E+03  0.16445767639E+04  0.50400001928E-02 0.  1.
       -1    1    3    3    0  502  0.93467009838E+03  0.11806075970E+04 -0.13212548910E+03  0.15115884479E+04  0.50400001928E-02 0. -1.
</event>
<event>
 5   0  0.5328368E-06  0.2969078E+04  0.7818609E-02  0.8252616E-01
       -2   -1    0    0    0  501  0.00000000000E+00  0.00000000000E+00  0.18601114383E+04  0.18601114383E+04  0.25500000920E-02 0. -1.
        2   -1    0    0  501    0  0.00000000000E+00  0.00000000000E+00 -0.11847980492E+04  0.11847980492E+04  0.25500000920E-02 0.  1.
    10030    2    1    2    0    0  0.00000000000E+00  0.00000000000E+00  0.67531338904E+03  0.30449094875E+04  0.29690782431E+04 0.  0.
        1    1    3    3  502    0  0.12841344681E+04  0.30792325116E+03 -0.35792758775E+03  0.13681850090E+04  0.50400001928E-02 0.  1.
       -1    1    3    3    0  502 -0.12841344681E+04 -0.30792325116E+03  0.10332409768E+04  0.16767244785E+04  0.50400001928E-02 0. -1.
</event>
<event>
 5   0  0.1885307E-06  0.3106599E+04  0.7818609E-02  0.8213929E-01
        1   -1    0    0  501    0  0.00000000000E+00  0.00000000000E+00  0.22159226231E+04  0.22159226231E+04  0.50400001928E-02 0.  1.
       -1   -1    0    0    0  501  0.00000000000E+00  0.00000000000E+00 -0.10888193223E+04  0.10888193223E+04  0.50400001928E-02 0. -1.
    10030    2    1    2    0    0  0.00000000000E+00  0.00000000000E+00  0.11271033009E+04  0.33047419454E+04  0.31065990206E+04 0.  0.
        3    1    3    3  502    0 -0.47912897046E+03 -0.59723335644E+03 -0.87412313885E+03  0.11620428238E+04  0.10100000352E+00 0. -1.
       -3    1    3    3    0  502  0.47912897046E+03  0.59723335644E+03  0.20012264397E+04  0.21426991216E+04  0.10100000352E+00 0.  1.
</event>
<event>
 5   0  0.1840431E-06  0.3241950E+04  0.7818609E-02  0.8177825E-01
        1   -1    0    0  501    0  0.00000000000E+00  0.00000000000E+00  0.20590101959E+04  0.20590101959E+04  0.50400001928E-02 0. -1.
       -1   -1    0    0    0  501  0.00000000000E+00  0.00000000000E+00 -0.12761279156E+04  0.12761279156E+04  0.50400001928E-02 0.  1.
    10030    2    1    2    0    0  0.00000000000E+00  0.00000000000E+00  0.78288228028E+03  0.33351381115E+04  0.32419502707E+04 0.  0.
        1    1    3    3  502    0 -0.17916651794E+03 -0.98751961030E+03 -0.91804368087E+03  0.13601837456E+04  0.50400001928E-02 0.  1.
       -1    1    3    3    0  502  0.17916651794E+03  0.98751961030E+03  0.17009259612E+04  0.19749543659E+04  0.50400001928E-02 0. -1.
</event>
<event>
 5   0  0.5001658E-06  0.2632936E+04  0.7818609E-02  0.8357099E-01
        2   -1    0    0  501    0  0.00000000000E+00  0.00000000000E+00  0.14290530270E+04  0.14290530270E+04  0.25500000920E-02 0. -1.
       -2   -1    0    0    0  501  0.00000000000E+00  0.00000000000E+00 -0.12127525392E+04  0.12127525392E+04  0.25500000920E-02 0.  1.
    10030    2    1    2    0    0  0.00000000000E+00  0.00000000000E+00  0.21630048782E+03  0.26418055663E+04  0.26329357662E+04 0.  0.
        3    1    3    3  502    0  0.29946668767E+03 -0.10300128288E+04  0.87392571463E+03  0.13836014200E+04  0.10100000352E+00 0. -1.
       -3    1    3    3    0  502 -0.29946668767E+03  0.10300128288E+04 -0.65762522682E+03  0.12582041463E+04  0.10100000352E+00 0.  1.
</event>
<event>
 5   0  0.4927533E-06  0.3085590E+04  0.7818609E-02  0.8219704E-01
       -2   -1    0    0    0  501  0.00000000000E+00  0.00000000000E+00  0.96405963806E+03  0.96405963806E+03  0.25500000920E-02 0. -1.
        2   -1    0    0  501    0  0.00000000000E+00  0.00000000000E+00 -0.24689506617E+04  0.24689506617E+04  0.25500000920E-02 0.  1.
    10030    2    1    2    0    0  0.00000000000E+00  0.00000000000E+00 -0.15048910237E+04  0.34330102998E+04  0.30855895264E+04 0.  0.
        5    1    3    3  502    0  0.51965339316E+03  0.12032272431E+04 -0.16579623033E+04  0.21134466014E+04  0.46999998093E+01 0.  1.
       -5    1    3    3    0  502 -0.51965339316E+03 -0.12032272431E+04  0.15307127965E+03  0.13195636984E+04  0.46999998093E+01 0. -1.
</event>
<event>
 5   0  0.5114870E-06  0.3102806E+04  0.7818609E-02  0.8214968E-01
       -2   -1    0    0    0  501  0.00000000000E+00  0.00000000000E+00  0.19757019311E+04  0.19757019311E+04  0.25500000920E-02 0.  1.
        2   -1    0    0  501    0  0.00000000000E+00  0.00000000000E+00 -0.12182256341E+04  0.12182256341E+04  0.25500000920E-02 0. -1.
    10030    2    1    2    0    0  0.00000000000E+00  0.00000000000E+00  0.75747629702E+03  0.31939275652E+04  0.31028056580E+04 0.  0.
        2    1    3    3  502    0  0.10919799150E+04  0.26340659295E+03 -0.72275614759E+03  0.13357318656E+04  0.25500000920E-02 0. -1.
       -2    1    3    3    0  502 -0.10919799150E+04 -0.26340659295E+03  0.14802324446E+04  0.18581956996E+04  0.25500000920E-02 0.  1.
</event>
<event>
 5   0  0.5114870E-06  0.3087953E+04  0.7818609E-02  0.8219052E-01
        2   -1    0    0  501    0  0.00000000000E+00  0.00000000000E+00  0.25661422829E+04  0.25661422829E+04  0.25500000920E-02 0.  1.
       -2   -1    0    0    0  501  0.00000000000E+00  0.00000000000E+00 -0.92896774849E+03  0.92896774850E+03  0.25500000920E-02 0. -1.
    10030    2    1    2    0    0  0.00000000000E+00  0.00000000000E+00  0.16371745344E+04  0.34951100314E+04  0.30879529911E+04 0.  0.
        2    1    3    3  502    0 -0.24487412932E+03  0.12881052896E+04 -0.10419249190E+03  0.13153078164E+04  0.25500000920E-02 0. -1.
       -2    1    3    3    0  502  0.24487412932E+03 -0.12881052896E+04  0.17413670263E+04  0.21798022150E+04  0.25500000920E-02 0.  1.
</event>
<event>
 5   0  0.5001658E-06  0.3093279E+04  0.7818609E-02  0.8217585E-01
       -2   -1    0    0    0  501  0.00000000000E+00  0.00000000000E+00  0.10275252865E+04  0.10275252866E+04  0.25500000920E-02 0. -1.
        2   -1    0    0  501    0  0.00000000000E+00  0.00000000000E+00 -0.23280141595E+04  0.23280141595E+04  0.25500000920E-02 0.  1.
    10030    2    1    2    0    0  0.00000000000E+00  0.00000000000E+00 -0.13004888729E+04  0.33555394460E+04  0.30932787888E+04 0.  0.
        3    1    3    3  502    0  0.21507351684E+03  0.69174535215E+03  0.83211410097E+03  0.11032597777E+04  0.10100000352E+00 0. -1.
       -3    1    3    3    0  502 -0.21507351684E+03 -0.69174535215E+03 -0.21326029739E+04  0.22522796683E+04  0.10100000352E+00 0.  1.
</event>
<event>
 5   0  0.1836401E-06  0.3068332E+04  0.7818609E-02  0.8224483E-01
       -1   -1    0    0    0  501  0.00000000000E+00  0.00000000000E+00  0.14079505713E+04  0.14079505713E+04  0.50400001928E-02 0.  1.
        1   -1    0    0  501    0  0.00000000000E+00  0.00000000000E+00 -0.16716957722E+04  0.16716957722E+04  0.50400001928E-02 0. -1.
    10030    2    1    2    0    0  0.00000000000E+00  0.00000000000E+00 -0.26374520098E+03  0.30796463435E+04  0.30683318057E+04 0.  0.
        2    1    3    3  502    0 -0.78021059481E+03  0.13012928968E+04 -0.35980745550E+03  0.15593438301E+04  0.25500000920E-02 0.  1.
       -2    1    3    3    0  502  0.78021059481E+03 -0.13012928968E+04  0.96062254525E+02  0.15203025134E+04  0.25500000920E-02 0. -1.
</event>
<event>
 5   0  0.5328368E-06  0.3096704E+04  0.7818609E-02  0.8216643E-01
        2   -1    0    0  501    0  0.00000000000E+00  0.00000000000E+00  0.12559979741E+04  0.12559979741E+04  0.25500000920E-02 0.  1.
       -2   -1    0    0    0  501  0.00000000000E+00  0.00000000000E+00 -0.19087563671E+04  0.19087563671E+04  0.25500000920E-02 0. -1.
    10030    2    1    2    0    0  0.00000000000E+00  0.00000000000E+00 -0.65275839309E+03  0.31647543412E+04  0.30967041383E+04 0.  0.
        1    1    3    3  502    0 -0.52565018920E+03  0.72019346201E+02 -0.18129574633E+04  0.18889970014E+04  0.50400001928E-02 0. -1.
       -1    1    3    3    0  502  0.52565018920E+03 -0.72019346201E+02  0.11601990702E+04  0.12757573398E+04  0.50400001928E-02 0.  1.
</event>
<event>
 5   0  0.1885307E-06  0.2937368E+04  0.7818609E-02  0.8261845E-01
        1   -1    0    0  501    0  0.00000000000E+00  0.00000000000E+00  0.23784922518E+04  0.23784922518E+04  0.50400001928E-02 0.  1.
       -1   -1    0    0    0  501  0.00000000000E+00  0.00000000000E+00 -0.90689084800E+03  0.90689084802E+03  0.50400001928E-02 0. -1.
    10030    2    1    2    0    0  0.00000000000E+00  0.00000000000E+00  0.14716014038E+04  0.32853830998E+04  0.29373681112E+04 0.  0.
        3    1    3    3  502    0 -0.30241985161E+03 -0.57782930374E+03  0.22076471822E+04  0.23019666727E+04  0.10100000352E+00 0.  1.
       -3    1    3    3    0  502  0.30241985161E+03  0.57782930374E+03 -0.73604577844E+03  0.98341642709E+03  0.10100000352E+00 0. -1.
</event>
<event>
 5   0  0.1885307E-06  0.3121922E+04  0.7818609E-02  0.8209747E-01
       -1   -1    0    0    0  501  0.00000000000E+00  0.00000000000E+00  0.13385792118E+04  0.13385792119E+04  0.50400001928E-02 0. -1.
        1   -1    0    0  501    0  0.00000000000E+00  0.00000000000E+00 -0.18202872067E+04  0.18202872067E+04  0.50400001928E-02 0.  1.
    10030    2    1    2    0    0  0.00000000000E+00  0.00000000000E+00 -0.48170799488E+03  0.31588664186E+04  0.31219215971E+04 0.  0.
        3    1    3    3  502    0  0.80712519907E+03  0.10347065507E+04 -0.10961559501E+04  0.17098615763E+04  0.10100000352E+00 0.  1.
       -3    1    3    3    0  502 -0.80712519907E+03 -0.10347065507E+04  0.61444795524E+03  0.14490048423E+04  0.10100000352E+00 0. -1.
</event>
<event>
 5   0  0.1843709E-06  0.3165486E+04  0.7818609E-02  0.8197992E-01
        1   -1    0    0  501    0  0.00000000000E+00  0.00000000000E+00  0.20291724675E+04  0.20291724675E+04  0.50400001928E-02 0. -1.
       -1   -1    0    0    0  501  0.00000000000E+00  0.00000000000E+00 -0.12345305667E+04  0.12345305667E+04  0.50400001928E-02 0.  1.
    10030    2    1    2    0    0  0.00000000000E+00  0.00000000000E+00  0.79464190075E+03  0.32637030342E+04  0.31654860203E+04 0.  0.
        4    1    3    3  502    0  0.14000965354E+04 -0.73536047994E+03  0.46292281862E+03  0.16478241692E+04  0.12699999809E+01 0. -1.
       -4    1    3    3    0  502 -0.14000965354E+04  0.73536047994E+03  0.33171908213E+03  0.16158788649E+04  0.12699999809E+01 0.  1.
</event>
<event>
 5   0  0.4900679E-06  0.3115941E+04  0.7818609E-02  0.8211377E-01
       -2   -1    0    0    0  501  0.00000000000E+00  0.00000000000E+00  0.93286243400E+03  0.93286243400E+03  0.25500000920E-02 0. -1.
        2   -1    0    0  501    0  0.00000000000E+00  0.00000000000E+00 -0.26019612548E+04  0.26019612548E+04  0.25500000920E-02 0.  1.
    10030    2    1    2    0    0  0.00000000000E+00  0.00000000000E+00 -0.16690988208E+04  0.35348236888E+04  0.31159408912E+04 0.  0.
        4    1    3    3  502    0 -0.95280041412E+03  0.10585822717E+04 -0.15509909418E+04  0.21057064301E+04  0.12699999809E+01 0.  1.
       -4    1    3    3    0  502  0.95280041412E+03 -0.10585822717E+04 -0.11810787901E+03  0.14291172587E+04  0.12699999809E+01 0. -1.
</event>
<event>
 5   0  0.1885307E-06  0.3011496E+04  0.7818609E-02  0.8240456E-01
        1   -1    0    0  501    0  0.00000000000E+00  0.00000000000E+00  0.15420922819E+04  0.15420922819E+04  0.50400001928E-02 0. -1.
       -1   -1    0    0    0  501  0.00000000000E+00  0.00000000000E+00 -0.14702597992E+04  0.14702597992E+04  0.50400001928E-02 0.  1.
    10030    2    1    2    0    0  0.00000000000E+00  0.00000000000E+00  0.71832482711E+02  0.30123520812E+04  0.30114955015E+04 0.  0.
        3    1    3    3  502    0  0.92681229687E+03  0.11836697558E+04  0.12091778662E+03  0.15082029856E+04  0.10100000352E+00 0.  1.
       -3    1    3    3    0  502 -0.92681229687E+03 -0.11836697558E+04 -0.49085303905E+02  0.15041490956E+04  0.10100000352E+00 0. -1.
</event>
<event>
 5   0  0.4927533E-06  0.3131985E+04  0.7818609E-02  0.8207014E-01
       -2   -1    0    0    0  501  0.00000000000E+00  0.00000000000E+00  0.21089405357E+04  0.21089405357E+04  0.25500000920E-02 0.  1.
        2   -1    0    0  501    0  0.00000000000E+00  0.00000000000E+00 -0.11628267534E+04  0.11628267534E+04  0.25500000920E-02 0. -1.
    10030    2    1    2    0    0  0.00000000000E+00  0.00000000000E+00  0.94611378233E+03  0.32717672891E+04  0.31319849784E+04 0.  0.
        5    1    3    3  502    0 -0.30747295581E+03 -0.13535344316E+04 -0.28436534023E+03  0.14168559605E+04  0.46999998093E+01 0.  1.
       -5    1    3    3    0  502  0.30747295581E+03  0.13535344316E+04  0.12304791226E+04  0.18549113286E+04  0.46999998093E+01 0. -1.
</event>
<event>
 5   0  0.1885307E-06  0.3130471E+04  0.7818609E-02  0.8207425E-01
        1   -1    0    0  501    0  0.00000000000E+00  0.00000000000E+00  0.10664420175E+04  0.10664420175E+04  0.50400001928E-02 0.  1.
       -1   -1    0    0    0  501  0.00000000000E+00  0.00000000000E+00 -0.22973237523E+04  0.22973237523E+04  0.50400001928E-02 0. -1.
    10030    2    1    2    0    0  0.00000000000E+00  0.00000000000E+00 -0.12308817349E+04  0.33637657698E+04  0.31304712599E+04 0.  0.
        3    1    3    3  502    0  0.82064859075E+03 -0.98887334194E+03 -0.15756996419E+04  0.20332643624E+04  0.10100000352E+00 0. -1.
       -3    1    3    3    0  502 -0.82064859075E+03  0.98887334194E+03  0.34481790698E+03  0.13305014074E+04  0.10100000352E+00 0.  1.
</event>
<event>
 5   0  0.5328368E-06  0.3082750E+04  0.7818609E-02  0.8220488E-01
        2   -1    0    0  501    0  0.00000000000E+00  0.00000000000E+00  0.14240473140E+04  0.14240473140E+04  0.25500000920E-02 0. -1.
       -2   -1    0    0    0  501  0.00000000000E+00  0.00000000000E+00 -0.16683691707E+04  0.16683691707E+04  0.25500000920E-02 0.  1.
    10030    2    1    2    0    0  0.00000000000E+00  0.00000000000E+00 -0.24432185663E+03  0.30924164847E+04  0.30827498350E+04 0.  0.
        1    1    3    3  502    0 -0.68812800627E+03 -0.45416050094E+03 -0.14285713214E+04  0.16494235157E+04  0.50400001928E-02 0.  1.
       -1    1    3    3    0  502  0.68812800627E+03  0.45416050094E+03  0.11842494648E+04  0.14429929690E+04  0.50400001928E-02 0. -1.
</event>
<event>
 5   0  0.1885307E-06  0.3077306E+04  0.7818609E-02  0.8221994E-01
       -1   -1    0    0    0  501  0.00000000000E+00  0.00000000000E+00  0.12679148596E+04  0.12679148596E+04  0.50400001928E-02 0. -1.
        1   -1    0    0  501    0  0.00000000000E+00  0.00000000000E+00 -0.18672023759E+04  0.18672023759E+04  0.50400001928E-02 0.  1.
    10030    2    1    2    0    0  0.00000000000E+00  0.00000000000E+00 -0.59928751631E+03  0.31351172356E+04  0.30773063795E+04 0.  0.
        3    1    3    3  502    0  0.87931751270E+03 -0.12047071355E+04 -0.68481373651E+03  0.16411850701E+04  0.10100000352E+00 0. -1.
       -3    1    3    3    0  502 -0.87931751270E+03  0.12047071355E+04  0.85526220206E+02  0.14939321655E+04  0.10100000352E+00 0.  1.
</event>
<event>
 5   0  0.4927533E-06  0.3118315E+04  0.7818609E-02  0.8210729E-01
       -2   -1    0    0    0  501  0.00000000000E+00  0.00000000000E+00  0.12781941532E+04  0.12781941532E+04  0.25500000920E-02 0. -1.
        2   -1    0    0  501    0  0.00000000000E+00  0.00000000000E+00 -0.19018804381E+04  0.19018804381E+04  0.25500000920E-02 0.  1.
    10030    2    1    2    0    0  0.00000000000E+00  0.00000000000E+00 -0.62368628487E+03  0.31800745913E+04  0.31183152221E+04 0.  0.
        5    1    3    3  502    0  0.93729853566E+02 -0.15269507533E+04 -0.61877995472E+03  0.16502347139E+04  0.46999998093E+01 0.  1.
       -5    1    3    3    0  502 -0.93729853566E+02  0.15269507533E+04 -0.49063301469E+01  0.15298398774E+04  0.46999998093E+01 0. -1.
</event>
<event>
 5   0  0.5001658E-06  0.2731386E+04  0.7818609E-02  0.8324893E-01
        2   -1    0    0  501    0  0.00000000000E+00  0.00000000000E+00  0.10395998504E+04  0.10395998504E+04  0.25500000920E-02 0.  1.
       -2   -1    0    0    0  501  0.00000000000E+00  0.00000000000E+00 -0.17940725997E+04  0.17940725997E+04  0.25500000920E-02 0. -1.
    10030    2    1    2    0    0  0.00000000000E+00  0.00000000000E+00 -0.75447274930E+03  0.28336724500E+04  0.27313861727E+04 0.  0.
        3    1    3    3  502    0 -0.12040008895E+04  0.29370159151E+03  0.21804468639E+03  0.12583410755E+04  0.10100000352E+00 0.  1.
       -3    1    3    3    0  502  0.12040008895E+04 -0.29370159151E+03 -0.97251743570E+03  0.15753313746E+04  0.10100000352E+00 0. -1.
</event>
<event>
 5   0  0.5001658E-06  0.3079389E+04  0.7818609E-02  0.8221417E-01
       -2   -1    0    0    0  501  0.00000000000E+00  0.00000000000E+00  0.13016073799E+04  0.13016073799E+04  0.25500000920E-02 0. -1.
        2   -1    0    0  501    0  0.00000000000E+00  0.00000000000E+00 -0.18213318243E+04  0.18213318243E+04  0.25500000920E-02 0.  1.
    10030    2    1    2    0    0  0.00000000000E+00  0.00000000000E+00 -0.51972444445E+03  0.31229392042E+04  0.30793888638E+04 0.  0.
        3    1    3    3  502    0 -0.42187732269E+03  0.31704474381E+03  0.12070244242E+04  0.13173480238E+04  0.10100000352E+00 0. -1.
       -3    1    3    3    0  502  0.42187732269E+03 -0.31704474381E+03 -0.17267488687E+04  0.18055911804E+04  0.10100000352E+00 0.  1.
</event>
<event>
 5   0  0.1840431E-06  0.3183443E+04  0.7818609E-02  0.8193203E-01
        1   -1    0    0  501    0  0.00000000000E+00  0.00000000000E+00  0.92624363256E+03  0.92624363257E+03  0.50400001928E-02 0.  1.
       -1   -1    0    0    0  501  0.00000000000E+00  0.00000000000E+00 -0.27353256855E+04  0.27353256855E+04  0.50400001928E-02 0. -1.
    10030    2    1    2    0    0  0.00000000000E+00  0.00000000000E+00 -0.18090820529E+04  0.36615693181E+04  0.31834434182E+04 0.  0.
        1    1    3    3  502    0  0.63037958341E+03  0.11920679014E+04  0.68152201305E+02  0.13502033267E+04  0.50400001928E-02 0.  1.
       -1    1    3    3    0  502 -0.63037958341E+03 -0.11920679014E+04 -0.18772342542E+04  0.23113659914E+04  0.50400001928E-02 0. -1.
</event>
<event>
 5   0  0.1843709E-06  0.3103018E+04  0.7818609E-02  0.8214910E-01
       -1   -1    0    0    0  501  0.00000000000E+00  0.00000000000E+00  0.19762326181E+04  0.19762326181E+04  0.50400001928E-02 0.  1.
        1   -1    0    0  501    0  0.00000000000E+00  0.00000000000E+00 -0.12180649822E+04  0.12180649822E+04  0.50400001928E-02 0. -1.
    10030    2    1    2    0    0  0.00000000000E+00  0.00000000000E+00  0.75816763594E+03  0.31942976003E+04  0.31030177240E+04 0.  0.
        4    1    3    3  502    0 -0.87978355248E+03 -0.45356301218E+03  0.16089843633E+04  0.18890661183E+04  0.12699999809E+01 0.  1.
       -4    1    3    3    0  502  0.87978355248E+03  0.45356301218E+03 -0.85081672732E+03  0.13052314820E+04  0.12699999809E+01 0. -1.
</event>
<event>
 5   0  0.1840431E-06  0.3090981E+04  0.7818609E-02  0.8218217E-01
        1   -1    0    0  501    0  0.00000000000E+00  0.00000000000E+00  0.14243582436E+04  0.14243582436E+04  0.50400001928E-02 0.  1.
       -1   -1    0    0    0  501  0.00000000000E+00  0.00000000000E+00 -0.16769241153E+04  0.16769241153E+04  0.50400001928E-02 0. -1.
    10030    2    1    2    0    0  0.00000000000E+00  0.00000000000E+00 -0.25256587162E+03  0.31012823589E+04  0.30909808719E+04 0.  0.
        1    1    3    3  502    0  0.10135940877E+04 -0.54302089896E+03  0.90977462541E+03  0.14662655081E+04  0.50400001928E-02 0.  1.
       -1    1    3    3    0  502 -0.10135940877E+04  0.54302089896E+03 -0.11623404970E+04  0.16350168508E+04  0.50400001928E-02 0. -1.
</event>
<event>
 5   0  0.1853742E-06  0.3130562E+04  0.7818609E-02  0.8207400E-01
       -1   -1    0    0    0  501  0.00000000000E+00  0.00000000000E+00  0.14902171123E+04  0.14902171123E+04  0.50400001928E-02 0. -1.
        1   -1    0    0  501    0  0.00000000000E+00  0.00000000000E+00 -0.16441258433E+04  0.16441258433E+04  0.50400001928E-02 0.  1.
    10030    2    1    2    0    0  0.00000000000E+00  0.00000000000E+00 -0.15390873100E+03  0.31343429557E+04  0.31305619090E+04 0.  0.
        5    1    3    3  502    0  0.25664647280E+03  0.85678816419E+03 -0.13630793270E+04  0.16303253393E+04  0.46999998093E+01 0.  1.
       -5    1    3    3    0  502 -0.25664647280E+03 -0.85678816419E+03  0.12091705960E+04  0.15040176164E+04  0.46999998093E+01 0. -1.
</event>
<event>
 5   0  0.1843709E-06  0.2713806E+04  0.7818609E-02  0.8330539E-01
       -1   -1    0    0    0  501  0.00000000000E+00  0.00000000000E+00  0.16600375030E+04  0.16600375030E+04  0.50400001928E-02 0.  1.
        1   -1    0    0  501    0  0.00000000000E+00  0.00000000000E+00 -0.11091229834E+04  0.11091229835E+04  0.50400001928E-02 0. -1.
    10030    2    1    2    0    0  0.00000000000E+00  0.00000000000E+00  0.55091451958E+03  0.27691604865E+04  0.27138059975E+04 0.  0.
        4    1    3    3  502    0 -0.29463407818E+03  0.11993376826E+04  0.84902952372E+03  0.14986903823E+04  0.12699999809E+01 0.  1.
       -4    1    3    3    0  502  0.29463407818E+03 -0.11993376826E+04 -0.29811500414E+03  0.12704701042E+04  0.12699999809E+01 0. -1.
</event>
<event>
 5   0  0.1836401E-06  0.3091693E+04  0.7818609E-02  0.8218021E-01
       -1   -1    0    0    0  501  0.00000000000E+00  0.00000000000E+00  0.19549984101E+04  0.19549984101E+04  0.50400001928E-02 0. -1.
        1   -1    0    0  501    0  0.00000000000E+00  0.00000000000E+00 -0.12223237220E+04  0.12223237220E+04  0.50400001928E-02 0.  1.
    10030    2    1    2    0    0  0.00000000000E+00  0.00000000000E+00  0.73267468812E+03  0.31773221322E+04  0.30916926970E+04 0.  0.
        2    1    3    3  502    0  0.47757481831E+03 -0.12819752916E+04 -0.37339192764E+03  0.14180831735E+04  0.25500000920E-02 0.  1.
       -2    1    3    3    0  502 -0.47757481831E+03  0.12819752916E+04  0.11060666158E+04  0.17592389587E+04  0.25500000920E-02 0. -1.
</event>
<event>
 5   0  0.5114870E-06  0.3067676E+04  0.7818609E-02  0.8224665E-01
       -2   -1    0    0    0  501  0.00000000000E+00  0.00000000000E+00  0.13698200942E+04  0.13698200942E+04  0.25500000920E-02 0. -1.
        2   -1    0    0  501    0  0.00000000000E+00  0.00000000000E+00 -0.17174951952E+04  0.17174951952E+04  0.25500000920E-02 0.  1.
    10030    2    1    2    0    0  0.00000000000E+00  0.00000000000E+00 -0.34767510098E+03  0.30873152895E+04  0.30676762738E+04 0.  0.
        2    1    3    3  502    0 -0.32542589548E+03 -0.13429197945E+04  0.49625069629E+03  0.14681962885E+04  0.25500000920E-02 0. -1.
       -2    1    3    3    0  502  0.32542589548E+03  0.13429197945E+04 -0.84392579728E+03  0.16191190010E+04  0.25500000920E-02 0.  1.
</event>
<event>
 5   0  0.1853742E-06  0.3121585E+04  0.7818609E-02  0.8209839E-01
       -1   -1    0    0    0  501  0.00000000000E+00  0.00000000000E+00  0.19568712406E+04  0.19568712406E+04  0.50400001928E-02 0.  1.
        1   -1    0    0  501    0  0.00000000000E+00  0.00000000000E+00 -0.12448815774E+04  0.12448815774E+04  0.50400001928E-02 0. -1.
    10030    2    1    2    0    0  0.00000000000E+00  0.00000000000E+00  0.71198966312E+03  0.32017528180E+04  0.31215848262E+04 0.  0.
        5    1    3    3  502    0 -0.12485248176E+04  0.18314083444E+03  0.12981136428E+04  0.18103800444E+04  0.46999998093E+01 0.  1.
       -5    1    3    3    0  502  0.12485248176E+04 -0.18314083444E+03 -0.58612397972E+03  0.13913727736E+04  0.46999998093E+01 0. -1.
</event>
<event>
 5   0  0.1885307E-06  0.3078535E+04  0.7818609E-02  0.8221654E-01
       -1   -1    0    0    0  501  0.00000000000E+00  0.00000000000E+00  0.26017754750E+04  0.26017754750E+04  0.50400001928E-02 0. -1.
        1   -1    0    0  501    0  0.00000000000E+00  0.00000000000E+00 -0.91066435376E+03  0.91066435378E+03  0.50400001928E-02 0.  1.
    10030    2    1    2    0    0  0.00000000000E+00  0.00000000000E+00  0.16911111212E+04  0.35124398288E+04  0.30785348344E+04 0.  0.
        3    1    3    3  502    0 -0.10969944182E+04 -0.36204945179E+03  0.20062214432E+04  0.23150380231E+04  0.10100000352E+00 0. -1.
       -3    1    3    3    0  502  0.10969944182E+04  0.36204945179E+03 -0.31511032196E+03  0.11974018057E+04  0.10100000352E+00 0.  1.
</event>
<event>
 5   0  0.5114870E-06  0.2824510E+04  0.7818609E-02  0.8295699E-01
        2   -1    0    0  501    0  0.00000000000E+00  0.00000000000E+00  0.19112058950E+04  0.19112058950E+04  0.25500000920E-02 0.  1.
       -2   -1    0    0    0  501  0.00000000000E+00  0.00000000000E+00 -0.10435633199E+04  0.10435633199E+04  0.25500000920E-02 0. -1.
    10030    2    1    2    0    0  0.00000000000E+00  0.00000000000E+00  0.86764257514E+03  0.29547692150E+04  0.28245101302E+04 0.  0.
        2    1    3    3  502    0  0.84492742313E+03 -0.63098568429E+03  0.14165143160E+04  0.17659439662E+04  0.25500000920E-02 0.  1.
       -2    1    3    3    0  502 -0.84492742313E+03  0.63098568429E+03 -0.54887174091E+03  0.11888252488E+04  0.25500000920E-02 0. -1.
</event>
<event>
 5   0  0.1836401E-06  0.3113532E+04  0.7818609E-02  0.8212034E-01
       -1   -1    0    0    0  501  0.00000000000E+00  0.00000000000E+00  0.14994360022E+04  0.14994360022E+04  0.50400001928E-02 0. -1.
        1   -1    0    0  501    0  0.00000000000E+00  0.00000000000E+00 -0.16162884728E+04  0.16162884728E+04  0.50400001928E-02 0.  1.
    10030    2    1    2    0    0  0.00000000000E+00  0.00000000000E+00 -0.11685247059E+03  0.31157244750E+04  0.31135324800E+04 0.  0.
        2    1    3    3  502    0 -0.78837370732E+03  0.65219617517E+03 -0.12325502525E+04  0.16018967127E+04  0.25500000920E-02 0.  1.
       -2    1    3    3    0  502  0.78837370732E+03 -0.65219617517E+03  0.11156977819E+04  0.15138277623E+04  0.25500000920E-02 0. -1.
</event>
<event>
 5   0  0.1853742E-06  0.3100723E+04  0.7818609E-02  0.8215539E-01
       -1   -1    0    0    0  501  0.00000000000E+00  0.00000000000E+00  0.10682804816E+04  0.10682804816E+04  0.50400001928E-02 0.  1.
        1   -1    0    0  501    0  0.00000000000E+00  0.00000000000E+00 -0.22499904709E+04  0.22499904709E+04  0.50400001928E-02 0. -1.
    10030    2    1    2    0    0  0.00000000000E+00  0.00000000000E+00 -0.11817099893E+04  0.33182709525E+04  0.31007230794E+04 0.  0.
        5    1    3    3  502    0 -0.83487348898E+03 -0.13044665022E+04 -0.51554568864E+03  0.16323161597E+04  0.46999998093E+01 0.  1.
       -5    1    3    3    0  502  0.83487348898E+03  0.13044665022E+04 -0.66616430068E+03  0.16859547928E+04  0.46999998093E+01 0. -1.
</event>
<event>
 5   0  0.5328368E-06  0.3141695E+04  0.7818609E-02  0.8204387E-01
        2   -1    0    0  501    0  0.00000000000E+00  0.00000000000E+00  0.24731346067E+04  0.24731346067E+04  0.25500000920E-02 0. -1.
       -2   -1    0    0    0  501  0.00000000000E+00  0.00000000000E+00 -0.99774679126E+03  0.99774679126E+03  0.25500000920E-02 0.  1.
    10030    2    1    2    0    0  0.00000000000E+00  0.00000000000E+00  0.14753878155E+04  0.34708813980E+04  0.31416951591E+04 0.  0.
        1    1    3    3  502    0  0.44171226787E+03 -0.26205407079E+03 -0.90236653967E+03  0.10382906315E+04  0.50400001928E-02 0.  1.
       -1    1    3    3    0  502 -0.44171226787E+03  0.26205407079E+03  0.23777543551E+04  0.24325907665E+04  0.50400001928E-02 0. -1.
</event>
<event>
 5   0  0.5114870E-06  0.3178060E+04  0.7818609E-02  0.8194636E-01
        2   -1    0    0  501    0  0.00000000000E+00  0.00000000000E+00  0.22688817490E+04  0.22688817490E+04  0.25500000920E-02 0. -1.
       -2   -1    0    0    0  501  0.00000000000E+00  0.00000000000E+00 -0.11128903516E+04  0.11128903516E+04  0.25500000920E-02 0.  1.
    10030    2    1    2    0    0  0.00000000000E+00  0.00000000000E+00  0.11559913974E+04  0.33817721006E+04  0.31780601677E+04 0.  0.
        2    1    3    3  502    0  0.45762378661E+03 -0.53831500540E+03 -0.93654870063E+03  0.11731692307E+04  0.25500000920E-02 0.  1.
       -2    1    3    3    0  502 -0.45762378661E+03  0.53831500540E+03  0.20925400980E+04  0.22086028699E+04  0.25500000920E-02 0. -1.
</event>
<event>
 5   0  0.4900679E-06  0.3111589E+04  0.7818609E-02  0.8212565E-01
        2   -1    0    0  501    0  0.00000000000E+00  0.00000000000E+00  0.26066875923E+04  0.26066875923E+04  0.25500000920E-02 0. -1.
       -2   -1    0    0    0  501  0.00000000000E+00  0.00000000000E+00 -0.92857169237E+03  0.92857169237E+03  0.25500000920E-02 0.  1.
    10030    2    1    2    0    0  0.00000000000E+00  0.00000000000E+00  0.16781158999E+04  0.35352592847E+04  0.31115888604E+04 0.  0.
        4    1    3    3  502    0 -0.36253626952E+03 -0.89230521729E+03 -0.54912806835E+03  0.11086858869E+04  0.12699999809E+01 0.  1.
       -4    1    3    3    0  502  0.36253626952E+03  0.89230521729E+03  0.22272439683E+04  0.24265733978E+04  0.12699999809E+01 0. -1.
</event>
<event>
 5   0  0.4927533E-06  0.3378351E+04  0.7818609E-02  0.8143240E-01
       -2   -1    0    0    0  501  0.00000000000E+00  0.00000000000E+00  0.88833115762E+03  0.88833115762E+03  0.25500000920E-02 0. -1.
        2   -1    0    0  501    0  0.00000000000E+00  0.00000000000E+00 -0.32119930878E+04  0.32119930878E+04  0.25500000920E-02 0.  1.
    10030    2    1    2    0    0  0.00000000000E+00  0.00000000000E+00 -0.23236619302E+04  0.41003242454E+04  0.33783508035E+04 0.  0.
        5    1    3    3  502    0  0.74768933002E+02 -0.59376619887E+03 -0.30790033119E+04  0.31366275165E+04  0.46999998093E+01 0.  1.
       -5    1    3    3    0  502 -0.74768933002E+02  0.59376619887E+03  0.75534138179E+03  0.96369672890E+03  0.46999998093E+01 0. -1.
</event>
<event>
 5   0  0.4900679E-06  0.3066269E+04  0.7818609E-02  0.8225057E-01
       -2   -1    0    0    0  501  0.00000000000E+00  0.00000000000E+00  0.25809071617E+04  0.25809071617E+04  0.25500000920E-02 0. -1.
        2   -1    0    0  501    0  0.00000000000E+00  0.00000000000E+00 -0.91072665463E+03  0.91072665464E+03  0.25500000920E-02 0.  1.
    10030    2    1    2    0    0  0.00000000000E+00  0.00000000000E+00  0.16701805071E+04  0.34916338163E+04  0.30662687066E+04 0.  0.
        4    1    3    3  502    0 -0.39020749884E+03  0.11529037100E+04  0.18966415402E+04  0.22535970362E+04  0.12699999809E+01 0. -1.
       -4    1    3    3    0  502  0.39020749884E+03 -0.11529037100E+04 -0.22646103308E+03  0.12380367802E+04  0.12699999809E+01 0.  1.
</event>
<event>
 5   0  0.5328368E-06  0.2348079E+04  0.7818609E-02  0.8459202E-01
        2   -1    0    0  501    0  0.00000000000E+00  0.00000000000E+00  0.10506846211E+04  0.10506846211E+04  0.25500000920E-02 0. -1.
       -2   -1    0    0    0  501  0.00000000000E+00  0.00000000000E+00 -0.13118763278E+04  0.13118763278E+04  0.25500000920E-02 0.  1.
    10030    2    1    2    0    0  0.00000000000E+00  0.00000000000E+00 -0.26119170668E+03  0.23625609489E+04  0.23480786038E+04 0.  0.
        1    1    3    3  502    0 -0.34130384147E+03 -0.10827184217E+04  0.17058427099E+03  0.11479836612E+04  0.50400001928E-02 0. -1.
       -1    1    3    3    0  502  0.34130384147E+03  0.10827184217E+04 -0.43177597767E+03  0.12145772877E+04  0.50400001928E-02 0.  1.
</event>
<event>
 5   0  0.1843709E-06  0.2990213E+04  0.7818609E-02  0.8246531E-01
        1   -1    0    0  501    0  0.00000000000E+00  0.00000000000E+00  0.22391655243E+04  0.22391655243E+04  0.50400001928E-02 0.  1.
       -1   -1    0    0    0  501  0.00000000000E+00  0.00000000000E+00 -0.99829326125E+03  0.99829326127E+03  0.50400001928E-02 0. -1.
    10030    2    1    2    0    0  0.00000000000E+00  0.00000000000E+00  0.12408722630E+04  0.32374587855E+04  0.29902132725E+04 0.  0.
        4    1    3    3  502    0 -0.16252028425E+03  0.11913714929E+04  0.15824815547E+04  0.19874678264E+04  0.12699999809E+01 0. -1.
       -4    1    3    3    0  502  0.16252028425E+03 -0.11913714929E+04 -0.34160929169E+03  0.12499909592E+04  0.12699999809E+01 0.  1.
</event>
<event>
 5   0  0.5114870E-06  0.2777768E+04  0.7818609E-02  0.8310204E-01
       -2   -1    0    0    0  501  0.00000000000E+00  0.00000000000E+00  0.10043687829E+04  0.10043687829E+04  0.25500000920E-02 0.  1.
        2   -1    0    0  501    0  0.00000000000E+00  0.00000000000E+00 -0.19206084172E+04  0.19206084172E+04  0.25500000920E-02 0. -1.
    10030    2    1    2    0    0  0.00000000000E+00  0.00000000000E+00 -0.91623963433E+03  0.29249772002E+04  0.27777682686E+04 0.  0.
        2    1    3    3  502    0  0.70344771732E+03  0.91430221596E+03 -0.12725502594E+04  0.17176062983E+04  0.25500000920E-02 0. -1.
       -2    1    3    3    0  502 -0.70344771732E+03 -0.91430221596E+03  0.35631062510E+03  0.12073709019E+04  0.25500000920E-02 0.  1.
</event>
<event>
 5   0  0.5001658E-06  0.2979675E+04  0.7818609E-02  0.8249559E-01
        2   -1    0    0  501    0  0.00000000000E+00  0.00000000000E+00  0.17893776617E+04  0.17893776617E+04  0.25500000920E-02 0.  1.
       -2   -1    0    0    0  501  0.00000000000E+00  0.00000000000E+00 -0.12404401364E+04  0.12404401364E+04  0.25500000920E-02 0. -1.
    10030    2    1    2    0    0  0.00000000000E+00  0.00000000000E+00  0.54893752526E+03  0.30298177981E+04  0.29796750634E+04 0.  0.
        3    1    3    3  502    0 -0.30044740342E+03 -0.91422649691E+03 -0.88200838620E+03  0.13053802256E+04  0.10100000352E+00 0. -1.
       -3    1    3    3    0  502  0.30044740342E+03  0.91422649691E+03  0.14309459115E+04  0.17244375725E+04  0.10100000352E+00 0.  1.
</event>
<event>
 5   0  0.1649875E-06  0.3044434E+04  0.7818609E-02  0.8231155E-01
        4   -1    0    0  501    0  0.00000000000E+00  0.00000000000E+00  0.13798320695E+04  0.13798326539E+04  0.12699999809E+01 0. -1.
       -4   -1    0    0    0  501  0.00000000000E+00  0.00000000000E+00 -0.16792938048E+04  0.16792942850E+04  0.12699999809E+01 0.  1.
    10030    2    1    2    0    0  0.00000000000E+00  0.00000000000E+00 -0.29946173531E+03  0.30591269390E+04  0.30444343149E+04 0.  0.
        2    1    3    3  502    0 -0.99427982811E+03 -0.10985873815E+04 -0.50020990948E+03  0.15638722982E+04  0.25500000920E-02 0.  1.
       -2    1    3    3    0  502  0.99427982811E+03  0.10985873815E+04  0.20074817418E+03  0.14952546408E+04  0.25500000920E-02 0. -1.
</event>
<event>
 5   0  0.5328368E-06  0.2767335E+04  0.7818609E-02  0.8313482E-01
        2   -1    0    0  501    0  0.00000000000E+00  0.00000000000E+00  0.14310880944E+04  0.14310880944E+04  0.25500000920E-02 0.  1.
       -2   -1    0    0    0  501  0.00000000000E+00  0.00000000000E+00 -0.13378181115E+04  0.13378181115E+04  0.25500000920E-02 0. -1.
    10030    2    1    2    0    0  0.00000000000E+00  0.00000000000E+00  0.93269982924E+02  0.27689062059E+04  0.27673348708E+04 0.  0.
        1    1    3    3  502    0 -0.68582732292E+03  0.11561773216E+04 -0.28131697446E+03  0.13734061147E+04  0.50400001928E-02 0.  1.
       -1    1    3    3    0  502  0.68582732292E+03 -0.11561773216E+04  0.37458695738E+03  0.13955000912E+04  0.50400001928E-02 0. -1.
</event>
<event>
 5   0  0.1840431E-06  0.3130984E+04  0.7818609E-02  0.8207286E-01
        1   -1    0    0  501    0  0.00000000000E+00  0.00000000000E+00  0.23886178839E+04  0.23886178839E+04  0.50400001928E-02 0.  1.
       -1   -1    0    0    0  501  0.00000000000E+00  0.00000000000E+00 -0.10260179181E+04  0.10260179181E+04  0.50400001928E-02 0. -1.
    10030    2    1    2    0    0  0.00000000000E+00  0.00000000000E+00  0.13625999659E+04  0.34146358020E+04  0.31309837102E+04 0.  0.
        1    1    3    3  502    0  0.35251048756E+03  0.94271867969E+02  0.23415906504E+04  0.23698518103E+04  0.50400001928E-02 0.  1.
       -1    1    3    3    0  502 -0.35251048756E+03 -0.94271867969E+02 -0.97899068452E+03  0.10447839917E+04  0.50400001928E-02 0. -1.
</event>
<event>
 5   0  0.5114870E-06  0.3076525E+04  0.7818609E-02  0.8222210E-01
        2   -1    0    0  501    0  0.00000000000E+00  0.00000000000E+00  0.24267829077E+04  0.24267829077E+04  0.25500000920E-02 0.  1.
       -2   -1    0    0    0  501  0.00000000000E+00  0.00000000000E+00 -0.97505698202E+03  0.97505698202E+03  0.25500000920E-02 0. -1.
    10030    2    1    2    0    0  0.00000000000E+00  0.00000000000E+00  0.14517259257E+04  0.34018398897E+04  0.30765250644E+04 0.  0.
        2    1    3    3  502    0  0.85864169422E+03  0.76205777737E+03 -0.40624195367E+03  0.12177972492E+04  0.25500000920E-02 0. -1.
       -2    1    3    3    0  502 -0.85864169422E+03 -0.76205777737E+03  0.18579678793E+04  0.21840426406E+04  0.25500000920E-02 0.  1.
</event>
<event>
 5   0  0.1853742E-06  0.3084118E+04  0.7818609E-02  0.8220110E-01
       -1   -1    0    0    0  501  0.00000000000E+00  0.00000000000E+00  0.13051483418E+04  0.13051483418E+04  0.50400001928E-02 0.  1.
        1   -1    0    0  501    0  0.00000000000E+00  0.00000000000E+00 -0.18219733077E+04  0.18219733077E+04  0.50400001928E-02 0. -1.
    10030    2    1    2    0    0  0.00000000000E+00  0.00000000000E+00 -0.51682496584E+03  0.31271216495E+04  0.30841176640E+04 0.  0.
        5    1    3    3  502    0  0.68237781035E+03 -0.47161061913E+03  0.10596625647E+04  0.13457202135E+04  0.46999998093E+01 0.  1.
       -5    1    3    3    0  502 -0.68237781035E+03  0.47161061913E+03 -0.15764875305E+04  0.17814014360E+04  0.46999998093E+01 0. -1.
</event>
<event>
 5   0  0.4927533E-06  0.3099524E+04  0.7818609E-02  0.8215868E-01
        2   -1    0    0  501    0  0.00000000000E+00  0.00000000000E+00  0.15755776670E+04  0.15755776670E+04  0.25500000920E-02 0.  1.
       -2   -1    0    0    0  501  0.00000000000E+00  0.00000000000E+00 -0.15243695942E+04  0.15243695942E+04  0.25500000920E-02 0. -1.
    10030    2    1    2    0    0  0.00000000000E+00  0.00000000000E+00  0.51208072807E+02  0.30999472612E+04  0.30995242789E+04 0.  0.
        5    1    3    3  502    0 -0.38039984084E+03 -0.14810418481E+04 -0.22652480138E+03  0.15458087108E+04  0.46999998093E+01 0. -1.
       -5    1    3    3    0  502  0.38039984084E+03  0.14810418481E+04  0.27773287419E+03  0.15541385505E+04  0.46999998093E+01 0.  1.
</event>
<event>
 5   0  0.1843709E-06  0.2994810E+04  0.7818609E-02  0.8245215E-01
        1   -1    0    0  501    0  0.00000000000E+00  0.00000000000E+00  0.13087496140E+04  0.13087496140E+04  0.50400001928E-02 0.  1.
       -1   -1    0    0    0  501  0.00000000000E+00  0.00000000000E+00 -0.17132547003E+04  0.17132547003E+04  0.50400001928E-02 0. -1.
    10030    2    1    2    0    0  0.00000000000E+00  0.00000000000E+00 -0.40450508636E+03  0.30220043143E+04  0.29948097954E+04 0.  0.
        4    1    3    3  502    0 -0.10954966886E+04 -0.82029321788E+03  0.41090473613E+03  0.14289290651E+04  0.12699999809E+01 0.  1.
       -4    1    3    3    0  502  0.10954966886E+04  0.82029321788E+03 -0.81540982250E+03  0.15930752492E+04  0.12699999809E+01 0. -1.
</event>
<event>
 5   0  0.4900679E-06  0.3123228E+04  0.7818609E-02  0.8209392E-01
        2   -1    0    0  501    0  0.00000000000E+00  0.00000000000E+00  0.10146061316E+04  0.10146061316E+04  0.25500000920E-02 0.  1.
       -2   -1    0    0    0  501  0.00000000000E+00  0.00000000000E+00 -0.24035319271E+04  0.24035319271E+04  0.25500000920E-02 0. -1.
    10030    2    1    2    0    0  0.00000000000E+00  0.00000000000E+00 -0.13889257955E+04  0.34181380587E+04  0.31232279652E+04 0.  0.
        4    1    3    3  502    0 -0.56200908674E+03 -0.11488126834E+02 -0.22889652121E+04  0.23569789023E+04  0.12699999809E+01 0. -1.
       -4    1    3    3    0  502  0.56200908674E+03  0.11488126834E+02  0.90003941668E+03  0.10611591564E+04  0.12699999809E+01 0.  1.
</event>
<event>
 5   0  0.1840431E-06  0.3112241E+04  0.7818609E-02  0.8212387E-01
        1   -1    0    0  501    0  0.00000000000E+00  0.00000000000E+00  0.15957033060E+04  0.15957033060E+04  0.50400001928E-02 0.  1.
       -1   -1    0    0    0  501  0.00000000000E+00  0.00000000000E+00 -0.15175195414E+04  0.15175195414E+04  0.50400001928E-02 0. -1.
    10030    2    1    2    0    0  0.00000000000E+00  0.00000000000E+00  0.78183764585E+02  0.31132228474E+04  0.31122409605E+04 0.  0.
        1    1    3    3  502    0 -0.11904809937E+04  0.65666252335E+03 -0.71815439993E+03  0.15375943575E+04  0.50400001928E-02 0. -1.
       -1    1    3    3    0  502  0.11904809937E+04 -0.65666252335E+03  0.79633816452E+03  0.15756284899E+04  0.50400001928E-02 0.  1.
</event>
<event>
 5   0  0.5328368E-06  0.3121984E+04  0.7818609E-02  0.8209730E-01
       -2   -1    0    0    0  501  0.00000000000E+00  0.00000000000E+00  0.17919532530E+04  0.17919532530E+04  0.25500000920E-02 0. -1.
        2   -1    0    0  501    0  0.00000000000E+00  0.00000000000E+00 -0.13597989415E+04  0.13597989415E+04  0.25500000920E-02 0.  1.
    10030    2    1    2    0    0  0.00000000000E+00  0.00000000000E+00  0.43215431142E+03  0.31517521945E+04  0.31219840721E+04 0.  0.
        1    1    3    3  502    0  0.99433383512E+03  0.11010529667E+04  0.70617362215E+03  0.16430759556E+04  0.50400001928E-02 0. -1.
       -1    1    3    3    0  502 -0.99433383512E+03 -0.11010529667E+04 -0.27401931073E+03  0.15086762389E+04  0.50400001928E-02 0.  1.
</event>
<event>
 5   0  0.1843709E-06  0.2255224E+04  0.7818609E-02  0.8495788E-01
       -1   -1    0    0    0  501  0.00000000000E+00  0.00000000000E+00  0.95274771637E+03  0.95274771638E+03  0.50400001928E-02 0. -1.
        1   -1    0    0  501    0  0.00000000000E+00  0.00000000000E+00 -0.13345698394E+04  0.13345698394E+04  0.50400001928E-02 0.  1.
    10030    2    1    2    0    0  0.00000000000E+00  0.00000000000E+00 -0.38182212301E+03  0.22873175558E+04  0.22552235959E+04 0.  0.
        4    1    3    3  502    0 -0.10320336635E+04 -0.17798066813E+03  0.23305221680E+03  0.10728865501E+04  0.12699999809E+01 0.  1.
       -4    1    3    3    0  502  0.10320336635E+04  0.17798066813E+03 -0.61487433981E+03  0.12144310056E+04  0.12699999809E+01 0. -1.
</event>
<event>
 5   0  0.5001658E-06  0.3075120E+04  0.7818609E-02  0.8222599E-01
        2   -1    0    0  501    0  0.00000000000E+00  0.00000000000E+00  0.20923363648E+04  0.20923363648E+04  0.25500000920E-02 0.  1.
       -2   -1    0    0    0  501  0.00000000000E+00  0.00000000000E+00 -0.11298811805E+04  0.11298811805E+04  0.25500000920E-02 0. -1.
    10030    2    1    2    0    0  0.00000000000E+00  0.00000000000E+00  0.96245518423E+03  0.32222175453E+04  0.30751204737E+04 0.  0.
        3    1    3    3  502    0 -0.88624741390E+03  0.89452049896E+03  0.14057538750E+04  0.18872586916E+04  0.10100000352E+00 0.  1.
       -3    1    3    3    0  502  0.88624741390E+03 -0.89452049896E+03 -0.44329869077E+03  0.13349588537E+04  0.10100000352E+00 0. -1.
</event>
<event>
 5   0  0.1885307E-06  0.3111350E+04  0.7818609E-02  0.8212630E-01
        1   -1    0    0  501    0  0.00000000000E+00  0.00000000000E+00  0.20715002184E+04  0.20715002184E+04  0.50400001928E-02 0.  1.
       -1   -1    0    0    0  501  0.00000000000E+00  0.00000000000E+00 -0.11682957383E+04  0.11682957383E+04  0.50400001928E-02 0. -1.
    10030    2    1    2    0    0  0.00000000000E+00  0.00000000000E+00  0.90320448005E+03  0.32397959567E+04  0.31113501102E+04 0.  0.
        3    1    3    3  502    0 -0.37662306926E+03 -0.46834522960E+03 -0.10425327922E+04  0.12033564823E+04  0.10100000352E+00 0. -1.
       -3    1    3    3    0  502  0.37662306926E+03  0.46834522960E+03  0.19457372722E+04  0.20364394745E+04  0.10100000352E+00 0.  1.
</event>
<event>
 5   0  0.5328368E-06  0.2974946E+04  0.7818609E-02  0.8250922E-01
       -2   -1    0    0    0  501  0.00000000000E+00  0.00000000000E+00  0.18523533767E+04  0.18523533767E+04  0.25500000920E-02 0. -1.
        2   -1    0    0  501    0  0.00000000000E+00  0.00000000000E+00 -0.11944673898E+04  0.11944673898E+04  0.25500000920E-02 0.  1.
    10030    2    1    2    0    0  0.00000000000E+00  0.00000000000E+00  0.65788598689E+03  0.30468207664E+04  0.29749458501E+04 0.  0.
        1    1    3    3  502    0  0.10683890772E+03 -0.81640425834E+03  0.15976806786E+04  0.17973630730E+04  0.50400001928E-02 0. -1.
       -1    1    3    3    0  502 -0.10683890772E+03  0.81640425834E+03 -0.93979469171E+03  0.12494576935E+04  0.50400001928E-02 0.  1.
</event>
<event>
 5   0  0.1843709E-06  0.3278717E+04  0.7818609E-02  0.8168332E-01
       -1   -1    0    0    0  501  0.00000000000E+00  0.00000000000E+00  0.18356520926E+04  0.18356520926E+04  0.50400001928E-02 0. -1.
        1   -1    0    0  501    0  0.00000000000E+00  0.00000000000E+00 -0.14640550477E+04  0.14640550477E+04  0.50400001928E-02 0.  1.
    10030    2    1    2    0    0  0.00000000000E+00  0.00000000000E+00  0.37159704489E+03  0.32997071402E+04  0.32787166464E+04 0.  0.
        4    1    3    3  502    0  0.78059039067E+03  0.72078968005E+03  0.14422442098E+04  0.17913484012E+04  0.12699999809E+01 0. -1.
       -4    1    3    3    0  502 -0.78059039067E+03 -0.72078968005E+03 -0.10706471649E+04  0.15083587390E+04  0.12699999809E+01 0.  1.
</event>
<event>
 5   0  0.5001658E-06  0.3111171E+04  0.7818609E-02  0.8212679E-01
       -2   -1    0    0    0  501  0.00000000000E+00  0.00000000000E+00  0.16614678003E+04  0.16614678003E+04  0.25500000920E-02 0.  1.
        2   -1    0    0  501    0  0.00000000000E+00  0.00000000000E+00 -0.14564504928E+04  0.14564504928E+04  0.25500000920E-02 0. -1.
    10030    2    1    2    0    0  0.00000000000E+00  0.00000000000E+00  0.20501730749E+03  0.31179182931E+04  0.31111705813E+04 0.  0.
        3    1    3    3  502    0  0.56977468988E+03 -0.80156008310E+03  0.13104043840E+04  0.16383837841E+04  0.10100000352E+00 0.  1.
       -3    1    3    3    0  502 -0.56977468988E+03  0.80156008310E+03 -0.11053870765E+04  0.14795345090E+04  0.10100000352E+00 0. -1.
</event>
<event>
 5   0  0.1843709E-06  0.3141073E+04  0.7818609E-02  0.8204555E-01
        1   -1    0    0  501    0  0.00000000000E+00  0.00000000000E+00  0.11488451836E+04  0.11488451836E+04  0.50400001928E-02 0.  1.
       -1   -1    0    0    0  501  0.00000000000E+00  0.00000000000E+00 -0.21470130863E+04  0.21470130863E+04  0.50400001928E-02 0. -1.
    10030    2    1    2    0    0  0.00000000000E+00  0.00000000000E+00 -0.99816790274E+03  0.32958582700E+04  0.31410734747E+04 0.  0.
        4    1    3    3  502    0  0.57602506184E+03 -0.13009985432E+04  0.19865173712E+03  0.14366162350E+04  0.12699999809E+01 0. -1.
       -4    1    3    3    0  502 -0.57602506184E+03  0.13009985432E+04 -0.11968196399E+04  0.18592420349E+04  0.12699999809E+01 0.  1.
</event>
<event>
 5   0  0.1843709E-06  0.3001896E+04  0.7818609E-02  0.8243190E-01
       -1   -1    0    0    0  501  0.00000000000E+00  0.00000000000E+00  0.13754721264E+04  0.13754721264E+04  0.50400001928E-02 0.  1.
        1   -1    0    0  501    0  0.00000000000E+00  0.00000000000E+00 -0.16378707385E+04  0.16378707385E+04  0.50400001928E-02 0. -1.
    10030    2    1    2    0    0  0.00000000000E+00  0.00000000000E+00 -0.26239861204E+03  0.30133428649E+04  0.30018964322E+04 0.  0.
        4    1    3    3  502    0 -0.46309297927E+03  0.12531900492E+04 -0.81784231807E+03  0.15664635575E+04  0.12699999809E+01 0. -1.
       -4    1    3    3    0  502  0.46309297927E+03 -0.12531900492E+04  0.55544370602E+03  0.14468793074E+04  0.12699999809E+01 0.  1.
</event>
<event>
 5   0  0.1853742E-06  0.2437192E+04  0.7818609E-02  0.8425709E-01
        1   -1    0    0  501    0  0.00000000000E+00  0.00000000000E+00  0.22686893946E+04  0.22686893946E+04  0.50400001928E-02 0.  1.
       -1   -1    0    0    0  501  0.00000000000E+00  0.00000000000E+00 -0.65455270224E+03  0.65455270226E+03  0.50400001928E-02 0. -1.
    10030    2    1    2    0    0  0.00000000000E+00  0.00000000000E+00  0.16141366923E+04  0.29232420969E+04  0.24371924617E+04 0.  0.
        5    1    3    3  502    0  0.63083980693E+03 -0.18405219444E+03  0.20379435262E+04  0.21412776509E+04  0.46999998093E+01 0.  1.
       -5    1    3    3    0  502 -0.63083980693E+03  0.18405219444E+03 -0.42380683386E+03  0.78196444594E+03  0.46999998093E+01 0. -1.
</event>
<event>
 5   0  0.5114870E-06  0.3057308E+04  0.7818609E-02  0.8227553E-01
        2   -1    0    0  501    0  0.00000000000E+00  0.00000000000E+00  0.17921781559E+04  0.17921781559E+04  0.25500000920E-02 0.  1.
       -2   -1    0    0    0  501  0.00000000000E+00  0.00000000000E+00 -0.13038790213E+04  0.13038790213E+04  0.25500000920E-02 0. -1.
    10030    2    1    2    0    0  0.00000000000E+00  0.00000000000E+00  0.48829913456E+03  0.30960571772E+04  0.30573082932E+04 0.  0.
        2    1    3    3  502    0  0.13139781382E+04  0.19176273252E+03  0.10110268093E+04  0.16689777417E+04  0.25500000920E-02 0.  1.
       -2    1    3    3    0  502 -0.13139781382E+04 -0.19176273252E+03 -0.52272767478E+03  0.14270794355E+04  0.25500000920E-02 0. -1.
</event>
<event>
 5   0  0.4900679E-06  0.3124299E+04  0.7818609E-02  0.8209101E-01
       -2   -1    0    0    0  501  0.00000000000E+00  0.00000000000E+00  0.97532091528E+03  0.97532091528E+03  0.25500000920E-02 0. -1.
        2   -1    0    0  501    0  0.00000000000E+00  0.00000000000E+00 -0.25020602338E+04  0.25020602338E+04  0.25500000920E-02 0.  1.
    10030    2    1    2    0    0  0.00000000000E+00  0.00000000000E+00 -0.15267393185E+04  0.34773811490E+04  0.31242993949E+04 0.  0.
        4    1    3    3  502    0 -0.51221687100E+03 -0.10860485556E+04  0.34877472983E+03  0.12504051396E+04  0.12699999809E+01 0. -1.
       -4    1    3    3    0  502  0.51221687100E+03  0.10860485556E+04 -0.18755140483E+04  0.22269760094E+04  0.12699999809E+01 0.  1.
</event>
<event>
 5   0  0.4927533E-06  0.3088675E+04  0.7818609E-02  0.8218853E-01
       -2   -1    0    0    0  501  0.00000000000E+00  0.00000000000E+00  0.13473700788E+04  0.13473700788E+04  0.25500000920E-02 0. -1.
        2   -1    0    0  501    0  0.00000000000E+00  0.00000000000E+00 -0.17700993944E+04  0.17700993944E+04  0.25500000920E-02 0.  1.
    10030    2    1    2    0    0  0.00000000000E+00  0.00000000000E+00 -0.42272931560E+03  0.31174694733E+04  0.30886754188E+04 0.  0.
        5    1    3    3  502    0  0.14106092509E+04  0.14813390775E+03  0.40522708532E+03  0.14751248063E+04  0.46999998093E+01 0. -1.
       -5    1    3    3    0  502 -0.14106092509E+04 -0.14813390775E+03 -0.82795640092E+03  0.16423446670E+04  0.46999998093E+01 0.  1.
</event>
<event>
 5   0  0.4927533E-06  0.3093239E+04  0.7818609E-02  0.8217596E-01
       -2   -1    0    0    0  501  0.00000000000E+00  0.00000000000E+00  0.12164819758E+04  0.12164819758E+04  0.25500000920E-02 0.  1.
        2   -1    0    0  501    0  0.00000000000E+00  0.00000000000E+00 -0.19663526983E+04  0.19663526983E+04  0.25500000920E-02 0. -1.
    10030    2    1    2    0    0  0.00000000000E+00  0.00000000000E+00 -0.74987072249E+03  0.31828346742E+04  0.30932394771E+04 0.  0.
        5    1    3    3  502    0  0.91138442883E+03 -0.12311448952E+04 -0.59483358764E+03  0.16432250050E+04  0.46999998093E+01 0. -1.
       -5    1    3    3    0  502 -0.91138442883E+03  0.12311448952E+04 -0.15503713485E+03  0.15396096691E+04  0.46999998093E+01 0.  1.
</event>
<event>
 5   0  0.1843709E-06  0.3092834E+04  0.7818609E-02  0.8217707E-01
       -1   -1    0    0    0  501  0.00000000000E+00  0.00000000000E+00  0.23074869584E+04  0.23074869584E+04  0.50400001928E-02 0.  1.
        1   -1    0    0  501    0  0.00000000000E+00  0.00000000000E+00 -0.10363679145E+04  0.10363679145E+04  0.50400001928E-02 0. -1.
    10030    2    1    2    0    0  0.00000000000E+00  0.00000000000E+00  0.12711190439E+04  0.33438548729E+04  0.30928339411E+04 0.  0.
        4    1    3    3  502    0 -0.57755287739E+03 -0.11375054832E+04 -0.30940200639E+03  0.13127137026E+04  0.12699999809E+01 0. -1.
       -4    1    3    3    0  502  0.57755287739E+03  0.11375054832E+04  0.15805210503E+04  0.20311411703E+04  0.12699999809E+01 0.  1.
</event>
<event>
 5   0  0.1840431E-06  0.2253218E+04  0.7818609E-02  0.8496598E-01
       -1   -1    0    0    0  501  0.00000000000E+00  0.00000000000E+00  0.94349514766E+03  0.94349514767E+03  0.50400001928E-02 0. -1.
        1   -1    0    0  501    0  0.00000000000E+00  0.00000000000E+00 -0.13452618493E+04  0.13452618493E+04  0.50400001928E-02 0.  1.
    10030    2    1    2    0    0  0.00000000000E+00  0.00000000000E+00 -0.40176670164E+03  0.22887569970E+04  0.22532181671E+04 0.  0.
        1    1    3    3  502    0  0.15461676182E+03  0.44998167554E+02 -0.13335114985E+04  0.13431992015E+04  0.50400001928E-02 0.  1.
       -1    1    3    3    0  502 -0.15461676182E+03 -0.44998167554E+02  0.93174479688E+03  0.94555779551E+03  0.50400001928E-02 0. -1.
</event>
<event>
 5   0  0.5001658E-06  0.2964529E+04  0.7818609E-02  0.8253933E-01
        2   -1    0    0  501    0  0.00000000000E+00  0.00000000000E+00  0.22018636948E+04  0.22018636948E+04  0.25500000920E-02 0. -1.
       -2   -1    0    0    0  501  0.00000000000E+00  0.00000000000E+00 -0.99783985183E+03  0.99783985183E+03  0.25500000920E-02 0.  1.
    10030    2    1    2    0    0  0.00000000000E+00  0.00000000000E+00  0.12040238430E+04  0.31997035466E+04  0.29645285244E+04 0.  0.
        3    1    3    3  502    0  0.11516025092E+03 -0.64055957980E+03  0.20393973602E+04  0.21407288622E+04  0.10100000352E+00 0. -1.
       -3    1    3    3    0  502 -0.11516025092E+03  0.64055957980E+03 -0.83537351724E+03  0.10589746844E+04  0.10100000352E+00 0.  1.
</event>
<event>
 5   0  0.5328368E-06  0.3059418E+04  0.7818609E-02  0.8226964E-01
       -2   -1    0    0    0  501  0.00000000000E+00  0.00000000000E+00  0.12413812506E+04  0.12413812506E+04  0.25500000920E-02 0. -1.
        2   -1    0    0  501    0  0.00000000000E+00  0.00000000000E+00 -0.18850049071E+04  0.18850049071E+04  0.25500000920E-02 0.  1.
    10030    2    1    2    0    0  0.00000000000E+00  0.00000000000E+00 -0.64362365654E+03  0.31263861577E+04  0.30594180812E+04 0.  0.
        1    1    3    3  502    0  0.10753327140E+04 -0.10822858822E+04 -0.43526717139E+03  0.15865499321E+04  0.50400001928E-02 0.  1.
       -1    1    3    3    0  502 -0.10753327140E+04  0.10822858822E+04 -0.20835648515E+03  0.15398362256E+04  0.50400001928E-02 0. -1.
</event>
<event>
 5   0  0.4927533E-06  0.3037900E+04  0.7818609E-02  0.8232990E-01
        2   -1    0    0  501    0  0.00000000000E+00  0.00000000000E+00  0.16937694841E+04  0.16937694841E+04  0.25500000920E-02 0.  1.
       -2   -1    0    0    0  501  0.00000000000E+00  0.00000000000E+00 -0.13621742519E+04  0.13621742519E+04  0.25500000920E-02 0. -1.
    10030    2    1    2    0    0  0.00000000000E+00  0.00000000000E+00  0.33159523220E+03  0.30559437359E+04  0.30379000509E+04 0.  0.
        5    1    3    3  502    0 -0.11502476457E+04  0.18814437697E+03 -0.81400975724E+03  0.14216546444E+04  0.46999998093E+01 0. -1.
       -5    1    3    3    0  502  0.11502476457E+04 -0.18814437697E+03  0.11456049894E+04  0.16342890916E+04  0.46999998093E+01 0.  1.
</event>
<event>
 5   0  0.1853742E-06  0.3092291E+04  0.7818609E-02  0.8217857E-01
        1   -1    0    0  501    0  0.00000000000E+00  0.00000000000E+00  0.15821572981E+04  0.15821572982E+04  0.50400001928E-02 0.  1.
       -1   -1    0    0    0  501  0.00000000000E+00  0.00000000000E+00 -0.15109535305E+04  0.15109535305E+04  0.50400001928E-02 0. -1.
    10030    2    1    2    0    0  0.00000000000E+00  0.00000000000E+00  0.71203767640E+02  0.30931108287E+04  0.30922911606E+04 0.  0.
        5    1    3    3  502    0  0.95961557848E+03 -0.35969288174E+03 -0.11224195648E+04  0.15198976272E+04  0.46999998093E+01 0. -1.
       -5    1    3    3    0  502 -0.95961557848E+03  0.35969288174E+03  0.11936233324E+04  0.15732132015E+04  0.46999998093E+01 0.  1.
</event>
<event>
 5   0  0.5114870E-06  0.3112289E+04  0.7818609E-02  0.8212373E-01
       -2   -1    0    0    0  501  0.00000000000E+00  0.00000000000E+00  0.11071323848E+04  0.11071323848E+04  0.25500000920E-02 0. -1.
        2   -1    0    0  501    0  0.00000000000E+00  0.00000000000E+00 -0.21872595354E+04  0.21872595354E+04  0.25500000920E-02 0.  1.
    10030    2    1    2    0    0  0.00000000000E+00  0.00000000000E+00 -0.10801271506E+04  0.32943919202E+04  0.31122891033E+04 0.  0.
        2    1    3    3  502    0  0.90550090801E+03 -0.97721582884E+02  0.79555088348E+03  0.12092901266E+04  0.25500000920E-02 0. -1.
       -2    1    3    3    0  502 -0.90550090801E+03  0.97721582884E+02 -0.18756780341E+04  0.20851017936E+04  0.25500000920E-02 0.  1.
</event>
<event>
 5   0  0.1840431E-06  0.2401314E+04  0.7818609E-02  0.8439012E-01
        1   -1    0    0  501    0  0.00000000000E+00  0.00000000000E+00  0.93308207752E+03  0.93308207753E+03  0.50400001928E-02 0. -1.
       -1   -1    0    0    0  501  0.00000000000E+00  0.00000000000E+00 -0.15449629168E+04  0.15449629168E+04  0.50400001928E-02 0.  1.
    10030    2    1    2    0    0  0.00000000000E+00  0.00000000000E+00 -0.61188083924E+03  0.24780449943E+04  0.24013139804E+04 0.  0.
        1    1    3    3  502    0 -0.44913819366E+03  0.89923613733E+03  0.37172127761E+03  0.10716937323E+04  0.50400001928E-02 0. -1.
       -1    1    3    3    0  502  0.44913819366E+03 -0.89923613733E+03 -0.98360211686E+03  0.14063512620E+04  0.50400001928E-02 0.  1.
</event>
<event>
 5   0  0.5001658E-06  0.3002384E+04  0.7818609E-02  0.8243050E-01
       -2   -1    0    0    0  501  0.00000000000E+00  0.00000000000E+00  0.10672468550E+04  0.10672468550E+04  0.25500000920E-02 0.  1.
        2   -1    0    0  501    0  0.00000000000E+00  0.00000000000E+00 -0.21115802514E+04  0.21115802514E+04  0.25500000920E-02 0. -1.
    10030    2    1    2    0    0  0.00000000000E+00  0.00000000000E+00 -0.10443333965E+04  0.31788271064E+04  0.30023839743E+04 0.  0.
        3    1    3    3  502    0  0.15771014056E+03 -0.37396807546E+03  0.10080558205E+04  0.10866927613E+04  0.10100000352E+00 0.  1.
       -3    1    3    3    0  502 -0.15771014056E+03  0.37396807546E+03 -0.20523892170E+04  0.20921343451E+04  0.10100000352E+00 0. -1.
</event>
<event>
 5   0  0.5114870E-06  0.3113371E+04  0.7818609E-02  0.8212078E-01
        2   -1    0    0  501    0  0.00000000000E+00  0.00000000000E+00  0.17151839992E+04  0.17151839992E+04  0.25500000920E-02 0. -1.
       -2   -1    0    0    0  501  0.00000000000E+00  0.00000000000E+00 -0.14128334672E+04  0.14128334672E+04  0.25500000920E-02 0.  1.
    10030    2    1    2    0    0  0.00000000000E+00  0.00000000000E+00  0.30235053196E+03  0.31280174664E+04  0.31133707498E+04 0.  0.
        2    1    3    3  502    0  0.76104992467E+03 -0.38133709118E+03 -0.11582805281E+04  0.14374382584E+04  0.25500000920E-02 0.  1.
       -2    1    3    3    0  502 -0.76104992467E+03  0.38133709118E+03  0.14606310600E+04  0.16905792080E+04  0.25500000920E-02 0. -1.
</event>
<event>
 5   0  0.1885307E-06  0.3071326E+04  0.7818609E-02  0.8223651E-01
       -1   -1    0    0    0  501  0.00000000000E+00  0.00000000000E+00  0.17367130991E+04  0.17367130991E+04  0.50400001928E-02 0. -1.
        1   -1    0    0  501    0  0.00000000000E+00  0.00000000000E+00 -0.13578876714E+04  0.13578876714E+04  0.50400001928E-02 0.  1.
    10030    2    1    2    0    0  0.00000000000E+00  0.00000000000E+00  0.37882542769E+03  0.30946007704E+04  0.30713262972E+04 0.  0.
        3    1    3    3  502    0 -0.29339243971E+03  0.14914657595E+04  0.40949888587E+03  0.15742422250E+04  0.10100000352E+00 0.  1.
       -3    1    3    3    0  502  0.29339243971E+03 -0.14914657595E+04 -0.30673458178E+02  0.15203585454E+04  0.10100000352E+00 0. -1.
</event>
<event>
 5   0  0.4927533E-06  0.3096779E+04  0.7818609E-02  0.8216622E-01
        2   -1    0    0  501    0  0.00000000000E+00  0.00000000000E+00  0.26581794968E+04  0.26581794968E+04  0.25500000920E-02 0. -1.
       -2   -1    0    0    0  501  0.00000000000E+00  0.00000000000E+00 -0.90193700270E+03  0.90193700270E+03  0.25500000920E-02 0.  1.
    10030    2    1    2    0    0  0.00000000000E+00  0.00000000000E+00  0.17562424941E+04  0.35601164995E+04  0.30967792611E+04 0.  0.
        5    1    3    3  502    0 -0.69429726050E+03 -0.13298945811E+04  0.13186220264E+04  0.19973618654E+04  0.46999998093E+01 0. -1.
       -5    1    3    3    0  502  0.69429726050E+03  0.13298945811E+04  0.43762046776E+03  0.15627546342E+04  0.46999998093E+01 0.  1.
</event>
<event>
 5   0  0.5114870E-06  0.2961320E+04  0.7818609E-02  0.8254863E-01
        2   -1    0    0  501    0  0.00000000000E+00  0.00000000000E+00  0.15004500018E+04  0.15004500018E+04  0.25500000920E-02 0. -1.
       -2   -1    0    0    0  501  0.00000000000E+00  0.00000000000E+00 -0.14611314309E+04  0.14611314309E+04  0.25500000920E-02 0.  1.
    10030    2    1    2    0    0  0.00000000000E+00  0.00000000000E+00  0.39318570903E+02  0.29615814326E+04  0.29613204203E+04 0.  0.
        2    1    3    3  502    0 -0.75000984268E+02 -0.25337843580E+03 -0.14373592651E+04  0.14614470351E+04  0.25500000920E-02 0.  1.
       -2    1    3    3    0  502  0.75000984268E+02  0.25337843580E+03  0.14766778360E+04  0.15001343975E+04  0.25500000920E-02 0. -1.
</event>
<event>
 5   0  0.4927533E-06  0.3128032E+04  0.7818609E-02  0.8208087E-01
       -2   -1    0    0    0  501  0.00000000000E+00  0.00000000000E+00  0.98591253880E+03  0.98591253881E+03  0.25500000920E-02 0.  1.
        2   -1    0    0  501    0  0.00000000000E+00  0.00000000000E+00 -0.24810980003E+04  0.24810980003E+04  0.25500000920E-02 0. -1.
    10030    2    1    2    0    0  0.00000000000E+00  0.00000000000E+00 -0.14951854615E+04  0.34670105391E+04  0.31280317316E+04 0.  0.
        5    1    3    3  502    0  0.11748533242E+04  0.37301381155E+03 -0.18145683789E+04  0.21936499559E+04  0.46999998093E+01 0. -1.
       -5    1    3    3    0  502 -0.11748533242E+04 -0.37301381155E+03  0.31938291740E+03  0.12733605833E+04  0.46999998093E+01 0.  1.
</event>
<event>
 5   0  0.1840431E-06  0.3070827E+04  0.7818609E-02  0.8223790E-01
       -1   -1    0    0    0  501  0.00000000000E+00  0.00000000000E+00  0.16590938182E+04  0.16590938182E+04  0.50400001928E-02 0.  1.
        1   -1    0    0  501    0  0.00000000000E+00  0.00000000000E+00 -0.14209535783E+04  0.14209535783E+04  0.50400001928E-02 0. -1.
    10030    2    1    2    0    0  0.00000000000E+00  0.00000000000E+00  0.23814023993E+03  0.30800473965E+04  0.30708274440E+04 0.  0.
        1    1    3    3  502    0 -0.54855982631E+03  0.65104910441E+03  0.14006829378E+04  0.16391142461E+04  0.50400001928E-02 0.  1.
       -1    1    3    3    0  502  0.54855982631E+03 -0.65104910441E+03 -0.11625426979E+04  0.14409331504E+04  0.50400001928E-02 0. -1.
</event>
<event>
 5   0  0.4900679E-06  0.2952772E+04  0.7818609E-02  0.8257347E-01
        2   -1    0    0  501    0  0.00000000000E+00  0.00000000000E+00  0.20895725984E+04  0.20895725984E+04  0.25500000920E-02 0.  1.
       -2   -1    0    0    0  501  0.00000000000E+00  0.00000000000E+00 -0.10431392754E+04  0.10431392754E+04  0.25500000920E-02 0. -1.
    10030    2    1    2    0    0  0.00000000000E+00  0.00000000000E+00  0.10464333230E+04  0.31327118737E+04  0.29527717461E+04 0.  0.
        4    1    3    3  502    0  0.12266916518E+04 -0.80147167818E+03  0.33170498156E+03  0.15023844605E+04  0.12699999809E+01 0. -1.
       -4    1    3    3    0  502 -0.12266916518E+04  0.80147167818E+03  0.71472834143E+03  0.16303274132E+04  0.12699999809E+01 0.  1.
</event>
<event>
 5   0  0.5001658E-06  0.3058975E+04  0.7818609E-02  0.8227088E-01
        2   -1    0    0  501    0  0.00000000000E+00  0.00000000000E+00  0.12094991598E+04  0.12094991598E+04  0.25500000920E-02 0.  1.
       -2   -1    0    0    0  501  0.00000000000E+00  0.00000000000E+00 -0.19341331539E+04  0.19341331539E+04  0.25500000920E-02 0. -1.
    10030    2    1    2    0    0  0.00000000000E+00  0.00000000000E+00 -0.72463399411E+03  0.31436323137E+04  0.30589752693E+04 0.  0.
        3    1    3    3  502    0 -0.23759535820E+03  0.22713772860E+03  0.11727725732E+04  0.12179649505E+04  0.10100000352E+00 0.  1.
       -3    1    3    3    0  502  0.23759535820E+03 -0.22713772860E+03 -0.18974065673E+04  0.19256673632E+04  0.10100000352E+00 0. -1.
</event>
<event>
 5   0  0.4927533E-06  0.3020090E+04  0.7818609E-02  0.8238017E-01
       -2   -1    0    0    0  501  0.00000000000E+00  0.00000000000E+00  0.11287062458E+04  0.11287062458E+04  0.25500000920E-02 0. -1.
        2   -1    0    0  501    0  0.00000000000E+00  0.00000000000E+00 -0.20202203723E+04  0.20202203723E+04  0.25500000920E-02 0.  1.
    10030    2    1    2    0    0  0.00000000000E+00  0.00000000000E+00 -0.89151412654E+03  0.31489266181E+04  0.30200896358E+04 0.  0.
        5    1    3    3  502    0 -0.55647680549E+03  0.84459836345E+03 -0.16148390470E+04  0.19054500960E+04  0.46999998093E+01 0.  1.
       -5    1    3    3    0  502  0.55647680549E+03 -0.84459836345E+03  0.72332492042E+03  0.12434765221E+04  0.46999998093E+01 0. -1.
</event>
<event>
 5   0  0.5001658E-06  0.3103432E+04  0.7818609E-02  0.8214797E-01
       -2   -1    0    0    0  501  0.00000000000E+00  0.00000000000E+00  0.12657267725E+04  0.12657267725E+04  0.25500000920E-02 0. -1.
        2   -1    0    0  501    0  0.00000000000E+00  0.00000000000E+00 -0.19023246828E+04  0.19023246828E+04  0.25500000920E-02 0.  1.
    10030    2    1    2    0    0  0.00000000000E+00  0.00000000000E+00 -0.63659791029E+03  0.31680514553E+04  0.31034324746E+04 0.  0.
        3    1    3    3  502    0  0.94585927059E+02  0.70528562322E+03 -0.17259411057E+04  0.18668816295E+04  0.10100000352E+00 0.  1.
       -3    1    3    3    0  502 -0.94585927059E+02 -0.70528562322E+03  0.10893431954E+04  0.13011698258E+04  0.10100000352E+00 0. -1.
</event>
<event>
 5   0  0.1885307E-06  0.2988427E+04  0.7818609E-02  0.8247043E-01
       -1   -1    0    0    0  501  0.00000000000E+00  0.00000000000E+00  0.91460329534E+03  0.91460329535E+03  0.50400001928E-02 0. -1.
        1   -1    0    0  501    0  0.00000000000E+00  0.00000000000E+00 -0.24411386248E+04  0.24411386248E+04  0.50400001928E-02 0.  1.
    10030    2    1    2    0    0  0.00000000000E+00  0.00000000000E+00 -0.15265353294E+04  0.33557419201E+04  0.29884266299E+04 0.  0.
        3    1    3    3  502    0  0.14005912885E+04  0.32359203347E+02 -0.17981720523E+03  0.14124578977E+04  0.10100000352E+00 0. -1.
       -3    1    3    3    0  502 -0.14005912885E+04 -0.32359203347E+02 -0.13467181242E+04  0.19432840224E+04  0.10100000352E+00 0.  1.
</event>
<event>
 5   0  0.1885307E-06  0.3115201E+04  0.7818609E-02  0.8211579E-01
        1   -1    0    0  501    0  0.00000000000E+00  0.00000000000E+00  0.10363260393E+04  0.10363260393E+04  0.50400001928E-02 0. -1.
       -1   -1    0    0    0  501  0.00000000000E+00  0.00000000000E+00 -0.23410765806E+04  0.23410765806E+04  0.50400001928E-02 0.  1.
    10030    2    1    2    0    0  0.00000000000E+00  0.00000000000E+00 -0.13047505413E+04  0.33774026199E+04  0.31152005524E+04 0.  0.
        3    1    3    3  502    0  0.14235897686E+04 -0.10586368918E+03 -0.13279642664E+04  0.19496933228E+04  0.10100000352E+00 0.  1.
       -3    1    3    3    0  502 -0.14235897686E+04  0.10586368918E+03  0.23213725094E+02  0.14277092971E+04  0.10100000352E+00 0. -1.
</event>
<event>
 5   0  0.4900679E-06  0.3131262E+04  0.7818609E-02  0.8207210E-01
        2   -1    0    0  501    0  0.00000000000E+00  0.00000000000E+00  0.19541108317E+04  0.19541108317E+04  0.25500000920E-02 0. -1.
       -2   -1    0    0    0  501  0.00000000000E+00  0.00000000000E+00 -0.12543815407E+04  0.12543815407E+04  0.25500000920E-02 0.  1.
    10030    2    1    2    0    0  0.00000000000E+00  0.00000000000E+00  0.69972929108E+03  0.32084923724E+04  0.31312620815E+04 0.  0.
        4    1    3    3  502    0  0.80693377834E+03 -0.93206943437E+03 -0.63897799159E+03  0.13885928272E+04  0.12699999809E+01 0.  1.
       -4    1    3    3    0  502 -0.80693377834E+03  0.93206943437E+03  0.13387072827E+04  0.18198995452E+04  0.12699999809E+01 0. -1.
</event>
<event>
 5   0  0.1853742E-06  0.3187077E+04  0.7818609E-02  0.8192239E-01
       -1   -1    0    0    0  501  0.00000000000E+00  0.00000000000E+00  0.13934098541E+04  0.13934098541E+04  0.50400001928E-02 0.  1.
        1   -1    0    0  501    0  0.00000000000E+00  0.00000000000E+00 -0.18224103172E+04  0.18224103173E+04  0.50400001928E-02 0. -1.
    10030    2    1    2    0    0  0.00000000000E+00  0.00000000000E+00 -0.42900046313E+03  0.32158201714E+04  0.31870767134E+04 0.  0.
        5    1    3    3  502    0 -0.30007144675E+03  0.38563705983E+03 -0.17449470633E+04  0.18120764770E+04  0.46999998093E+01 0. -1.
       -5    1    3    3    0  502  0.30007144675E+03 -0.38563705983E+03  0.13159466001E+04  0.14037436943E+04  0.46999998093E+01 0.  1.
</event>
<event>
 5   0  0.1853742E-06  0.3095479E+04  0.7818609E-02  0.8216980E-01
        1   -1    0    0  501    0  0.00000000000E+00  0.00000000000E+00  0.24274469398E+04  0.24274469398E+04  0.50400001928E-02 0. -1.
       -1   -1    0    0    0  501  0.00000000000E+00  0.00000000000E+00 -0.98683848976E+03  0.98683848978E+03  0.50400001928E-02 0.  1.
    10030    2    1    2    0    0  0.00000000000E+00  0.00000000000E+00  0.14406084500E+04  0.34142854296E+04  0.30954793309E+04 0.  0.
        5    1    3    3  502    0  0.55987560191E+03  0.93818960703E+03  0.19294838661E+04  0.22173386092E+04  0.46999998093E+01 0. -1.
       -5    1    3    3    0  502 -0.55987560191E+03 -0.93818960703E+03 -0.48887541607E+03  0.11969468204E+04  0.46999998093E+01 0.  1.
</event>
<event>
 5   0  0.1885307E-06  0.2487423E+04  0.7818609E-02  0.8407480E-01
        1   -1    0    0  501    0  0.00000000000E+00  0.00000000000E+00  0.22218044311E+04  0.22218044311E+04  0.50400001928E-02 0. -1.
       -1   -1    0    0    0  501  0.00000000000E+00  0.00000000000E+00 -0.69619900056E+03  0.69619900057E+03  0.50400001928E-02 0.  1.
    10030    2    1    2    0    0  0.00000000000E+00  0.00000000000E+00  0.15256054305E+04  0.29180034317E+04  0.24874227822E+04 0.  0.
        3    1    3    3  502    0 -0.55805267046E+03  0.90093312379E+03  0.15264151213E+04  0.18582374469E+04  0.10100000352E+00 0. -1.
       -3    1    3    3    0  502  0.55805267046E+03 -0.90093312379E+03 -0.80969077062E+00  0.10597659847E+04  0.10100000352E+00 0.  1.
</event>
<event>
 5   0  0.5328368E-06  0.2960640E+04  0.7818609E-02  0.8255061E-01
        2   -1    0    0  501    0  0.00000000000E+00  0.00000000000E+00  0.18635510362E+04  0.18635510362E+04  0.25500000920E-02 0.  1.
       -2   -1    0    0    0  501  0.00000000000E+00  0.00000000000E+00 -0.11758983983E+04  0.11758983983E+04  0.25500000920E-02 0. -1.
    10030    2    1    2    0    0  0.00000000000E+00  0.00000000000E+00  0.68765263782E+03  0.30394494345E+04  0.29606395786E+04 0.  0.
        1    1    3    3  502    0  0.54887985745E+03  0.62010992561E+03 -0.91584056825E+03  0.12347345319E+04  0.50400001928E-02 0. -1.
       -1    1    3    3    0  502 -0.54887985745E+03 -0.62010992561E+03  0.16034932061E+04  0.18047149026E+04  0.50400001928E-02 0.  1.
</event>
<event>
 5   0  0.1836401E-06  0.3232065E+04  0.7818609E-02  0.8180400E-01
        1   -1    0    0  501    0  0.00000000000E+00  0.00000000000E+00  0.20612517767E+04  0.20612517767E+04  0.50400001928E-02 0. -1.
       -1   -1    0    0    0  501  0.00000000000E+00  0.00000000000E+00 -0.12669778514E+04  0.12669778514E+04  0.50400001928E-02 0.  1.
    10030    2    1    2    0    0  0.00000000000E+00  0.00000000000E+00  0.79427392529E+03  0.33282296282E+04  0.32320645707E+04 0.  0.
        2    1    3    3  502    0 -0.31651973361E+03 -0.67682712345E+03 -0.10784248631E+04  0.13119755646E+04  0.25500000920E-02 0.  1.
       -2    1    3    3    0  502  0.31651973361E+03  0.67682712345E+03  0.18726987884E+04  0.20162540636E+04  0.25500000920E-02 0. -1.
</event>
<event>
 5   0  0.1885307E-06  0.3098407E+04  0.7818609E-02  0.8216175E-01
       -1   -1    0    0    0  501  0.00000000000E+00  0.00000000000E+00  0.10014353662E+04  0.10014353662E+04  0.50400001928E-02 0.  1.
        1   -1    0    0  501    0  0.00000000000E+00  0.00000000000E+00 -0.23965917547E+04  0.23965917547E+04  0.50400001928E-02 0. -1.
    10030    2    1    2    0    0  0.00000000000E+00  0.00000000000E+00 -0.13951563884E+04  0.33980271209E+04  0.30984071660E+04 0.  0.
        3    1    3    3  502    0  0.86643610745E+03  0.89706910285E+03  0.31030593637E+03  0.12851981512E+04  0.10100000352E+00 0.  1.
       -3    1    3    3    0  502 -0.86643610745E+03 -0.89706910285E+03 -0.17054623248E+04  0.21128289697E+04  0.10100000352E+00 0. -1.
</event>
<event>
 5   0  0.1836401E-06  0.3110065E+04  0.7818609E-02  0.8212981E-01
        1   -1    0    0  501    0  0.00000000000E+00  0.00000000000E+00  0.20106025379E+04  0.20106025379E+04  0.50400001928E-02 0. -1.
       -1   -1    0    0    0  501  0.00000000000E+00  0.00000000000E+00 -0.12026871138E+04  0.12026871138E+04  0.50400001928E-02 0.  1.
    10030    2    1    2    0    0  0.00000000000E+00  0.00000000000E+00  0.80791542408E+03  0.32132896516E+04  0.31100647988E+04 0.  0.
        2    1    3    3  502    0  0.11483115930E+04 -0.34916774108E+03  0.14255048211E+04  0.18634917819E+04  0.25500000920E-02 0. -1.
       -2    1    3    3    0  502 -0.11483115930E+04  0.34916774108E+03 -0.61758939706E+03  0.13497978698E+04  0.25500000920E-02 0.  1.
</event>
<event>
 5   0  0.1885307E-06  0.3158975E+04  0.7818609E-02  0.8199737E-01
       -1   -1    0    0    0  501  0.00000000000E+00  0.00000000000E+00  0.12326439034E+04  0.12326439034E+04  0.50400001928E-02 0.  1.
        1   -1    0    0  501    0  0.00000000000E+00  0.00000000000E+00 -0.20239261968E+04  0.20239261968E+04  0.50400001928E-02 0. -1.
    10030    2    1    2    0    0  0.00000000000E+00  0.00000000000E+00 -0.79128229343E+03  0.32565701003E+04  0.31589746992E+04 0.  0.
        3    1    3    3  502    0  0.15371906341E+04  0.33585578047E+03 -0.53783783153E+03  0.16628360395E+04  0.10100000352E+00 0. -1.
       -3    1    3    3    0  502 -0.15371906341E+04 -0.33585578047E+03 -0.25344446190E+03  0.15937340608E+04  0.10100000352E+00 0.  1.
</event>
<event>
 5   0  0.4927533E-06  0.3094735E+04  0.7818609E-02  0.8217184E-01
        2   -1    0    0  501    0  0.00000000000E+00  0.00000000000E+00  0.20746456420E+04  0.20746456420E+04  0.25500000920E-02 0. -1.
       -2   -1    0    0    0  501  0.00000000000E+00  0.00000000000E+00 -0.11540988603E+04  0.11540988603E+04  0.25500000920E-02 0.  1.
    10030    2    1    2    0    0  0.00000000000E+00  0.00000000000E+00  0.92054678168E+03  0.32287445023E+04  0.30947349941E+04 0.  0.
        5    1    3    3  502    0 -0.10774905856E+03  0.95569495368E+03  0.17249355498E+04  0.19749398586E+04  0.46999998093E+01 0. -1.
       -5    1    3    3    0  502  0.10774905856E+03 -0.95569495368E+03 -0.80438876817E+03  0.12538046437E+04  0.46999998093E+01 0.  1.
</event>
<event>
 5   0  0.5328368E-06  0.3144820E+04  0.7818609E-02  0.8203544E-01
       -2   -1    0    0    0  501  0.00000000000E+00  0.00000000000E+00  0.15851441607E+04  0.15851441608E+04  0.25500000920E-02 0.  1.
        2   -1    0    0  501    0  0.00000000000E+00  0.00000000000E+00 -0.15597779537E+04  0.15597779537E+04  0.25500000920E-02 0. -1.
    10030    2    1    2    0    0  0.00000000000E+00  0.00000000000E+00  0.25366207069E+02  0.31449221144E+04  0.31448198138E+04 0.  0.
        1    1    3    3  502    0 -0.13259529126E+03 -0.10416407589E+04 -0.11577719612E+04  0.15630204401E+04  0.50400001928E-02 0. -1.
       -1    1    3    3    0  502  0.13259529126E+03  0.10416407589E+04  0.11831381683E+04  0.15819016743E+04  0.50400001928E-02 0.  1.
</event>
<event>
 5   0  0.1840431E-06  0.3163367E+04  0.7818609E-02  0.8198559E-01
       -1   -1    0    0    0  501  0.00000000000E+00  0.00000000000E+00  0.14739631430E+04  0.14739631430E+04  0.50400001928E-02 0. -1.
        1   -1    0    0  501    0  0.00000000000E+00  0.00000000000E+00 -0.16972759189E+04  0.16972759189E+04  0.50400001928E-02 0.  1.
    10030    2    1    2    0    0  0.00000000000E+00  0.00000000000E+00 -0.22331277590E+03  0.31712390620E+04  0.31633666547E+04 0.  0.
        1    1    3    3  502    0  0.37710395178E+03  0.69824534019E+01  0.14282216036E+04  0.14771841774E+04  0.50400001928E-02 0. -1.
       -1    1    3    3    0  502 -0.37710395178E+03 -0.69824534019E+01 -0.16515343795E+04  0.16940548845E+04  0.50400001928E-02 0.  1.
</event>
<event>
 5   0  0.5114870E-06  0.2961484E+04  0.7818609E-02  0.8254816E-01
       -2   -1    0    0    0  501  0.00000000000E+00  0.00000000000E+00  0.12371711646E+04  0.12371711646E+04  0.25500000920E-02 0.  1.
        2   -1    0    0  501    0  0.00000000000E+00  0.00000000000E+00 -0.17722668854E+04  0.17722668854E+04  0.25500000920E-02 0. -1.
    10030    2    1    2    0    0  0.00000000000E+00  0.00000000000E+00 -0.53509572079E+03  0.30094380499E+04  0.29614844160E+04 0.  0.
        2    1    3    3  502    0 -0.82822652309E+03  0.44531165862E+03  0.89479854057E+03  0.12980470234E+04  0.25500000920E-02 0.  1.
       -2    1    3    3    0  502  0.82822652309E+03 -0.44531165862E+03 -0.14298942614E+04  0.17113910265E+04  0.25500000920E-02 0. -1.
</event>
<event>
 5   0  0.4927533E-06  0.3099998E+04  0.7818609E-02  0.8215739E-01
        2   -1    0    0  501    0  0.00000000000E+00  0.00000000000E+00  0.23095680457E+04  0.23095680457E+04  0.25500000920E-02 0. -1.
       -2   -1    0    0    0  501  0.00000000000E+00  0.00000000000E+00 -0.10402361934E+04  0.10402361934E+04  0.25500000920E-02 0.  1.
    10030    2    1    2    0    0  0.00000000000E+00  0.00000000000E+00  0.12693318523E+04  0.33498042391E+04  0.30999975950E+04 0.  0.
        5    1    3    3  502    0 -0.66772905390E+03  0.27600292411E+03 -0.84712582806E+03  0.11134109583E+04  0.46999998093E+01 0.  1.
       -5    1    3    3    0  502  0.66772905390E+03 -0.27600292411E+03  0.21164576804E+04  0.22363932808E+04  0.46999998093E+01 0. -1.
</event>
<event>
 5   0  0.1836401E-06  0.3087567E+04  0.7818609E-02  0.8219158E-01
        1   -1    0    0  501    0  0.00000000000E+00  0.00000000000E+00  0.17948397541E+04  0.17948397541E+04  0.50400001928E-02 0. -1.
       -1   -1    0    0    0  501  0.00000000000E+00  0.00000000000E+00 -0.13278442379E+04  0.13278442379E+04  0.50400001928E-02 0.  1.
    10030    2    1    2    0    0  0.00000000000E+00  0.00000000000E+00  0.46699551629E+03  0.31226839920E+04  0.30875670846E+04 0.  0.
        2    1    3    3  502    0 -0.11366583400E+04  0.10428506585E+04  0.29533188475E+03  0.15705892525E+04  0.25500000920E-02 0.  1.
       -2    1    3    3    0  502  0.11366583400E+04 -0.10428506585E+04  0.17166363154E+03  0.15520947395E+04  0.25500000920E-02 0. -1.
</event>
<event>
 5   0  0.5114870E-06  0.3077584E+04  0.7818609E-02  0.8221917E-01
       -2   -1    0    0    0  501  0.00000000000E+00  0.00000000000E+00  0.16980857984E+04  0.16980857984E+04  0.25500000920E-02 0. -1.
        2   -1    0    0  501    0  0.00000000000E+00  0.00000000000E+00 -0.13944414732E+04  0.13944414732E+04  0.25500000920E-02 0.  1.
    10030    2    1    2    0    0  0.00000000000E+00  0.00000000000E+00  0.30364432521E+03  0.30925272716E+04  0.30775842879E+04 0.  0.
        2    1    3    3  502    0  0.20370540673E+03 -0.22843414649E+01  0.16844754603E+04  0.16967494474E+04  0.25500000920E-02 0. -1.
       -2    1    3    3    0  502 -0.20370540673E+03  0.22843414649E+01 -0.13808311351E+04  0.13957778242E+04  0.25500000920E-02 0.  1.
</event>
<event>
 5   0  0.5001658E-06  0.3118227E+04  0.7818609E-02  0.8210753E-01
        2   -1    0    0  501    0  0.00000000000E+00  0.00000000000E+00  0.24522913014E+04  0.24522913014E+04  0.25500000920E-02 0.  1.
       -2   -1    0    0    0  501  0.00000000000E+00  0.00000000000E+00 -0.99125046606E+03  0.99125046606E+03  0.25500000920E-02 0. -1.
    10030    2    1    2    0    0  0.00000000000E+00  0.00000000000E+00  0.14610408353E+04  0.34435417674E+04  0.31182269933E+04 0.  0.
        3    1    3    3  502    0 -0.26765543038E+03  0.34853072003E+03  0.23824847796E+04  0.24226734876E+04  0.10100000352E+00 0.  1.
       -3    1    3    3    0  502  0.26765543038E+03 -0.34853072003E+03 -0.92144394427E+03  0.10208682799E+04  0.10100000352E+00 0. -1.
</event>
<event>
 5   0  0.1853742E-06  0.3096365E+04  0.7818609E-02  0.8216736E-01
        1   -1    0    0  501    0  0.00000000000E+00  0.00000000000E+00  0.14023836129E+04  0.14023836129E+04  0.50400001928E-02 0.  1.
       -1   -1    0    0    0  501  0.00000000000E+00  0.00000000000E+00 -0.17091388666E+04  0.17091388666E+04  0.50400001928E-02 0. -1.
    10030    2    1    2    0    0  0.00000000000E+00  0.00000000000E+00 -0.30675525367E+03  0.31115224795E+04  0.30963645384E+04 0.  0.
        5    1    3    3  502    0  0.67373140671E+03  0.13127072000E+04  0.31767297072E+03  0.15093218370E+04  0.46999998093E+01 0. -1.
       -5    1    3    3    0  502 -0.67373140671E+03 -0.13127072000E+04 -0.62442822439E+03  0.16022006425E+04  0.46999998093E+01 0.  1.
</event>
<event>
 5   0  0.5328368E-06  0.2875903E+04  0.7818609E-02  0.8280083E-01
        2   -1    0    0  501    0  0.00000000000E+00  0.00000000000E+00  0.18361611017E+04  0.18361611017E+04  0.25500000920E-02 0. -1.
       -2   -1    0    0    0  501  0.00000000000E+00  0.00000000000E+00 -0.11261017093E+04  0.11261017093E+04  0.25500000920E-02 0.  1.
    10030    2    1    2    0    0  0.00000000000E+00  0.00000000000E+00  0.71005939242E+03  0.29622628110E+04  0.28759027488E+04 0.  0.
        1    1    3    3  502    0 -0.99662413684E+03 -0.10132814628E+03  0.14175967436E+04  0.17358305190E+04  0.50400001928E-02 0. -1.
       -1    1    3    3    0  502  0.99662413684E+03  0.10132814628E+03 -0.70753735118E+03  0.12264322919E+04  0.50400001928E-02 0.  1.
</event>
<event>
 5   0  0.1843709E-06  0.3066389E+04  0.7818609E-02  0.8225023E-01
       -1   -1    0    0    0  501  0.00000000000E+00  0.00000000000E+00  0.14468781379E+04  0.14468781379E+04  0.50400001928E-02 0.  1.
        1   -1    0    0  501    0  0.00000000000E+00  0.00000000000E+00 -0.16246599131E+04  0.16246599132E+04  0.50400001928E-02 0. -1.
    10030    2    1    2    0    0  0.00000000000E+00  0.00000000000E+00 -0.17778177529E+03  0.30715380510E+04  0.30663886967E+04 0.  0.
        4    1    3    3  502    0  0.13572979617E+03  0.92390058153E+03  0.11291562499E+04  0.14652680000E+04  0.12699999809E+01 0.  1.
       -4    1    3    3    0  502 -0.13572979617E+03 -0.92390058153E+03 -0.13069380252E+04  0.16062700510E+04  0.12699999809E+01 0. -1.
</event>
<event>
 5   0  0.1836401E-06  0.3110367E+04  0.7818609E-02  0.8212899E-01
       -1   -1    0    0    0  501  0.00000000000E+00  0.00000000000E+00  0.12755254097E+04  0.12755254097E+04  0.50400001928E-02 0.  1.
        1   -1    0    0  501    0  0.00000000000E+00  0.00000000000E+00 -0.18961560907E+04  0.18961560907E+04  0.50400001928E-02 0. -1.
    10030    2    1    2    0    0  0.00000000000E+00  0.00000000000E+00 -0.62063068103E+03  0.31716815004E+04  0.31103667143E+04 0.  0.
        2    1    3    3  502    0 -0.79621200727E+03 -0.74398736573E+03 -0.14417486567E+04  0.18072382107E+04  0.25500000920E-02 0. -1.
       -2    1    3    3    0  502  0.79621200727E+03  0.74398736573E+03  0.82111797570E+03  0.13644432897E+04  0.25500000920E-02 0.  1.
</event>
<event>
 5   0  0.4900679E-06  0.3122679E+04  0.7818609E-02  0.8209541E-01
       -2   -1    0    0    0  501  0.00000000000E+00  0.00000000000E+00  0.14094349739E+04  0.14094349739E+04  0.25500000920E-02 0. -1.
        2   -1    0    0  501    0  0.00000000000E+00  0.00000000000E+00 -0.17296158880E+04  0.17296158880E+04  0.25500000920E-02 0.  1.
    10030    2    1    2    0    0  0.00000000000E+00  0.00000000000E+00 -0.32018091408E+03  0.31390508618E+04  0.31226790574E+04 0.  0.
        4    1    3    3  502    0  0.12430112427E+04  0.73228082915E+03  0.44008865955E+03  0.15083075958E+04  0.12699999809E+01 0.  1.
       -4    1    3    3    0  502 -0.12430112427E+04 -0.73228082915E+03 -0.76026957362E+03  0.16307432661E+04  0.12699999809E+01 0. -1.
</event>
<event>
 5   0  0.5114870E-06  0.3129832E+04  0.7818609E-02  0.8207598E-01
       -2   -1    0    0    0  501  0.00000000000E+00  0.00000000000E+00  0.10159438393E+04  0.10159438393E+04  0.25500000920E-02 0.  1.
        2   -1    0    0  501    0  0.00000000000E+00  0.00000000000E+00 -0.24105292506E+04  0.24105292506E+04  0.25500000920E-02 0. -1.
    10030    2    1    2    0    0  0.00000000000E+00  0.00000000000E+00 -0.13945854113E+04  0.34264730900E+04  0.31298321627E+04 0.  0.
        2    1    3    3  502    0  0.80091279734E+03 -0.95625394760E+03  0.33730453845E+03  0.12921521864E+04  0.25500000920E-02 0.  1.
       -2    1    3    3    0  502 -0.80091279734E+03  0.95625394760E+03 -0.17318899497E+04  0.21343209035E+04  0.25500000920E-02 0. -1.
</event>
<event>
 5   0  0.4927533E-06  0.3192119E+04  0.7818609E-02  0.8190902E-01
        2   -1    0    0  501    0  0.00000000000E+00  0.00000000000E+00  0.14436992739E+04  0.14436992739E+04  0.25500000920E-02 0.  1.
       -2   -1    0    0    0  501  0.00000000000E+00  0.00000000000E+00 -0.17644993626E+04  0.17644993626E+04  0.25500000920E-02 0. -1.
    10030    2    1    2    0    0  0.00000000000E+00  0.00000000000E+00 -0.32080008875E+03  0.32081986365E+04  0.31921193264E+04 0.  0.
        5    1    3    3  502    0 -0.67934615177E+03 -0.90046286227E+03  0.97446443408E+03  0.14906198655E+04  0.46999998093E+01 0.  1.
       -5    1    3    3    0  502  0.67934615177E+03  0.90046286227E+03 -0.12952645228E+04  0.17175787709E+04  0.46999998093E+01 0. -1.
</event>
<event>
 5   0  0.1836401E-06  0.3424003E+04  0.7818609E-02  0.8132040E-01
       -1   -1    0    0    0  501  0.00000000000E+00  0.00000000000E+00  0.16199372932E+04  0.16199372932E+04  0.50400001928E-02 0. -1.
        1   -1    0    0  501    0  0.00000000000E+00  0.00000000000E+00 -0.18092978559E+04  0.18092978559E+04  0.50400001928E-02 0.  1.
    10030    2    1    2    0    0  0.00000000000E+00  0.00000000000E+00 -0.18936056278E+03  0.34292351491E+04  0.34240029622E+04 0.  0.
        2    1    3    3  502    0 -0.16646616070E+04  0.25627987501E+03  0.21266228983E+03  0.16976462793E+04  0.25500000920E-02 0. -1.
       -2    1    3    3    0  502  0.16646616070E+04 -0.25627987501E+03 -0.40202285261E+03  0.17315888698E+04  0.25500000920E-02 0.  1.
</event>
<event>
 5   0  0.4900679E-06  0.2810210E+04  0.7818609E-02  0.8300106E-01
        2   -1    0    0  501    0  0.00000000000E+00  0.00000000000E+00  0.16383083169E+04  0.16383083169E+04  0.25500000920E-02 0.  1.
       -2   -1    0    0    0  501  0.00000000000E+00  0.00000000000E+00 -0.12050967158E+04  0.12050967158E+04  0.25500000920E-02 0. -1.
    10030    2    1    2    0    0  0.00000000000E+00  0.00000000000E+00  0.43321160109E+03  0.28434050327E+04  0.28102099368E+04 0.  0.
        4    1    3    3  502    0 -0.10894804236E+04 -0.27013897105E+03 -0.63858555043E+03  0.12914084463E+04  0.12699999809E+01 0. -1.
       -4    1    3    3    0  502  0.10894804236E+04  0.27013897105E+03  0.10717971515E+04  0.15519965864E+04  0.12699999809E+01 0.  1.
</event>
<event>
 5   0  0.5001658E-06  0.3146340E+04  0.7818609E-02  0.8203134E-01
        2   -1    0    0  501    0  0.00000000000E+00  0.00000000000E+00  0.24699233112E+04  0.24699233112E+04  0.25500000920E-02 0. -1.
       -2   -1    0    0    0  501  0.00000000000E+00  0.00000000000E+00 -0.10020002469E+04  0.10020002469E+04  0.25500000920E-02 0.  1.
    10030    2    1    2    0    0  0.00000000000E+00  0.00000000000E+00  0.14679230643E+04  0.34719235581E+04  0.31463399484E+04 0.  0.
        3    1    3    3  502    0  0.14898971482E+04 -0.88081728468E+01  0.17673940846E+03  0.15003692628E+04  0.10100000352E+00 0.  1.
       -3    1    3    3    0  502 -0.14898971482E+04  0.88081728468E+01  0.12911836558E+04  0.19715542953E+04  0.10100000352E+00 0. -1.
</event>
<event>
 5   0  0.1853742E-06  0.3095891E+04  0.7818609E-02  0.8216866E-01
       -1   -1    0    0    0  501  0.00000000000E+00  0.00000000000E+00  0.10758498273E+04  0.10758498273E+04  0.50400001928E-02 0.  1.
        1   -1    0    0  501    0  0.00000000000E+00  0.00000000000E+00 -0.22272028005E+04  0.22272028005E+04  0.50400001928E-02 0. -1.
    10030    2    1    2    0    0  0.00000000000E+00  0.00000000000E+00 -0.11513529732E+04  0.33030526278E+04  0.30958913084E+04 0.  0.
        5    1    3    3  502    0 -0.10576585543E+04  0.11298611959E+04 -0.60742897278E+03  0.16625943541E+04  0.46999998093E+01 0.  1.
       -5    1    3    3    0  502  0.10576585543E+04 -0.11298611959E+04 -0.54392400046E+03  0.16404582737E+04  0.46999998093E+01 0. -1.
</event>
<event>
 5   0  0.5001658E-06  0.2980528E+04  0.7818609E-02  0.8249313E-01
        2   -1    0    0  501    0  0.00000000000E+00  0.00000000000E+00  0.21210193858E+04  0.21210193858E+04  0.25500000920E-02 0. -1.
       -2   -1    0    0    0  501  0.00000000000E+00  0.00000000000E+00 -0.10470849704E+04  0.10470849705E+04  0.25500000920E-02 0.  1.
    10030    2    1    2    0    0  0.00000000000E+00  0.00000000000E+00  0.10739344154E+04  0.31681043563E+04  0.29805284907E+04 0.  0.
        3    1    3    3  502    0  0.12133933387E+04  0.10475428490E+03 -0.37591323778E+03  0.12746009678E+04  0.10100000352E+00 0.  1.
       -3    1    3    3    0  502 -0.12133933387E+04 -0.10475428490E+03  0.14498476531E+04  0.18935033885E+04  0.10100000352E+00 0. -1.
</event>
<event>
 5   0  0.1836401E-06  0.2387083E+04  0.7818609E-02  0.8444355E-01
       -1   -1    0    0    0  501  0.00000000000E+00  0.00000000000E+00  0.24997874612E+04  0.24997874612E+04  0.50400001928E-02 0.  1.
        1   -1    0    0  501    0  0.00000000000E+00  0.00000000000E+00 -0.56986511592E+03  0.56986511594E+03  0.50400001928E-02 0. -1.
    10030    2    1    2    0    0  0.00000000000E+00  0.00000000000E+00  0.19299223453E+04  0.30696525771E+04  0.23870833009E+04 0.  0.
        2    1    3    3  502    0  0.53087972924E+03  0.10602685550E+04  0.78986989281E+03  0.14247445888E+04  0.25500000920E-02 0.  1.
       -2    1    3    3    0  502 -0.53087972924E+03 -0.10602685550E+04  0.11400524525E+04  0.16449079883E+04  0.25500000920E-02 0. -1.
</event>
<event>
 5   0  0.1840431E-06  0.2967077E+04  0.7818609E-02  0.8253195E-01
       -1   -1    0    0    0  501  0.00000000000E+00  0.00000000000E+00  0.13397062786E+04  0.13397062786E+04  0.50400001928E-02 0. -1.
        1   -1    0    0  501    0  0.00000000000E+00  0.00000000000E+00 -0.16428123005E+04  0.16428123005E+04  0.50400001928E-02 0.  1.
    10030    2    1    2    0    0  0.00000000000E+00  0.00000000000E+00 -0.30310602192E+03  0.29825185790E+04  0.29670766444E+04 0.  0.
        1    1    3    3  502    0  0.67236480760E+03 -0.20863649475E+03 -0.14642138800E+04  0.16246617826E+04  0.50400001928E-02 0.  1.
       -1    1    3    3    0  502 -0.67236480760E+03  0.20863649475E+03  0.11611078581E+04  0.13578567964E+04  0.50400001928E-02 0. -1.
</event>
<event>
 5   0  0.4900679E-06  0.3134231E+04  0.7818609E-02  0.8206406E-01
       -2   -1    0    0    0  501  0.00000000000E+00  0.00000000000E+00  0.11956185538E+04  0.11956185538E+04  0.25500000920E-02 0. -1.
        2   -1    0    0  501    0  0.00000000000E+00  0.00000000000E+00 -0.20540428483E+04  0.20540428483E+04  0.25500000920E-02 0.  1.
    10030    2    1    2    0    0  0.00000000000E+00  0.00000000000E+00 -0.85842429447E+03  0.32496614021E+04  0.31342314782E+04 0.  0.
        4    1    3    3  502    0  0.14191403195E+04 -0.35784872142E+02 -0.11174433809E+04  0.18066325376E+04  0.12699999809E+01 0.  1.
       -4    1    3    3    0  502 -0.14191403195E+04  0.35784872142E+02  0.25901908645E+03  0.14430288645E+04  0.12699999809E+01 0. -1.
</event>
<event>
 5   0  0.4900679E-06  0.3055085E+04  0.7818609E-02  0.8228174E-01
       -2   -1    0    0    0  501  0.00000000000E+00  0.00000000000E+00  0.15133842156E+04  0.15133842156E+04  0.25500000920E-02 0.  1.
        2   -1    0    0  501    0  0.00000000000E+00  0.00000000000E+00 -0.15418328311E+04  0.15418328311E+04  0.25500000920E-02 0. -1.
    10030    2    1    2    0    0  0.00000000000E+00  0.00000000000E+00 -0.28448615502E+02  0.30552170466E+04  0.30550845943E+04 0.  0.
        4    1    3    3  502    0 -0.13777006629E+04 -0.53790879344E+03 -0.39631268519E+03  0.15311663345E+04  0.12699999809E+01 0.  1.
       -4    1    3    3    0  502  0.13777006629E+04  0.53790879344E+03  0.36786406968E+03  0.15240507121E+04  0.12699999809E+01 0. -1.
</event>
<event>
 5   0  0.4900679E-06  0.2976571E+04  0.7818609E-02  0.8250453E-01
        2   -1    0    0  501    0  0.00000000000E+00  0.00000000000E+00  0.14289992497E+04  0.14289992497E+04  0.25500000920E-02 0.  1.
       -2   -1    0    0    0  501  0.00000000000E+00  0.00000000000E+00 -0.15500316359E+04  0.15500316359E+04  0.25500000920E-02 0. -1.
    10030    2    1    2    0    0  0.00000000000E+00  0.00000000000E+00 -0.12103238618E+03  0.29790308856E+04  0.29765712118E+04 0.  0.
        4    1    3    3  502    0  0.14755003652E+04 -0.19460307856E+03 -0.65074734526E+02  0.14897006477E+04  0.12699999809E+01 0.  1.
       -4    1    3    3    0  502 -0.14755003652E+04  0.19460307856E+03 -0.55957651651E+02  0.14893302379E+04  0.12699999809E+01 0. -1.
</event>
<event>
 5   0  0.1885307E-06  0.2471767E+04  0.7818609E-02  0.8413113E-01
        1   -1    0    0  501    0  0.00000000000E+00  0.00000000000E+00  0.20274562620E+04  0.20274562620E+04  0.50400001928E-02 0. -1.
       -1   -1    0    0    0  501  0.00000000000E+00  0.00000000000E+00 -0.75336153593E+03  0.75336153595E+03  0.50400001928E-02 0.  1.
    10030    2    1    2    0    0  0.00000000000E+00  0.00000000000E+00  0.12740947261E+04  0.27808177980E+04  0.24717666262E+04 0.  0.
        3    1    3    3  502    0  0.54695473099E+03 -0.35815935556E+03  0.18169752920E+04  0.19310196332E+04  0.10100000352E+00 0. -1.
       -3    1    3    3    0  502 -0.54695473099E+03  0.35815935556E+03 -0.54288056597E+03  0.84979816476E+03  0.10100000352E+00 0.  1.
</event>
<event>
 5   0  0.5001658E-06  0.3031067E+04  0.7818609E-02  0.8234915E-01
        2   -1    0    0  501    0  0.00000000000E+00  0.00000000000E+00  0.21175720536E+04  0.21175720536E+04  0.25500000920E-02 0.  1.
       -2   -1    0    0    0  501  0.00000000000E+00  0.00000000000E+00 -0.10846584687E+04  0.10846584687E+04  0.25500000920E-02 0. -1.
    10030    2    1    2    0    0  0.00000000000E+00  0.00000000000E+00  0.10329135849E+04  0.32022305223E+04  0.30310674430E+04 0.  0.
        3    1    3    3  502    0  0.37630183411E+03  0.39579146448E+03  0.20100030731E+04  0.20828745325E+04  0.10100000352E+00 0.  1.
       -3    1    3    3    0  502 -0.37630183411E+03 -0.39579146448E+03 -0.97708948823E+03  0.11193559898E+04  0.10100000352E+00 0. -1.
</event>
<event>
 5   0  0.5328368E-06  0.2993873E+04  0.7818609E-02  0.8245483E-01
       -2   -1    0    0    0  501  0.00000000000E+00  0.00000000000E+00  0.10040656889E+04  0.10040656890E+04  0.25500000920E-02 0.  1.
        2   -1    0    0  501    0  0.00000000000E+00  0.00000000000E+00 -0.22317453922E+04  0.22317453922E+04  0.25500000920E-02 0. -1.
    10030    2    1    2    0    0  0.00000000000E+00  0.00000000000E+00 -0.12276797033E+04  0.32358110812E+04  0.29938730600E+04 0.  0.
        1    1    3    3  502    0 -0.65156749535E+03 -0.11563812893E+04  0.13423529022E+03  0.13340828312E+04  0.50400001928E-02 0.  1.
       -1    1    3    3    0  502  0.65156749535E+03  0.11563812893E+04 -0.13619149935E+04  0.19017282500E+04  0.50400001928E-02 0. -1.
</event>
<event>
 5   0  0.1836401E-06  0.2427072E+04  0.7818609E-02  0.8429437E-01
       -1   -1    0    0    0  501  0.00000000000E+00  0.00000000000E+00  0.27058142218E+04  0.27058142218E+04  0.50400001928E-02 0. -1.
        1   -1    0    0  501    0  0.00000000000E+00  0.00000000000E+00 -0.54426128705E+03  0.54426128707E+03  0.50400001928E-02 0.  1.
    10030    2    1    2    0    0  0.00000000000E+00  0.00000000000E+00  0.21615529348E+04  0.32500755089E+04  0.24270722535E+04 0.  0.
        2    1    3    3  502    0  0.34732986840E+03  0.78559394395E+03  0.22287112126E+04  0.23885036218E+04  0.25500000920E-02 0. -1.
       -2    1    3    3    0  502 -0.34732986840E+03 -0.78559394395E+03 -0.67158277862E+02  0.86157188705E+03  0.25500000920E-02 0.  1.
</event>
<event>
 5   0  0.1840431E-06  0.2753049E+04  0.7818609E-02  0.8317995E-01
        1   -1    0    0  501    0  0.00000000000E+00  0.00000000000E+00  0.10923111994E+04  0.10923111994E+04  0.50400001928E-02 0.  1.
       -1   -1    0    0    0  501  0.00000000000E+00  0.00000000000E+00 -0.17346886648E+04  0.17346886648E+04  0.50400001928E-02 0. -1.
    10030    2    1    2    0    0  0.00000000000E+00  0.00000000000E+00 -0.64237746544E+03  0.28269998642E+04  0.27530491140E+04 0.  0.
        1    1    3    3  502    0  0.11694369060E+04 -0.10042753216E+03 -0.10596380927E+04  0.15812973325E+04  0.50400001928E-02 0. -1.
       -1    1    3    3    0  502 -0.11694369060E+04  0.10042753216E+03  0.41726062725E+03  0.12457025317E+04  0.50400001928E-02 0.  1.
</event>
<event>
 5   0  0.1836401E-06  0.3064756E+04  0.7818609E-02  0.8225477E-01
       -1   -1    0    0    0  501  0.00000000000E+00  0.00000000000E+00  0.13930154877E+04  0.13930154877E+04  0.50400001928E-02 0. -1.
        1   -1    0    0  501    0  0.00000000000E+00  0.00000000000E+00 -0.16856827128E+04  0.16856827129E+04  0.50400001928E-02 0.  1.
    10030    2    1    2    0    0  0.00000000000E+00  0.00000000000E+00 -0.29266722515E+03  0.30786982006E+04  0.30647558639E+04 0.  0.
        2    1    3    3  502    0 -0.60768962219E+03 -0.13745694155E+04  0.15411625541E+03  0.15107877333E+04  0.25500000920E-02 0. -1.
       -2    1    3    3    0  502  0.60768962219E+03  0.13745694155E+04 -0.44678348056E+03  0.15679104673E+04  0.25500000920E-02 0.  1.
</event>
<event>
 5   0  0.5001658E-06  0.3083860E+04  0.7818609E-02  0.8220181E-01
       -2   -1    0    0    0  501  0.00000000000E+00  0.00000000000E+00  0.15152047070E+04  0.15152047070E+04  0.25500000920E-02 0. -1.
        2   -1    0    0  501    0  0.00000000000E+00  0.00000000000E+00 -0.15691266615E+04  0.15691266615E+04  0.25500000920E-02 0.  1.
    10030    2    1    2    0    0  0.00000000000E+00  0.00000000000E+00 -0.53921954493E+02  0.30843313685E+04  0.30838599861E+04 0.  0.
        3    1    3    3  502    0  0.47555801436E+03  0.72893766362E+02  0.14382131741E+04  0.15165507148E+04  0.10100000352E+00 0. -1.
       -3    1    3    3    0  502 -0.47555801436E+03 -0.72893766362E+02 -0.14921351286E+04  0.15677806538E+04  0.10100000352E+00 0.  1.
</event>
<event>
 5   0  0.1836401E-06  0.2672810E+04  0.7818609E-02  0.8343881E-01
        1   -1    0    0  501    0  0.00000000000E+00  0.00000000000E+00  0.12673615682E+04  0.12673615682E+04  0.50400001928E-02 0. -1.
       -1   -1    0    0    0  501  0.00000000000E+00  0.00000000000E+00 -0.14092101028E+04  0.14092101028E+04  0.50400001928E-02 0.  1.
    10030    2    1    2    0    0  0.00000000000E+00  0.00000000000E+00 -0.14184853459E+03  0.26765716710E+04  0.26728103007E+04 0.  0.
        2    1    3    3  502    0 -0.68682354949E+03  0.50566246055E+03  0.95938591244E+03  0.12836831545E+04  0.25500000920E-02 0. -1.
       -2    1    3    3    0  502  0.68682354949E+03 -0.50566246055E+03 -0.11012344470E+04  0.13928885165E+04  0.25500000920E-02 0.  1.
</event>
<event>
 5   0  0.4900679E-06  0.3101927E+04  0.7818609E-02  0.8215209E-01
       -2   -1    0    0    0  501  0.00000000000E+00  0.00000000000E+00  0.95538413872E+03  0.95538413873E+03  0.25500000920E-02 0.  1.
        2   -1    0    0  501    0  0.00000000000E+00  0.00000000000E+00 -0.25178232275E+04  0.25178232275E+04  0.25500000920E-02 0. -1.
    10030    2    1    2    0    0  0.00000000000E+00  0.00000000000E+00 -0.15624390888E+04  0.34732073662E+04  0.31019273851E+04 0.  0.
        4    1    3    3  502    0  0.16615897857E+03 -0.26298120173E+03  0.92009498276E+03  0.97125913578E+03  0.12699999809E+01 0.  1.
       -4    1    3    3    0  502 -0.16615897857E+03  0.26298120173E+03 -0.24825340715E+04  0.25019482304E+04  0.12699999809E+01 0. -1.
</event>
<event>
 5   0  0.1885307E-06  0.3144446E+04  0.7818609E-02  0.8203645E-01
       -1   -1    0    0    0  501  0.00000000000E+00  0.00000000000E+00  0.22484173664E+04  0.22484173664E+04  0.50400001928E-02 0. -1.
        1   -1    0    0  501    0  0.00000000000E+00  0.00000000000E+00 -0.10993886085E+04  0.10993886085E+04  0.50400001928E-02 0.  1.
    10030    2    1    2    0    0  0.00000000000E+00  0.00000000000E+00  0.11490287579E+04  0.33478059749E+04  0.31444455409E+04 0.  0.
        3    1    3    3  502    0 -0.99206615299E+03 -0.11547465265E+04  0.15636805970E+03  0.15303874584E+04  0.10100000352E+00 0.  1.
       -3    1    3    3    0  502  0.99206615299E+03  0.11547465265E+04  0.99266069817E+03  0.18174185166E+04  0.10100000352E+00 0. -1.
</event>
<event>
 5   0  0.1840431E-06  0.3127331E+04  0.7818609E-02  0.8208277E-01
        1   -1    0    0  501    0  0.00000000000E+00  0.00000000000E+00  0.14659262768E+04  0.14659262768E+04  0.50400001928E-02 0. -1.
       -1   -1    0    0    0  501  0.00000000000E+00  0.00000000000E+00 -0.16679218023E+04  0.16679218023E+04  0.50400001928E-02 0.  1.
    10030    2    1    2    0    0  0.00000000000E+00  0.00000000000E+00 -0.20199552550E+03  0.31338480790E+04  0.31273313848E+04 0.  0.
        1    1    3    3  502    0 -0.30944968126E+03  0.14347949429E+04 -0.64124525392E+03  0.16017462687E+04  0.50400001928E-02 0.  1.
       -1    1    3    3    0  502  0.30944968126E+03 -0.14347949429E+04  0.43924972842E+03  0.15321018104E+04  0.50400001928E-02 0. -1.
</event>
<event>
 5   0  0.4900679E-06  0.3118068E+04  0.7818609E-02  0.8210797E-01
       -2   -1    0    0    0  501  0.00000000000E+00  0.00000000000E+00  0.13469125979E+04  0.13469125979E+04  0.25500000920E-02 0. -1.
        2   -1    0    0  501    0  0.00000000000E+00  0.00000000000E+00 -0.18045615246E+04  0.18045615246E+04  0.25500000920E-02 0.  1.
    10030    2    1    2    0    0  0.00000000000E+00  0.00000000000E+00 -0.45764892668E+03  0.31514741224E+04  0.31180677678E+04 0.  0.
        4    1    3    3  502    0  0.85007609594E+03 -0.45986154245E+03 -0.14652389754E+04  0.17552859810E+04  0.12699999809E+01 0.  1.
       -4    1    3    3    0  502 -0.85007609594E+03  0.45986154245E+03  0.10075900487E+04  0.13961881414E+04  0.12699999809E+01 0. -1.
</event>
<event>
 5   0  0.4927533E-06  0.3167685E+04  0.7818609E-02  0.8197404E-01
        2   -1    0    0  501    0  0.00000000000E+00  0.00000000000E+00  0.33632206772E+04  0.33632206772E+04  0.25500000920E-02 0.  1.
       -2   -1    0    0    0  501  0.00000000000E+00  0.00000000000E+00 -0.74587930108E+03  0.74587930108E+03  0.25500000920E-02 0. -1.
    10030    2    1    2    0    0  0.00000000000E+00  0.00000000000E+00  0.26173413761E+04  0.41090999783E+04  0.31676847621E+04 0.  0.
        5    1    3    3  502    0 -0.83727642584E+03 -0.12590690572E+04  0.19202088729E+04  0.24440766988E+04  0.46999998093E+01 0. -1.
       -5    1    3    3    0  502  0.83727642584E+03  0.12590690572E+04  0.69713250323E+03  0.16650232795E+04  0.46999998093E+01 0.  1.
</event>
<event>
 5   0  0.1836401E-06  0.3136774E+04  0.7818609E-02  0.8205717E-01
       -1   -1    0    0    0  501  0.00000000000E+00  0.00000000000E+00  0.19334114861E+04  0.19334114861E+04  0.50400001928E-02 0. -1.
        1   -1    0    0  501    0  0.00000000000E+00  0.00000000000E+00 -0.12722784005E+04  0.12722784005E+04  0.50400001928E-02 0.  1.
    10030    2    1    2    0    0  0.00000000000E+00  0.00000000000E+00  0.66113308561E+03  0.32056898865E+04  0.31367739306E+04 0.  0.
        2    1    3    3  502    0 -0.13779528402E+04  0.60145346952E+03  0.78684781743E+03  0.16969471982E+04  0.25500000920E-02 0. -1.
       -2    1    3    3    0  502  0.13779528402E+04 -0.60145346952E+03 -0.12571473183E+03  0.15087426883E+04  0.25500000920E-02 0.  1.
</event>
<event>
 5   0  0.1843709E-06  0.3090116E+04  0.7818609E-02  0.8218456E-01
       -1   -1    0    0    0  501  0.00000000000E+00  0.00000000000E+00  0.11103619899E+04  0.11103619899E+04  0.50400001928E-02 0. -1.
        1   -1    0    0  501    0  0.00000000000E+00  0.00000000000E+00 -0.21499337907E+04  0.21499337907E+04  0.50400001928E-02 0.  1.
    10030    2    1    2    0    0  0.00000000000E+00  0.00000000000E+00 -0.10395718008E+04  0.32602957806E+04  0.30901163486E+04 0.  0.
        4    1    3    3  502    0 -0.66740379827E+03  0.32408161074E+03 -0.19496895422E+04  0.20860842850E+04  0.12699999809E+01 0.  1.
       -4    1    3    3    0  502  0.66740379827E+03 -0.32408161074E+03  0.91011774137E+03  0.11742114956E+04  0.12699999809E+01 0. -1.
</event>
<event>
 5   0  0.1840431E-06  0.3019370E+04  0.7818609E-02  0.8238221E-01
        1   -1    0    0  501    0  0.00000000000E+00  0.00000000000E+00  0.15471702347E+04  0.15471702347E+04  0.50400001928E-02 0.  1.
       -1   -1    0    0    0  501  0.00000000000E+00  0.00000000000E+00 -0.14731083549E+04  0.14731083549E+04  0.50400001928E-02 0. -1.
    10030    2    1    2    0    0  0.00000000000E+00  0.00000000000E+00  0.74061879797E+02  0.30202785897E+04  0.30193703975E+04 0.  0.
        1    1    3    3  502    0 -0.12843357344E+04 -0.72256019702E+03  0.36505926870E+03  0.15181830544E+04  0.50400001928E-02 0.  1.
       -1    1    3    3    0  502  0.12843357344E+04  0.72256019702E+03 -0.29099738890E+03  0.15020955353E+04  0.50400001928E-02 0. -1.
</event>
<event>
 5   0  0.1853742E-06  0.3039928E+04  0.7818609E-02  0.8232420E-01
        1   -1    0    0  501    0  0.00000000000E+00  0.00000000000E+00  0.21272841544E+04  0.21272841544E+04  0.50400001928E-02 0. -1.
       -1   -1    0    0    0  501  0.00000000000E+00  0.00000000000E+00 -0.10860282148E+04  0.10860282148E+04  0.50400001928E-02 0.  1.
    10030    2    1    2    0    0  0.00000000000E+00  0.00000000000E+00  0.10412559396E+04  0.32133123693E+04  0.30399280338E+04 0.  0.
        5    1    3    3  502    0  0.14856825888E+04  0.90434055831E+02  0.19510654581E+03  0.15011727839E+04  0.46999998093E+01 0.  1.
       -5    1    3    3    0  502 -0.14856825888E+04 -0.90434055831E+02  0.84614939379E+03  0.17121395853E+04  0.46999998093E+01 0. -1.
</event>
<event>
 5   0  0.1885307E-06  0.3100411E+04  0.7818609E-02  0.8215625E-01
        1   -1    0    0  501    0  0.00000000000E+00  0.00000000000E+00  0.10109162010E+04  0.10109162010E+04  0.50400001928E-02 0.  1.
       -1   -1    0    0    0  501  0.00000000000E+00  0.00000000000E+00 -0.23771875215E+04  0.23771875215E+04  0.50400001928E-02 0. -1.
    10030    2    1    2    0    0  0.00000000000E+00  0.00000000000E+00 -0.13662713204E+04  0.33881037225E+04  0.31004111846E+04 0.  0.
        3    1    3    3  502    0  0.10080966974E+04  0.16692141232E+03  0.59080627186E+03  0.11803278232E+04  0.10100000352E+00 0.  1.
       -3    1    3    3    0  502 -0.10080966974E+04 -0.16692141232E+03 -0.19570775923E+04  0.22077758993E+04  0.10100000352E+00 0. -1.
</event>
<event>
 5   0  0.5328368E-06  0.2690636E+04  0.7818609E-02  0.8338050E-01
       -2   -1    0    0    0  501  0.00000000000E+00  0.00000000000E+00  0.89539849186E+03  0.89539849187E+03  0.25500000920E-02 0. -1.
        2   -1    0    0  501    0  0.00000000000E+00  0.00000000000E+00 -0.20213126258E+04  0.20213126258E+04  0.25500000920E-02 0.  1.
    10030    2    1    2    0    0  0.00000000000E+00  0.00000000000E+00 -0.11259141339E+04  0.29167111176E+04  0.26906358183E+04 0.  0.
        1    1    3    3  502    0 -0.11121553646E+04 -0.36451445718E+02 -0.13825687967E+04  0.17747435704E+04  0.50400001928E-02 0.  1.
       -1    1    3    3    0  502  0.11121553646E+04  0.36451445718E+02  0.25665466283E+03  0.11419675472E+04  0.50400001928E-02 0. -1.
</event>
<event>
 5   0  0.1853742E-06  0.3074615E+04  0.7818609E-02  0.8222739E-01
        1   -1    0    0  501    0  0.00000000000E+00  0.00000000000E+00  0.13953887199E+04  0.13953887199E+04  0.50400001928E-02 0. -1.
       -1   -1    0    0    0  501  0.00000000000E+00  0.00000000000E+00 -0.16936599081E+04  0.16936599081E+04  0.50400001928E-02 0.  1.
    10030    2    1    2    0    0  0.00000000000E+00  0.00000000000E+00 -0.29827118826E+03  0.30890486280E+04  0.30746147278E+04 0.  0.
        5    1    3    3  502    0  0.40574235715E+03 -0.83363093139E+03  0.10828855821E+04  0.14255632796E+04  0.46999998093E+01 0. -1.
       -5    1    3    3    0  502 -0.40574235715E+03  0.83363093139E+03 -0.13811567703E+04  0.16634853484E+04  0.46999998093E+01 0.  1.
</event>
<event>
 5   0  0.1840431E-06  0.3072412E+04  0.7818609E-02  0.8223350E-01
       -1   -1    0    0    0  501  0.00000000000E+00  0.00000000000E+00  0.80488410440E+03  0.80488410442E+03  0.50400001928E-02 0. -1.
        1   -1    0    0  501    0  0.00000000000E+00  0.00000000000E+00 -0.29320108696E+04  0.29320108696E+04  0.50400001928E-02 0.  1.
    10030    2    1    2    0    0  0.00000000000E+00  0.00000000000E+00 -0.21271267652E+04  0.37368949740E+04  0.30724120446E+04 0.  0.
        1    1    3    3  502    0 -0.86971330799E+03  0.85240741029E+03 -0.22025371629E+04  0.25167776193E+04  0.50400001928E-02 0.  1.
       -1    1    3    3    0  502  0.86971330799E+03 -0.85240741029E+03  0.75410397664E+02  0.12201173547E+04  0.50400001928E-02 0. -1.
</event>
<event>
 5   0  0.1885307E-06  0.3082117E+04  0.7818609E-02  0.8220663E-01
       -1   -1    0    0    0  501  0.00000000000E+00  0.00000000000E+00  0.15779848529E+04  0.15779848529E+04  0.50400001928E-02 0.  1.
        1   -1    0    0  501    0  0.00000000000E+00  0.00000000000E+00 -0.15049962158E+04  0.15049962158E+04  0.50400001928E-02 0. -1.
    10030    2    1    2    0    0  0.00000000000E+00  0.00000000000E+00  0.72988637165E+02  0.30829810687E+04  0.30821169557E+04 0.  0.
        3    1    3    3  502    0 -0.75625277331E+03  0.66091386682E+03  0.12056401444E+04  0.15691697054E+04  0.10100000352E+00 0.  1.
       -3    1    3    3    0  502  0.75625277331E+03 -0.66091386682E+03 -0.11326515072E+04  0.15138113633E+04  0.10100000352E+00 0. -1.
</event>
<event>
 5   0  0.1843709E-06  0.3064386E+04  0.7818609E-02  0.8225580E-01
        1   -1    0    0  501    0  0.00000000000E+00  0.00000000000E+00  0.28035166337E+04  0.28035166337E+04  0.50400001928E-02 0.  1.
       -1   -1    0    0    0  501  0.00000000000E+00  0.00000000000E+00 -0.83738242152E+03  0.83738242153E+03  0.50400001928E-02 0. -1.
    10030    2    1    2    0    0  0.00000000000E+00  0.00000000000E+00  0.19661342122E+04  0.36408990553E+04  0.30643861033E+04 0.  0.
        4    1    3    3  502    0 -0.56707046755E+03  0.68321586815E+03 -0.50055937281E+03  0.10192713752E+04  0.12699999809E+01 0. -1.
       -4    1    3    3    0  502  0.56707046755E+03 -0.68321586815E+03  0.24666935850E+04  0.26216276801E+04  0.12699999809E+01 0.  1.
</event>
<event>
 5   0  0.1885307E-06  0.3072483E+04  0.7818609E-02  0.8223330E-01
       -1   -1    0    0    0  501  0.00000000000E+00  0.00000000000E+00  0.18224987458E+04  0.18224987458E+04  0.50400001928E-02 0. -1.
        1   -1    0    0  501    0  0.00000000000E+00  0.00000000000E+00 -0.12949465738E+04  0.12949465738E+04  0.50400001928E-02 0.  1.
    10030    2    1    2    0    0  0.00000000000E+00  0.00000000000E+00  0.52755217202E+03  0.31174453197E+04  0.30724833648E+04 0.  0.
        3    1    3    3  502    0 -0.13025045108E+04 -0.48004173045E+03 -0.40394268528E+03  0.14457274179E+04  0.10100000352E+00 0. -1.
       -3    1    3    3    0  502  0.13025045108E+04  0.48004173045E+03  0.93149485730E+03  0.16717179018E+04  0.10100000352E+00 0.  1.
</event>
<event>
 5   0  0.5328368E-06  0.3094646E+04  0.7818609E-02  0.8217209E-01
       -2   -1    0    0    0  501  0.00000000000E+00  0.00000000000E+00  0.13245154981E+04  0.13245154981E+04  0.25500000920E-02 0. -1.
        2   -1    0    0  501    0  0.00000000000E+00  0.00000000000E+00 -0.18076109340E+04  0.18076109340E+04  0.25500000920E-02 0.  1.
    10030    2    1    2    0    0  0.00000000000E+00  0.00000000000E+00 -0.48309543588E+03  0.31321264320E+04  0.30946461488E+04 0.  0.
        1    1    3    3  502    0 -0.31260313337E+03  0.35120232831E+03 -0.17335607950E+04  0.17961895291E+04  0.50400001928E-02 0.  1.
       -1    1    3    3    0  502  0.31260313337E+03 -0.35120232831E+03  0.12504653591E+04  0.13359369030E+04  0.50400001928E-02 0. -1.
</event>
<event>
 5   0  0.5001658E-06  0.3104930E+04  0.7818609E-02  0.8214386E-01
        2   -1    0    0  501    0  0.00000000000E+00  0.00000000000E+00  0.33006437270E+04  0.33006437270E+04  0.25500000920E-02 0.  1.
       -2   -1    0    0    0  501  0.00000000000E+00  0.00000000000E+00 -0.73020539875E+03  0.73020539876E+03  0.25500000920E-02 0. -1.
    10030    2    1    2    0    0  0.00000000000E+00  0.00000000000E+00  0.25704383283E+04  0.40308491258E+04  0.31049301885E+04 0.  0.
        3    1    3    3  502    0 -0.75585468618E+03 -0.12206019933E+04  0.20521107528E+04  0.25044648300E+04  0.10100000352E+00 0.  1.
       -3    1    3    3    0  502  0.75585468618E+03  0.12206019933E+04  0.51832757542E+03  0.15263842958E+04  0.10100000352E+00 0. -1.
</event>
<event>
 5   0  0.1885307E-06  0.3116645E+04  0.7818609E-02  0.8211185E-01
       -1   -1    0    0    0  501  0.00000000000E+00  0.00000000000E+00  0.16186099381E+04  0.16186099382E+04  0.50400001928E-02 0. -1.
        1   -1    0    0  501    0  0.00000000000E+00  0.00000000000E+00 -0.15002803477E+04  0.15002803477E+04  0.50400001928E-02 0.  1.
    10030    2    1    2    0    0  0.00000000000E+00  0.00000000000E+00  0.11832959048E+03  0.31188902858E+04  0.31166447861E+04 0.  0.
        3    1    3    3  502    0 -0.11319664720E+04  0.88359555245E+03 -0.54648152503E+03  0.15364671365E+04  0.10100000352E+00 0. -1.
       -3    1    3    3    0  502  0.11319664720E+04 -0.88359555245E+03  0.66481111551E+03  0.15824231493E+04  0.10100000352E+00 0.  1.
</event>
<event>
 5   0  0.1649875E-06  0.3109742E+04  0.7818609E-02  0.8213069E-01
        4   -1    0    0  501    0  0.00000000000E+00  0.00000000000E+00  0.19482963004E+04  0.19482967143E+04  0.12699999809E+01 0. -1.
       -4   -1    0    0    0  501  0.00000000000E+00  0.00000000000E+00 -0.12408907062E+04  0.12408913561E+04  0.12699999809E+01 0.  1.
    10030    2    1    2    0    0  0.00000000000E+00  0.00000000000E+00  0.70740559419E+03  0.31891880704E+04  0.31097424128E+04 0.  0.
        1    1    3    3  502    0  0.12373873604E+04 -0.19238931436E+03  0.12989233298E+04  0.18042568954E+04  0.50400001928E-02 0. -1.
       -1    1    3    3    0  502 -0.12373873604E+04  0.19238931436E+03 -0.59151773565E+03  0.13849311750E+04  0.50400001928E-02 0.  1.
</event>
<event>
 5   0  0.1843709E-06  0.3096538E+04  0.7818609E-02  0.8216689E-01
        1   -1    0    0  501    0  0.00000000000E+00  0.00000000000E+00  0.13511440541E+04  0.13511440541E+04  0.50400001928E-02 0. -1.
       -1   -1    0    0    0  501  0.00000000000E+00  0.00000000000E+00 -0.17741534706E+04  0.17741534706E+04  0.50400001928E-02 0.  1.
    10030    2    1    2    0    0  0.00000000000E+00  0.00000000000E+00 -0.42300941650E+03  0.31252975247E+04  0.30965380107E+04 0.  0.
        4    1    3    3  502    0  0.34308681965E+03  0.39632893654E+03  0.12588545702E+04  0.13636354475E+04  0.12699999809E+01 0. -1.
       -4    1    3    3    0  502 -0.34308681965E+03 -0.39632893654E+03 -0.16818639867E+04  0.17616620773E+04  0.12699999809E+01 0.  1.
</event>
<event>
 5   0  0.1836401E-06  0.3238758E+04  0.7818609E-02  0.8178656E-01
       -1   -1    0    0    0  501  0.00000000000E+00  0.00000000000E+00  0.96668244381E+03  0.96668244382E+03  0.50400001928E-02 0. -1.
        1   -1    0    0  501    0  0.00000000000E+00  0.00000000000E+00 -0.27127718811E+04  0.27127718811E+04  0.50400001928E-02 0.  1.
    10030    2    1    2    0    0  0.00000000000E+00  0.00000000000E+00 -0.17460894373E+04  0.36794543249E+04  0.32387583742E+04 0.  0.
        2    1    3    3  502    0 -0.10769346672E+04  0.86579231827E+03  0.86247568402E+02  0.13844938638E+04  0.25500000920E-02 0.  1.
       -2    1    3    3    0  502  0.10769346672E+04 -0.86579231827E+03 -0.18323370057E+04  0.22949604611E+04  0.25500000920E-02 0. -1.
</event>
<event>
 5   0  0.1840431E-06  0.2892000E+04  0.7818609E-02  0.8275262E-01
       -1   -1    0    0    0  501  0.00000000000E+00  0.00000000000E+00  0.97087802836E+03  0.97087802837E+03  0.50400001928E-02 0.  1.
        1   -1    0    0  501    0  0.00000000000E+00  0.00000000000E+00 -0.21536346584E+04  0.21536346584E+04  0.50400001928E-02 0. -1.
    10030    2    1    2    0    0  0.00000000000E+00  0.00000000000E+00 -0.11827566301E+04  0.31245126868E+04  0.28920003949E+04 0.  0.
        1    1    3    3  502    0 -0.85610326519E+03 -0.11466010929E+04 -0.36653677463E+03  0.14771445678E+04  0.50400001928E-02 0. -1.
       -1    1    3    3    0  502  0.85610326519E+03  0.11466010929E+04 -0.81621985542E+03  0.16473681190E+04  0.50400001928E-02 0.  1.
</event>
<event>
 5   0  0.1853742E-06  0.3061047E+04  0.7818609E-02  0.8226510E-01
        1   -1    0    0  501    0  0.00000000000E+00  0.00000000000E+00  0.15705503902E+04  0.15705503902E+04  0.50400001928E-02 0. -1.
       -1   -1    0    0    0  501  0.00000000000E+00  0.00000000000E+00 -0.14915170105E+04  0.14915170105E+04  0.50400001928E-02 0.  1.
    10030    2    1    2    0    0  0.00000000000E+00  0.00000000000E+00  0.79033379708E+02  0.30620674007E+04  0.30610472867E+04 0.  0.
        5    1    3    3  502    0 -0.45330515475E+03 -0.50151742396E+01 -0.14228082991E+04  0.14932904142E+04  0.46999998093E+01 0.  1.
       -5    1    3    3    0  502  0.45330515475E+03  0.50151742396E+01  0.15018416788E+04  0.15687769865E+04  0.46999998093E+01 0. -1.
</event>
<event>
 5   0  0.4927533E-06  0.2347620E+04  0.7818609E-02  0.8459378E-01
       -2   -1    0    0    0  501  0.00000000000E+00  0.00000000000E+00  0.76373522985E+03  0.76373522985E+03  0.25500000920E-02 0. -1.
        2   -1    0    0  501    0  0.00000000000E+00  0.00000000000E+00 -0.18040682566E+04  0.18040682566E+04  0.25500000920E-02 0.  1.
    10030    2    1    2    0    0  0.00000000000E+00  0.00000000000E+00 -0.10403330267E+04  0.25678034864E+04  0.23476204843E+04 0.  0.
        5    1    3    3  502    0 -0.40393870020E+03 -0.92438624217E+03  0.13624593285E+03  0.10179594503E+04  0.46999998093E+01 0. -1.
       -5    1    3    3    0  502  0.40393870020E+03  0.92438624217E+03 -0.11765789596E+04  0.15498440361E+04  0.46999998093E+01 0.  1.
</event>
<event>
 5   0  0.4900679E-06  0.3091594E+04  0.7818609E-02  0.8218049E-01
        2   -1    0    0  501    0  0.00000000000E+00  0.00000000000E+00  0.26747704357E+04  0.26747704357E+04  0.25500000920E-02 0.  1.
       -2   -1    0    0    0  501  0.00000000000E+00  0.00000000000E+00 -0.89334353387E+03  0.89334353387E+03  0.25500000920E-02 0. -1.
    10030    2    1    2    0    0  0.00000000000E+00  0.00000000000E+00  0.17814269019E+04  0.35681139696E+04  0.30915943287E+04 0.  0.
        4    1    3    3  502    0 -0.54805323449E+03  0.11832274537E+04 -0.67355173332E+02  0.13057288721E+04  0.12699999809E+01 0. -1.
       -4    1    3    3    0  502  0.54805323449E+03 -0.11832274537E+04  0.18487820752E+04  0.22623850975E+04  0.12699999809E+01 0.  1.
</event>
<event>
 5   0  0.1853742E-06  0.3135577E+04  0.7818609E-02  0.8206041E-01
       -1   -1    0    0    0  501  0.00000000000E+00  0.00000000000E+00  0.13118668819E+04  0.13118668819E+04  0.50400001928E-02 0. -1.
        1   -1    0    0  501    0  0.00000000000E+00  0.00000000000E+00 -0.18736360680E+04  0.18736360680E+04  0.50400001928E-02 0.  1.
    10030    2    1    2    0    0  0.00000000000E+00  0.00000000000E+00 -0.56176918614E+03  0.31855029499E+04  0.31355772077E+04 0.  0.
        5    1    3    3  502    0 -0.81237154451E+03  0.10171875874E+02 -0.16430875928E+04  0.18329784289E+04  0.46999998093E+01 0.  1.
       -5    1    3    3    0  502  0.81237154451E+03 -0.10171875874E+02  0.10813184066E+04  0.13525245210E+04  0.46999998093E+01 0. -1.
</event>
<event>
 5   0  0.5001658E-06  0.3152635E+04  0.7818609E-02  0.8201439E-01
        2   -1    0    0  501    0  0.00000000000E+00  0.00000000000E+00  0.16628228466E+04  0.16628228466E+04  0.25500000920E-02 0. -1.
       -2   -1    0    0    0  501  0.00000000000E+00  0.00000000000E+00 -0.14943122635E+04  0.14943122635E+04  0.25500000920E-02 0.  1.
    10030    2    1    2    0    0  0.00000000000E+00  0.00000000000E+00  0.16851058308E+03  0.31571351101E+04  0.31526348166E+04 0.  0.
        3    1    3    3  502    0 -0.39948091590E+02  0.14401554317E+04 -0.55629285530E+03  0.15443786027E+04  0.10100000352E+00 0.  1.
       -3    1    3    3    0  502  0.39948091590E+02 -0.14401554317E+04  0.72480343839E+03  0.16127565074E+04  0.10100000352E+00 0. -1.
</event>
<event>
 5   0  0.4900679E-06  0.2751743E+04  0.7818609E-02  0.8318409E-01
       -2   -1    0    0    0  501  0.00000000000E+00  0.00000000000E+00  0.95991521955E+03  0.95991521956E+03  0.25500000920E-02 0. -1.
        2   -1    0    0  501    0  0.00000000000E+00  0.00000000000E+00 -0.19720727144E+04  0.19720727144E+04  0.25500000920E-02 0.  1.
    10030    2    1    2    0    0  0.00000000000E+00  0.00000000000E+00 -0.10121574949E+04  0.29319879340E+04  0.27517431658E+04 0.  0.
        4    1    3    3  502    0  0.44331697867E+03  0.12751221401E+04 -0.22305889504E+03  0.13682921103E+04  0.12699999809E+01 0. -1.
       -4    1    3    3    0  502 -0.44331697867E+03 -0.12751221401E+04 -0.78909859983E+03  0.15636958236E+04  0.12699999809E+01 0.  1.
</event>
<event>
 5   0  0.4900679E-06  0.3121252E+04  0.7818609E-02  0.8209930E-01
       -2   -1    0    0    0  501  0.00000000000E+00  0.00000000000E+00  0.21005130330E+04  0.21005130330E+04  0.25500000920E-02 0. -1.
        2   -1    0    0  501    0  0.00000000000E+00  0.00000000000E+00 -0.11595037902E+04  0.11595037902E+04  0.25500000920E-02 0.  1.
    10030    2    1    2    0    0  0.00000000000E+00  0.00000000000E+00  0.94100924272E+03  0.32600168232E+04  0.31212515587E+04 0.  0.
        4    1    3    3  502    0 -0.12580669795E+04 -0.18603595813E+03 -0.47425924923E+03  0.13573007593E+04  0.12699999809E+01 0.  1.
       -4    1    3    3    0  502  0.12580669795E+04  0.18603595813E+03  0.14152684920E+04  0.19027160639E+04  0.12699999809E+01 0. -1.
</event>
<event>
 5   0  0.1840431E-06  0.3156551E+04  0.7818609E-02  0.8200387E-01
       -1   -1    0    0    0  501  0.00000000000E+00  0.00000000000E+00  0.27449290334E+04  0.27449290334E+04  0.50400001928E-02 0. -1.
        1   -1    0    0  501    0  0.00000000000E+00  0.00000000000E+00 -0.90747439082E+03  0.90747439083E+03  0.50400001928E-02 0.  1.
    10030    2    1    2    0    0  0.00000000000E+00  0.00000000000E+00  0.18374546425E+04  0.36524034242E+04  0.31565505239E+04 0.  0.
        1    1    3    3  502    0 -0.70405486331E+03 -0.20059783781E+03 -0.69913516526E+03  0.10122858897E+04  0.50400001928E-02 0.  1.
       -1    1    3    3    0  502  0.70405486331E+03  0.20059783781E+03  0.25365898078E+04  0.26401175345E+04  0.50400001928E-02 0. -1.
</event>
<event>
 5   0  0.1853742E-06  0.2432052E+04  0.7818609E-02  0.8427600E-01
        1   -1    0    0  501    0  0.00000000000E+00  0.00000000000E+00  0.14379797880E+04  0.14379797880E+04  0.50400001928E-02 0. -1.
       -1   -1    0    0    0  501  0.00000000000E+00  0.00000000000E+00 -0.10283313141E+04  0.10283313142E+04  0.50400001928E-02 0.  1.
    10030    2    1    2    0    0  0.00000000000E+00  0.00000000000E+00  0.40964847385E+03  0.24663111022E+04  0.24320523392E+04 0.  0.
        5    1    3    3  502    0  0.10977369962E+04 -0.47920410020E+03 -0.79756242482E+01  0.11978099946E+04  0.46999998093E+01 0.  1.
       -5    1    3    3    0  502 -0.10977369962E+04  0.47920410020E+03  0.41762409809E+03  0.12685011076E+04  0.46999998093E+01 0. -1.
</event>
<event>
 5   0  0.1885307E-06  0.3136289E+04  0.7818609E-02  0.8205849E-01
        1   -1    0    0  501    0  0.00000000000E+00  0.00000000000E+00  0.99186785790E+03  0.99186785791E+03  0.50400001928E-02 0.  1.
       -1   -1    0    0    0  501  0.00000000000E+00  0.00000000000E+00 -0.24792383386E+04  0.24792383386E+04  0.50400001928E-02 0. -1.
    10030    2    1    2    0    0  0.00000000000E+00  0.00000000000E+00 -0.14873704807E+04  0.34711061965E+04  0.31362887751E+04 0.  0.
        3    1    3    3  502    0  0.37843061836E+03 -0.83180243746E+03 -0.21540813343E+04  0.23399084241E+04  0.10100000352E+00 0. -1.
       -3    1    3    3    0  502 -0.37843061836E+03  0.83180243746E+03  0.66671085362E+03  0.11311977725E+04  0.10100000352E+00 0.  1.
</event>
<event>
 5   0  0.4900679E-06  0.3090630E+04  0.7818609E-02  0.8218314E-01
       -2   -1    0    0    0  501  0.00000000000E+00  0.00000000000E+00  0.12332152601E+04  0.12332152601E+04  0.25500000920E-02 0. -1.
        2   -1    0    0  501    0  0.00000000000E+00  0.00000000000E+00 -0.19364001443E+04  0.19364001443E+04  0.25500000920E-02 0.  1.
    10030    2    1    2    0    0  0.00000000000E+00  0.00000000000E+00 -0.70318488412E+03  0.31696154044E+04  0.30906298437E+04 0.  0.
        4    1    3    3  502    0 -0.10511347037E+04 -0.52506004277E+02  0.80885337924E+03  0.13273607075E+04  0.12699999809E+01 0. -1.
       -4    1    3    3    0  502  0.10511347037E+04  0.52506004277E+02 -0.15120382634E+04  0.18422546970E+04  0.12699999809E+01 0.  1.
</event>
<event>
 5   0  0.1843709E-06  0.3078008E+04  0.7818609E-02  0.8221799E-01
        1   -1    0    0  501    0  0.00000000000E+00  0.00000000000E+00  0.21602153796E+04  0.21602153796E+04  0.50400001928E-02 0.  1.
       -1   -1    0    0    0  501  0.00000000000E+00  0.00000000000E+00 -0.10964338871E+04  0.10964338871E+04  0.50400001928E-02 0. -1.
    10030    2    1    2    0    0  0.00000000000E+00  0.00000000000E+00  0.10637814925E+04  0.32566492667E+04  0.30780080218E+04 0.  0.
        4    1    3    3  502    0  0.80659396424E+01 -0.49879632421E+03 -0.10085154440E+04  0.11251523658E+04  0.12699999809E+01 0. -1.
       -4    1    3    3    0  502 -0.80659396424E+01  0.49879632421E+03  0.20722969366E+04  0.21314969009E+04  0.12699999809E+01 0.  1.
</event>
<event>
 5   0  0.5001658E-06  0.3043075E+04  0.7818609E-02  0.8231537E-01
       -2   -1    0    0    0  501  0.00000000000E+00  0.00000000000E+00  0.13126539278E+04  0.13126539278E+04  0.25500000920E-02 0. -1.
        2   -1    0    0  501    0  0.00000000000E+00  0.00000000000E+00 -0.17636603582E+04  0.17636603582E+04  0.25500000920E-02 0.  1.
    10030    2    1    2    0    0  0.00000000000E+00  0.00000000000E+00 -0.45100643042E+03  0.30763142859E+04  0.30430745613E+04 0.  0.
        3    1    3    3  502    0 -0.13199932933E+04 -0.66209905991E+03 -0.59600097239E+03  0.15924743731E+04  0.10100000352E+00 0.  1.
       -3    1    3    3    0  502  0.13199932933E+04  0.66209905991E+03  0.14499454197E+03  0.14838399129E+04  0.10100000352E+00 0. -1.
</event>
<event>
 5   0  0.1853742E-06  0.2923350E+04  0.7818609E-02  0.8265964E-01
        1   -1    0    0  501    0  0.00000000000E+00  0.00000000000E+00  0.24319921500E+04  0.24319921500E+04  0.50400001928E-02 0.  1.
       -1   -1    0    0    0  501  0.00000000000E+00  0.00000000000E+00 -0.87849513190E+03  0.87849513191E+03  0.50400001928E-02 0. -1.
    10030    2    1    2    0    0  0.00000000000E+00  0.00000000000E+00  0.15534970181E+04  0.33104872819E+04  0.29233496299E+04 0.  0.
        5    1    3    3  502    0  0.42300730407E+03  0.10190896201E+04 -0.30884468071E+03  0.11458123580E+04  0.46999998093E+01 0. -1.
       -5    1    3    3    0  502 -0.42300730407E+03 -0.10190896201E+04  0.18623416988E+04  0.21646749239E+04  0.46999998093E+01 0.  1.
</event>
<event>
 5   0  0.5001658E-06  0.3087680E+04  0.7818609E-02  0.8219127E-01
       -2   -1    0    0    0  501  0.00000000000E+00  0.00000000000E+00  0.11923888654E+04  0.11923888654E+04  0.25500000920E-02 0. -1.
        2   -1    0    0  501    0  0.00000000000E+00  0.00000000000E+00 -0.19988795935E+04  0.19988795935E+04  0.25500000920E-02 0.  1.
    10030    2    1    2    0    0  0.00000000000E+00  0.00000000000E+00 -0.80649072809E+03  0.31912684590E+04  0.30876798867E+04 0.  0.
        3    1    3    3  502    0  0.72154806760E+02  0.52405524494E+03  0.10957932207E+04  0.12168003159E+04  0.10100000352E+00 0. -1.
       -3    1    3    3    0  502 -0.72154806760E+02 -0.52405524494E+03 -0.19022839488E+04  0.19744681431E+04  0.10100000352E+00 0.  1.
</event>
<event>
 5   0  0.5328368E-06  0.3096469E+04  0.7818609E-02  0.8216708E-01
       -2   -1    0    0    0  501  0.00000000000E+00  0.00000000000E+00  0.10068403540E+04  0.10068403540E+04  0.25500000920E-02 0. -1.
        2   -1    0    0  501    0  0.00000000000E+00  0.00000000000E+00 -0.23807441808E+04  0.23807441808E+04  0.25500000920E-02 0.  1.
    10030    2    1    2    0    0  0.00000000000E+00  0.00000000000E+00 -0.13739038268E+04  0.33875845348E+04  0.30964685135E+04 0.  0.
        1    1    3    3  502    0 -0.24625051782E+03  0.14736866584E+04 -0.11308548570E+04  0.18738261372E+04  0.50400001928E-02 0.  1.
       -1    1    3    3    0  502  0.24625051782E+03 -0.14736866584E+04 -0.24304896976E+03  0.15137583976E+04  0.50400001928E-02 0. -1.
</event>
<event>
 5   0  0.1853742E-06  0.3100987E+04  0.7818609E-02  0.8215467E-01
        1   -1    0    0  501    0  0.00000000000E+00  0.00000000000E+00  0.13484954988E+04  0.13484954988E+04  0.50400001928E-02 0. -1.
       -1   -1    0    0    0  501  0.00000000000E+00  0.00000000000E+00 -0.17827498984E+04  0.17827498984E+04  0.50400001928E-02 0.  1.
    10030    2    1    2    0    0  0.00000000000E+00  0.00000000000E+00 -0.43425439963E+03  0.31312453972E+04  0.31009870774E+04 0.  0.
        5    1    3    3  502    0  0.10493166701E+04 -0.17149573823E+03  0.92239307224E+03  0.14075891915E+04  0.46999998093E+01 0. -1.
       -5    1    3    3    0  502 -0.10493166701E+04  0.17149573823E+03 -0.13566474719E+04  0.17236562057E+04  0.46999998093E+01 0.  1.
</event>
<event>
 5   0  0.1836401E-06  0.3078402E+04  0.7818609E-02  0.8221690E-01
       -1   -1    0    0    0  501  0.00000000000E+00  0.00000000000E+00  0.21496284957E+04  0.21496284957E+04  0.50400001928E-02 0.  1.
        1   -1    0    0  501    0  0.00000000000E+00  0.00000000000E+00 -0.11021157908E+04  0.11021157908E+04  0.50400001928E-02 0. -1.
    10030    2    1    2    0    0  0.00000000000E+00  0.00000000000E+00  0.10475127048E+04  0.32517442865E+04  0.30784018643E+04 0.  0.
        2    1    3    3  502    0 -0.11622988353E+04  0.97281441531E+03  0.80686504027E+03  0.17170724103E+04  0.25500000920E-02 0.  1.
       -2    1    3    3    0  502  0.11622988353E+04 -0.97281441531E+03  0.24064766457E+03  0.15346718762E+04  0.25500000920E-02 0. -1.
</event>
<event>
 5   0  0.5114870E-06  0.3069311E+04  0.7818609E-02  0.8224211E-01
       -2   -1    0    0    0  501  0.00000000000E+00  0.00000000000E+00  0.19650271825E+04  0.19650271825E+04  0.25500000920E-02 0. -1.
        2   -1    0    0  501    0  0.00000000000E+00  0.00000000000E+00 -0.11985420374E+04  0.11985420374E+04  0.25500000920E-02 0.  1.
    10030    2    1    2    0    0  0.00000000000E+00  0.00000000000E+00  0.76648514515E+03  0.31635692199E+04  0.30693111167E+04 0.  0.
        2    1    3    3  502    0 -0.60032028614E+03 -0.37557784641E+03 -0.10200848959E+04  0.12417795133E+04  0.25500000920E-02 0.  1.
       -2    1    3    3    0  502  0.60032028614E+03  0.37557784641E+03  0.17865700411E+04  0.19217897066E+04  0.25500000920E-02 0. -1.
</event>
<event>
 5   0  0.5114870E-06  0.3049948E+04  0.7818609E-02  0.8229610E-01
        2   -1    0    0  501    0  0.00000000000E+00  0.00000000000E+00  0.24221136834E+04  0.24221136834E+04  0.25500000920E-02 0.  1.
       -2   -1    0    0    0  501  0.00000000000E+00  0.00000000000E+00 -0.96013097879E+03  0.96013097880E+03  0.25500000920E-02 0. -1.
    10030    2    1    2    0    0  0.00000000000E+00  0.00000000000E+00  0.14619827046E+04  0.33822446622E+04  0.30499484465E+04 0.  0.
        2    1    3    3  502    0  0.93777346173E+03  0.36322922268E+03  0.20022733760E+04  0.22406367858E+04  0.25500000920E-02 0.  1.
       -2    1    3    3    0  502 -0.93777346173E+03 -0.36322922268E+03 -0.54029067141E+03  0.11416078764E+04  0.25500000920E-02 0. -1.
</event>
<event>
 5   0  0.1885307E-06  0.3097412E+04  0.7818609E-02  0.8216449E-01
        1   -1    0    0  501    0  0.00000000000E+00  0.00000000000E+00  0.27327239315E+04  0.27327239315E+04  0.50400001928E-02 0. -1.
       -1   -1    0    0    0  501  0.00000000000E+00  0.00000000000E+00 -0.87769186404E+03  0.87769186405E+03  0.50400001928E-02 0.  1.
    10030    2    1    2    0    0  0.00000000000E+00  0.00000000000E+00  0.18550320675E+04  0.36104157956E+04  0.30974115396E+04 0.  0.
        3    1    3    3  502    0 -0.79096533516E+03 -0.26470929804E+03  0.24485508574E+04  0.25867157721E+04  0.10100000352E+00 0. -1.
       -3    1    3    3    0  502  0.79096533516E+03  0.26470929804E+03 -0.59351878995E+03  0.10237000235E+04  0.10100000352E+00 0.  1.
</event>
<event>
 5   0  0.1836401E-06  0.2338593E+04  0.7818609E-02  0.8462858E-01
        1   -1    0    0  501    0  0.00000000000E+00  0.00000000000E+00  0.13769781251E+04  0.13769781251E+04  0.50400001928E-02 0. -1.
       -1   -1    0    0    0  501  0.00000000000E+00  0.00000000000E+00 -0.99293798046E+03  0.99293798047E+03  0.50400001928E-02 0.  1.
    10030    2    1    2    0    0  0.00000000000E+00  0.00000000000E+00  0.38404014463E+03  0.23699161056E+04  0.23385926355E+04 0.  0.
        2    1    3    3  502    0  0.18095714182E+03 -0.93434695336E+03  0.88046024645E+03  0.12965184002E+04  0.25500000920E-02 0. -1.
       -2    1    3    3    0  502 -0.18095714182E+03  0.93434695336E+03 -0.49642010182E+03  0.10733977054E+04  0.25500000920E-02 0.  1.
</event>
<event>
 5   0  0.5328368E-06  0.3088847E+04  0.7818609E-02  0.8218806E-01
        2   -1    0    0  501    0  0.00000000000E+00  0.00000000000E+00  0.17957445210E+04  0.17957445210E+04  0.25500000920E-02 0. -1.
       -2   -1    0    0    0  501  0.00000000000E+00  0.00000000000E+00 -0.13282753857E+04  0.13282753857E+04  0.25500000920E-02 0.  1.
    10030    2    1    2    0    0  0.00000000000E+00  0.00000000000E+00  0.46746913533E+03  0.31240199067E+04  0.30888465460E+04 0.  0.
        1    1    3    3  502    0  0.10116416022E+04 -0.73442732340E+03  0.11509468072E+04  0.16992588907E+04  0.50400001928E-02 0.  1.
       -1    1    3    3    0  502 -0.10116416022E+04  0.73442732340E+03 -0.68347767186E+03  0.14247610160E+04  0.50400001928E-02 0. -1.
</event>
<event>
 5   0  0.1843709E-06  0.3094499E+04  0.7818609E-02  0.8217249E-01
        1   -1    0    0  501    0  0.00000000000E+00  0.00000000000E+00  0.17989020126E+04  0.17989020126E+04  0.50400001928E-02 0.  1.
       -1   -1    0    0    0  501  0.00000000000E+00  0.00000000000E+00 -0.13308014530E+04  0.13308014530E+04  0.50400001928E-02 0. -1.
    10030    2    1    2    0    0  0.00000000000E+00  0.00000000000E+00  0.46810055958E+03  0.31297034656E+04  0.30944992565E+04 0.  0.
        4    1    3    3  502    0  0.73868760625E+03  0.68479910717E+03 -0.95377698894E+03  0.13871918953E+04  0.12699999809E+01 0. -1.
       -4    1    3    3    0  502 -0.73868760625E+03 -0.68479910717E+03  0.14218775485E+04  0.17425115703E+04  0.12699999809E+01 0.  1.
</event>
<event>
 5   0  0.5328368E-06  0.3226698E+04  0.7818609E-02  0.8181802E-01
        2   -1    0    0  501    0  0.00000000000E+00  0.00000000000E+00  0.23928189969E+04  0.23928189969E+04  0.25500000920E-02 0. -1.
       -2   -1    0    0    0  501  0.00000000000E+00  0.00000000000E+00 -0.10877945079E+04  0.10877945079E+04  0.25500000920E-02 0.  1.
    10030    2    1    2    0    0  0.00000000000E+00  0.00000000000E+00  0.13050244890E+04  0.34806135048E+04  0.32266982278E+04 0.  0.
        1    1    3    3  502    0  0.45376186850E+03  0.20752579133E+03 -0.10024728662E+04  0.11197850842E+04  0.50400001928E-02 0.  1.
       -1    1    3    3    0  502 -0.45376186850E+03 -0.20752579133E+03  0.23074973551E+04  0.23608284206E+04  0.50400001928E-02 0. -1.
</event>
<event>
 5   0  0.1840431E-06  0.2972578E+04  0.7818609E-02  0.8251605E-01
       -1   -1    0    0    0  501  0.00000000000E+00  0.00000000000E+00  0.14320550514E+04  0.14320550514E+04  0.50400001928E-02 0.  1.
        1   -1    0    0  501    0  0.00000000000E+00  0.00000000000E+00 -0.15425772653E+04  0.15425772653E+04  0.50400001928E-02 0. -1.
    10030    2    1    2    0    0  0.00000000000E+00  0.00000000000E+00 -0.11052221393E+03  0.29746323167E+04  0.29725783858E+04 0.  0.
        1    1    3    3  502    0 -0.11261000019E+04 -0.23244604692E+03  0.88715560823E+03  0.14523007444E+04  0.50400001928E-02 0.  1.
       -1    1    3    3    0  502  0.11261000019E+04  0.23244604692E+03 -0.99767782216E+03  0.15223315723E+04  0.50400001928E-02 0. -1.
</event>
<event>
 5   0  0.4900679E-06  0.2646337E+04  0.7818609E-02  0.8352630E-01
       -2   -1    0    0    0  501  0.00000000000E+00  0.00000000000E+00  0.14211111931E+04  0.14211111931E+04  0.25500000920E-02 0. -1.
        2   -1    0    0  501    0  0.00000000000E+00  0.00000000000E+00 -0.12319762471E+04  0.12319762471E+04  0.25500000920E-02 0.  1.
    10030    2    1    2    0    0  0.00000000000E+00  0.00000000000E+00  0.18913494598E+03  0.26530874402E+04  0.26463372683E+04 0.  0.
        4    1    3    3  502    0 -0.14164365192E+02  0.12772400645E+04 -0.25161144643E+03  0.13018651022E+04  0.12699999809E+01 0.  1.
       -4    1    3    3    0  502  0.14164365192E+02 -0.12772400645E+04  0.44074639241E+03  0.13512223380E+04  0.12699999809E+01 0. -1.
</event>
<event>
 5   0  0.5001658E-06  0.3167805E+04  0.7818609E-02  0.8197372E-01
        2   -1    0    0  501    0  0.00000000000E+00  0.00000000000E+00  0.18182986081E+04  0.18182986081E+04  0.25500000920E-02 0.  1.
       -2   -1    0    0    0  501  0.00000000000E+00  0.00000000000E+00 -0.13797219835E+04  0.13797219835E+04  0.25500000920E-02 0. -1.
    10030    2    1    2    0    0  0.00000000000E+00  0.00000000000E+00  0.43857662459E+03  0.31980205917E+04  0.31678046419E+04 0.  0.
        3    1    3    3  502    0 -0.11003066257E+03  0.14484441326E+03 -0.13691426947E+04  0.13811728275E+04  0.10100000352E+00 0. -1.
       -3    1    3    3    0  502  0.11003066257E+03 -0.14484441326E+03  0.18077193193E+04  0.18168477642E+04  0.10100000352E+00 0.  1.
</event>
<event>
 5   0  0.5114870E-06  0.3100730E+04  0.7818609E-02  0.8215538E-01
       -2   -1    0    0    0  501  0.00000000000E+00  0.00000000000E+00  0.11259994454E+04  0.11259994454E+04  0.25500000920E-02 0.  1.
        2   -1    0    0  501    0  0.00000000000E+00  0.00000000000E+00 -0.21346644609E+04  0.21346644609E+04  0.25500000920E-02 0. -1.
    10030    2    1    2    0    0  0.00000000000E+00  0.00000000000E+00 -0.10086650155E+04  0.32606639064E+04  0.31007295910E+04 0.  0.
        2    1    3    3  502    0  0.21471860996E+02  0.15498026710E+04 -0.46668596801E+03  0.16186862428E+04  0.25500000920E-02 0. -1.
       -2    1    3    3    0  502 -0.21471860996E+02 -0.15498026710E+04 -0.54197904749E+03  0.16419776636E+04  0.25500000920E-02 0.  1.
</event>
<event>
 5   0  0.5328368E-06  0.3160452E+04  0.7818609E-02  0.8199340E-01
        2   -1    0    0  501    0  0.00000000000E+00  0.00000000000E+00  0.22244059992E+04  0.22244059992E+04  0.25500000920E-02 0. -1.
       -2   -1    0    0    0  501  0.00000000000E+00  0.00000000000E+00 -0.11225984166E+04  0.11225984166E+04  0.25500000920E-02 0.  1.
    10030    2    1    2    0    0  0.00000000000E+00  0.00000000000E+00  0.11018075826E+04  0.33470044158E+04  0.31604522794E+04 0.  0.
        1    1    3    3  502    0 -0.10758292277E+03  0.13103076623E+04 -0.37756424257E+03  0.13678578188E+04  0.50400001928E-02 0.  1.
       -1    1    3    3    0  502  0.10758292277E+03 -0.13103076623E+04  0.14793718252E+04  0.19791465970E+04  0.50400001928E-02 0. -1.
</event>
<event>
 5   0  0.1843709E-06  0.3241656E+04  0.7818609E-02  0.8177902E-01
        1   -1    0    0  501    0  0.00000000000E+00  0.00000000000E+00  0.17249358155E+04  0.17249358155E+04  0.50400001928E-02 0. -1.
       -1   -1    0    0    0  501  0.00000000000E+00  0.00000000000E+00 -0.15230032338E+04  0.15230032338E+04  0.50400001928E-02 0.  1.
    10030    2    1    2    0    0  0.00000000000E+00  0.00000000000E+00  0.20193258170E+03  0.32479390493E+04  0.32416556419E+04 0.  0.
        4    1    3    3  502    0 -0.75748591182E+03  0.71597535152E+02  0.15348832565E+04  0.17131197675E+04  0.12699999809E+01 0. -1.
       -4    1    3    3    0  502  0.75748591182E+03 -0.71597535152E+02 -0.13329506748E+04  0.15348192819E+04  0.12699999809E+01 0.  1.
</event>
<event>
 5   0  0.5114870E-06  0.3117782E+04  0.7818609E-02  0.8210875E-01
        2   -1    0    0  501    0  0.00000000000E+00  0.00000000000E+00  0.20801831290E+04  0.20801831290E+04  0.25500000920E-02 0.  1.
       -2   -1    0    0    0  501  0.00000000000E+00  0.00000000000E+00 -0.11682342962E+04  0.11682342962E+04  0.25500000920E-02 0. -1.
    10030    2    1    2    0    0  0.00000000000E+00  0.00000000000E+00  0.91194883277E+03  0.32484174252E+04  0.31177820794E+04 0.  0.
        2    1    3    3  502    0  0.46550071813E+03 -0.76627160992E+03  0.17846638823E+04  0.19972201360E+04  0.25500000920E-02 0.  1.
       -2    1    3    3    0  502 -0.46550071813E+03  0.76627160992E+03 -0.87271504957E+03  0.12511972892E+04  0.25500000920E-02 0. -1.
</event>
<event>
 5   0  0.1853742E-06  0.3070960E+04  0.7818609E-02  0.8223753E-01
       -1   -1    0    0    0  501  0.00000000000E+00  0.00000000000E+00  0.11041382017E+04  0.11041382017E+04  0.50400001928E-02 0.  1.
        1   -1    0    0  501    0  0.00000000000E+00  0.00000000000E+00 -0.21353293429E+04  0.21353293429E+04  0.50400001928E-02 0. -1.
    10030    2    1    2    0    0  0.00000000000E+00  0.00000000000E+00 -0.10311911412E+04  0.32394675446E+04  0.30709599155E+04 0.  0.
        5    1    3    3  502    0  0.77791286624E+02  0.42867040050E+03 -0.20687540931E+04  0.21141370306E+04  0.46999998093E+01 0. -1.
       -5    1    3    3    0  502 -0.77791286624E+02 -0.42867040050E+03  0.10375629519E+04  0.11253305140E+04  0.46999998093E+01 0.  1.
</event>
<event>
 5   0  0.1843709E-06  0.3307782E+04  0.7818609E-02  0.8160918E-01
       -1   -1    0    0    0  501  0.00000000000E+00  0.00000000000E+00  0.13456855705E+04  0.13456855706E+04  0.50400001928E-02 0. -1.
        1   -1    0    0  501    0  0.00000000000E+00  0.00000000000E+00 -0.20326857350E+04  0.20326857350E+04  0.50400001928E-02 0.  1.
    10030    2    1    2    0    0  0.00000000000E+00  0.00000000000E+00 -0.68700016443E+03  0.33783713055E+04  0.33077822558E+04 0.  0.
        4    1    3    3  502    0  0.13229936758E+04 -0.86280370200E+03  0.15748972211E+03  0.15873081364E+04  0.12699999809E+01 0. -1.
       -4    1    3    3    0  502 -0.13229936758E+04  0.86280370200E+03 -0.84448988653E+03  0.17910631691E+04  0.12699999809E+01 0.  1.
</event>
<event>
 5   0  0.1836401E-06  0.2958081E+04  0.7818609E-02  0.8255803E-01
       -1   -1    0    0    0  501  0.00000000000E+00  0.00000000000E+00  0.14312248224E+04  0.14312248224E+04  0.50400001928E-02 0.  1.
        1   -1    0    0  501    0  0.00000000000E+00  0.00000000000E+00 -0.15284538433E+04  0.15284538433E+04  0.50400001928E-02 0. -1.
    10030    2    1    2    0    0  0.00000000000E+00  0.00000000000E+00 -0.97229020914E+02  0.29596786657E+04  0.29580811891E+04 0.  0.
        2    1    3    3  502    0 -0.13321509608E+04  0.40850915276E+03 -0.54492187513E+03  0.14961436295E+04  0.25500000920E-02 0.  1.
       -2    1    3    3    0  502  0.13321509608E+04 -0.40850915276E+03  0.44769285421E+03  0.14635350361E+04  0.25500000920E-02 0. -1.
</event>
<event>
 5   0  0.1853742E-06  0.3136844E+04  0.7818609E-02  0.8205699E-01
       -1   -1    0    0    0  501  0.00000000000E+00  0.00000000000E+00  0.17115311652E+04  0.17115311652E+04  0.50400001928E-02 0.  1.
        1   -1    0    0  501    0  0.00000000000E+00  0.00000000000E+00 -0.14372786034E+04  0.14372786034E+04  0.50400001928E-02 0. -1.
    10030    2    1    2    0    0  0.00000000000E+00  0.00000000000E+00  0.27425256175E+03  0.31488097686E+04  0.31368437148E+04 0.  0.
        5    1    3    3  502    0 -0.13196473745E+04  0.79123739693E+02  0.98426217954E+03  0.16481880619E+04  0.46999998093E+01 0.  1.
       -5    1    3    3    0  502  0.13196473745E+04 -0.79123739693E+02 -0.71000961780E+03  0.15006217067E+04  0.46999998093E+01 0. -1.
</event>
<event>
 5   0  0.5001658E-06  0.2854390E+04  0.7818609E-02  0.8286579E-01
       -2   -1    0    0    0  501  0.00000000000E+00  0.00000000000E+00  0.79414928886E+03  0.79414928887E+03  0.25500000920E-02 0.  1.
        2   -1    0    0  501    0  0.00000000000E+00  0.00000000000E+00 -0.25648644857E+04  0.25648644857E+04  0.25500000920E-02 0. -1.
    10030    2    1    2    0    0  0.00000000000E+00  0.00000000000E+00 -0.17707151969E+04  0.33590137746E+04  0.28543898174E+04 0.  0.
        3    1    3    3  502    0 -0.83404682237E+03  0.11560441423E+04 -0.96699940094E+03  0.17225446329E+04  0.10100000352E+00 0.  1.
       -3    1    3    3    0  502  0.83404682237E+03 -0.11560441423E+04 -0.80371579592E+03  0.16364691417E+04  0.10100000352E+00 0. -1.
</event>
<event>
 5   0  0.4900679E-06  0.3146956E+04  0.7818609E-02  0.8202968E-01
        2   -1    0    0  501    0  0.00000000000E+00  0.00000000000E+00  0.22596683938E+04  0.22596683938E+04  0.25500000920E-02 0. -1.
       -2   -1    0    0    0  501  0.00000000000E+00  0.00000000000E+00 -0.10956624379E+04  0.10956624379E+04  0.25500000920E-02 0.  1.
    10030    2    1    2    0    0  0.00000000000E+00  0.00000000000E+00  0.11640059559E+04  0.33553308317E+04  0.31469564860E+04 0.  0.
        4    1    3    3  502    0 -0.74250829510E+03  0.26836397704E+03  0.20331889072E+04  0.21810998459E+04  0.12699999809E+01 0. -1.
       -4    1    3    3    0  502  0.74250829510E+03 -0.26836397704E+03 -0.86918295128E+03  0.11742309859E+04  0.12699999809E+01 0.  1.
</event>
<event>
 5   0  0.4927533E-06  0.3138147E+04  0.7818609E-02  0.8205346E-01
       -2   -1    0    0    0  501  0.00000000000E+00  0.00000000000E+00  0.11807431687E+04  0.11807431687E+04  0.25500000920E-02 0.  1.
        2   -1    0    0  501    0  0.00000000000E+00  0.00000000000E+00 -0.20851201401E+04  0.20851201401E+04  0.25500000920E-02 0. -1.
    10030    2    1    2    0    0  0.00000000000E+00  0.00000000000E+00 -0.90437697141E+03  0.32658633089E+04  0.31381468171E+04 0.  0.
        5    1    3    3  502    0 -0.12491725025E+04 -0.94886582126E+03 -0.41627333797E+03  0.16229860966E+04  0.46999998093E+01 0.  1.
       -5    1    3    3    0  502  0.12491725025E+04  0.94886582126E+03 -0.48810363344E+03  0.16428772123E+04  0.46999998093E+01 0. -1.
</event>
<event>
 5   0  0.1836401E-06  0.3049878E+04  0.7818609E-02  0.8229630E-01
        1   -1    0    0  501    0  0.00000000000E+00  0.00000000000E+00  0.11037619924E+04  0.11037619924E+04  0.50400001928E-02 0. -1.
       -1   -1    0    0    0  501  0.00000000000E+00  0.00000000000E+00 -0.21068298618E+04  0.21068298619E+04  0.50400001928E-02 0.  1.
    10030    2    1    2    0    0  0.00000000000E+00  0.00000000000E+00 -0.10030678695E+04  0.32105918542E+04  0.30498778506E+04 0.  0.
        2    1    3    3  502    0  0.11554452982E+02  0.14812236802E+03  0.10961248576E+04  0.11061480211E+04  0.25500000920E-02 0. -1.
       -2    1    3    3    0  502 -0.11554452982E+02 -0.14812236802E+03 -0.20991927271E+04  0.21044438331E+04  0.25500000920E-02 0.  1.
</event>
<event>
 5   0  0.1836401E-06  0.3074697E+04  0.7818609E-02  0.8222717E-01
        1   -1    0    0  501    0  0.00000000000E+00  0.00000000000E+00  0.25877124964E+04  0.25877124965E+04  0.50400001928E-02 0.  1.
       -1   -1    0    0    0  501  0.00000000000E+00  0.00000000000E+00 -0.91333202878E+03  0.91333202879E+03  0.50400001928E-02 0. -1.
    10030    2    1    2    0    0  0.00000000000E+00  0.00000000000E+00  0.16743804677E+04  0.35010445252E+04  0.30746971911E+04 0.  0.
        2    1    3    3  502    0 -0.12123157135E+04  0.58994865869E+03  0.16783316836E+04  0.21527995841E+04  0.25500000920E-02 0.  1.
       -2    1    3    3    0  502  0.12123157135E+04 -0.58994865869E+03 -0.39512159682E+01  0.13482449411E+04  0.25500000920E-02 0. -1.
</event>
<event>
 5   0  0.1843709E-06  0.3083155E+04  0.7818609E-02  0.8220376E-01
       -1   -1    0    0    0  501  0.00000000000E+00  0.00000000000E+00  0.91495015322E+03  0.91495015324E+03  0.50400001928E-02 0. -1.
        1   -1    0    0  501    0  0.00000000000E+00  0.00000000000E+00 -0.25973662808E+04  0.25973662808E+04  0.50400001928E-02 0.  1.
    10030    2    1    2    0    0  0.00000000000E+00  0.00000000000E+00 -0.16824161275E+04  0.35123164340E+04  0.30831546679E+04 0.  0.
        4    1    3    3  502    0 -0.91594175257E+03  0.70057826962E+03  0.32428423038E+03  0.11978819144E+04  0.12699999809E+01 0. -1.
       -4    1    3    3    0  502  0.91594175257E+03 -0.70057826962E+03 -0.20067003579E+04  0.23144345196E+04  0.12699999809E+01 0.  1.
</event>
<event>
 5   0  0.1885307E-06  0.3141661E+04  0.7818609E-02  0.8204397E-01
        1   -1    0    0  501    0  0.00000000000E+00  0.00000000000E+00  0.22105062761E+04  0.22105062761E+04  0.50400001928E-02 0. -1.
       -1   -1    0    0    0  501  0.00000000000E+00  0.00000000000E+00 -0.11162636473E+04  0.11162636473E+04  0.50400001928E-02 0.  1.
    10030    2    1    2    0    0  0.00000000000E+00  0.00000000000E+00  0.10942426288E+04  0.33267699234E+04  0.31416605789E+04 0.  0.
        3    1    3    3  502    0 -0.81581361095E+02 -0.13825564063E+04  0.13320024658E+04  0.19215484158E+04  0.10100000352E+00 0. -1.
       -3    1    3    3    0  502  0.81581361095E+02  0.13825564063E+04 -0.23775983702E+03  0.14052215076E+04  0.10100000352E+00 0.  1.
</event>
<event>
 5   0  0.4900679E-06  0.3080508E+04  0.7818609E-02  0.8221108E-01
        2   -1    0    0  501    0  0.00000000000E+00  0.00000000000E+00  0.76680784943E+03  0.76680784943E+03  0.25500000920E-02 0.  1.
       -2   -1    0    0    0  501  0.00000000000E+00  0.00000000000E+00 -0.30938419164E+04  0.30938419164E+04  0.25500000920E-02 0. -1.
    10030    2    1    2    0    0  0.00000000000E+00  0.00000000000E+00 -0.23270340670E+04  0.38606497658E+04  0.30805079233E+04 0.  0.
        4    1    3    3  502    0  0.63753097957E+03 -0.12077433335E+04 -0.27089700094E+03  0.13922918184E+04  0.12699999809E+01 0.  1.
       -4    1    3    3    0  502 -0.63753097957E+03  0.12077433335E+04 -0.20561370660E+04  0.24683579474E+04  0.12699999809E+01 0. -1.
</event>
<event>
 5   0  0.4927533E-06  0.3038270E+04  0.7818609E-02  0.8232886E-01
       -2   -1    0    0    0  501  0.00000000000E+00  0.00000000000E+00  0.15034403187E+04  0.15034403187E+04  0.25500000920E-02 0.  1.
        2   -1    0    0  501    0  0.00000000000E+00  0.00000000000E+00 -0.15349933935E+04  0.15349933935E+04  0.25500000920E-02 0. -1.
    10030    2    1    2    0    0  0.00000000000E+00  0.00000000000E+00 -0.31553074727E+02  0.30384337122E+04  0.30382698739E+04 0.  0.
        5    1    3    3  502    0  0.10227319098E+04 -0.55243612277E+03  0.96232663082E+03  0.15090595957E+04  0.46999998093E+01 0.  1.
       -5    1    3    3    0  502 -0.10227319098E+04  0.55243612277E+03 -0.99387970555E+03  0.15293741165E+04  0.46999998093E+01 0. -1.
</event>
<event>
 5   0  0.1853742E-06  0.3099792E+04  0.7818609E-02  0.8215795E-01
        1   -1    0    0  501    0  0.00000000000E+00  0.00000000000E+00  0.13318194956E+04  0.13318194956E+04  0.50400001928E-02 0. -1.
       -1   -1    0    0    0  501  0.00000000000E+00  0.00000000000E+00 -0.18036809266E+04  0.18036809266E+04  0.50400001928E-02 0.  1.
    10030    2    1    2    0    0  0.00000000000E+00  0.00000000000E+00 -0.47186143104E+03  0.31355004223E+04  0.30997918781E+04 0.  0.
        5    1    3    3  502    0 -0.24803383936E+03 -0.65402837327E+03 -0.16349327740E+04  0.17782860186E+04  0.46999998093E+01 0.  1.
       -5    1    3    3    0  502  0.24803383936E+03  0.65402837327E+03  0.11630713430E+04  0.13572144036E+04  0.46999998093E+01 0. -1.
</event>
<event>
 5   0  0.5328368E-06  0.3156989E+04  0.7818609E-02  0.8200270E-01
        2   -1    0    0  501    0  0.00000000000E+00  0.00000000000E+00  0.17680724970E+04  0.17680724970E+04  0.25500000920E-02 0.  1.
       -2   -1    0    0    0  501  0.00000000000E+00  0.00000000000E+00 -0.14092435476E+04  0.14092435476E+04  0.25500000920E-02 0. -1.
    10030    2    1    2    0    0  0.00000000000E+00  0.00000000000E+00  0.35882894940E+03  0.31773160445E+04  0.31569889185E+04 0.  0.
        1    1    3    3  502    0 -0.19668056494E+03 -0.83405507130E+03  0.15135870209E+04  0.17393322789E+04  0.50400001928E-02 0.  1.
       -1    1    3    3    0  502  0.19668056494E+03  0.83405507130E+03 -0.11547580715E+04  0.14379837656E+04  0.50400001928E-02 0. -1.
</event>
<event>
 5   0  0.5114870E-06  0.3099650E+04  0.7818609E-02  0.8215834E-01
       -2   -1    0    0    0  501  0.00000000000E+00  0.00000000000E+00  0.16074033141E+04  0.16074033141E+04  0.25500000920E-02 0.  1.
        2   -1    0    0  501    0  0.00000000000E+00  0.00000000000E+00 -0.14943090211E+04  0.14943090211E+04  0.25500000920E-02 0. -1.
    10030    2    1    2    0    0  0.00000000000E+00  0.00000000000E+00  0.11309429305E+03  0.31017123352E+04  0.30996498337E+04 0.  0.
        2    1    3    3  502    0 -0.91402832195E+03 -0.93221845637E+01 -0.11958536997E+04  0.15051912661E+04  0.25500000920E-02 0. -1.
       -2    1    3    3    0  502  0.91402832195E+03  0.93221845637E+01  0.13089479927E+04  0.15965210691E+04  0.25500000920E-02 0.  1.
</event>
<event>
 5   0  0.5114870E-06  0.3099721E+04  0.7818609E-02  0.8215814E-01
        2   -1    0    0  501    0  0.00000000000E+00  0.00000000000E+00  0.81464138263E+03  0.81464138264E+03  0.25500000920E-02 0. -1.
       -2   -1    0    0    0  501  0.00000000000E+00  0.00000000000E+00 -0.29486197258E+04  0.29486197258E+04  0.25500000920E-02 0.  1.
    10030    2    1    2    0    0  0.00000000000E+00  0.00000000000E+00 -0.21339783431E+04  0.37632611084E+04  0.30997210521E+04 0.  0.
        2    1    3    3  502    0 -0.99713913208E+03 -0.10893800434E+04 -0.16377703358E+04  0.22052952185E+04  0.25500000920E-02 0.  1.
       -2    1    3    3    0  502  0.99713913208E+03  0.10893800434E+04 -0.49620800730E+03  0.15579658899E+04  0.25500000920E-02 0. -1.
</event>
<event>
 5   0  0.1843709E-06  0.2993848E+04  0.7818609E-02  0.8245490E-01
        1   -1    0    0  501    0  0.00000000000E+00  0.00000000000E+00  0.23853409589E+04  0.23853409589E+04  0.50400001928E-02 0. -1.
       -1   -1    0    0    0  501  0.00000000000E+00  0.00000000000E+00 -0.93939691440E+03  0.93939691441E+03  0.50400001928E-02 0.  1.
    10030    2    1    2    0    0  0.00000000000E+00  0.00000000000E+00  0.14459440445E+04  0.33247378733E+04  0.29938483172E+04 0.  0.
        4    1    3    3  502    0 -0.81481390101E+02  0.14918522249E+04  0.82546582447E+03  0.17069439704E+04  0.12699999809E+01 0.  1.
       -4    1    3    3    0  502  0.81481390101E+02 -0.14918522249E+04  0.62047822004E+03  0.16177939029E+04  0.12699999809E+01 0. -1.
</event>
<event>
 5   0  0.1840431E-06  0.3164212E+04  0.7818609E-02  0.8198333E-01
        1   -1    0    0  501    0  0.00000000000E+00  0.00000000000E+00  0.16899554380E+04  0.16899554380E+04  0.50400001928E-02 0. -1.
       -1   -1    0    0    0  501  0.00000000000E+00  0.00000000000E+00 -0.14811396460E+04  0.14811396460E+04  0.50400001928E-02 0.  1.
    10030    2    1    2    0    0  0.00000000000E+00  0.00000000000E+00  0.20881579203E+03  0.31710950840E+04  0.31642123817E+04 0.  0.
        1    1    3    3  502    0 -0.11348785498E+04 -0.94560658859E+03 -0.46333902655E+03  0.15481615538E+04  0.50400001928E-02 0. -1.
       -1    1    3    3    0  502  0.11348785498E+04  0.94560658859E+03  0.67215481857E+03  0.16229335301E+04  0.50400001928E-02 0.  1.
</event>
<event>
 5   0  0.4927533E-06  0.3063281E+04  0.7818609E-02  0.8225888E-01
       -2   -1    0    0    0  501  0.00000000000E+00  0.00000000000E+00  0.14091769698E+04  0.14091769698E+04  0.25500000920E-02 0. -1.
        2   -1    0    0  501    0  0.00000000000E+00  0.00000000000E+00 -0.16647466211E+04  0.16647466211E+04  0.25500000920E-02 0.  1.
    10030    2    1    2    0    0  0.00000000000E+00  0.00000000000E+00 -0.25556965134E+03  0.30739235910E+04  0.30632809855E+04 0.  0.
        5    1    3    3  502    0 -0.59360794893E+03 -0.70801485351E+03 -0.13536037183E+04  0.16388778314E+04  0.46999998093E+01 0.  1.
       -5    1    3    3    0  502  0.59360794893E+03  0.70801485351E+03  0.10980340670E+04  0.14350457596E+04  0.46999998093E+01 0. -1.
</event>
<event>
 5   0  0.1853742E-06  0.2548584E+04  0.7818609E-02  0.8385879E-01
       -1   -1    0    0    0  501  0.00000000000E+00  0.00000000000E+00  0.93993858144E+03  0.93993858146E+03  0.50400001928E-02 0. -1.
        1   -1    0    0  501    0  0.00000000000E+00  0.00000000000E+00 -0.17275804286E+04  0.17275804286E+04  0.50400001928E-02 0.  1.
    10030    2    1    2    0    0  0.00000000000E+00  0.00000000000E+00 -0.78764184718E+03  0.26675190101E+04  0.25485835261E+04 0.  0.
        5    1    3    3  502    0 -0.60737021262E+03 -0.43489265419E+02 -0.15654374515E+04  0.16797042585E+04  0.46999998093E+01 0.  1.
       -5    1    3    3    0  502  0.60737021262E+03  0.43489265419E+02  0.77779560433E+03  0.98781475160E+03  0.46999998093E+01 0. -1.
</event>
<event>
 5   0  0.5114870E-06  0.3097697E+04  0.7818609E-02  0.8216370E-01
       -2   -1    0    0    0  501  0.00000000000E+00  0.00000000000E+00  0.12706998854E+04  0.12706998854E+04  0.25500000920E-02 0. -1.
        2   -1    0    0  501    0  0.00000000000E+00  0.00000000000E+00 -0.18878820090E+04  0.18878820090E+04  0.25500000920E-02 0.  1.
    10030    2    1    2    0    0  0.00000000000E+00  0.00000000000E+00 -0.61718212358E+03  0.31585818944E+04  0.30976968557E+04 0.  0.
        2    1    3    3  502    0  0.84971049312E+03  0.65015025540E+03 -0.14505263744E+04  0.18024233797E+04  0.25500000920E-02 0.  1.
       -2    1    3    3    0  502 -0.84971049312E+03 -0.65015025540E+03  0.83334425083E+03  0.13561585147E+04  0.25500000920E-02 0. -1.
</event>
<event>
 5   0  0.4900679E-06  0.3064028E+04  0.7818609E-02  0.8225680E-01
       -2   -1    0    0    0  501  0.00000000000E+00  0.00000000000E+00  0.11482139238E+04  0.11482139238E+04  0.25500000920E-02 0. -1.
        2   -1    0    0  501    0  0.00000000000E+00  0.00000000000E+00 -0.20441019482E+04  0.20441019482E+04  0.25500000920E-02 0.  1.
    10030    2    1    2    0    0  0.00000000000E+00  0.00000000000E+00 -0.89588802445E+03  0.31923158720E+04  0.30640276230E+04 0.  0.
        4    1    3    3  502    0  0.11181010921E+04  0.45581901106E+03 -0.14303684445E+04  0.18718644510E+04  0.12699999809E+01 0.  1.
       -4    1    3    3    0  502 -0.11181010921E+04 -0.45581901106E+03  0.53448042006E+03  0.13204514210E+04  0.12699999809E+01 0. -1.
</event>
<event>
 5   0  0.1843709E-06  0.3159142E+04  0.7818609E-02  0.8199692E-01
        1   -1    0    0  501    0  0.00000000000E+00  0.00000000000E+00  0.17322684927E+04  0.17322684927E+04  0.50400001928E-02 0. -1.
       -1   -1    0    0    0  501  0.00000000000E+00  0.00000000000E+00 -0.14403335417E+04  0.14403335417E+04  0.50400001928E-02 0.  1.
    10030    2    1    2    0    0  0.00000000000E+00  0.00000000000E+00  0.29193495098E+03  0.31726020343E+04  0.31591419172E+04 0.  0.
        4    1    3    3  502    0  0.79170406556E+03  0.38004029179E+03  0.14645035703E+04  0.17076294303E+04  0.12699999809E+01 0. -1.
       -4    1    3    3    0  502 -0.79170406556E+03 -0.38004029179E+03 -0.11725686193E+04  0.14649726041E+04  0.12699999809E+01 0.  1.
</event>
<event>
 5   0  0.4927533E-06  0.3048700E+04  0.7818609E-02  0.8229960E-01
        2   -1    0    0  501    0  0.00000000000E+00  0.00000000000E+00  0.16051613571E+04  0.16051613571E+04  0.25500000920E-02 0.  1.
       -2   -1    0    0    0  501  0.00000000000E+00  0.00000000000E+00 -0.14476067869E+04  0.14476067869E+04  0.25500000920E-02 0. -1.
    10030    2    1    2    0    0  0.00000000000E+00  0.00000000000E+00  0.15755457017E+03  0.30527681440E+04  0.30486997062E+04 0.  0.
        5    1    3    3  502    0  0.56252522518E+03 -0.10615578536E+04 -0.86070751308E+03  0.14778968904E+04  0.46999998093E+01 0. -1.
       -5    1    3    3    0  502 -0.56252522518E+03  0.10615578536E+04  0.10182620832E+04  0.15748712537E+04  0.46999998093E+01 0.  1.
</event>
<event>
 5   0  0.5001658E-06  0.3055258E+04  0.7818609E-02  0.8228125E-01
        2   -1    0    0  501    0  0.00000000000E+00  0.00000000000E+00  0.19776065517E+04  0.19776065517E+04  0.25500000920E-02 0.  1.
       -2   -1    0    0    0  501  0.00000000000E+00  0.00000000000E+00 -0.11800378043E+04  0.11800378043E+04  0.25500000920E-02 0. -1.
    10030    2    1    2    0    0  0.00000000000E+00  0.00000000000E+00  0.79756874742E+03  0.31576443560E+04  0.30552580860E+04 0.  0.
        3    1    3    3  502    0 -0.29363998889E+03  0.15716690534E+03  0.19396264887E+04  0.19680134159E+04  0.10100000352E+00 0.  1.
       -3    1    3    3    0  502  0.29363998889E+03 -0.15716690534E+03 -0.11420577413E+04  0.11896309402E+04  0.10100000352E+00 0. -1.
</event>
<event>
 5   0  0.4900679E-06  0.3127101E+04  0.7818609E-02  0.8208340E-01
       -2   -1    0    0    0  501  0.00000000000E+00  0.00000000000E+00  0.12887623290E+04  0.12887623290E+04  0.25500000920E-02 0. -1.
        2   -1    0    0  501    0  0.00000000000E+00  0.00000000000E+00 -0.18969281012E+04  0.18969281012E+04  0.25500000920E-02 0.  1.
    10030    2    1    2    0    0  0.00000000000E+00  0.00000000000E+00 -0.60816577218E+03  0.31856904302E+04  0.31271005598E+04 0.  0.
        4    1    3    3  502    0  0.59795023677E+03  0.14439271703E+04 -0.25610802720E+03  0.15836865515E+04  0.12699999809E+01 0. -1.
       -4    1    3    3    0  502 -0.59795023677E+03 -0.14439271703E+04 -0.35205774499E+03  0.16020038788E+04  0.12699999809E+01 0.  1.
</event>
<event>
 5   0  0.1836401E-06  0.3129086E+04  0.7818609E-02  0.8207800E-01
        1   -1    0    0  501    0  0.00000000000E+00  0.00000000000E+00  0.17179463752E+04  0.17179463752E+04  0.50400001928E-02 0.  1.
       -1   -1    0    0    0  501  0.00000000000E+00  0.00000000000E+00 -0.14248381365E+04  0.14248381365E+04  0.50400001928E-02 0. -1.
    10030    2    1    2    0    0  0.00000000000E+00  0.00000000000E+00  0.29310823870E+03  0.31427845117E+04  0.31290864557E+04 0.  0.
        2    1    3    3  502    0  0.73137473129E+03  0.13419212708E+04 -0.18977567745E+03  0.15400248382E+04  0.25500000920E-02 0. -1.
       -2    1    3    3    0  502 -0.73137473129E+03 -0.13419212708E+04  0.48288391615E+03  0.16027596735E+04  0.25500000920E-02 0.  1.
</event>
<event>
 5   0  0.4927533E-06  0.2861103E+04  0.7818609E-02  0.8284545E-01
       -2   -1    0    0    0  501  0.00000000000E+00  0.00000000000E+00  0.10162545322E+04  0.10162545322E+04  0.25500000920E-02 0. -1.
        2   -1    0    0  501    0  0.00000000000E+00  0.00000000000E+00 -0.20137452805E+04  0.20137452805E+04  0.25500000920E-02 0.  1.
    10030    2    1    2    0    0  0.00000000000E+00  0.00000000000E+00 -0.99749074824E+03  0.30299998127E+04  0.28611031216E+04 0.  0.
        5    1    3    3  502    0  0.85200803480E+03  0.11221900820E+04 -0.23669666608E+03  0.14287321908E+04  0.46999998093E+01 0. -1.
       -5    1    3    3    0  502 -0.85200803480E+03 -0.11221900820E+04 -0.76079408216E+03  0.16012676219E+04  0.46999998093E+01 0.  1.
</event>
<event>
 5   0  0.1853742E-06  0.3103967E+04  0.7818609E-02  0.8214650E-01
        1   -1    0    0  501    0  0.00000000000E+00  0.00000000000E+00  0.13502204374E+04  0.13502204374E+04  0.50400001928E-02 0. -1.
       -1   -1    0    0    0  501  0.00000000000E+00  0.00000000000E+00 -0.17838953897E+04  0.17838953897E+04  0.50400001928E-02 0.  1.
    10030    2    1    2    0    0  0.00000000000E+00  0.00000000000E+00 -0.43367495230E+03  0.31341158272E+04  0.31039665033E+04 0.  0.
        5    1    3    3  502    0  0.89104633996E+02  0.13930075159E+03  0.13412927714E+04  0.13514557795E+04  0.46999998093E+01 0. -1.
       -5    1    3    3    0  502 -0.89104633996E+02 -0.13930075159E+03 -0.17749677237E+04  0.17826600477E+04  0.46999998093E+01 0.  1.
</event>
<event>
 5   0  0.4900679E-06  0.3128821E+04  0.7818609E-02  0.8207872E-01
        2   -1    0    0  501    0  0.00000000000E+00  0.00000000000E+00  0.18002943399E+04  0.18002943399E+04  0.25500000920E-02 0.  1.
       -2   -1    0    0    0  501  0.00000000000E+00  0.00000000000E+00 -0.13594336801E+04  0.13594336801E+04  0.25500000920E-02 0. -1.
    10030    2    1    2    0    0  0.00000000000E+00  0.00000000000E+00  0.44086065984E+03  0.31597280200E+04  0.31288213498E+04 0.  0.
        4    1    3    3  502    0  0.22731066371E+03  0.13201825021E+04  0.10363887823E+04  0.16937105118E+04  0.12699999809E+01 0.  1.
       -4    1    3    3    0  502 -0.22731066371E+03 -0.13201825021E+04 -0.59552812250E+03  0.14660175082E+04  0.12699999809E+01 0. -1.
</event>
<event>
 5   0  0.1840431E-06  0.3111415E+04  0.7818609E-02  0.8212612E-01
       -1   -1    0    0    0  501  0.00000000000E+00  0.00000000000E+00  0.13768169449E+04  0.13768169449E+04  0.50400001928E-02 0. -1.
        1   -1    0    0  501    0  0.00000000000E+00  0.00000000000E+00 -0.17578415247E+04  0.17578415247E+04  0.50400001928E-02 0.  1.
    10030    2    1    2    0    0  0.00000000000E+00  0.00000000000E+00 -0.38102457987E+03  0.31346584696E+04  0.31114151106E+04 0.  0.
        1    1    3    3  502    0 -0.83529298312E+03 -0.40569307117E+03  0.10669805289E+04  0.14144782376E+04  0.50400001928E-02 0. -1.
       -1    1    3    3    0  502  0.83529298312E+03  0.40569307117E+03 -0.14480051087E+04  0.17201802320E+04  0.50400001928E-02 0.  1.
</event>
<event>
 5   0  0.4927533E-06  0.3082962E+04  0.7818609E-02  0.8220429E-01
        2   -1    0    0  501    0  0.00000000000E+00  0.00000000000E+00  0.11601332576E+04  0.11601332576E+04  0.25500000920E-02 0. -1.
       -2   -1    0    0    0  501  0.00000000000E+00  0.00000000000E+00 -0.20481822020E+04  0.20481822020E+04  0.25500000920E-02 0.  1.
    10030    2    1    2    0    0  0.00000000000E+00  0.00000000000E+00 -0.88804894441E+03  0.32083154596E+04  0.30829624001E+04 0.  0.
        5    1    3    3  502    0  0.41673128394E+03  0.12149525644E+04  0.44290081856E+03  0.13586603409E+04  0.46999998093E+01 0. -1.
       -5    1    3    3    0  502 -0.41673128394E+03 -0.12149525644E+04 -0.13309497630E+04  0.18496551187E+04  0.46999998093E+01 0.  1.
</event>
<event>
 5   0  0.1853742E-06  0.3053698E+04  0.7818609E-02  0.8228561E-01
        1   -1    0    0  501    0  0.00000000000E+00  0.00000000000E+00  0.14722611686E+04  0.14722611686E+04  0.50400001928E-02 0.  1.
       -1   -1    0    0    0  501  0.00000000000E+00  0.00000000000E+00 -0.15834609873E+04  0.15834609873E+04  0.50400001928E-02 0. -1.
    10030    2    1    2    0    0  0.00000000000E+00  0.00000000000E+00 -0.11119981871E+03  0.30557221559E+04  0.30536981668E+04 0.  0.
        5    1    3    3  502    0  0.15128608865E+04  0.18757618748E+03 -0.14117352041E+03  0.15309751602E+04  0.46999998093E+01 0. -1.
       -5    1    3    3    0  502 -0.15128608865E+04 -0.18757618748E+03  0.29973701702E+02  0.15247469957E+04  0.46999998093E+01 0.  1.
</event>
<event>
 5   0  0.1853742E-06  0.2622064E+04  0.7818609E-02  0.8360745E-01
        1   -1    0    0  501    0  0.00000000000E+00  0.00000000000E+00  0.20797190508E+04  0.20797190508E+04  0.50400001928E-02 0. -1.
       -1   -1    0    0    0  501  0.00000000000E+00  0.00000000000E+00 -0.82646003688E+03  0.82646003689E+03  0.50400001928E-02 0.  1.
    10030    2    1    2    0    0  0.00000000000E+00  0.00000000000E+00  0.12532590139E+04  0.29061790877E+04  0.26220638310E+04 0.  0.
        5    1    3    3  502    0 -0.48634462057E+02 -0.69979254321E+03 -0.60095007257E+03  0.92370882541E+03  0.46999998093E+01 0.  1.
       -5    1    3    3    0  502  0.48634462057E+02  0.69979254321E+03  0.18542090865E+04  0.19824702623E+04  0.46999998093E+01 0. -1.
</event>
<event>
 5   0  0.4927533E-06  0.3040210E+04  0.7818609E-02  0.8232341E-01
       -2   -1    0    0    0  501  0.00000000000E+00  0.00000000000E+00  0.94960558844E+03  0.94960558845E+03  0.25500000920E-02 0. -1.
        2   -1    0    0  501    0  0.00000000000E+00  0.00000000000E+00 -0.24333460699E+04  0.24333460699E+04  0.25500000920E-02 0.  1.
    10030    2    1    2    0    0  0.00000000000E+00  0.00000000000E+00 -0.14837404814E+04  0.33829516583E+04  0.30402098787E+04 0.  0.
        5    1    3    3  502    0  0.57654844363E+03  0.11362782594E+04 -0.16642745729E+04  0.20960363391E+04  0.46999998093E+01 0.  1.
       -5    1    3    3    0  502 -0.57654844363E+03 -0.11362782594E+04  0.18053409151E+03  0.12869153192E+04  0.46999998093E+01 0. -1.
</event>
<event>
 5   0  0.1840431E-06  0.3120632E+04  0.7818609E-02  0.8210098E-01
       -1   -1    0    0    0  501  0.00000000000E+00  0.00000000000E+00  0.13742725468E+04  0.13742725469E+04  0.50400001928E-02 0. -1.
        1   -1    0    0  501    0  0.00000000000E+00  0.00000000000E+00 -0.17715447288E+04  0.17715447288E+04  0.50400001928E-02 0.  1.
    10030    2    1    2    0    0  0.00000000000E+00  0.00000000000E+00 -0.39727218196E+03  0.31458172757E+04  0.31206315299E+04 0.  0.
        1    1    3    3  502    0  0.94571834092E+03  0.10933763633E+04 -0.79051203379E+03  0.16476541894E+04  0.50400001928E-02 0.  1.
       -1    1    3    3    0  502 -0.94571834092E+03 -0.10933763633E+04  0.39323985184E+03  0.14981630863E+04  0.50400001928E-02 0. -1.
</event>
<event>
 5   0  0.1843709E-06  0.3106843E+04  0.7818609E-02  0.8213862E-01
        1   -1    0    0  501    0  0.00000000000E+00  0.00000000000E+00  0.12061008177E+04  0.12061008177E+04  0.50400001928E-02 0. -1.
       -1   -1    0    0    0  501  0.00000000000E+00  0.00000000000E+00 -0.20007605371E+04  0.20007605371E+04  0.50400001928E-02 0.  1.
    10030    2    1    2    0    0  0.00000000000E+00  0.00000000000E+00 -0.79465971938E+03  0.32068613548E+04  0.31068433625E+04 0.  0.
        4    1    3    3  502    0  0.68780051202E+03 -0.85366591422E+03  0.73869305474E+03  0.13219243849E+04  0.12699999809E+01 0. -1.
       -4    1    3    3    0  502 -0.68780051202E+03  0.85366591422E+03 -0.15333527741E+04  0.18849369698E+04  0.12699999809E+01 0.  1.
</event>
<event>
 5   0  0.1853742E-06  0.3205210E+04  0.7818609E-02  0.8187443E-01
       -1   -1    0    0    0  501  0.00000000000E+00  0.00000000000E+00  0.98809658866E+03  0.98809658868E+03  0.50400001928E-02 0. -1.
        1   -1    0    0  501    0  0.00000000000E+00  0.00000000000E+00 -0.25992832337E+04  0.25992832337E+04  0.50400001928E-02 0.  1.
    10030    2    1    2    0    0  0.00000000000E+00  0.00000000000E+00 -0.16111866450E+04  0.35873798224E+04  0.32052100687E+04 0.  0.
        5    1    3    3  502    0  0.25175542736E+03 -0.16179547072E+03 -0.25677247558E+04  0.25851094911E+04  0.46999998093E+01 0.  1.
       -5    1    3    3    0  502 -0.25175542736E+03  0.16179547072E+03  0.95653811077E+03  0.10022703313E+04  0.46999998093E+01 0. -1.
</event>
<event>
 5   0  0.1843709E-06  0.3052656E+04  0.7818609E-02  0.8228853E-01
        1   -1    0    0  501    0  0.00000000000E+00  0.00000000000E+00  0.24432794628E+04  0.24432794628E+04  0.50400001928E-02 0.  1.
       -1   -1    0    0    0  501  0.00000000000E+00  0.00000000000E+00 -0.95350406130E+03  0.95350406131E+03  0.50400001928E-02 0. -1.
    10030    2    1    2    0    0  0.00000000000E+00  0.00000000000E+00  0.14897754015E+04  0.33967835241E+04  0.30526558212E+04 0.  0.
        4    1    3    3  502    0  0.58662312186E+03 -0.91171952146E+03 -0.45062007798E+03  0.11740610037E+04  0.12699999809E+01 0. -1.
       -4    1    3    3    0  502 -0.58662312186E+03  0.91171952146E+03  0.19403954794E+04  0.22227225203E+04  0.12699999809E+01 0.  1.
</event>
<event>
 5   0  0.1843709E-06  0.3102077E+04  0.7818609E-02  0.8215168E-01
       -1   -1    0    0    0  501  0.00000000000E+00  0.00000000000E+00  0.21753939569E+04  0.21753939569E+04  0.50400001928E-02 0. -1.
        1   -1    0    0  501    0  0.00000000000E+00  0.00000000000E+00 -0.11058780856E+04  0.11058780856E+04  0.50400001928E-02 0.  1.
    10030    2    1    2    0    0  0.00000000000E+00  0.00000000000E+00  0.10695158713E+04  0.32812720425E+04  0.31020770490E+04 0.  0.
        4    1    3    3  502    0  0.14310473301E+04 -0.17731847373E+02  0.11672171836E+04  0.18467832699E+04  0.12699999809E+01 0.  1.
       -4    1    3    3    0  502 -0.14310473301E+04  0.17731847373E+02 -0.97701312338E+02  0.14344887726E+04  0.12699999809E+01 0. -1.
</event>
<event>
 5   0  0.1843709E-06  0.3042201E+04  0.7818609E-02  0.8231782E-01
        1   -1    0    0  501    0  0.00000000000E+00  0.00000000000E+00  0.14806668796E+04  0.14806668796E+04  0.50400001928E-02 0. -1.
       -1   -1    0    0    0  501  0.00000000000E+00  0.00000000000E+00 -0.15626386961E+04  0.15626386961E+04  0.50400001928E-02 0.  1.
    10030    2    1    2    0    0  0.00000000000E+00  0.00000000000E+00 -0.81971816497E+02  0.30433055757E+04  0.30422014148E+04 0.  0.
        4    1    3    3  502    0 -0.11018090764E+04 -0.93311228488E+02  0.10039292363E+04  0.14935078677E+04  0.12699999809E+01 0. -1.
       -4    1    3    3    0  502  0.11018090764E+04  0.93311228488E+02 -0.10859010528E+04  0.15497977080E+04  0.12699999809E+01 0.  1.
</event>
<event>
 5   0  0.1885307E-06  0.3113665E+04  0.7818609E-02  0.8211998E-01
       -1   -1    0    0    0  501  0.00000000000E+00  0.00000000000E+00  0.18652842904E+04  0.18652842904E+04  0.50400001928E-02 0. -1.
        1   -1    0    0  501    0  0.00000000000E+00  0.00000000000E+00 -0.12993879669E+04  0.12993879669E+04  0.50400001928E-02 0.  1.
    10030    2    1    2    0    0  0.00000000000E+00  0.00000000000E+00  0.56589632355E+03  0.31646722574E+04  0.31136653397E+04 0.  0.
        3    1    3    3  502    0 -0.68308978089E+03  0.75699239412E+03 -0.91279310808E+03  0.13685175928E+04  0.10100000352E+00 0.  1.
       -3    1    3    3    0  502  0.68308978089E+03 -0.75699239412E+03  0.14786894316E+04  0.17961546645E+04  0.10100000352E+00 0. -1.
</event>
<event>
 5   0  0.5114870E-06  0.3105896E+04  0.7818609E-02  0.8214122E-01
       -2   -1    0    0    0  501  0.00000000000E+00  0.00000000000E+00  0.23720877527E+04  0.23720877527E+04  0.25500000920E-02 0. -1.
        2   -1    0    0  501    0  0.00000000000E+00  0.00000000000E+00 -0.10166769896E+04  0.10166769896E+04  0.25500000920E-02 0.  1.
    10030    2    1    2    0    0  0.00000000000E+00  0.00000000000E+00  0.13554107631E+04  0.33887647423E+04  0.31058957068E+04 0.  0.
        2    1    3    3  502    0 -0.12052849468E+04  0.30161348967E+03  0.16942010719E+04  0.21009521109E+04  0.25500000920E-02 0. -1.
       -2    1    3    3    0  502  0.12052849468E+04 -0.30161348967E+03 -0.33879030882E+03  0.12878126314E+04  0.25500000920E-02 0.  1.
</event>
<event>
 5   0  0.1840431E-06  0.3061359E+04  0.7818609E-02  0.8226423E-01
        1   -1    0    0  501    0  0.00000000000E+00  0.00000000000E+00  0.18432390363E+04  0.18432390363E+04  0.50400001928E-02 0. -1.
       -1   -1    0    0    0  501  0.00000000000E+00  0.00000000000E+00 -0.12711209433E+04  0.12711209433E+04  0.50400001928E-02 0.  1.
    10030    2    1    2    0    0  0.00000000000E+00  0.00000000000E+00  0.57211809301E+03  0.31143599796E+04  0.30613590070E+04 0.  0.
        1    1    3    3  502    0 -0.66417813664E+03 -0.12235509795E+04  0.93328926236E+03  0.16760782929E+04  0.50400001928E-02 0. -1.
       -1    1    3    3    0  502  0.66417813664E+03  0.12235509795E+04 -0.36117116935E+03  0.14382816867E+04  0.50400001928E-02 0.  1.
</event>
<event>
 5   0  0.1840431E-06  0.2893639E+04  0.7818609E-02  0.8274773E-01
       -1   -1    0    0    0  501  0.00000000000E+00  0.00000000000E+00  0.18237513757E+04  0.18237513757E+04  0.50400001928E-02 0.  1.
        1   -1    0    0  501    0  0.00000000000E+00  0.00000000000E+00 -0.11477915490E+04  0.11477915490E+04  0.50400001928E-02 0. -1.
    10030    2    1    2    0    0  0.00000000000E+00  0.00000000000E+00  0.67595982673E+03  0.29715429247E+04  0.28936388279E+04 0.  0.
        1    1    3    3  502    0  0.64385880533E+03  0.12236241669E+04  0.77544909888E+03  0.15852859578E+04  0.50400001928E-02 0.  1.
       -1    1    3    3    0  502 -0.64385880533E+03 -0.12236241669E+04 -0.99489272155E+02  0.13862569669E+04  0.50400001928E-02 0. -1.
</event>
<event>
 5   0  0.4927533E-06  0.3139115E+04  0.7818609E-02  0.8205085E-01
        2   -1    0    0  501    0  0.00000000000E+00  0.00000000000E+00  0.16869755022E+04  0.16869755022E+04  0.25500000920E-02 0.  1.
       -2   -1    0    0    0  501  0.00000000000E+00  0.00000000000E+00 -0.14603116883E+04  0.14603116883E+04  0.25500000920E-02 0. -1.
    10030    2    1    2    0    0  0.00000000000E+00  0.00000000000E+00  0.22666381393E+03  0.31472871905E+04  0.31391145527E+04 0.  0.
        5    1    3    3  502    0 -0.95522376167E+03  0.70368799914E+03  0.11435569796E+04  0.16478391580E+04  0.46999998093E+01 0.  1.
       -5    1    3    3    0  502  0.95522376167E+03 -0.70368799914E+03 -0.91689316566E+03  0.14994480325E+04  0.46999998093E+01 0. -1.
</event>
<event>
 5   0  0.1836401E-06  0.3067759E+04  0.7818609E-02  0.8224642E-01
       -1   -1    0    0    0  501  0.00000000000E+00  0.00000000000E+00  0.17663306209E+04  0.17663306209E+04  0.50400001928E-02 0. -1.
        1   -1    0    0  501    0  0.00000000000E+00  0.00000000000E+00 -0.13320191661E+04  0.13320191661E+04  0.50400001928E-02 0.  1.
    10030    2    1    2    0    0  0.00000000000E+00  0.00000000000E+00  0.43431145477E+03  0.30983497870E+04  0.30677589480E+04 0.  0.
        2    1    3    3  502    0  0.54137864993E+03 -0.14127822513E+04  0.47214450315E+03  0.15849179676E+04  0.25500000920E-02 0. -1.
       -2    1    3    3    0  502 -0.54137864993E+03  0.14127822513E+04 -0.37833048380E+02  0.15134318194E+04  0.25500000920E-02 0.  1.
</event>
<event>
 5   0  0.1853742E-06  0.3151349E+04  0.7818609E-02  0.8201785E-01
       -1   -1    0    0    0  501  0.00000000000E+00  0.00000000000E+00  0.80138231318E+03  0.80138231319E+03  0.50400001928E-02 0.  1.
        1   -1    0    0  501    0  0.00000000000E+00  0.00000000000E+00 -0.30980851992E+04  0.30980851992E+04  0.50400001928E-02 0. -1.
    10030    2    1    2    0    0  0.00000000000E+00  0.00000000000E+00 -0.22967028860E+04  0.38994675124E+04  0.31513493512E+04 0.  0.
        5    1    3    3  502    0 -0.10014674174E+04 -0.12014285753E+04 -0.13843050209E+04  0.20887053623E+04  0.46999998093E+01 0.  1.
       -5    1    3    3    0  502  0.10014674174E+04  0.12014285753E+04 -0.91239786513E+03  0.18107621501E+04  0.46999998093E+01 0. -1.
</event>
<event>
 5   0  0.1843709E-06  0.3135780E+04  0.7818609E-02  0.8205986E-01
       -1   -1    0    0    0  501  0.00000000000E+00  0.00000000000E+00  0.13706140917E+04  0.13706140917E+04  0.50400001928E-02 0. -1.
        1   -1    0    0  501    0  0.00000000000E+00  0.00000000000E+00 -0.17935607761E+04  0.17935607761E+04  0.50400001928E-02 0.  1.
    10030    2    1    2    0    0  0.00000000000E+00  0.00000000000E+00 -0.42294668441E+03  0.31641748679E+04  0.31357803967E+04 0.  0.
        4    1    3    3  502    0 -0.36478684098E+03  0.12640004454E+04 -0.10721395786E+04  0.16971303586E+04  0.12699999809E+01 0.  1.
       -4    1    3    3    0  502  0.36478684098E+03 -0.12640004454E+04  0.64919289418E+03  0.14670445092E+04  0.12699999809E+01 0. -1.
</event>
<event>
 5   0  0.1843709E-06  0.3095765E+04  0.7818609E-02  0.8216901E-01
        1   -1    0    0  501    0  0.00000000000E+00  0.00000000000E+00  0.29806836131E+04  0.29806836131E+04  0.50400001928E-02 0.  1.
       -1   -1    0    0    0  501  0.00000000000E+00  0.00000000000E+00 -0.80382245830E+03  0.80382245831E+03  0.50400001928E-02 0. -1.
    10030    2    1    2    0    0  0.00000000000E+00  0.00000000000E+00  0.21768611548E+04  0.37845060714E+04  0.30957651263E+04 0.  0.
        4    1    3    3  502    0  0.10995671429E+04  0.10313890278E+04  0.15173926438E+04  0.21389935195E+04  0.12699999809E+01 0.  1.
       -4    1    3    3    0  502 -0.10995671429E+04 -0.10313890278E+04  0.65946851101E+03  0.16455125518E+04  0.12699999809E+01 0. -1.
</event>
<event>
 5   0  0.4900679E-06  0.3132920E+04  0.7818609E-02  0.8206761E-01
        2   -1    0    0  501    0  0.00000000000E+00  0.00000000000E+00  0.25874607164E+04  0.25874607164E+04  0.25500000920E-02 0. -1.
       -2   -1    0    0    0  501  0.00000000000E+00  0.00000000000E+00 -0.94834156743E+03  0.94834156744E+03  0.25500000920E-02 0.  1.
    10030    2    1    2    0    0  0.00000000000E+00  0.00000000000E+00  0.16391191490E+04  0.35358022838E+04  0.31329197573E+04 0.  0.
        4    1    3    3  502    0 -0.80801418566E+03 -0.29709478977E+03 -0.65741182080E+03  0.10832101151E+04  0.12699999809E+01 0.  1.
       -4    1    3    3    0  502  0.80801418566E+03  0.29709478977E+03  0.22965309698E+04  0.24525921688E+04  0.12699999809E+01 0. -1.
</event>
<event>
 5   0  0.1885307E-06  0.3171844E+04  0.7818609E-02  0.8196293E-01
        1   -1    0    0  501    0  0.00000000000E+00  0.00000000000E+00  0.20127139649E+04  0.20127139649E+04  0.50400001928E-02 0. -1.
       -1   -1    0    0    0  501  0.00000000000E+00  0.00000000000E+00 -0.12496307243E+04  0.12496307244E+04  0.50400001928E-02 0.  1.
    10030    2    1    2    0    0  0.00000000000E+00  0.00000000000E+00  0.76308324052E+03  0.32623446892E+04  0.31718443908E+04 0.  0.
        3    1    3    3  502    0 -0.25851756968E+03 -0.25686714960E+03 -0.12059797584E+04  0.12598409638E+04  0.10100000352E+00 0.  1.
       -3    1    3    3    0  502  0.25851756968E+03  0.25686714960E+03  0.19690629989E+04  0.20025037254E+04  0.10100000352E+00 0. -1.
</event>
<event>
 5   0  0.5114870E-06  0.3125500E+04  0.7818609E-02  0.8208774E-01
        2   -1    0    0  501    0  0.00000000000E+00  0.00000000000E+00  0.23456572841E+04  0.23456572841E+04  0.25500000920E-02 0.  1.
       -2   -1    0    0    0  501  0.00000000000E+00  0.00000000000E+00 -0.10411524444E+04  0.10411524444E+04  0.25500000920E-02 0. -1.
    10030    2    1    2    0    0  0.00000000000E+00  0.00000000000E+00  0.13045048398E+04  0.33868097285E+04  0.31254995217E+04 0.  0.
        2    1    3    3  502    0  0.16267413309E+03  0.10237421078E+04 -0.61499956715E+03  0.12052946712E+04  0.25500000920E-02 0. -1.
       -2    1    3    3    0  502 -0.16267413309E+03 -0.10237421078E+04  0.19195044069E+04  0.21815150573E+04  0.25500000920E-02 0.  1.
</event>
<event>
 5   0  0.4927533E-06  0.3192920E+04  0.7818609E-02  0.8190690E-01
       -2   -1    0    0    0  501  0.00000000000E+00  0.00000000000E+00  0.21519084212E+04  0.21519084212E+04  0.25500000920E-02 0. -1.
        2   -1    0    0  501    0  0.00000000000E+00  0.00000000000E+00 -0.11843832400E+04  0.11843832400E+04  0.25500000920E-02 0.  1.
    10030    2    1    2    0    0  0.00000000000E+00  0.00000000000E+00  0.96752518122E+03  0.33362916611E+04  0.31929198349E+04 0.  0.
        5    1    3    3  502    0  0.34112694609E+03  0.12475024821E+04  0.14617561970E+04  0.19517641522E+04  0.46999998093E+01 0. -1.
       -5    1    3    3    0  502 -0.34112694609E+03 -0.12475024821E+04 -0.49423101581E+03  0.13845275090E+04  0.46999998093E+01 0.  1.
</event>
<event>
 5   0  0.5001658E-06  0.3119757E+04  0.7818609E-02  0.8210337E-01
       -2   -1    0    0    0  501  0.00000000000E+00  0.00000000000E+00  0.12573522137E+04  0.12573522138E+04  0.25500000920E-02 0. -1.
        2   -1    0    0  501    0  0.00000000000E+00  0.00000000000E+00 -0.19351944246E+04  0.19351944246E+04  0.25500000920E-02 0.  1.
    10030    2    1    2    0    0  0.00000000000E+00  0.00000000000E+00 -0.67784221084E+03  0.31925466383E+04  0.31197570378E+04 0.  0.
        3    1    3    3  502    0  0.66848027880E+02  0.15114216421E+04  0.49887007125E+02  0.15137214944E+04  0.10100000352E+00 0. -1.
       -3    1    3    3    0  502 -0.66848027880E+02 -0.15114216421E+04 -0.72772921796E+03  0.16788251439E+04  0.10100000352E+00 0.  1.
</event>
<event>
 5   0  0.1836401E-06  0.3052815E+04  0.7818609E-02  0.8228808E-01
        1   -1    0    0  501    0  0.00000000000E+00  0.00000000000E+00  0.19062527215E+04  0.19062527215E+04  0.50400001928E-02 0. -1.
       -1   -1    0    0    0  501  0.00000000000E+00  0.00000000000E+00 -0.12222512155E+04  0.12222512155E+04  0.50400001928E-02 0.  1.
    10030    2    1    2    0    0  0.00000000000E+00  0.00000000000E+00  0.68400150595E+03  0.31285039370E+04  0.30528149016E+04 0.  0.
        2    1    3    3  502    0 -0.43635893772E+03  0.11164371018E+04 -0.62645797702E+03  0.13525126697E+04  0.25500000920E-02 0.  1.
       -2    1    3    3    0  502  0.43635893772E+03 -0.11164371018E+04  0.13104594830E+04  0.17759912672E+04  0.25500000920E-02 0. -1.
</event>
<event>
 5   0  0.5001658E-06  0.2242603E+04  0.7818609E-02  0.8500902E-01
        2   -1    0    0  501    0  0.00000000000E+00  0.00000000000E+00  0.15197472797E+04  0.15197472797E+04  0.25500000920E-02 0.  1.
       -2   -1    0    0    0  501  0.00000000000E+00  0.00000000000E+00 -0.82732000728E+03  0.82732000728E+03  0.25500000920E-02 0. -1.
    10030    2    1    2    0    0  0.00000000000E+00  0.00000000000E+00  0.69242727241E+03  0.23470672870E+04  0.22426032467E+04 0.  0.
        3    1    3    3  502    0  0.95800255493E+01 -0.11212582882E+04  0.34864444456E+03  0.11742507759E+04  0.10100000352E+00 0.  1.
       -3    1    3    3    0  502 -0.95800255493E+01  0.11212582882E+04  0.34378282785E+03  0.11728165111E+04  0.10100000352E+00 0. -1.
</event>
<event>
 5   0  0.1853742E-06  0.3306662E+04  0.7818609E-02  0.8161202E-01
       -1   -1    0    0    0  501  0.00000000000E+00  0.00000000000E+00  0.16249548777E+04  0.16249548777E+04  0.50400001928E-02 0.  1.
        1   -1    0    0  501    0  0.00000000000E+00  0.00000000000E+00 -0.16822023412E+04  0.16822023413E+04  0.50400001928E-02 0. -1.
    10030    2    1    2    0    0  0.00000000000E+00  0.00000000000E+00 -0.57247463558E+02  0.33071572190E+04  0.33066617001E+04 0.  0.
        5    1    3    3  502    0 -0.34171488600E+03  0.71399836424E+03 -0.14803639264E+04  0.16787084834E+04  0.46999998093E+01 0. -1.
       -5    1    3    3    0  502  0.34171488600E+03 -0.71399836424E+03  0.14231164629E+04  0.16284487356E+04  0.46999998093E+01 0.  1.
</event>
<event>
 5   0  0.1885307E-06  0.3090092E+04  0.7818609E-02  0.8218462E-01
       -1   -1    0    0    0  501  0.00000000000E+00  0.00000000000E+00  0.98380833034E+03  0.98380833035E+03  0.50400001928E-02 0.  1.
        1   -1    0    0  501    0  0.00000000000E+00  0.00000000000E+00 -0.24264558351E+04  0.24264558351E+04  0.50400001928E-02 0. -1.
    10030    2    1    2    0    0  0.00000000000E+00  0.00000000000E+00 -0.14426475047E+04  0.34102641654E+04  0.30900922082E+04 0.  0.
        3    1    3    3  502    0  0.30753946481E+03 -0.51357303592E+03  0.85062859337E+03  0.10401474894E+04  0.10100000352E+00 0.  1.
       -3    1    3    3    0  502 -0.30753946481E+03  0.51357303592E+03 -0.22932760981E+04  0.23701166760E+04  0.10100000352E+00 0. -1.
</event>
<event>
 5   0  0.1840431E-06  0.2931754E+04  0.7818609E-02  0.8263492E-01
       -1   -1    0    0    0  501  0.00000000000E+00  0.00000000000E+00  0.13354670081E+04  0.13354670081E+04  0.50400001928E-02 0. -1.
        1   -1    0    0  501    0  0.00000000000E+00  0.00000000000E+00 -0.16090220178E+04  0.16090220178E+04  0.50400001928E-02 0.  1.
    10030    2    1    2    0    0  0.00000000000E+00  0.00000000000E+00 -0.27355500974E+03  0.29444890259E+04  0.29317543008E+04 0.  0.
        1    1    3    3  502    0  0.35534074926E+03  0.94135085469E+02 -0.15619788847E+04  0.16046515194E+04  0.50400001928E-02 0.  1.
       -1    1    3    3    0  502 -0.35534074926E+03 -0.94135085469E+02  0.12884238750E+04  0.13398375066E+04  0.50400001928E-02 0. -1.
</event>
<event>
 5   0  0.4900679E-06  0.3087741E+04  0.7818609E-02  0.8219110E-01
        2   -1    0    0  501    0  0.00000000000E+00  0.00000000000E+00  0.11117860466E+04  0.11117860466E+04  0.25500000920E-02 0. -1.
       -2   -1    0    0    0  501  0.00000000000E+00  0.00000000000E+00 -0.21438795461E+04  0.21438795461E+04  0.25500000920E-02 0.  1.
    10030    2    1    2    0    0  0.00000000000E+00  0.00000000000E+00 -0.10320934996E+04  0.32556655927E+04  0.30877405104E+04 0.  0.
        4    1    3    3  502    0  0.67856329110E+02  0.11549542460E+04 -0.15938989411E+04  0.19695276690E+04  0.12699999809E+01 0.  1.
       -4    1    3    3    0  502 -0.67856329110E+02 -0.11549542460E+04  0.56180544155E+03  0.12861379237E+04  0.12699999809E+01 0. -1.
</event>
<event>
 5   0  0.1843709E-06  0.3095215E+04  0.7818609E-02  0.8217052E-01
        1   -1    0    0  501    0  0.00000000000E+00  0.00000000000E+00  0.17520428108E+04  0.17520428108E+04  0.50400001928E-02 0. -1.
       -1   -1    0    0    0  501  0.00000000000E+00  0.00000000000E+00 -0.13670265042E+04  0.13670265042E+04  0.50400001928E-02 0.  1.
    10030    2    1    2    0    0  0.00000000000E+00  0.00000000000E+00  0.38501630657E+03  0.31190693150E+04  0.30952149902E+04 0.  0.
        4    1    3    3  502    0  0.21158986938E+03 -0.32906276275E+03  0.17013905018E+04  0.17457903159E+04  0.12699999809E+01 0. -1.
       -4    1    3    3    0  502 -0.21158986938E+03  0.32906276275E+03 -0.13163741952E+04  0.13732789991E+04  0.12699999809E+01 0.  1.
</event>
<event>
 5   0  0.4927533E-06  0.3109122E+04  0.7818609E-02  0.8213239E-01
       -2   -1    0    0    0  501  0.00000000000E+00  0.00000000000E+00  0.92154768592E+03  0.92154768593E+03  0.25500000920E-02 0.  1.
        2   -1    0    0  501    0  0.00000000000E+00  0.00000000000E+00 -0.26223929962E+04  0.26223929962E+04  0.25500000920E-02 0. -1.
    10030    2    1    2    0    0  0.00000000000E+00  0.00000000000E+00 -0.17008453103E+04  0.35439406822E+04  0.31091221895E+04 0.  0.
        5    1    3    3  502    0  0.59680342782E+03 -0.12770590183E+04 -0.15975123099E+04  0.21305214709E+04  0.46999998093E+01 0. -1.
       -5    1    3    3    0  502 -0.59680342782E+03  0.12770590183E+04 -0.10333300037E+03  0.14134192112E+04  0.46999998093E+01 0.  1.
</event>
<event>
 5   0  0.1853742E-06  0.2958832E+04  0.7818609E-02  0.8255585E-01
       -1   -1    0    0    0  501  0.00000000000E+00  0.00000000000E+00  0.13104370946E+04  0.13104370946E+04  0.50400001928E-02 0. -1.
        1   -1    0    0  501    0  0.00000000000E+00  0.00000000000E+00 -0.16701840102E+04  0.16701840102E+04  0.50400001928E-02 0.  1.
    10030    2    1    2    0    0  0.00000000000E+00  0.00000000000E+00 -0.35974691558E+03  0.29806211048E+04  0.29588315814E+04 0.  0.
        5    1    3    3  502    0  0.15931250248E+03 -0.62937631918E+02  0.13004061641E+04  0.13116477806E+04  0.46999998093E+01 0. -1.
       -5    1    3    3    0  502 -0.15931250248E+03  0.62937631918E+02 -0.16601530796E+04  0.16689733242E+04  0.46999998093E+01 0.  1.
</event>
<event>
 5   0  0.5114870E-06  0.3119421E+04  0.7818609E-02  0.8210428E-01
        2   -1    0    0  501    0  0.00000000000E+00  0.00000000000E+00  0.20217470633E+04  0.20217470633E+04  0.25500000920E-02 0.  1.
       -2   -1    0    0    0  501  0.00000000000E+00  0.00000000000E+00 -0.12032645844E+04  0.12032645844E+04  0.25500000920E-02 0. -1.
    10030    2    1    2    0    0  0.00000000000E+00  0.00000000000E+00  0.81848247887E+03  0.32250116477E+04  0.31194208692E+04 0.  0.
        2    1    3    3  502    0 -0.29005256577E+02 -0.88826021737E+03 -0.91588164477E+03  0.12762001042E+04  0.25500000920E-02 0. -1.
       -2    1    3    3    0  502  0.29005256577E+02  0.88826021737E+03  0.17343641236E+04  0.19488115435E+04  0.25500000920E-02 0.  1.
</event>
<event>
 5   0  0.4900679E-06  0.3137850E+04  0.7818609E-02  0.8205427E-01
       -2   -1    0    0    0  501  0.00000000000E+00  0.00000000000E+00  0.99140728906E+03  0.99140728907E+03  0.25500000920E-02 0.  1.
        2   -1    0    0  501    0  0.00000000000E+00  0.00000000000E+00 -0.24828594986E+04  0.24828594986E+04  0.25500000920E-02 0. -1.
    10030    2    1    2    0    0  0.00000000000E+00  0.00000000000E+00 -0.14914522096E+04  0.34742667877E+04  0.31378495851E+04 0.  0.
        4    1    3    3  502    0  0.57333519184E+03 -0.77331024917E+03 -0.21174197847E+04  0.23259815436E+04  0.12699999809E+01 0. -1.
       -4    1    3    3    0  502 -0.57333519184E+03  0.77331024917E+03  0.62596757516E+03  0.11482852441E+04  0.12699999809E+01 0.  1.
</event>
<event>
 5   0  0.5114870E-06  0.3106686E+04  0.7818609E-02  0.8213905E-01
        2   -1    0    0  501    0  0.00000000000E+00  0.00000000000E+00  0.18956402931E+04  0.18956402931E+04  0.25500000920E-02 0.  1.
       -2   -1    0    0    0  501  0.00000000000E+00  0.00000000000E+00 -0.12728548443E+04  0.12728548443E+04  0.25500000920E-02 0. -1.
    10030    2    1    2    0    0  0.00000000000E+00  0.00000000000E+00  0.62278544882E+03  0.31684951374E+04  0.31066862926E+04 0.  0.
        2    1    3    3  502    0  0.33365066952E+03 -0.56412396057E+03  0.17477141414E+04  0.18665645803E+04  0.25500000920E-02 0.  1.
       -2    1    3    3    0  502 -0.33365066952E+03  0.56412396057E+03 -0.11249286926E+04  0.13019305572E+04  0.25500000920E-02 0. -1.
</event>
<event>
 5   0  0.1843709E-06  0.2997801E+04  0.7818609E-02  0.8244359E-01
        1   -1    0    0  501    0  0.00000000000E+00  0.00000000000E+00  0.19139198392E+04  0.19139198392E+04  0.50400001928E-02 0. -1.
       -1   -1    0    0    0  501  0.00000000000E+00  0.00000000000E+00 -0.11738752291E+04  0.11738752291E+04  0.50400001928E-02 0.  1.
    10030    2    1    2    0    0  0.00000000000E+00  0.00000000000E+00  0.74004461005E+03  0.30877950683E+04  0.29978012541E+04 0.  0.
        4    1    3    3  502    0 -0.70572380312E+03 -0.27666500641E+03  0.17019427842E+04  0.18631157950E+04  0.12699999809E+01 0. -1.
       -4    1    3    3    0  502  0.70572380312E+03  0.27666500641E+03 -0.96189817418E+03  0.12246792733E+04  0.12699999809E+01 0.  1.
</event>
<event>
 5   0  0.4927533E-06  0.2234364E+04  0.7818609E-02  0.8504260E-01
        2   -1    0    0  501    0  0.00000000000E+00  0.00000000000E+00  0.12683720107E+04  0.12683720107E+04  0.25500000920E-02 0.  1.
       -2   -1    0    0    0  501  0.00000000000E+00  0.00000000000E+00 -0.98401411730E+03  0.98401411731E+03  0.25500000920E-02 0. -1.
    10030    2    1    2    0    0  0.00000000000E+00  0.00000000000E+00  0.28435789342E+03  0.22523861280E+04  0.22343643074E+04 0.  0.
        5    1    3    3  502    0  0.40718983248E+03 -0.85566307173E+03  0.73865326671E+03  0.12014963963E+04  0.46999998093E+01 0.  1.
       -5    1    3    3    0  502 -0.40718983248E+03  0.85566307173E+03 -0.45429537329E+03  0.10508897317E+04  0.46999998093E+01 0. -1.
</event>
<event>
 5   0  0.1836401E-06  0.3085429E+04  0.7818609E-02  0.8219748E-01
       -1   -1    0    0    0  501  0.00000000000E+00  0.00000000000E+00  0.12712434421E+04  0.12712434421E+04  0.50400001928E-02 0.  1.
        1   -1    0    0  501    0  0.00000000000E+00  0.00000000000E+00 -0.18721574955E+04  0.18721574956E+04  0.50400001928E-02 0. -1.
    10030    2    1    2    0    0  0.00000000000E+00  0.00000000000E+00 -0.60091405342E+03  0.31434009377E+04  0.30854289419E+04 0.  0.
        2    1    3    3  502    0  0.12094861181E+04  0.11590496396E+03 -0.12689376096E+04  0.17568418505E+04  0.25500000920E-02 0. -1.
       -2    1    3    3    0  502 -0.12094861181E+04 -0.11590496396E+03  0.66802355621E+03  0.13865590872E+04  0.25500000920E-02 0.  1.
</event>
<event>
 5   0  0.1840431E-06  0.3066120E+04  0.7818609E-02  0.8225098E-01
        1   -1    0    0  501    0  0.00000000000E+00  0.00000000000E+00  0.69488575403E+03  0.69488575405E+03  0.50400001928E-02 0.  1.
       -1   -1    0    0    0  501  0.00000000000E+00  0.00000000000E+00 -0.33822432652E+04  0.33822432652E+04  0.50400001928E-02 0. -1.
    10030    2    1    2    0    0  0.00000000000E+00  0.00000000000E+00 -0.26873575112E+04  0.40771290193E+04  0.30661198031E+04 0.  0.
        1    1    3    3  502    0  0.38847865485E+03 -0.94650483046E+02  0.62432933617E+03  0.74139159642E+03  0.50400001928E-02 0.  1.
       -1    1    3    3    0  502 -0.38847865485E+03  0.94650483046E+02 -0.33116868473E+04  0.33357374228E+04  0.50400001928E-02 0. -1.
</event>
<event>
 5   0  0.1853742E-06  0.2880591E+04  0.7818609E-02  0.8278676E-01
        1   -1    0    0  501    0  0.00000000000E+00  0.00000000000E+00  0.20502776696E+04  0.20502776696E+04  0.50400001928E-02 0.  1.
       -1   -1    0    0    0  501  0.00000000000E+00  0.00000000000E+00 -0.10117902680E+04  0.10117902681E+04  0.50400001928E-02 0. -1.
    10030    2    1    2    0    0  0.00000000000E+00  0.00000000000E+00  0.10384874016E+04  0.30620679377E+04  0.28805909067E+04 0.  0.
        5    1    3    3  502    0  0.13888912429E+04 -0.37752777893E+03  0.46216946962E+03  0.15116774845E+04  0.46999998093E+01 0.  1.
       -5    1    3    3    0  502 -0.13888912429E+04  0.37752777893E+03  0.57631793197E+03  0.15503904532E+04  0.46999998093E+01 0. -1.
</event>
<event>
 5   0  0.1843709E-06  0.3097063E+04  0.7818609E-02  0.8216545E-01
       -1   -1    0    0    0  501  0.00000000000E+00  0.00000000000E+00  0.13022758255E+04  0.13022758255E+04  0.50400001928E-02 0. -1.
        1   -1    0    0  501    0  0.00000000000E+00  0.00000000000E+00 -0.18413527849E+04  0.18413527849E+04  0.50400001928E-02 0.  1.
    10030    2    1    2    0    0  0.00000000000E+00  0.00000000000E+00 -0.53907695937E+03  0.31436286104E+04  0.30970626200E+04 0.  0.
        4    1    3    3  502    0 -0.12161000072E+03  0.10933628095E+04 -0.13757485789E+04  0.17615098611E+04  0.12699999809E+01 0.  1.
       -4    1    3    3    0  502  0.12161000072E+03 -0.10933628095E+04  0.83667161950E+03  0.13821187493E+04  0.12699999809E+01 0. -1.
</event>
<event>
 5   0  0.5328368E-06  0.3061388E+04  0.7818609E-02  0.8226415E-01
       -2   -1    0    0    0  501  0.00000000000E+00  0.00000000000E+00  0.13383056314E+04  0.13383056314E+04  0.25500000920E-02 0. -1.
        2   -1    0    0  501    0  0.00000000000E+00  0.00000000000E+00 -0.17507394389E+04  0.17507394389E+04  0.25500000920E-02 0.  1.
    10030    2    1    2    0    0  0.00000000000E+00  0.00000000000E+00 -0.41243380751E+03  0.30890450702E+04  0.30613882146E+04 0.  0.
        1    1    3    3  502    0 -0.43783449831E+03 -0.14625701924E+04 -0.94702272288E+02  0.15296336607E+04  0.50400001928E-02 0. -1.
       -1    1    3    3    0  502  0.43783449831E+03  0.14625701924E+04 -0.31773153522E+03  0.15594114095E+04  0.50400001928E-02 0.  1.
</event>
<event>
 5   0  0.1840431E-06  0.3173432E+04  0.7818609E-02  0.8195869E-01
       -1   -1    0    0    0  501  0.00000000000E+00  0.00000000000E+00  0.15527554723E+04  0.15527554723E+04  0.50400001928E-02 0. -1.
        1   -1    0    0  501    0  0.00000000000E+00  0.00000000000E+00 -0.16214196997E+04  0.16214196997E+04  0.50400001928E-02 0.  1.
    10030    2    1    2    0    0  0.00000000000E+00  0.00000000000E+00 -0.68664227417E+02  0.31741751720E+04  0.31734324077E+04 0.  0.
        1    1    3    3  502    0 -0.11604330485E+04  0.69609186331E+03 -0.86309080994E+03  0.16050154169E+04  0.50400001928E-02 0.  1.
       -1    1    3    3    0  502  0.11604330485E+04 -0.69609186331E+03  0.79442658252E+03  0.15691597551E+04  0.50400001928E-02 0. -1.
</event>
<event>
 5   0  0.5001658E-06  0.3110466E+04  0.7818609E-02  0.8212872E-01
       -2   -1    0    0    0  501  0.00000000000E+00  0.00000000000E+00  0.10380083026E+04  0.10380083026E+04  0.25500000920E-02 0.  1.
        2   -1    0    0  501    0  0.00000000000E+00  0.00000000000E+00 -0.23301827103E+04  0.23301827103E+04  0.25500000920E-02 0. -1.
    10030    2    1    2    0    0  0.00000000000E+00  0.00000000000E+00 -0.12921744077E+04  0.33681910129E+04  0.31104655599E+04 0.  0.
        3    1    3    3  502    0  0.91610530670E+03  0.12299744154E+04 -0.92567211112E+03  0.17913555937E+04  0.10100000352E+00 0.  1.
       -3    1    3    3    0  502 -0.91610530670E+03 -0.12299744154E+04 -0.36650229654E+03  0.15768354192E+04  0.10100000352E+00 0. -1.
</event>
<event>
 5   0  0.5328368E-06  0.3113866E+04  0.7818609E-02  0.8211943E-01
        2   -1    0    0  501    0  0.00000000000E+00  0.00000000000E+00  0.18127436811E+04  0.18127436811E+04  0.25500000920E-02 0. -1.
       -2   -1    0    0    0  501  0.00000000000E+00  0.00000000000E+00 -0.13372217532E+04  0.13372217532E+04  0.25500000920E-02 0.  1.
    10030    2    1    2    0    0  0.00000000000E+00  0.00000000000E+00  0.47552192789E+03  0.31499654342E+04  0.31138659465E+04 0.  0.
        1    1    3    3  502    0  0.36002437240E+03 -0.70430914065E+03  0.15943414511E+04  0.17797734623E+04  0.50400001928E-02 0. -1.
       -1    1    3    3    0  502 -0.36002437240E+03  0.70430914065E+03 -0.11188195232E+04  0.13701919719E+04  0.50400001928E-02 0.  1.
</event>
<event>
 5   0  0.5328368E-06  0.2924034E+04  0.7818609E-02  0.8265762E-01
       -2   -1    0    0    0  501  0.00000000000E+00  0.00000000000E+00  0.97509555510E+03  0.97509555510E+03  0.25500000920E-02 0. -1.
        2   -1    0    0  501    0  0.00000000000E+00  0.00000000000E+00 -0.21920858504E+04  0.21920858504E+04  0.25500000920E-02 0.  1.
    10030    2    1    2    0    0  0.00000000000E+00  0.00000000000E+00 -0.12169902953E+04  0.31671814055E+04  0.29240336312E+04 0.  0.
        1    1    3    3  502    0 -0.77755705473E+03  0.67007966180E+02  0.73059632640E+03  0.10690444486E+04  0.50400001928E-02 0. -1.
       -1    1    3    3    0  502  0.77755705473E+03 -0.67007966180E+02 -0.19475866217E+04  0.20981369569E+04  0.50400001928E-02 0.  1.
</event>
<event>
 5   0  0.4927533E-06  0.3083195E+04  0.7818609E-02  0.8220365E-01
        2   -1    0    0  501    0  0.00000000000E+00  0.00000000000E+00  0.24387427847E+04  0.24387427847E+04  0.25500000920E-02 0. -1.
       -2   -1    0    0    0  501  0.00000000000E+00  0.00000000000E+00 -0.97448656926E+03  0.97448656926E+03  0.25500000920E-02 0.  1.
    10030    2    1    2    0    0  0.00000000000E+00  0.00000000000E+00  0.14642562155E+04  0.34132293540E+04  0.30831945054E+04 0.  0.
        5    1    3    3  502    0  0.11920520564E+04  0.45564656847E+03 -0.22525500625E+03  0.12959027002E+04  0.46999998093E+01 0.  1.
       -5    1    3    3    0  502 -0.11920520564E+04 -0.45564656847E+03  0.16895112217E+04  0.21173266538E+04  0.46999998093E+01 0. -1.
</event>
<event>
 5   0  0.1853742E-06  0.3145769E+04  0.7818609E-02  0.8203288E-01
       -1   -1    0    0    0  501  0.00000000000E+00  0.00000000000E+00  0.12709919050E+04  0.12709919050E+04  0.50400001928E-02 0. -1.
        1   -1    0    0  501    0  0.00000000000E+00  0.00000000000E+00 -0.19464845092E+04  0.19464845092E+04  0.50400001928E-02 0.  1.
    10030    2    1    2    0    0  0.00000000000E+00  0.00000000000E+00 -0.67549260426E+03  0.32174764142E+04  0.31457692569E+04 0.  0.
        5    1    3    3  502    0  0.15527595478E+04  0.21864452556E+03 -0.21216175032E+03  0.15823723772E+04  0.46999998093E+01 0.  1.
       -5    1    3    3    0  502 -0.15527595478E+04 -0.21864452556E+03 -0.46333085394E+03  0.16351040370E+04  0.46999998093E+01 0. -1.
</event>
<event>
 5   0  0.5001658E-06  0.3094857E+04  0.7818609E-02  0.8217151E-01
        2   -1    0    0  501    0  0.00000000000E+00  0.00000000000E+00  0.20512014233E+04  0.20512014233E+04  0.25500000920E-02 0.  1.
       -2   -1    0    0    0  501  0.00000000000E+00  0.00000000000E+00 -0.11673813739E+04  0.11673813739E+04  0.25500000920E-02 0. -1.
    10030    2    1    2    0    0  0.00000000000E+00  0.00000000000E+00  0.88382004942E+03  0.32185827971E+04  0.30948565948E+04 0.  0.
        3    1    3    3  502    0  0.71739513072E+03  0.10337199084E+04  0.13786420093E+04  0.18665171905E+04  0.10100000352E+00 0.  1.
       -3    1    3    3    0  502 -0.71739513072E+03 -0.10337199084E+04 -0.49482195985E+03  0.13520656066E+04  0.10100000352E+00 0. -1.
</event>
<event>
 5   0  0.1836401E-06  0.3143967E+04  0.7818609E-02  0.8203774E-01
        1   -1    0    0  501    0  0.00000000000E+00  0.00000000000E+00  0.14228151888E+04  0.14228151888E+04  0.50400001928E-02 0. -1.
       -1   -1    0    0    0  501  0.00000000000E+00  0.00000000000E+00 -0.17367903352E+04  0.17367903352E+04  0.50400001928E-02 0.  1.
    10030    2    1    2    0    0  0.00000000000E+00  0.00000000000E+00 -0.31397514635E+03  0.31596055240E+04  0.31439667102E+04 0.  0.
        2    1    3    3  502    0 -0.86482449013E+03 -0.13126158159E+04 -0.17287728292E+03  0.15813817483E+04  0.25500000920E-02 0.  1.
       -2    1    3    3    0  502  0.86482449013E+03  0.13126158159E+04 -0.14109786343E+03  0.15782237756E+04  0.25500000920E-02 0. -1.
</event>
<event>
 5   0  0.1840431E-06  0.2747014E+04  0.7818609E-02  0.8319910E-01
       -1   -1    0    0    0  501  0.00000000000E+00  0.00000000000E+00  0.25281111105E+04  0.25281111105E+04  0.50400001928E-02 0.  1.
        1   -1    0    0  501    0  0.00000000000E+00  0.00000000000E+00 -0.74621797985E+03  0.74621797987E+03  0.50400001928E-02 0. -1.
    10030    2    1    2    0    0  0.00000000000E+00  0.00000000000E+00  0.17818931307E+04  0.32743290904E+04  0.27470143544E+04 0.  0.
        1    1    3    3  502    0 -0.75115936076E+03  0.67948744673E+03 -0.21480258917E+03  0.10354147613E+04  0.50400001928E-02 0. -1.
       -1    1    3    3    0  502  0.75115936076E+03 -0.67948744673E+03  0.19966957198E+04  0.22389143291E+04  0.50400001928E-02 0.  1.
</event>
<event>
 5   0  0.1885307E-06  0.3088056E+04  0.7818609E-02  0.8219024E-01
        1   -1    0    0  501    0  0.00000000000E+00  0.00000000000E+00  0.18041774367E+04  0.18041774367E+04  0.50400001928E-02 0.  1.
       -1   -1    0    0    0  501  0.00000000000E+00  0.00000000000E+00 -0.13213899539E+04  0.13213899539E+04  0.50400001928E-02 0. -1.
    10030    2    1    2    0    0  0.00000000000E+00  0.00000000000E+00  0.48278748280E+03  0.31255673906E+04  0.30880556601E+04 0.  0.
        3    1    3    3  502    0 -0.33585942273E+03  0.11980857815E+04 -0.68393861130E+03  0.14198532058E+04  0.10100000352E+00 0. -1.
       -3    1    3    3    0  502  0.33585942273E+03 -0.11980857815E+04  0.11667260941E+04  0.17057141849E+04  0.10100000352E+00 0.  1.
</event>
<event>
 5   0  0.1885307E-06  0.3096147E+04  0.7818609E-02  0.8216796E-01
       -1   -1    0    0    0  501  0.00000000000E+00  0.00000000000E+00  0.19352543752E+04  0.19352543752E+04  0.50400001928E-02 0.  1.
        1   -1    0    0  501    0  0.00000000000E+00  0.00000000000E+00 -0.12383549916E+04  0.12383549916E+04  0.50400001928E-02 0. -1.
    10030    2    1    2    0    0  0.00000000000E+00  0.00000000000E+00  0.69689938366E+03  0.31736093668E+04  0.30961472288E+04 0.  0.
        3    1    3    3  502    0 -0.13689495644E+04 -0.61364839338E+03  0.74003460132E+03  0.16727936161E+04  0.10100000352E+00 0.  1.
       -3    1    3    3    0  502  0.13689495644E+04  0.61364839338E+03 -0.43135217659E+02  0.15008157508E+04  0.10100000352E+00 0. -1.
</event>
<event>
 5   0  0.5114870E-06  0.2254390E+04  0.7818609E-02  0.8496125E-01
       -2   -1    0    0    0  501  0.00000000000E+00  0.00000000000E+00  0.11116362368E+04  0.11116362369E+04  0.25500000920E-02 0.  1.
        2   -1    0    0  501    0  0.00000000000E+00  0.00000000000E+00 -0.11429715996E+04  0.11429715996E+04  0.25500000920E-02 0. -1.
    10030    2    1    2    0    0  0.00000000000E+00  0.00000000000E+00 -0.31335362747E+02  0.22546078365E+04  0.22543900708E+04 0.  0.
        2    1    3    3  502    0  0.25265871095E+03  0.43792724806E+03  0.99187787075E+03  0.11133006823E+04  0.25500000920E-02 0.  1.
       -2    1    3    3    0  502 -0.25265871095E+03 -0.43792724806E+03 -0.10232132335E+04  0.11413071541E+04  0.25500000920E-02 0. -1.
</event>
<event>
 5   0  0.1853742E-06  0.3067442E+04  0.7818609E-02  0.8224730E-01
       -1   -1    0    0    0  501  0.00000000000E+00  0.00000000000E+00  0.82854515668E+03  0.82854515669E+03  0.50400001928E-02 0. -1.
        1   -1    0    0  501    0  0.00000000000E+00  0.00000000000E+00 -0.28390729900E+04  0.28390729900E+04  0.50400001928E-02 0.  1.
    10030    2    1    2    0    0  0.00000000000E+00  0.00000000000E+00 -0.20105278333E+04  0.36676181467E+04  0.30674420453E+04 0.  0.
        5    1    3    3  502    0 -0.10973540683E+04  0.83171786964E+03 -0.19756251719E+03  0.13910404754E+04  0.46999998093E+01 0. -1.
       -5    1    3    3    0  502  0.10973540683E+04 -0.83171786964E+03 -0.18129653161E+04  0.22765776713E+04  0.46999998093E+01 0.  1.
</event>
<event>
 5   0  0.4927533E-06  0.3087678E+04  0.7818609E-02  0.8219128E-01
        2   -1    0    0  501    0  0.00000000000E+00  0.00000000000E+00  0.22701879333E+04  0.22701879333E+04  0.25500000920E-02 0. -1.
       -2   -1    0    0    0  501  0.00000000000E+00  0.00000000000E+00 -0.10498861546E+04  0.10498861546E+04  0.25500000920E-02 0.  1.
    10030    2    1    2    0    0  0.00000000000E+00  0.00000000000E+00  0.12203017787E+04  0.33200740879E+04  0.30876780139E+04 0.  0.
        5    1    3    3  502    0 -0.12964246475E+04 -0.69793478754E+03  0.11089061704E+03  0.14765326455E+04  0.46999998093E+01 0.  1.
       -5    1    3    3    0  502  0.12964246475E+04  0.69793478754E+03  0.11094111617E+04  0.18435414424E+04  0.46999998093E+01 0. -1.
</event>
<event>
 5   0  0.1836401E-06  0.3092480E+04  0.7818609E-02  0.8217805E-01
        1   -1    0    0  501    0  0.00000000000E+00  0.00000000000E+00  0.14996965029E+04  0.14996965029E+04  0.50400001928E-02 0.  1.
       -1   -1    0    0    0  501  0.00000000000E+00  0.00000000000E+00 -0.15942278663E+04  0.15942278663E+04  0.50400001928E-02 0. -1.
    10030    2    1    2    0    0  0.00000000000E+00  0.00000000000E+00 -0.94531363481E+02  0.30939243692E+04  0.30924798825E+04 0.  0.
        2    1    3    3  502    0 -0.10470464382E+03 -0.89564700914E+03  0.12093908186E+04  0.15085664651E+04  0.25500000920E-02 0.  1.
       -2    1    3    3    0  502  0.10470464382E+03  0.89564700914E+03 -0.13039221821E+04  0.15853579042E+04  0.25500000920E-02 0. -1.
</event>
<event>
 5   0  0.1836401E-06  0.2951051E+04  0.7818609E-02  0.8257848E-01
        1   -1    0    0  501    0  0.00000000000E+00  0.00000000000E+00  0.17584976805E+04  0.17584976805E+04  0.50400001928E-02 0.  1.
       -1   -1    0    0    0  501  0.00000000000E+00  0.00000000000E+00 -0.12380881274E+04  0.12380881274E+04  0.50400001928E-02 0. -1.
    10030    2    1    2    0    0  0.00000000000E+00  0.00000000000E+00  0.52040955307E+03  0.29965858079E+04  0.29510507284E+04 0.  0.
        2    1    3    3  502    0 -0.82583598312E+03  0.11521951929E+04 -0.15552212187E+03  0.14260946546E+04  0.25500000920E-02 0. -1.
       -2    1    3    3    0  502  0.82583598312E+03 -0.11521951929E+04  0.67593167494E+03  0.15704911533E+04  0.25500000920E-02 0.  1.
</event>
<event>
 5   0  0.1840431E-06  0.3097829E+04  0.7818609E-02  0.8216334E-01
        1   -1    0    0  501    0  0.00000000000E+00  0.00000000000E+00  0.24570257373E+04  0.24570257373E+04  0.50400001928E-02 0.  1.
       -1   -1    0    0    0  501  0.00000000000E+00  0.00000000000E+00 -0.97643908135E+03  0.97643908137E+03  0.50400001928E-02 0. -1.
    10030    2    1    2    0    0  0.00000000000E+00  0.00000000000E+00  0.14805866560E+04  0.34334648187E+04  0.30978288874E+04 0.  0.
        1    1    3    3  502    0 -0.82457684600E+03 -0.12757649141E+04  0.40478693186E+03  0.15720545637E+04  0.50400001928E-02 0. -1.
       -1    1    3    3    0  502  0.82457684600E+03  0.12757649141E+04  0.10757997241E+04  0.18614102550E+04  0.50400001928E-02 0.  1.
</event>
<event>
 5   0  0.1836401E-06  0.3122932E+04  0.7818609E-02  0.8209472E-01
        1   -1    0    0  501    0  0.00000000000E+00  0.00000000000E+00  0.11559670372E+04  0.11559670372E+04  0.50400001928E-02 0.  1.
       -1   -1    0    0    0  501  0.00000000000E+00  0.00000000000E+00 -0.21092095265E+04  0.21092095265E+04  0.50400001928E-02 0. -1.
    10030    2    1    2    0    0  0.00000000000E+00  0.00000000000E+00 -0.95324248925E+03  0.32651765637E+04  0.31229323959E+04 0.  0.
        2    1    3    3  502    0  0.54394139447E+03 -0.64229265886E+03  0.89848922480E+03  0.12311356494E+04  0.25500000920E-02 0.  1.
       -2    1    3    3    0  502 -0.54394139447E+03  0.64229265886E+03 -0.18517317140E+04  0.20340409143E+04  0.25500000920E-02 0. -1.
</event>
<event>
 5   0  0.5328368E-06  0.3120482E+04  0.7818609E-02  0.8210139E-01
        2   -1    0    0  501    0  0.00000000000E+00  0.00000000000E+00  0.18687331173E+04  0.18687331173E+04  0.25500000920E-02 0. -1.
       -2   -1    0    0    0  501  0.00000000000E+00  0.00000000000E+00 -0.13026749356E+04  0.13026749356E+04  0.25500000920E-02 0.  1.
    10030    2    1    2    0    0  0.00000000000E+00  0.00000000000E+00  0.56605818177E+03  0.31714080529E+04  0.31204818815E+04 0.  0.
        1    1    3    3  502    0 -0.67839430059E+03 -0.13872071224E+04  0.56252221085E+02  0.15452270836E+04  0.50400001928E-02 0.  1.
       -1    1    3    3    0  502  0.67839430059E+03  0.13872071224E+04  0.50980596069E+03  0.16261809693E+04  0.50400001928E-02 0. -1.
</event>
<event>
 5   0  0.5328368E-06  0.3083749E+04  0.7818609E-02  0.8220212E-01
       -2   -1    0    0    0  501  0.00000000000E+00  0.00000000000E+00  0.15084182342E+04  0.15084182342E+04  0.25500000920E-02 0. -1.
        2   -1    0    0  501    0  0.00000000000E+00  0.00000000000E+00 -0.15760728751E+04  0.15760728751E+04  0.25500000920E-02 0.  1.
    10030    2    1    2    0    0  0.00000000000E+00  0.00000000000E+00 -0.67654640877E+02  0.30844911092E+04  0.30837490580E+04 0.  0.
        1    1    3    3  502    0  0.12645661181E+04 -0.79034307423E+03  0.35819481658E+03  0.15336470157E+04  0.50400001928E-02 0.  1.
       -1    1    3    3    0  502 -0.12645661181E+04  0.79034307423E+03 -0.42584945746E+03  0.15508440936E+04  0.50400001928E-02 0. -1.
</event>
<event>
 5   0  0.1843709E-06  0.3073520E+04  0.7818609E-02  0.8223043E-01
        1   -1    0    0  501    0  0.00000000000E+00  0.00000000000E+00  0.14923508073E+04  0.14923508073E+04  0.50400001928E-02 0.  1.
       -1   -1    0    0    0  501  0.00000000000E+00  0.00000000000E+00 -0.15824908965E+04  0.15824908965E+04  0.50400001928E-02 0. -1.
    10030    2    1    2    0    0  0.00000000000E+00  0.00000000000E+00 -0.90140089236E+02  0.30748417038E+04  0.30735201753E+04 0.  0.
        4    1    3    3  502    0  0.19301391351E+03 -0.62020108686E+03  0.13482693292E+04  0.14965746076E+04  0.12699999809E+01 0.  1.
       -4    1    3    3    0  502 -0.19301391351E+03  0.62020108686E+03 -0.14384094185E+04  0.15782670962E+04  0.12699999809E+01 0. -1.
</event>
<event>
 5   0  0.4927533E-06  0.2754197E+04  0.7818609E-02  0.8317631E-01
       -2   -1    0    0    0  501  0.00000000000E+00  0.00000000000E+00  0.10594953393E+04  0.10594953393E+04  0.25500000920E-02 0.  1.
        2   -1    0    0  501    0  0.00000000000E+00  0.00000000000E+00 -0.17899091309E+04  0.17899091309E+04  0.25500000920E-02 0. -1.
    10030    2    1    2    0    0  0.00000000000E+00  0.00000000000E+00 -0.73041379167E+03  0.28494044702E+04  0.27541970750E+04 0.  0.
        5    1    3    3  502    0 -0.47289279594E+03 -0.11265759396E+04 -0.10224446145E+04  0.15931779637E+04  0.46999998093E+01 0. -1.
       -5    1    3    3    0  502  0.47289279594E+03  0.11265759396E+04  0.29203082283E+03  0.12562265065E+04  0.46999998093E+01 0.  1.
</event>
<event>
 5   0  0.1853742E-06  0.3122557E+04  0.7818609E-02  0.8209575E-01
        1   -1    0    0  501    0  0.00000000000E+00  0.00000000000E+00  0.13676664263E+04  0.13676664263E+04  0.50400001928E-02 0.  1.
       -1   -1    0    0    0  501  0.00000000000E+00  0.00000000000E+00 -0.17822986039E+04  0.17822986039E+04  0.50400001928E-02 0. -1.
    10030    2    1    2    0    0  0.00000000000E+00  0.00000000000E+00 -0.41463217756E+03  0.31499650302E+04  0.31225566206E+04 0.  0.
        5    1    3    3  502    0 -0.45760644017E+03 -0.10863803584E+04  0.82535975979E+03  0.14390506455E+04  0.46999998093E+01 0.  1.
       -5    1    3    3    0  502  0.45760644017E+03  0.10863803584E+04 -0.12399919373E+04  0.17109143847E+04  0.46999998093E+01 0. -1.
</event>
<event>
 5   0  0.1836401E-06  0.3131995E+04  0.7818609E-02  0.8207012E-01
       -1   -1    0    0    0  501  0.00000000000E+00  0.00000000000E+00  0.90144369469E+03  0.90144369471E+03  0.50400001928E-02 0. -1.
        1   -1    0    0  501    0  0.00000000000E+00  0.00000000000E+00 -0.27204674369E+04  0.27204674369E+04  0.50400001928E-02 0.  1.
    10030    2    1    2    0    0  0.00000000000E+00  0.00000000000E+00 -0.18190237422E+04  0.36219111317E+04  0.31319950304E+04 0.  0.
        2    1    3    3  502    0 -0.14364059086E+04 -0.48865203972E+02 -0.19038924128E+03  0.14497923319E+04  0.25500000920E-02 0. -1.
       -2    1    3    3    0  502  0.14364059086E+04  0.48865203972E+02 -0.16286345010E+04  0.21721187997E+04  0.25500000920E-02 0.  1.
</event>
<event>
 5   0  0.4927533E-06  0.3036259E+04  0.7818609E-02  0.8233452E-01
       -2   -1    0    0    0  501  0.00000000000E+00  0.00000000000E+00  0.13464763032E+04  0.13464763032E+04  0.25500000920E-02 0.  1.
        2   -1    0    0  501    0  0.00000000000E+00  0.00000000000E+00 -0.17116651229E+04  0.17116651229E+04  0.25500000920E-02 0. -1.
    10030    2    1    2    0    0  0.00000000000E+00  0.00000000000E+00 -0.36518881975E+03  0.30581414261E+04  0.30362585707E+04 0.  0.
        5    1    3    3  502    0  0.58052730385E+03  0.13232778945E+04  0.28618246961E+03  0.14730915900E+04  0.46999998093E+01 0. -1.
       -5    1    3    3    0  502 -0.58052730385E+03 -0.13232778945E+04 -0.65137128936E+03  0.15850498362E+04  0.46999998093E+01 0.  1.
</event>
<event>
 5   0  0.5328368E-06  0.3086006E+04  0.7818609E-02  0.8219589E-01
       -2   -1    0    0    0  501  0.00000000000E+00  0.00000000000E+00  0.13486983162E+04  0.13486983162E+04  0.25500000920E-02 0. -1.
        2   -1    0    0  501    0  0.00000000000E+00  0.00000000000E+00 -0.17653013374E+04  0.17653013374E+04  0.25500000920E-02 0.  1.
    10030    2    1    2    0    0  0.00000000000E+00  0.00000000000E+00 -0.41660302115E+03  0.31139996536E+04  0.30860064429E+04 0.  0.
        1    1    3    3  502    0  0.11734585687E+03 -0.14207572687E+04  0.38742454601E+03  0.14773012711E+04  0.50400001928E-02 0. -1.
       -1    1    3    3    0  502 -0.11734585687E+03  0.14207572687E+04 -0.80402756716E+03  0.16366983826E+04  0.50400001928E-02 0.  1.
</event>
<event>
 5   0  0.1843709E-06  0.3113262E+04  0.7818609E-02  0.8212108E-01
       -1   -1    0    0    0  501  0.00000000000E+00  0.00000000000E+00  0.18188647779E+04  0.18188647779E+04  0.50400001928E-02 0.  1.
        1   -1    0    0  501    0  0.00000000000E+00  0.00000000000E+00 -0.13322048072E+04  0.13322048072E+04  0.50400001928E-02 0. -1.
    10030    2    1    2    0    0  0.00000000000E+00  0.00000000000E+00  0.48665997070E+03  0.31510695851E+04  0.31132622124E+04 0.  0.
        4    1    3    3  502    0  0.62508681235E+03 -0.25871989530E+03 -0.11756327961E+04  0.13563862250E+04  0.12699999809E+01 0. -1.
       -4    1    3    3    0  502 -0.62508681235E+03  0.25871989530E+03  0.16622927668E+04  0.17946833600E+04  0.12699999809E+01 0.  1.
</event>
<event>
 5   0  0.1649875E-06  0.3056322E+04  0.7818609E-02  0.8227828E-01
       -3   -1    0    0    0  501  0.00000000000E+00  0.00000000000E+00  0.16815234493E+04  0.16815234524E+04  0.10100000352E+00 0.  1.
        3   -1    0    0  501    0  0.00000000000E+00  0.00000000000E+00 -0.13887862643E+04  0.13887862680E+04  0.10100000352E+00 0. -1.
    10030    2    1    2    0    0  0.00000000000E+00  0.00000000000E+00  0.29273718501E+03  0.30703097203E+04  0.30563224174E+04 0.  0.
        1    1    3    3  502    0  0.13815298375E+04 -0.14317982517E+03 -0.49384820566E+03  0.14741137013E+04  0.50400001928E-02 0.  1.
       -1    1    3    3    0  502 -0.13815298375E+04  0.14317982517E+03  0.78658539067E+03  0.15961960190E+04  0.50400001928E-02 0. -1.
</event>
<event>
 5   0  0.1853742E-06  0.3013078E+04  0.7818609E-02  0.8240006E-01
        1   -1    0    0  501    0  0.00000000000E+00  0.00000000000E+00  0.89167041592E+03  0.89167041593E+03  0.50400001928E-02 0. -1.
       -1   -1    0    0    0  501  0.00000000000E+00  0.00000000000E+00 -0.25454021344E+04  0.25454021344E+04  0.50400001928E-02 0.  1.
    10030    2    1    2    0    0  0.00000000000E+00  0.00000000000E+00 -0.16537317185E+04  0.34370725503E+04  0.30130780142E+04 0.  0.
        5    1    3    3  502    0 -0.11207090453E+03  0.45483335590E+03  0.80647529819E+03  0.93266165670E+03  0.46999998093E+01 0. -1.
       -5    1    3    3    0  502  0.11207090453E+03 -0.45483335590E+03 -0.24602070167E+04  0.25044108936E+04  0.46999998093E+01 0.  1.
</event>
<event>
 5   0  0.1885307E-06  0.3121375E+04  0.7818609E-02  0.8209896E-01
       -1   -1    0    0    0  501  0.00000000000E+00  0.00000000000E+00  0.10044310165E+04  0.10044310165E+04  0.50400001928E-02 0.  1.
        1   -1    0    0  501    0  0.00000000000E+00  0.00000000000E+00 -0.24250003652E+04  0.24250003652E+04  0.50400001928E-02 0. -1.
    10030    2    1    2    0    0  0.00000000000E+00  0.00000000000E+00 -0.14205693486E+04  0.34294313817E+04  0.31213750700E+04 0.  0.
        3    1    3    3  502    0  0.35726146559E+03 -0.13093214880E+03  0.95268962747E+03  0.10258637916E+04  0.10100000352E+00 0.  1.
       -3    1    3    3    0  502 -0.35726146559E+03  0.13093214880E+03 -0.23732589761E+04  0.24035675901E+04  0.10100000352E+00 0. -1.
</event>
<event>
 5   0  0.1853742E-06  0.3108840E+04  0.7818609E-02  0.8213316E-01
        1   -1    0    0  501    0  0.00000000000E+00  0.00000000000E+00  0.28045930555E+04  0.28045930555E+04  0.50400001928E-02 0. -1.
       -1   -1    0    0    0  501  0.00000000000E+00  0.00000000000E+00 -0.86152301379E+03  0.86152301381E+03  0.50400001928E-02 0.  1.
    10030    2    1    2    0    0  0.00000000000E+00  0.00000000000E+00  0.19430700417E+04  0.36661160693E+04  0.31088399519E+04 0.  0.
        5    1    3    3  502    0  0.93541579554E+03  0.12328519792E+04  0.11435311727E+04  0.19242173334E+04  0.46999998093E+01 0.  1.
       -5    1    3    3    0  502 -0.93541579554E+03 -0.12328519792E+04  0.79953886905E+03  0.17418987359E+04  0.46999998093E+01 0. -1.
</event>
<event>
 5   0  0.1843709E-06  0.3042913E+04  0.7818609E-02  0.8231582E-01
        1   -1    0    0  501    0  0.00000000000E+00  0.00000000000E+00  0.18656058144E+04  0.18656058144E+04  0.50400001928E-02 0.  1.
       -1   -1    0    0    0  501  0.00000000000E+00  0.00000000000E+00 -0.12407928770E+04  0.12407928770E+04  0.50400001928E-02 0. -1.
    10030    2    1    2    0    0  0.00000000000E+00  0.00000000000E+00  0.62481293737E+03  0.31063986914E+04  0.30429133447E+04 0.  0.
        4    1    3    3  502    0  0.55600174022E+03 -0.46554427665E+03  0.16778314683E+04  0.18278373718E+04  0.12699999809E+01 0.  1.
       -4    1    3    3    0  502 -0.55600174022E+03  0.46554427665E+03 -0.10530185309E+04  0.12785613196E+04  0.12699999809E+01 0. -1.
</event>
<event>
 5   0  0.1853742E-06  0.3131257E+04  0.7818609E-02  0.8207212E-01
       -1   -1    0    0    0  501  0.00000000000E+00  0.00000000000E+00  0.17117012906E+04  0.17117012906E+04  0.50400001928E-02 0. -1.
        1   -1    0    0  501    0  0.00000000000E+00  0.00000000000E+00 -0.14320211627E+04  0.14320211627E+04  0.50400001928E-02 0.  1.
    10030    2    1    2    0    0  0.00000000000E+00  0.00000000000E+00  0.27968012795E+03  0.31437224533E+04  0.31312569184E+04 0.  0.
        5    1    3    3  502    0  0.79804572497E+03 -0.62462484198E+03  0.13379630800E+04  0.16784518062E+04  0.46999998093E+01 0. -1.
       -5    1    3    3    0  502 -0.79804572497E+03  0.62462484198E+03 -0.10582829521E+04  0.14652706470E+04  0.46999998093E+01 0.  1.
</event>
<event>
 5   0  0.4900679E-06  0.3113328E+04  0.7818609E-02  0.8212090E-01
       -2   -1    0    0    0  501  0.00000000000E+00  0.00000000000E+00  0.11923374603E+04  0.11923374603E+04  0.25500000920E-02 0.  1.
        2   -1    0    0  501    0  0.00000000000E+00  0.00000000000E+00 -0.20323125617E+04  0.20323125617E+04  0.25500000920E-02 0. -1.
    10030    2    1    2    0    0  0.00000000000E+00  0.00000000000E+00 -0.83997510141E+03  0.32246500220E+04  0.31133277362E+04 0.  0.
        4    1    3    3  502    0  0.15468403747E+04 -0.16488784969E+03 -0.36050915970E+03  0.15968317428E+04  0.12699999809E+01 0.  1.
       -4    1    3    3    0  502 -0.15468403747E+04  0.16488784969E+03 -0.47946594171E+03  0.16278182791E+04  0.12699999809E+01 0. -1.
</event>
<event>
 5   0  0.1853742E-06  0.3031604E+04  0.7818609E-02  0.8234763E-01
        1   -1    0    0  501    0  0.00000000000E+00  0.00000000000E+00  0.13742540719E+04  0.13742540719E+04  0.50400001928E-02 0. -1.
       -1   -1    0    0    0  501  0.00000000000E+00  0.00000000000E+00 -0.16719294167E+04  0.16719294167E+04  0.50400001928E-02 0.  1.
    10030    2    1    2    0    0  0.00000000000E+00  0.00000000000E+00 -0.29767534483E+03  0.30461834886E+04  0.30316040697E+04 0.  0.
        5    1    3    3  502    0 -0.76913919857E+03  0.52122843120E+03 -0.13522532210E+04  0.16406904181E+04  0.46999998093E+01 0.  1.
       -5    1    3    3    0  502  0.76913919857E+03 -0.52122843120E+03  0.10545778762E+04  0.14054930705E+04  0.46999998093E+01 0. -1.
</event>
<event>
 5   0  0.5001658E-06  0.3092437E+04  0.7818609E-02  0.8217817E-01
        2   -1    0    0  501    0  0.00000000000E+00  0.00000000000E+00  0.24215548101E+04  0.24215548101E+04  0.25500000920E-02 0.  1.
       -2   -1    0    0    0  501  0.00000000000E+00  0.00000000000E+00 -0.98729618735E+03  0.98729618735E+03  0.25500000920E-02 0. -1.
    10030    2    1    2    0    0  0.00000000000E+00  0.00000000000E+00  0.14342586227E+04  0.34088509974E+04  0.30924371175E+04 0.  0.
        3    1    3    3  502    0 -0.21869263474E+03  0.14078256148E+04  0.13794314617E+04  0.19830861297E+04  0.10100000352E+00 0.  1.
       -3    1    3    3    0  502  0.21869263474E+03 -0.14078256148E+04  0.54827160992E+02  0.14257648677E+04  0.10100000352E+00 0. -1.
</event>
<event>
 5   0  0.5001658E-06  0.3056796E+04  0.7818609E-02  0.8227696E-01
       -2   -1    0    0    0  501  0.00000000000E+00  0.00000000000E+00  0.76474676566E+03  0.76474676566E+03  0.25500000920E-02 0.  1.
        2   -1    0    0  501    0  0.00000000000E+00  0.00000000000E+00 -0.30546063624E+04  0.30546063624E+04  0.25500000920E-02 0. -1.
    10030    2    1    2    0    0  0.00000000000E+00  0.00000000000E+00 -0.22898595968E+04  0.38193531281E+04  0.30567959278E+04 0.  0.
        3    1    3    3  502    0  0.25132556654E+03  0.13840785617E+04 -0.18916470513E+04  0.23573643296E+04  0.10100000352E+00 0. -1.
       -3    1    3    3    0  502 -0.25132556654E+03 -0.13840785617E+04 -0.39821254546E+03  0.14619887985E+04  0.10100000352E+00 0.  1.
</event>
<event>
 5   0  0.1836401E-06  0.2503654E+04  0.7818609E-02  0.8401685E-01
        1   -1    0    0  501    0  0.00000000000E+00  0.00000000000E+00  0.19258780361E+04  0.19258780361E+04  0.50400001928E-02 0. -1.
       -1   -1    0    0    0  501  0.00000000000E+00  0.00000000000E+00 -0.81369149355E+03  0.81369149356E+03  0.50400001928E-02 0.  1.
    10030    2    1    2    0    0  0.00000000000E+00  0.00000000000E+00  0.11121865425E+04  0.27395695296E+04  0.25036537904E+04 0.  0.
        2    1    3    3  502    0  0.62487482232E+03 -0.34632184320E+03 -0.56870942184E+03  0.91314717825E+03  0.25500000920E-02 0.  1.
       -2    1    3    3    0  502 -0.62487482232E+03  0.34632184320E+03  0.16808959644E+04  0.18264223514E+04  0.25500000920E-02 0. -1.
</event>
<event>
 5   0  0.4927533E-06  0.3103874E+04  0.7818609E-02  0.8214676E-01
        2   -1    0    0  501    0  0.00000000000E+00  0.00000000000E+00  0.17874588064E+04  0.17874588064E+04  0.25500000920E-02 0.  1.
       -2   -1    0    0    0  501  0.00000000000E+00  0.00000000000E+00 -0.13474481615E+04  0.13474481615E+04  0.25500000920E-02 0. -1.
    10030    2    1    2    0    0  0.00000000000E+00  0.00000000000E+00  0.44001064493E+03  0.31349069679E+04  0.31038737619E+04 0.  0.
        5    1    3    3  502    0 -0.23707855505E+03 -0.22678794490E+03  0.17520254661E+04  0.17824854381E+04  0.46999998093E+01 0.  1.
       -5    1    3    3    0  502  0.23707855505E+03  0.22678794490E+03 -0.13120148212E+04  0.13524215298E+04  0.46999998093E+01 0. -1.
</event>
<event>
 5   0  0.1853742E-06  0.3129292E+04  0.7818609E-02  0.8207745E-01
        1   -1    0    0  501    0  0.00000000000E+00  0.00000000000E+00  0.16687539626E+04  0.16687539626E+04  0.50400001928E-02 0.  1.
       -1   -1    0    0    0  501  0.00000000000E+00  0.00000000000E+00 -0.14670331472E+04  0.14670331472E+04  0.50400001928E-02 0. -1.
    10030    2    1    2    0    0  0.00000000000E+00  0.00000000000E+00  0.20172081536E+03  0.31357871098E+04  0.31292921741E+04 0.  0.
        5    1    3    3  502    0  0.71976422811E+03 -0.12589730372E+04 -0.48774415079E+03  0.15300294438E+04  0.46999998093E+01 0. -1.
       -5    1    3    3    0  502 -0.71976422811E+03  0.12589730372E+04  0.68946496615E+03  0.16057576660E+04  0.46999998093E+01 0.  1.
</event>
<event>
 5   0  0.1836401E-06  0.3100809E+04  0.7818609E-02  0.8215516E-01
        1   -1    0    0  501    0  0.00000000000E+00  0.00000000000E+00  0.21176321334E+04  0.21176321334E+04  0.50400001928E-02 0.  1.
       -1   -1    0    0    0  501  0.00000000000E+00  0.00000000000E+00 -0.11351139468E+04  0.11351139468E+04  0.50400001928E-02 0. -1.
    10030    2    1    2    0    0  0.00000000000E+00  0.00000000000E+00  0.98251818659E+03  0.32527460801E+04  0.31008087775E+04 0.  0.
        2    1    3    3  502    0 -0.34142688802E+03  0.75330846028E+03 -0.88437366600E+03  0.12108520708E+04  0.25500000920E-02 0. -1.
       -2    1    3    3    0  502  0.34142688802E+03 -0.75330846028E+03  0.18668918526E+04  0.20418940094E+04  0.25500000920E-02 0.  1.
</event>
<event>
 5   0  0.4927533E-06  0.2819214E+04  0.7818609E-02  0.8297328E-01
        2   -1    0    0  501    0  0.00000000000E+00  0.00000000000E+00  0.17405505933E+04  0.17405505933E+04  0.25500000920E-02 0. -1.
       -2   -1    0    0    0  501  0.00000000000E+00  0.00000000000E+00 -0.11415882566E+04  0.11415882566E+04  0.25500000920E-02 0.  1.
    10030    2    1    2    0    0  0.00000000000E+00  0.00000000000E+00  0.59896233673E+03  0.28821388499E+04  0.28192141581E+04 0.  0.
        5    1    3    3  502    0 -0.31471209707E+03  0.12849740876E+04 -0.19796748428E+03  0.13376902947E+04  0.46999998093E+01 0.  1.
       -5    1    3    3    0  502  0.31471209707E+03 -0.12849740876E+04  0.79692982101E+03  0.15444485551E+04  0.46999998093E+01 0. -1.
</event>
<event>
 5   0  0.5328368E-06  0.3052299E+04  0.7818609E-02  0.8228952E-01
       -2   -1    0    0    0  501  0.00000000000E+00  0.00000000000E+00  0.12541502250E+04  0.12541502250E+04  0.25500000920E-02 0.  1.
        2   -1    0    0  501    0  0.00000000000E+00  0.00000000000E+00 -0.18571400418E+04  0.18571400418E+04  0.25500000920E-02 0. -1.
    10030    2    1    2    0    0  0.00000000000E+00  0.00000000000E+00 -0.60298981684E+03  0.31112902669E+04  0.30522991999E+04 0.  0.
        1    1    3    3  502    0  0.10756598798E+04  0.37615891885E+03 -0.13362962878E+04  0.17561968791E+04  0.50400001928E-02 0. -1.
       -1    1    3    3    0  502 -0.10756598798E+04 -0.37615891885E+03  0.73330647094E+03  0.13550933878E+04  0.50400001928E-02 0.  1.
</event>
<event>
 5   0  0.1836401E-06  0.2413117E+04  0.7818609E-02  0.8434609E-01
        1   -1    0    0  501    0  0.00000000000E+00  0.00000000000E+00  0.13571202386E+04  0.13571202386E+04  0.50400001928E-02 0.  1.
       -1   -1    0    0    0  501  0.00000000000E+00  0.00000000000E+00 -0.10727000425E+04  0.10727000425E+04  0.50400001928E-02 0. -1.
    10030    2    1    2    0    0  0.00000000000E+00  0.00000000000E+00  0.28442019611E+03  0.24298202812E+04  0.24131166053E+04 0.  0.
        2    1    3    3  502    0  0.11202561413E+04  0.41279938206E+03 -0.33369463223E+02  0.11943578497E+04  0.25500000920E-02 0. -1.
       -2    1    3    3    0  502 -0.11202561413E+04 -0.41279938206E+03  0.31778965934E+03  0.12354624315E+04  0.25500000920E-02 0.  1.
</event>
<event>
 5   0  0.5328368E-06  0.3073439E+04  0.7818609E-02  0.8223065E-01
       -2   -1    0    0    0  501  0.00000000000E+00  0.00000000000E+00  0.12390007627E+04  0.12390007627E+04  0.25500000920E-02 0.  1.
        2   -1    0    0  501    0  0.00000000000E+00  0.00000000000E+00 -0.19059769751E+04  0.19059769751E+04  0.25500000920E-02 0. -1.
    10030    2    1    2    0    0  0.00000000000E+00  0.00000000000E+00 -0.66697621243E+03  0.31449777378E+04  0.30734390678E+04 0.  0.
        1    1    3    3  502    0 -0.33724136178E+03 -0.56750868316E+03  0.10865117737E+04  0.12713401103E+04  0.50400001928E-02 0.  1.
       -1    1    3    3    0  502  0.33724136178E+03  0.56750868316E+03 -0.17534879862E+04  0.18736376275E+04  0.50400001928E-02 0. -1.
</event>
<event>
 5   0  0.1843709E-06  0.3147993E+04  0.7818609E-02  0.8202689E-01
       -1   -1    0    0    0  501  0.00000000000E+00  0.00000000000E+00  0.16721580736E+04  0.16721580736E+04  0.50400001928E-02 0.  1.
        1   -1    0    0  501    0  0.00000000000E+00  0.00000000000E+00 -0.14815972045E+04  0.14815972045E+04  0.50400001928E-02 0. -1.
    10030    2    1    2    0    0  0.00000000000E+00  0.00000000000E+00  0.19056086916E+03  0.31537552781E+04  0.31479928382E+04 0.  0.
        4    1    3    3  502    0  0.15092920927E+04  0.11357156231E+03 -0.33748482883E+03  0.15507284558E+04  0.12699999809E+01 0.  1.
       -4    1    3    3    0  502 -0.15092920927E+04 -0.11357156231E+03  0.52804569799E+03  0.16030268223E+04  0.12699999809E+01 0. -1.
</event>
<event>
 5   0  0.5001658E-06  0.3111417E+04  0.7818609E-02  0.8212612E-01
       -2   -1    0    0    0  501  0.00000000000E+00  0.00000000000E+00  0.13020240881E+04  0.13020240881E+04  0.25500000920E-02 0. -1.
        2   -1    0    0  501    0  0.00000000000E+00  0.00000000000E+00 -0.18588205787E+04  0.18588205787E+04  0.25500000920E-02 0.  1.
    10030    2    1    2    0    0  0.00000000000E+00  0.00000000000E+00 -0.55679649057E+03  0.31608446668E+04  0.31114171491E+04 0.  0.
        3    1    3    3  502    0 -0.15454839984E+03 -0.14318898264E+04  0.31919437453E+03  0.14751538028E+04  0.10100000352E+00 0. -1.
       -3    1    3    3    0  502  0.15454839984E+03  0.14318898264E+04 -0.87599086510E+03  0.16856908640E+04  0.10100000352E+00 0.  1.
</event>
<event>
 5   0  0.1843709E-06  0.3078317E+04  0.7818609E-02  0.8221714E-01
        1   -1    0    0  501    0  0.00000000000E+00  0.00000000000E+00  0.14548721639E+04  0.14548721639E+04  0.50400001928E-02 0. -1.
       -1   -1    0    0    0  501  0.00000000000E+00  0.00000000000E+00 -0.16283276699E+04  0.16283276700E+04  0.50400001928E-02 0.  1.
    10030    2    1    2    0    0  0.00000000000E+00  0.00000000000E+00 -0.17345550606E+03  0.30831998338E+04  0.30783168133E+04 0.  0.
        4    1    3    3  502    0  0.43551485821E+03  0.14555307056E+04  0.16016714362E+03  0.15277100358E+04  0.12699999809E+01 0. -1.
       -4    1    3    3    0  502 -0.43551485821E+03 -0.14555307056E+04 -0.33362264968E+03  0.15554897981E+04  0.12699999809E+01 0.  1.
</event>
<event>
 5   0  0.5001658E-06  0.3121576E+04  0.7818609E-02  0.8209841E-01
        2   -1    0    0  501    0  0.00000000000E+00  0.00000000000E+00  0.26667806791E+04  0.26667806791E+04  0.25500000920E-02 0.  1.
       -2   -1    0    0    0  501  0.00000000000E+00  0.00000000000E+00 -0.91348327025E+03  0.91348327025E+03  0.25500000920E-02 0. -1.
    10030    2    1    2    0    0  0.00000000000E+00  0.00000000000E+00  0.17532974088E+04  0.35802639493E+04  0.31215762273E+04 0.  0.
        3    1    3    3  502    0 -0.15342118064E+04 -0.22379999401E+03  0.67094227050E+03  0.16893951121E+04  0.10100000352E+00 0. -1.
       -3    1    3    3    0  502  0.15342118064E+04  0.22379999401E+03  0.10823551383E+04  0.18908688373E+04  0.10100000352E+00 0.  1.
</event>
<event>
 5   0  0.4900679E-06  0.3122976E+04  0.7818609E-02  0.8209461E-01
       -2   -1    0    0    0  501  0.00000000000E+00  0.00000000000E+00  0.15427695729E+04  0.15427695729E+04  0.25500000920E-02 0.  1.
        2   -1    0    0  501    0  0.00000000000E+00  0.00000000000E+00 -0.15804332568E+04  0.15804332568E+04  0.25500000920E-02 0. -1.
    10030    2    1    2    0    0  0.00000000000E+00  0.00000000000E+00 -0.37663683880E+02  0.31232028297E+04  0.31229757223E+04 0.  0.
        4    1    3    3  502    0  0.12860574775E+04  0.58204784068E+02 -0.90258784762E+03  0.15722589061E+04  0.12699999809E+01 0. -1.
       -4    1    3    3    0  502 -0.12860574775E+04 -0.58204784068E+02  0.86492416374E+03  0.15509439236E+04  0.12699999809E+01 0.  1.
</event>
<event>
 5   0  0.5114870E-06  0.3152780E+04  0.7818609E-02  0.8201400E-01
        2   -1    0    0  501    0  0.00000000000E+00  0.00000000000E+00  0.15614204031E+04  0.15614204031E+04  0.25500000920E-02 0.  1.
       -2   -1    0    0    0  501  0.00000000000E+00  0.00000000000E+00 -0.15915030868E+04  0.15915030868E+04  0.25500000920E-02 0. -1.
    10030    2    1    2    0    0  0.00000000000E+00  0.00000000000E+00 -0.30082683755E+02  0.31529234899E+04  0.31527799741E+04 0.  0.
        2    1    3    3  502    0  0.14338276570E+04  0.50978828785E+03  0.39638903207E+03  0.15725362041E+04  0.25500000920E-02 0.  1.
       -2    1    3    3    0  502 -0.14338276570E+04 -0.50978828785E+03 -0.42647171583E+03  0.15803872857E+04  0.25500000920E-02 0. -1.
</event>
<event>
 5   0  0.5114870E-06  0.3150276E+04  0.7818609E-02  0.8202074E-01
        2   -1    0    0  501    0  0.00000000000E+00  0.00000000000E+00  0.17467704366E+04  0.17467704366E+04  0.25500000920E-02 0.  1.
       -2   -1    0    0    0  501  0.00000000000E+00  0.00000000000E+00 -0.14203692126E+04  0.14203692126E+04  0.25500000920E-02 0. -1.
    10030    2    1    2    0    0  0.00000000000E+00  0.00000000000E+00  0.32640122398E+03  0.31671396492E+04  0.31502755115E+04 0.  0.
        2    1    3    3  502    0 -0.54325007499E+03  0.83585971173E+03 -0.10628674644E+04  0.14572128700E+04  0.25500000920E-02 0. -1.
       -2    1    3    3    0  502  0.54325007499E+03 -0.83585971173E+03  0.13892686883E+04  0.17099267792E+04  0.25500000920E-02 0.  1.
</event>
<event>
 5   0  0.1843709E-06  0.3134169E+04  0.7818609E-02  0.8206423E-01
        1   -1    0    0  501    0  0.00000000000E+00  0.00000000000E+00  0.75988276772E+03  0.75988276773E+03  0.50400001928E-02 0.  1.
       -1   -1    0    0    0  501  0.00000000000E+00  0.00000000000E+00 -0.32317537776E+04  0.32317537776E+04  0.50400001928E-02 0. -1.
    10030    2    1    2    0    0  0.00000000000E+00  0.00000000000E+00 -0.24718710098E+04  0.39916365453E+04  0.31341691117E+04 0.  0.
        4    1    3    3  502    0 -0.90796676677E+03 -0.20388853135E+02 -0.28624076466E+04  0.30030315522E+04  0.12699999809E+01 0. -1.
       -4    1    3    3    0  502  0.90796676677E+03  0.20388853135E+02  0.39053663678E+03  0.98860499314E+03  0.12699999809E+01 0.  1.
</event>
<event>
 5   0  0.5114870E-06  0.3070107E+04  0.7818609E-02  0.8223990E-01
        2   -1    0    0  501    0  0.00000000000E+00  0.00000000000E+00  0.16039730461E+04  0.16039730461E+04  0.25500000920E-02 0.  1.
       -2   -1    0    0    0  501  0.00000000000E+00  0.00000000000E+00 -0.14690949957E+04  0.14690949957E+04  0.25500000920E-02 0. -1.
    10030    2    1    2    0    0  0.00000000000E+00  0.00000000000E+00  0.13487805039E+03  0.30730680418E+04  0.30701066921E+04 0.  0.
        2    1    3    3  502    0 -0.61899273809E+03  0.14025798383E+04  0.14501579882E+03  0.15399388931E+04  0.25500000920E-02 0.  1.
       -2    1    3    3    0  502  0.61899273809E+03 -0.14025798383E+04 -0.10137748424E+02  0.15331291487E+04  0.25500000920E-02 0. -1.
</event>
<event>
 5   0  0.4927533E-06  0.2748327E+04  0.7818609E-02  0.8319493E-01
       -2   -1    0    0    0  501  0.00000000000E+00  0.00000000000E+00  0.64156953918E+03  0.64156953919E+03  0.25500000920E-02 0. -1.
        2   -1    0    0  501    0  0.00000000000E+00  0.00000000000E+00 -0.29432892957E+04  0.29432892957E+04  0.25500000920E-02 0.  1.
    10030    2    1    2    0    0  0.00000000000E+00  0.00000000000E+00 -0.23017197565E+04  0.35848588349E+04  0.27483265869E+04 0.  0.
        5    1    3    3  502    0 -0.11234423647E+04  0.60790780166E+03 -0.49008159645E+03  0.13681654517E+04  0.46999998093E+01 0. -1.
       -5    1    3    3    0  502  0.11234423647E+04 -0.60790780166E+03 -0.18116381601E+04  0.22166933832E+04  0.46999998093E+01 0.  1.
</event>
<event>
 5   0  0.4927533E-06  0.3114850E+04  0.7818609E-02  0.8211674E-01
        2   -1    0    0  501    0  0.00000000000E+00  0.00000000000E+00  0.15463907781E+04  0.15463907781E+04  0.25500000920E-02 0. -1.
       -2   -1    0    0    0  501  0.00000000000E+00  0.00000000000E+00 -0.15685378077E+04  0.15685378077E+04  0.25500000920E-02 0.  1.
    10030    2    1    2    0    0  0.00000000000E+00  0.00000000000E+00 -0.22147029622E+02  0.31149285859E+04  0.31148498526E+04 0.  0.
        5    1    3    3  502    0  0.11742998704E+04 -0.10223940280E+04 -0.46859567093E+02  0.15577187305E+04  0.46999998093E+01 0.  1.
       -5    1    3    3    0  502 -0.11742998704E+04  0.10223940280E+04  0.24712537470E+02  0.15572098554E+04  0.46999998093E+01 0. -1.
</event>
<event>
 5   0  0.5001658E-06  0.3090476E+04  0.7818609E-02  0.8218357E-01
       -2   -1    0    0    0  501  0.00000000000E+00  0.00000000000E+00  0.15119632108E+04  0.15119632108E+04  0.25500000920E-02 0.  1.
        2   -1    0    0  501    0  0.00000000000E+00  0.00000000000E+00 -0.15792446233E+04  0.15792446233E+04  0.25500000920E-02 0. -1.
    10030    2    1    2    0    0  0.00000000000E+00  0.00000000000E+00 -0.67281412439E+02  0.30912078341E+04  0.30904755435E+04 0.  0.
        3    1    3    3  502    0  0.30223521708E+03  0.15139585954E+04 -0.99557809636E+02  0.15470386300E+04  0.10100000352E+00 0. -1.
       -3    1    3    3    0  502 -0.30223521708E+03 -0.15139585954E+04  0.32276397197E+02  0.15441692041E+04  0.10100000352E+00 0.  1.
</event>
<event>
 5   0  0.1853742E-06  0.3121822E+04  0.7818609E-02  0.8209774E-01
        1   -1    0    0  501    0  0.00000000000E+00  0.00000000000E+00  0.22079168435E+04  0.22079168435E+04  0.50400001928E-02 0. -1.
       -1   -1    0    0    0  501  0.00000000000E+00  0.00000000000E+00 -0.11035030616E+04  0.11035030616E+04  0.50400001928E-02 0.  1.
    10030    2    1    2    0    0  0.00000000000E+00  0.00000000000E+00  0.11044137820E+04  0.33114199051E+04  0.31218219017E+04 0.  0.
        5    1    3    3  502    0  0.86038549906E+02  0.14432951020E+04 -0.71660682566E+02  0.14476397090E+04  0.46999998093E+01 0.  1.
       -5    1    3    3    0  502 -0.86038549906E+02 -0.14432951020E+04  0.11760744645E+04  0.18637801962E+04  0.46999998093E+01 0. -1.
</event>
<event>
 5   0  0.1840431E-06  0.3165767E+04  0.7818609E-02  0.8197917E-01
        1   -1    0    0  501    0  0.00000000000E+00  0.00000000000E+00  0.21934723999E+04  0.21934723999E+04  0.50400001928E-02 0. -1.
       -1   -1    0    0    0  501  0.00000000000E+00  0.00000000000E+00 -0.11422616959E+04  0.11422616959E+04  0.50400001928E-02 0.  1.
    10030    2    1    2    0    0  0.00000000000E+00  0.00000000000E+00  0.10512107040E+04  0.33357340958E+04  0.31657665760E+04 0.  0.
        1    1    3    3  502    0 -0.12983340881E+04  0.81499520890E+03  0.94128662660E+03  0.17988632823E+04  0.50400001928E-02 0. -1.
       -1    1    3    3    0  502  0.12983340881E+04 -0.81499520890E+03  0.10992407737E+03  0.15368708136E+04  0.50400001928E-02 0.  1.
</event>
<event>
 5   0  0.5001658E-06  0.3089870E+04  0.7818609E-02  0.8218524E-01
        2   -1    0    0  501    0  0.00000000000E+00  0.00000000000E+00  0.18441014023E+04  0.18441014023E+04  0.25500000920E-02 0.  1.
       -2   -1    0    0    0  501  0.00000000000E+00  0.00000000000E+00 -0.12943017978E+04  0.12943017978E+04  0.25500000920E-02 0. -1.
    10030    2    1    2    0    0  0.00000000000E+00  0.00000000000E+00  0.54979960450E+03  0.31384032001E+04  0.30898697451E+04 0.  0.
        3    1    3    3  502    0  0.13369163590E+04  0.66145896760E+03 -0.13385194600E+03  0.14975946282E+04  0.10100000352E+00 0. -1.
       -3    1    3    3    0  502 -0.13369163590E+04 -0.66145896760E+03  0.68365155050E+03  0.16408085719E+04  0.10100000352E+00 0.  1.
</event>
<event>
 5   0  0.1836401E-06  0.3164811E+04  0.7818609E-02  0.8198173E-01
        1   -1    0    0  501    0  0.00000000000E+00  0.00000000000E+00  0.23249319232E+04  0.23249319232E+04  0.50400001928E-02 0.  1.
       -1   -1    0    0    0  501  0.00000000000E+00  0.00000000000E+00 -0.10770238426E+04  0.10770238426E+04  0.50400001928E-02 0. -1.
    10030    2    1    2    0    0  0.00000000000E+00  0.00000000000E+00  0.12479080806E+04  0.34019557658E+04  0.31648109667E+04 0.  0.
        2    1    3    3  502    0 -0.11124552248E+03  0.27198337461E+03  0.22953455587E+04  0.23140790298E+04  0.25500000920E-02 0.  1.
       -2    1    3    3    0  502  0.11124552248E+03 -0.27198337461E+03 -0.10474374781E+04  0.10878767360E+04  0.25500000920E-02 0. -1.
</event>
<event>
 5   0  0.4900679E-06  0.2384192E+04  0.7818609E-02  0.8445446E-01
        2   -1    0    0  501    0  0.00000000000E+00  0.00000000000E+00  0.12594928191E+04  0.12594928191E+04  0.25500000920E-02 0. -1.
       -2   -1    0    0    0  501  0.00000000000E+00  0.00000000000E+00 -0.11283054280E+04  0.11283054280E+04  0.25500000920E-02 0.  1.
    10030    2    1    2    0    0  0.00000000000E+00  0.00000000000E+00  0.13118739106E+03  0.23877982471E+04  0.23841917576E+04 0.  0.
        4    1    3    3  502    0  0.11366747595E+04 -0.21052129716E+03 -0.22595186440E+03  0.11778813962E+04  0.12699999809E+01 0.  1.
       -4    1    3    3    0  502 -0.11366747595E+04  0.21052129716E+03  0.35713925546E+03  0.12099168509E+04  0.12699999809E+01 0. -1.
</event>
<event>
 5   0  0.1843709E-06  0.3075633E+04  0.7818609E-02  0.8222457E-01
        1   -1    0    0  501    0  0.00000000000E+00  0.00000000000E+00  0.12440926384E+04  0.12440926384E+04  0.50400001928E-02 0.  1.
       -1   -1    0    0    0  501  0.00000000000E+00  0.00000000000E+00 -0.19008873435E+04  0.19008873435E+04  0.50400001928E-02 0. -1.
    10030    2    1    2    0    0  0.00000000000E+00  0.00000000000E+00 -0.65679470513E+03  0.31449799819E+04  0.30756332359E+04 0.  0.
        4    1    3    3  502    0  0.45469571869E+03 -0.66680331506E+03 -0.16669203446E+04  0.18520258923E+04  0.12699999809E+01 0. -1.
       -4    1    3    3    0  502 -0.45469571869E+03  0.66680331506E+03  0.10101256394E+04  0.12929540896E+04  0.12699999809E+01 0.  1.
</event>
<event>
 5   0  0.4900679E-06  0.3010422E+04  0.7818609E-02  0.8240761E-01
       -2   -1    0    0    0  501  0.00000000000E+00  0.00000000000E+00  0.19335658004E+04  0.19335658005E+04  0.25500000920E-02 0.  1.
        2   -1    0    0  501    0  0.00000000000E+00  0.00000000000E+00 -0.11717524117E+04  0.11717524117E+04  0.25500000920E-02 0. -1.
    10030    2    1    2    0    0  0.00000000000E+00  0.00000000000E+00  0.76181338874E+03  0.31053182122E+04  0.30104221564E+04 0.  0.
        4    1    3    3  502    0 -0.13588534779E+04 -0.24259302503E+03  0.10000991860E+04  0.17045627430E+04  0.12699999809E+01 0.  1.
       -4    1    3    3    0  502  0.13588534779E+04  0.24259302503E+03 -0.23828579729E+03  0.14007554691E+04  0.12699999809E+01 0. -1.
</event>
<event>
 5   0  0.5328368E-06  0.3150038E+04  0.7818609E-02  0.8202138E-01
       -2   -1    0    0    0  501  0.00000000000E+00  0.00000000000E+00  0.14762550784E+04  0.14762550784E+04  0.25500000920E-02 0. -1.
        2   -1    0    0  501    0  0.00000000000E+00  0.00000000000E+00 -0.16803903717E+04  0.16803903717E+04  0.25500000920E-02 0.  1.
    10030    2    1    2    0    0  0.00000000000E+00  0.00000000000E+00 -0.20413529332E+03  0.31566454501E+04  0.31500379806E+04 0.  0.
        1    1    3    3  502    0  0.19077021337E+02  0.12955424889E+04  0.79529412011E+03  0.15202917519E+04  0.50400001928E-02 0. -1.
       -1    1    3    3    0  502 -0.19077021337E+02 -0.12955424889E+04 -0.99942941342E+03  0.16363536982E+04  0.50400001928E-02 0.  1.
</event>
<event>
 5   0  0.5114870E-06  0.3046047E+04  0.7818609E-02  0.8230703E-01
       -2   -1    0    0    0  501  0.00000000000E+00  0.00000000000E+00  0.12600180484E+04  0.12600180484E+04  0.25500000920E-02 0. -1.
        2   -1    0    0  501    0  0.00000000000E+00  0.00000000000E+00 -0.18409263280E+04  0.18409263280E+04  0.25500000920E-02 0.  1.
    10030    2    1    2    0    0  0.00000000000E+00  0.00000000000E+00 -0.58090827964E+03  0.31009443764E+04  0.30460468801E+04 0.  0.
        2    1    3    3  502    0  0.47137504060E+03  0.12203854961E+03  0.11786453502E+04  0.12752618155E+04  0.25500000920E-02 0. -1.
       -2    1    3    3    0  502 -0.47137504060E+03 -0.12203854961E+03 -0.17595536299E+04  0.18256825608E+04  0.25500000920E-02 0.  1.
</event>
<event>
 5   0  0.1885307E-06  0.3111776E+04  0.7818609E-02  0.8212514E-01
        1   -1    0    0  501    0  0.00000000000E+00  0.00000000000E+00  0.18883655918E+04  0.18883655918E+04  0.50400001928E-02 0. -1.
       -1   -1    0    0    0  501  0.00000000000E+00  0.00000000000E+00 -0.12819482176E+04  0.12819482176E+04  0.50400001928E-02 0.  1.
    10030    2    1    2    0    0  0.00000000000E+00  0.00000000000E+00  0.60641737417E+03  0.31703138095E+04  0.31117756376E+04 0.  0.
        3    1    3    3  502    0 -0.12192086810E+04  0.34582994570E+03 -0.61638891008E+03  0.14092563492E+04  0.10100000352E+00 0.  1.
       -3    1    3    3    0  502  0.12192086810E+04 -0.34582994570E+03  0.12228062842E+04  0.17610574602E+04  0.10100000352E+00 0. -1.
</event>
<event>
 5   0  0.1840431E-06  0.3075510E+04  0.7818609E-02  0.8222491E-01
       -1   -1    0    0    0  501  0.00000000000E+00  0.00000000000E+00  0.14007461083E+04  0.14007461083E+04  0.50400001928E-02 0. -1.
        1   -1    0    0  501    0  0.00000000000E+00  0.00000000000E+00 -0.16881645131E+04  0.16881645131E+04  0.50400001928E-02 0.  1.
    10030    2    1    2    0    0  0.00000000000E+00  0.00000000000E+00 -0.28741840480E+03  0.30889106214E+04  0.30755096306E+04 0.  0.
        1    1    3    3  502    0 -0.15572141245E+03 -0.95533049615E+03 -0.13438150736E+04  0.16561233249E+04  0.50400001928E-02 0.  1.
       -1    1    3    3    0  502  0.15572141245E+03  0.95533049615E+03  0.10563966688E+04  0.14327872965E+04  0.50400001928E-02 0. -1.
</event>
<event>
 5   0  0.1836401E-06  0.2985346E+04  0.7818609E-02  0.8247928E-01
        1   -1    0    0  501    0  0.00000000000E+00  0.00000000000E+00  0.15168684419E+04  0.15168684419E+04  0.50400001928E-02 0.  1.
       -1   -1    0    0    0  501  0.00000000000E+00  0.00000000000E+00 -0.14688637047E+04  0.14688637047E+04  0.50400001928E-02 0. -1.
    10030    2    1    2    0    0  0.00000000000E+00  0.00000000000E+00  0.48004737145E+02  0.29857321466E+04  0.29853462105E+04 0.  0.
        2    1    3    3  502    0 -0.92590724560E+03 -0.59543855614E+03 -0.98420617251E+03  0.14766560505E+04  0.25500000920E-02 0. -1.
       -2    1    3    3    0  502  0.92590724560E+03  0.59543855614E+03  0.10322109097E+04  0.15090760960E+04  0.25500000920E-02 0.  1.
</event>
<event>
 5   0  0.5114870E-06  0.3148597E+04  0.7818609E-02  0.8202526E-01
        2   -1    0    0  501    0  0.00000000000E+00  0.00000000000E+00  0.17829101545E+04  0.17829101545E+04  0.25500000920E-02 0. -1.
       -2   -1    0    0    0  501  0.00000000000E+00  0.00000000000E+00 -0.13900958035E+04  0.13900958035E+04  0.25500000920E-02 0.  1.
    10030    2    1    2    0    0  0.00000000000E+00  0.00000000000E+00  0.39281435095E+03  0.31730059580E+04  0.31485970995E+04 0.  0.
        2    1    3    3  502    0  0.10488336321E+04 -0.10539384823E+04  0.71769632215E+03  0.16510379533E+04  0.25500000920E-02 0. -1.
       -2    1    3    3    0  502 -0.10488336321E+04  0.10539384823E+04 -0.32488197120E+03  0.15219680048E+04  0.25500000920E-02 0.  1.
</event>
<event>
 5   0  0.4927533E-06  0.3117530E+04  0.7818609E-02  0.8210943E-01
       -2   -1    0    0    0  501  0.00000000000E+00  0.00000000000E+00  0.24350763612E+04  0.24350763612E+04  0.25500000920E-02 0.  1.
        2   -1    0    0  501    0  0.00000000000E+00  0.00000000000E+00 -0.99781196262E+03  0.99781196262E+03  0.25500000920E-02 0. -1.
    10030    2    1    2    0    0  0.00000000000E+00  0.00000000000E+00  0.14372643985E+04  0.34328883238E+04  0.31175299986E+04 0.  0.
        5    1    3    3  502    0 -0.74596571370E+03  0.10503077591E+04 -0.24770083239E+03  0.13118647138E+04  0.46999998093E+01 0. -1.
       -5    1    3    3    0  502  0.74596571370E+03 -0.10503077591E+04  0.16849652309E+04  0.21210236100E+04  0.46999998093E+01 0.  1.
</event>
<event>
 5   0  0.1840431E-06  0.3143019E+04  0.7818609E-02  0.8204030E-01
       -1   -1    0    0    0  501  0.00000000000E+00  0.00000000000E+00  0.10867394288E+04  0.10867394289E+04  0.50400001928E-02 0.  1.
        1   -1    0    0  501    0  0.00000000000E+00  0.00000000000E+00 -0.22725248524E+04  0.22725248524E+04  0.50400001928E-02 0. -1.
    10030    2    1    2    0    0  0.00000000000E+00  0.00000000000E+00 -0.11857854235E+04  0.33592642812E+04  0.31430191601E+04 0.  0.
        1    1    3    3  502    0 -0.42908186032E+02  0.91118652895E+03 -0.19605999636E+04  0.21624186043E+04  0.50400001928E-02 0. -1.
       -1    1    3    3    0  502  0.42908186032E+02 -0.91118652895E+03  0.77481454004E+03  0.11968456770E+04  0.50400001928E-02 0.  1.
</event>
<event>
 5   0  0.5328368E-06  0.3140201E+04  0.7818609E-02  0.8204791E-01
       -2   -1    0    0    0  501  0.00000000000E+00  0.00000000000E+00  0.12202537762E+04  0.12202537762E+04  0.25500000920E-02 0.  1.
        2   -1    0    0  501    0  0.00000000000E+00  0.00000000000E+00 -0.20202485513E+04  0.20202485513E+04  0.25500000920E-02 0. -1.
    10030    2    1    2    0    0  0.00000000000E+00  0.00000000000E+00 -0.79999477507E+03  0.32405023276E+04  0.31402012188E+04 0.  0.
        1    1    3    3  502    0 -0.10202712223E+04  0.51064054361E+03  0.71311673937E+03  0.13454525691E+04  0.50400001928E-02 0.  1.
       -1    1    3    3    0  502  0.10202712223E+04 -0.51064054361E+03 -0.15131115144E+04  0.18950497584E+04  0.50400001928E-02 0. -1.
</event>
<event>
 5   0  0.1840431E-06  0.3105170E+04  0.7818609E-02  0.8214321E-01
       -1   -1    0    0    0  501  0.00000000000E+00  0.00000000000E+00  0.13343140824E+04  0.13343140824E+04  0.50400001928E-02 0.  1.
        1   -1    0    0  501    0  0.00000000000E+00  0.00000000000E+00 -0.18065611319E+04  0.18065611319E+04  0.50400001928E-02 0. -1.
    10030    2    1    2    0    0  0.00000000000E+00  0.00000000000E+00 -0.47224704955E+03  0.31408752143E+04  0.31051698563E+04 0.  0.
        1    1    3    3  502    0 -0.10867945282E+04 -0.56248543786E+03 -0.12026250675E+04  0.17157561795E+04  0.50400001928E-02 0. -1.
       -1    1    3    3    0  502  0.10867945282E+04  0.56248543786E+03  0.73037801796E+03  0.14251190349E+04  0.50400001928E-02 0.  1.
</event>
<event>
 5   0  0.4927533E-06  0.3014148E+04  0.7818609E-02  0.8239702E-01
        2   -1    0    0  501    0  0.00000000000E+00  0.00000000000E+00  0.15410622029E+04  0.15410622029E+04  0.25500000920E-02 0.  1.
       -2   -1    0    0    0  501  0.00000000000E+00  0.00000000000E+00 -0.14738354014E+04  0.14738354014E+04  0.25500000920E-02 0. -1.
    10030    2    1    2    0    0  0.00000000000E+00  0.00000000000E+00  0.67226801411E+02  0.30148976043E+04  0.30141479926E+04 0.  0.
        5    1    3    3  502    0 -0.43104773942E+03  0.96426020768E+03 -0.10416655980E+04  0.14834720118E+04  0.46999998093E+01 0. -1.
       -5    1    3    3    0  502  0.43104773942E+03 -0.96426020768E+03  0.11088923994E+04  0.15314255925E+04  0.46999998093E+01 0.  1.
</event>
<event>
 5   0  0.4900679E-06  0.3143652E+04  0.7818609E-02  0.8203859E-01
        2   -1    0    0  501    0  0.00000000000E+00  0.00000000000E+00  0.20561830310E+04  0.20561830310E+04  0.25500000920E-02 0. -1.
       -2   -1    0    0    0  501  0.00000000000E+00  0.00000000000E+00 -0.12015643462E+04  0.12015643462E+04  0.25500000920E-02 0.  1.
    10030    2    1    2    0    0  0.00000000000E+00  0.00000000000E+00  0.85461868487E+03  0.32577473772E+04  0.31436515197E+04 0.  0.
        4    1    3    3  502    0  0.15653493102E+04  0.61945883345E+02  0.56033838583E+03  0.16637717617E+04  0.12699999809E+01 0. -1.
       -4    1    3    3    0  502 -0.15653493102E+04 -0.61945883345E+02  0.29428029904E+03  0.15939756155E+04  0.12699999809E+01 0.  1.
</event>
<event>
 5   0  0.4927533E-06  0.3104922E+04  0.7818609E-02  0.8214389E-01
       -2   -1    0    0    0  501  0.00000000000E+00  0.00000000000E+00  0.11180642203E+04  0.11180642203E+04  0.25500000920E-02 0.  1.
        2   -1    0    0  501    0  0.00000000000E+00  0.00000000000E+00 -0.21556314741E+04  0.21556314741E+04  0.25500000920E-02 0. -1.
    10030    2    1    2    0    0  0.00000000000E+00  0.00000000000E+00 -0.10375672537E+04  0.32736956944E+04  0.31049215278E+04 0.  0.
        5    1    3    3  502    0  0.11368215138E+04  0.99553974386E+03 -0.14356021460E+03  0.15179242936E+04  0.46999998093E+01 0.  1.
       -5    1    3    3    0  502 -0.11368215138E+04 -0.99553974386E+03 -0.89400703912E+03  0.17557714008E+04  0.46999998093E+01 0. -1.
</event>
<event>
 5   0  0.4927533E-06  0.3105315E+04  0.7818609E-02  0.8214281E-01
        2   -1    0    0  501    0  0.00000000000E+00  0.00000000000E+00  0.12564710755E+04  0.12564710755E+04  0.25500000920E-02 0.  1.
       -2   -1    0    0    0  501  0.00000000000E+00  0.00000000000E+00 -0.19186631573E+04  0.19186631573E+04  0.25500000920E-02 0. -1.
    10030    2    1    2    0    0  0.00000000000E+00  0.00000000000E+00 -0.66219208181E+03  0.31751342327E+04  0.31053146447E+04 0.  0.
        5    1    3    3  502    0 -0.39570890539E+03 -0.61753639857E+02  0.12027401061E+04  0.12676769710E+04  0.46999998093E+01 0.  1.
       -5    1    3    3    0  502  0.39570890539E+03  0.61753639857E+02 -0.18649321879E+04  0.19074572618E+04  0.46999998093E+01 0. -1.
</event>
<event>
 5   0  0.1836401E-06  0.3111631E+04  0.7818609E-02  0.8212553E-01
       -1   -1    0    0    0  501  0.00000000000E+00  0.00000000000E+00  0.21842793046E+04  0.21842793046E+04  0.50400001928E-02 0. -1.
        1   -1    0    0  501    0  0.00000000000E+00  0.00000000000E+00 -0.11081740252E+04  0.11081740252E+04  0.50400001928E-02 0.  1.
    10030    2    1    2    0    0  0.00000000000E+00  0.00000000000E+00  0.10761052795E+04  0.32924533298E+04  0.31116308195E+04 0.  0.
        2    1    3    3  502    0  0.86496674654E+03 -0.80077629721E+03 -0.53641363691E+03  0.12950481615E+04  0.25500000920E-02 0.  1.
       -2    1    3    3    0  502 -0.86496674654E+03  0.80077629721E+03  0.16125189164E+04  0.19974051683E+04  0.25500000920E-02 0. -1.
</event>
<event>
 5   0  0.5001658E-06  0.3504813E+04  0.7818609E-02  0.8112650E-01
       -2   -1    0    0    0  501  0.00000000000E+00  0.00000000000E+00  0.15752676504E+04  0.15752676504E+04  0.25500000920E-02 0. -1.
        2   -1    0    0  501    0  0.00000000000E+00  0.00000000000E+00 -0.19494640638E+04  0.19494640638E+04  0.25500000920E-02 0.  1.
    10030    2    1    2    0    0  0.00000000000E+00  0.00000000000E+00 -0.37419641340E+03  0.35247317142E+04  0.35048125059E+04 0.  0.
        3    1    3    3  502    0 -0.13541713097E+04  0.97896637844E+03  0.34389172609E+03  0.17059943246E+04  0.10100000352E+00 0. -1.
       -3    1    3    3    0  502  0.13541713097E+04 -0.97896637844E+03 -0.71808813948E+03  0.18187373896E+04  0.10100000352E+00 0.  1.
</event>
<event>
 5   0  0.1836401E-06  0.3089938E+04  0.7818609E-02  0.8218505E-01
       -1   -1    0    0    0  501  0.00000000000E+00  0.00000000000E+00  0.12378849953E+04  0.12378849953E+04  0.50400001928E-02 0. -1.
        1   -1    0    0  501    0  0.00000000000E+00  0.00000000000E+00 -0.19282319522E+04  0.19282319522E+04  0.50400001928E-02 0.  1.
    10030    2    1    2    0    0  0.00000000000E+00  0.00000000000E+00 -0.69034695692E+03  0.31661169475E+04  0.30899381231E+04 0.  0.
        2    1    3    3  502    0  0.68530133035E+03 -0.17517207714E+02 -0.17638601409E+04  0.18923919685E+04  0.25500000920E-02 0.  1.
       -2    1    3    3    0  502 -0.68530133035E+03  0.17517207714E+02  0.10735131840E+04  0.12737249790E+04  0.25500000920E-02 0. -1.
</event>
<event>
 5   0  0.4900679E-06  0.3117523E+04  0.7818609E-02  0.8210945E-01
        2   -1    0    0  501    0  0.00000000000E+00  0.00000000000E+00  0.26665907106E+04  0.26665907106E+04  0.25500000920E-02 0.  1.
       -2   -1    0    0    0  501  0.00000000000E+00  0.00000000000E+00 -0.91117721647E+03  0.91117721648E+03  0.25500000920E-02 0. -1.
    10030    2    1    2    0    0  0.00000000000E+00  0.00000000000E+00  0.17554134942E+04  0.35777679271E+04  0.31175225428E+04 0.  0.
        4    1    3    3  502    0  0.12594277375E+04 -0.86146095462E+03  0.12432628418E+04  0.19682421877E+04  0.12699999809E+01 0. -1.
       -4    1    3    3    0  502 -0.12594277375E+04  0.86146095462E+03  0.51215065233E+03  0.16095257395E+04  0.12699999809E+01 0.  1.
</event>
<event>
 5   0  0.1885307E-06  0.3041173E+04  0.7818609E-02  0.8232071E-01
       -1   -1    0    0    0  501  0.00000000000E+00  0.00000000000E+00  0.11381788683E+04  0.11381788683E+04  0.50400001928E-02 0. -1.
        1   -1    0    0  501    0  0.00000000000E+00  0.00000000000E+00 -0.20314757996E+04  0.20314757996E+04  0.50400001928E-02 0.  1.
    10030    2    1    2    0    0  0.00000000000E+00  0.00000000000E+00 -0.89329693135E+03  0.31696546679E+04  0.30411726860E+04 0.  0.
        3    1    3    3  502    0  0.12134970784E+04  0.87136853206E+03 -0.74203792011E+03  0.16680763061E+04  0.10100000352E+00 0. -1.
       -3    1    3    3    0  502 -0.12134970784E+04 -0.87136853206E+03 -0.15125901124E+03  0.15015783618E+04  0.10100000352E+00 0.  1.
</event>
<event>
 5   0  0.5001658E-06  0.2683664E+04  0.7818609E-02  0.8340325E-01
        2   -1    0    0  501    0  0.00000000000E+00  0.00000000000E+00  0.10295075899E+04  0.10295075899E+04  0.25500000920E-02 0. -1.
       -2   -1    0    0    0  501  0.00000000000E+00  0.00000000000E+00 -0.17489071887E+04  0.17489071887E+04  0.25500000920E-02 0.  1.
    10030    2    1    2    0    0  0.00000000000E+00  0.00000000000E+00 -0.71939959877E+03  0.27784147786E+04  0.26836640809E+04 0.  0.
        3    1    3    3  502    0 -0.77544489394E+03 -0.77147208381E+03 -0.11643329354E+04  0.15975466048E+04  0.10100000352E+00 0.  1.
       -3    1    3    3    0  502  0.77544489394E+03  0.77147208381E+03  0.44493333667E+03  0.11808681738E+04  0.10100000352E+00 0. -1.
</event>
<event>
 5   0  0.1843709E-06  0.3096676E+04  0.7818609E-02  0.8216651E-01
        1   -1    0    0  501    0  0.00000000000E+00  0.00000000000E+00  0.18433414219E+04  0.18433414219E+04  0.50400001928E-02 0.  1.
       -1   -1    0    0    0  501  0.00000000000E+00  0.00000000000E+00 -0.13005458596E+04  0.13005458596E+04  0.50400001928E-02 0. -1.
    10030    2    1    2    0    0  0.00000000000E+00  0.00000000000E+00  0.54279556224E+03  0.31438872815E+04  0.30966756718E+04 0.  0.
        4    1    3    3  502    0  0.23707229934E+03  0.14058129506E+04 -0.34182680686E+03  0.14660697480E+04  0.12699999809E+01 0. -1.
       -4    1    3    3    0  502 -0.23707229934E+03 -0.14058129506E+04  0.88462236910E+03  0.16778175336E+04  0.12699999809E+01 0.  1.
</event>
<event>
 5   0  0.5328368E-06  0.3005871E+04  0.7818609E-02  0.8242056E-01
        2   -1    0    0  501    0  0.00000000000E+00  0.00000000000E+00  0.10693010370E+04  0.10693010370E+04  0.25500000920E-02 0.  1.
       -2   -1    0    0    0  501  0.00000000000E+00  0.00000000000E+00 -0.21124225981E+04  0.21124225981E+04  0.25500000920E-02 0. -1.
    10030    2    1    2    0    0  0.00000000000E+00  0.00000000000E+00 -0.10431215611E+04  0.31817236351E+04  0.30058713710E+04 0.  0.
        1    1    3    3  502    0 -0.90957010769E+03  0.92710650564E+03  0.27897219627E+03  0.13284087247E+04  0.50400001928E-02 0.  1.
       -1    1    3    3    0  502  0.90957010769E+03 -0.92710650564E+03 -0.13220937574E+04  0.18533149103E+04  0.50400001928E-02 0. -1.
</event>
<event>
 5   0  0.1853742E-06  0.3062811E+04  0.7818609E-02  0.8226019E-01
       -1   -1    0    0    0  501  0.00000000000E+00  0.00000000000E+00  0.29206500837E+04  0.29206500837E+04  0.50400001928E-02 0.  1.
        1   -1    0    0  501    0  0.00000000000E+00  0.00000000000E+00 -0.80297313984E+03  0.80297313986E+03  0.50400001928E-02 0. -1.
    10030    2    1    2    0    0  0.00000000000E+00  0.00000000000E+00  0.21176769439E+04  0.37236232236E+04  0.30628114980E+04 0.  0.
        5    1    3    3  502    0  0.93103318795E+03 -0.63065125904E+03 -0.20498236917E+03  0.11430589089E+04  0.46999998093E+01 0. -1.
       -5    1    3    3    0  502 -0.93103318795E+03  0.63065125904E+03  0.23226593130E+04  0.25805643146E+04  0.46999998093E+01 0.  1.
</event>
<event>
 5   0  0.1843709E-06  0.3094008E+04  0.7818609E-02  0.8217384E-01
        1   -1    0    0  501    0  0.00000000000E+00  0.00000000000E+00  0.21659866156E+04  0.21659866156E+04  0.50400001928E-02 0. -1.
       -1   -1    0    0    0  501  0.00000000000E+00  0.00000000000E+00 -0.11049103706E+04  0.11049103706E+04  0.50400001928E-02 0.  1.
    10030    2    1    2    0    0  0.00000000000E+00  0.00000000000E+00  0.10610762450E+04  0.32708969863E+04  0.30940078049E+04 0.  0.
        4    1    3    3  502    0 -0.68022385717E+03  0.13894282878E+04  0.53265208603E+03  0.16361342611E+04  0.12699999809E+01 0.  1.
       -4    1    3    3    0  502  0.68022385717E+03 -0.13894282878E+04  0.52842415899E+03  0.16347627251E+04  0.12699999809E+01 0. -1.
</event>
<event>
 5   0  0.5001658E-06  0.3115161E+04  0.7818609E-02  0.8211589E-01
        2   -1    0    0  501    0  0.00000000000E+00  0.00000000000E+00  0.14940002240E+04  0.14940002240E+04  0.25500000920E-02 0.  1.
       -2   -1    0    0    0  501  0.00000000000E+00  0.00000000000E+00 -0.16238665576E+04  0.16238665576E+04  0.25500000920E-02 0. -1.
    10030    2    1    2    0    0  0.00000000000E+00  0.00000000000E+00 -0.12986633364E+03  0.31178667816E+04  0.31151609916E+04 0.  0.
        3    1    3    3  502    0  0.12717361689E+04  0.34766312210E+03 -0.89503553290E+03  0.15935090665E+04  0.10100000352E+00 0. -1.
       -3    1    3    3    0  502 -0.12717361689E+04 -0.34766312210E+03  0.76516919926E+03  0.15243577151E+04  0.10100000352E+00 0.  1.
</event>
<event>
 5   0  0.1649875E-06  0.2610144E+04  0.7818609E-02  0.8364764E-01
       -3   -1    0    0    0  501  0.00000000000E+00  0.00000000000E+00  0.12149380059E+04  0.12149380101E+04  0.10100000352E+00 0.  1.
        3   -1    0    0  501    0  0.00000000000E+00  0.00000000000E+00 -0.14018925287E+04  0.14018925323E+04  0.10100000352E+00 0. -1.
    10030    2    1    2    0    0  0.00000000000E+00  0.00000000000E+00 -0.18695452280E+03  0.26168305425E+04  0.26101436923E+04 0.  0.
        2    1    3    3  502    0  0.53988831447E+03 -0.89466955160E+03  0.69038221418E+03  0.12524139093E+04  0.25500000920E-02 0.  1.
       -2    1    3    3    0  502 -0.53988831447E+03  0.89466955160E+03 -0.87733673698E+03  0.13644166331E+04  0.25500000920E-02 0. -1.
</event>
<event>
 5   0  0.1885307E-06  0.2932870E+04  0.7818609E-02  0.8263164E-01
       -1   -1    0    0    0  501  0.00000000000E+00  0.00000000000E+00  0.18400351573E+04  0.18400351573E+04  0.50400001928E-02 0.  1.
        1   -1    0    0  501    0  0.00000000000E+00  0.00000000000E+00 -0.11686907292E+04  0.11686907292E+04  0.50400001928E-02 0. -1.
    10030    2    1    2    0    0  0.00000000000E+00  0.00000000000E+00  0.67134442813E+03  0.30087258865E+04  0.29328702867E+04 0.  0.
        3    1    3    3  502    0 -0.13010515566E+03 -0.80912604025E+02  0.18318017804E+04  0.18381980236E+04  0.10100000352E+00 0.  1.
       -3    1    3    3    0  502  0.13010515566E+03  0.80912604025E+02 -0.11604573523E+04  0.11705278629E+04  0.10100000352E+00 0. -1.
</event>
<event>
 5   0  0.1836401E-06  0.2938832E+04  0.7818609E-02  0.8261417E-01
        1   -1    0    0  501    0  0.00000000000E+00  0.00000000000E+00  0.20778560029E+04  0.20778560029E+04  0.50400001928E-02 0. -1.
       -1   -1    0    0    0  501  0.00000000000E+00  0.00000000000E+00 -0.10391397634E+04  0.10391397634E+04  0.50400001928E-02 0.  1.
    10030    2    1    2    0    0  0.00000000000E+00  0.00000000000E+00  0.10387162396E+04  0.31169957663E+04  0.29388316013E+04 0.  0.
        2    1    3    3  502    0 -0.93381318036E+03 -0.33496207800E+03  0.16690356305E+04  0.19416195780E+04  0.25500000920E-02 0. -1.
       -2    1    3    3    0  502  0.93381318036E+03  0.33496207800E+03 -0.63031939097E+03  0.11753761884E+04  0.25500000920E-02 0.  1.
</event>
<event>
 5   0  0.5114870E-06  0.3113625E+04  0.7818609E-02  0.8212009E-01
        2   -1    0    0  501    0  0.00000000000E+00  0.00000000000E+00  0.11772668720E+04  0.11772668720E+04  0.25500000920E-02 0.  1.
       -2   -1    0    0    0  501  0.00000000000E+00  0.00000000000E+00 -0.20587217896E+04  0.20587217897E+04  0.25500000920E-02 0. -1.
    10030    2    1    2    0    0  0.00000000000E+00  0.00000000000E+00 -0.88145491763E+03  0.32359886617E+04  0.31136248725E+04 0.  0.
        2    1    3    3  502    0  0.43464380917E+02 -0.74399770906E+03 -0.18612803573E+04  0.20049404759E+04  0.25500000920E-02 0. -1.
       -2    1    3    3    0  502 -0.43464380917E+02  0.74399770906E+03  0.97982543965E+03  0.12310481858E+04  0.25500000920E-02 0.  1.
</event>
<event>
 5   0  0.1843709E-06  0.3056340E+04  0.7818609E-02  0.8227823E-01
        1   -1    0    0  501    0  0.00000000000E+00  0.00000000000E+00  0.16832266848E+04  0.16832266849E+04  0.50400001928E-02 0.  1.
       -1   -1    0    0    0  501  0.00000000000E+00  0.00000000000E+00 -0.13873973096E+04  0.13873973096E+04  0.50400001928E-02 0. -1.
    10030    2    1    2    0    0  0.00000000000E+00  0.00000000000E+00  0.29582937527E+03  0.30706239944E+04  0.30563404090E+04 0.  0.
        4    1    3    3  502    0  0.14231957199E+04  0.28903948685E+03 -0.32998965299E+03  0.14892698433E+04  0.12699999809E+01 0.  1.
       -4    1    3    3    0  502 -0.14231957199E+04 -0.28903948685E+03  0.62581902827E+03  0.15813541511E+04  0.12699999809E+01 0. -1.
</event>
<event>
 5   0  0.1836401E-06  0.3073024E+04  0.7818609E-02  0.8223180E-01
       -1   -1    0    0    0  501  0.00000000000E+00  0.00000000000E+00  0.11998229061E+04  0.11998229061E+04  0.50400001928E-02 0. -1.
        1   -1    0    0  501    0  0.00000000000E+00  0.00000000000E+00 -0.19676812445E+04  0.19676812445E+04  0.50400001928E-02 0.  1.
    10030    2    1    2    0    0  0.00000000000E+00  0.00000000000E+00 -0.76785833835E+03  0.31675041506E+04  0.30730239369E+04 0.  0.
        2    1    3    3  502    0  0.81805474574E+03  0.91943012709E+03 -0.13321606513E+04  0.18136199510E+04  0.25500000920E-02 0.  1.
       -2    1    3    3    0  502 -0.81805474574E+03 -0.91943012709E+03  0.56430231299E+03  0.13538841997E+04  0.25500000920E-02 0. -1.
</event>
<event>
 5   0  0.1885307E-06  0.3154270E+04  0.7818609E-02  0.8201000E-01
       -1   -1    0    0    0  501  0.00000000000E+00  0.00000000000E+00  0.12556387275E+04  0.12556387275E+04  0.50400001928E-02 0.  1.
        1   -1    0    0  501    0  0.00000000000E+00  0.00000000000E+00 -0.19809475928E+04  0.19809475928E+04  0.50400001928E-02 0. -1.
    10030    2    1    2    0    0  0.00000000000E+00  0.00000000000E+00 -0.72530886528E+03  0.32365863203E+04  0.31542698138E+04 0.  0.
        3    1    3    3  502    0  0.93994952930E+03  0.11354796130E+04  0.21281617166E+03  0.14893319987E+04  0.10100000352E+00 0.  1.
       -3    1    3    3    0  502 -0.93994952930E+03 -0.11354796130E+04 -0.93812503693E+03  0.17472543216E+04  0.10100000352E+00 0. -1.
</event>
<event>
 5   0  0.5328368E-06  0.3093107E+04  0.7818609E-02  0.8217632E-01
        2   -1    0    0  501    0  0.00000000000E+00  0.00000000000E+00  0.12992890575E+04  0.12992890576E+04  0.25500000920E-02 0. -1.
       -2   -1    0    0    0  501  0.00000000000E+00  0.00000000000E+00 -0.18408746682E+04  0.18408746682E+04  0.25500000920E-02 0.  1.
    10030    2    1    2    0    0  0.00000000000E+00  0.00000000000E+00 -0.54158561063E+03  0.31401637257E+04  0.30931073778E+04 0.  0.
        1    1    3    3  502    0  0.10838803515E+04  0.10948025583E+04 -0.40864910609E+03  0.15938580081E+04  0.50400001928E-02 0.  1.
       -1    1    3    3    0  502 -0.10838803515E+04 -0.10948025583E+04 -0.13293650455E+03  0.15463057176E+04  0.50400001928E-02 0. -1.
</event>
<event>
 5   0  0.4900679E-06  0.2998824E+04  0.7818609E-02  0.8244067E-01
        2   -1    0    0  501    0  0.00000000000E+00  0.00000000000E+00  0.15466897002E+04  0.15466897002E+04  0.25500000920E-02 0. -1.
       -2   -1    0    0    0  501  0.00000000000E+00  0.00000000000E+00 -0.14535796826E+04  0.14535796826E+04  0.25500000920E-02 0.  1.
    10030    2    1    2    0    0  0.00000000000E+00  0.00000000000E+00  0.93110017625E+02  0.30002693829E+04  0.29988242520E+04 0.  0.
        4    1    3    3  502    0  0.56206676656E+03 -0.11043727280E+04 -0.79805376482E+03  0.14739231991E+04  0.12699999809E+01 0.  1.
       -4    1    3    3    0  502 -0.56206676656E+03  0.11043727280E+04  0.89116378244E+03  0.15263461837E+04  0.12699999809E+01 0. -1.
</event>
<event>
 5   0  0.1840431E-06  0.3102642E+04  0.7818609E-02  0.8215013E-01
       -1   -1    0    0    0  501  0.00000000000E+00  0.00000000000E+00  0.11440654827E+04  0.11440654828E+04  0.50400001928E-02 0.  1.
        1   -1    0    0  501    0  0.00000000000E+00  0.00000000000E+00 -0.21035480631E+04  0.21035480631E+04  0.50400001928E-02 0. -1.
    10030    2    1    2    0    0  0.00000000000E+00  0.00000000000E+00 -0.95948258038E+03  0.32476135459E+04  0.31026419261E+04 0.  0.
        1    1    3    3  502    0  0.22556650222E+02 -0.12625401674E+04  0.46352032676E+03  0.13451273434E+04  0.50400001928E-02 0.  1.
       -1    1    3    3    0  502 -0.22556650222E+02  0.12625401674E+04 -0.14230029071E+04  0.19024862024E+04  0.50400001928E-02 0. -1.
</event>
<event>
 5   0  0.5328368E-06  0.3091723E+04  0.7818609E-02  0.8218013E-01
       -2   -1    0    0    0  501  0.00000000000E+00  0.00000000000E+00  0.21375066990E+04  0.21375066990E+04  0.25500000920E-02 0.  1.
        2   -1    0    0  501    0  0.00000000000E+00  0.00000000000E+00 -0.11179790286E+04  0.11179790286E+04  0.25500000920E-02 0. -1.
    10030    2    1    2    0    0  0.00000000000E+00  0.00000000000E+00  0.10195276705E+04  0.32554857276E+04  0.30917229261E+04 0.  0.
        1    1    3    3  502    0 -0.14150802211E+04  0.61977153483E+03  0.45095883673E+03  0.16093267723E+04  0.50400001928E-02 0. -1.
       -1    1    3    3    0  502  0.14150802211E+04 -0.61977153483E+03  0.56856883373E+03  0.16461589553E+04  0.50400001928E-02 0.  1.
</event>
<event>
 5   0  0.4900679E-06  0.3157280E+04  0.7818609E-02  0.8200191E-01
        2   -1    0    0  501    0  0.00000000000E+00  0.00000000000E+00  0.25960768471E+04  0.25960768471E+04  0.25500000920E-02 0.  1.
       -2   -1    0    0    0  501  0.00000000000E+00  0.00000000000E+00 -0.95995009145E+03  0.95995009145E+03  0.25500000920E-02 0. -1.
    10030    2    1    2    0    0  0.00000000000E+00  0.00000000000E+00  0.16361267556E+04  0.35560269385E+04  0.31572799729E+04 0.  0.
        4    1    3    3  502    0  0.15255855356E+04 -0.40064527358E+03  0.74529105220E+03  0.17445309476E+04  0.12699999809E+01 0. -1.
       -4    1    3    3    0  502 -0.15255855356E+04  0.40064527358E+03  0.89083570342E+03  0.18114959909E+04  0.12699999809E+01 0.  1.
</event>
<event>
 5   0  0.4927533E-06  0.3189625E+04  0.7818609E-02  0.8191562E-01
        2   -1    0    0  501    0  0.00000000000E+00  0.00000000000E+00  0.22303561623E+04  0.22303561623E+04  0.25500000920E-02 0.  1.
       -2   -1    0    0    0  501  0.00000000000E+00  0.00000000000E+00 -0.11403683502E+04  0.11403683502E+04  0.25500000920E-02 0. -1.
    10030    2    1    2    0    0  0.00000000000E+00  0.00000000000E+00  0.10899878121E+04  0.33707245125E+04  0.31896254182E+04 0.  0.
        5    1    3    3  502    0  0.17308905499E+03  0.64782018383E+03  0.20741384767E+04  0.21798402057E+04  0.46999998093E+01 0.  1.
       -5    1    3    3    0  502 -0.17308905499E+03 -0.64782018383E+03 -0.98415066465E+03  0.11908843068E+04  0.46999998093E+01 0. -1.
</event>
<event>
 5   0  0.5328368E-06  0.3111382E+04  0.7818609E-02  0.8212621E-01
        2   -1    0    0  501    0  0.00000000000E+00  0.00000000000E+00  0.20704027543E+04  0.20704027543E+04  0.25500000920E-02 0. -1.
       -2   -1    0    0    0  501  0.00000000000E+00  0.00000000000E+00 -0.11689389151E+04  0.11689389151E+04  0.25500000920E-02 0.  1.
    10030    2    1    2    0    0  0.00000000000E+00  0.00000000000E+00  0.90146383917E+03  0.32393416695E+04  0.31113819113E+04 0.  0.
        1    1    3    3  502    0  0.11506279387E+04 -0.43247229950E+03  0.14434650805E+04  0.18959346988E+04  0.50400001928E-02 0. -1.
       -1    1    3    3    0  502 -0.11506279387E+04  0.43247229950E+03 -0.54200124137E+03  0.13434069707E+04  0.50400001928E-02 0.  1.
</event>
<event>
 5   0  0.4927533E-06  0.3078674E+04  0.7818609E-02  0.8221615E-01
       -2   -1    0    0    0  501  0.00000000000E+00  0.00000000000E+00  0.10718943081E+04  0.10718943081E+04  0.25500000920E-02 0.  1.
        2   -1    0    0  501    0  0.00000000000E+00  0.00000000000E+00 -0.22106271411E+04  0.22106271411E+04  0.25500000920E-02 0. -1.
    10030    2    1    2    0    0  0.00000000000E+00  0.00000000000E+00 -0.11387328330E+04  0.32825214492E+04  0.30786741626E+04 0.  0.
        5    1    3    3  502    0 -0.10338430525E+04 -0.94738110444E+03 -0.12463687768E+04  0.18761182351E+04  0.46999998093E+01 0. -1.
       -5    1    3    3    0  502  0.10338430525E+04  0.94738110444E+03  0.10763594379E+03  0.14064032141E+04  0.46999998093E+01 0.  1.
</event>
<event>
 5   0  0.5328368E-06  0.3095081E+04  0.7818609E-02  0.8217089E-01
        2   -1    0    0  501    0  0.00000000000E+00  0.00000000000E+00  0.13426006002E+04  0.13426006002E+04  0.25500000920E-02 0. -1.
       -2   -1    0    0    0  501  0.00000000000E+00  0.00000000000E+00 -0.17837633440E+04  0.17837633440E+04  0.25500000920E-02 0.  1.
    10030    2    1    2    0    0  0.00000000000E+00  0.00000000000E+00 -0.44116274387E+03  0.31263639442E+04  0.30950810886E+04 0.  0.
        1    1    3    3  502    0  0.13355574705E+04 -0.12228910444E+02 -0.10101586787E+04  0.16745996117E+04  0.50400001928E-02 0.  1.
       -1    1    3    3    0  502 -0.13355574705E+04  0.12228910444E+02  0.56899593484E+03  0.14517643325E+04  0.50400001928E-02 0. -1.
</event>
<event>
 5   0  0.1843709E-06  0.3092737E+04  0.7818609E-02  0.8217734E-01
       -1   -1    0    0    0  501  0.00000000000E+00  0.00000000000E+00  0.25591450001E+04  0.25591450001E+04  0.50400001928E-02 0. -1.
        1   -1    0    0  501    0  0.00000000000E+00  0.00000000000E+00 -0.93439633934E+03  0.93439633935E+03  0.50400001928E-02 0.  1.
    10030    2    1    2    0    0  0.00000000000E+00  0.00000000000E+00  0.16247486608E+04  0.34935413395E+04  0.30927371178E+04 0.  0.
        4    1    3    3  502    0 -0.84856696422E+03 -0.37970870795E+03  0.22082404017E+04  0.23959490563E+04  0.12699999809E+01 0. -1.
       -4    1    3    3    0  502  0.84856696422E+03  0.37970870795E+03 -0.58349174088E+03  0.10975922832E+04  0.12699999809E+01 0.  1.
</event>
<event>
 5   0  0.1885307E-06  0.2956161E+04  0.7818609E-02  0.8256361E-01
       -1   -1    0    0    0  501  0.00000000000E+00  0.00000000000E+00  0.14838028504E+04  0.14838028504E+04  0.50400001928E-02 0. -1.
        1   -1    0    0  501    0  0.00000000000E+00  0.00000000000E+00 -0.14723806961E+04  0.14723806961E+04  0.50400001928E-02 0.  1.
    10030    2    1    2    0    0  0.00000000000E+00  0.00000000000E+00  0.11422154279E+02  0.29561835465E+04  0.29561614799E+04 0.  0.
        3    1    3    3  502    0  0.34952327182E+03 -0.11955682324E+03 -0.14254747568E+04  0.14725619321E+04  0.10100000352E+00 0.  1.
       -3    1    3    3    0  502 -0.34952327182E+03  0.11955682324E+03  0.14368969110E+04  0.14836216144E+04  0.10100000352E+00 0. -1.
</event>
<event>
 5   0  0.5328368E-06  0.3054568E+04  0.7818609E-02  0.8228318E-01
       -2   -1    0    0    0  501  0.00000000000E+00  0.00000000000E+00  0.91478591457E+03  0.91478591457E+03  0.25500000920E-02 0.  1.
        2   -1    0    0  501    0  0.00000000000E+00  0.00000000000E+00 -0.25498823888E+04  0.25498823888E+04  0.25500000920E-02 0. -1.
    10030    2    1    2    0    0  0.00000000000E+00  0.00000000000E+00 -0.16350964742E+04  0.34646683033E+04  0.30545680500E+04 0.  0.
        1    1    3    3  502    0  0.15070838173E+03  0.13799225251E+04 -0.95089716365E+02  0.13913810570E+04  0.50400001928E-02 0.  1.
       -1    1    3    3    0  502 -0.15070838173E+03 -0.13799225251E+04 -0.15400067578E+04  0.20732872463E+04  0.50400001928E-02 0. -1.
</event>
<event>
 5   0  0.1836401E-06  0.3071534E+04  0.7818609E-02  0.8223594E-01
       -1   -1    0    0    0  501  0.00000000000E+00  0.00000000000E+00  0.20839193133E+04  0.20839193133E+04  0.50400001928E-02 0.  1.
        1   -1    0    0  501    0  0.00000000000E+00  0.00000000000E+00 -0.11318005303E+04  0.11318005303E+04  0.50400001928E-02 0. -1.
    10030    2    1    2    0    0  0.00000000000E+00  0.00000000000E+00  0.95211878307E+03  0.32157198436E+04  0.30715344594E+04 0.  0.
        2    1    3    3  502    0 -0.61880417072E+03  0.62810493757E+03 -0.84040427885E+03  0.12180778983E+04  0.25500000920E-02 0. -1.
       -2    1    3    3    0  502  0.61880417072E+03 -0.62810493757E+03  0.17925230619E+04  0.19976419454E+04  0.25500000920E-02 0.  1.
</event>
<event>
 5   0  0.5114870E-06  0.3129704E+04  0.7818609E-02  0.8207633E-01
       -2   -1    0    0    0  501  0.00000000000E+00  0.00000000000E+00  0.13032875799E+04  0.13032875799E+04  0.25500000920E-02 0.  1.
        2   -1    0    0  501    0  0.00000000000E+00  0.00000000000E+00 -0.18789112812E+04  0.18789112812E+04  0.25500000920E-02 0. -1.
    10030    2    1    2    0    0  0.00000000000E+00  0.00000000000E+00 -0.57562370124E+03  0.31821988611E+04  0.31297039710E+04 0.  0.
        2    1    3    3  502    0 -0.80231543751E+03 -0.42944707659E+03  0.10065794173E+04  0.13569587231E+04  0.25500000920E-02 0.  1.
       -2    1    3    3    0  502  0.80231543751E+03  0.42944707659E+03 -0.15822031186E+04  0.18252401380E+04  0.25500000920E-02 0. -1.
</event>
<event>
 5   0  0.1843709E-06  0.2687996E+04  0.7818609E-02  0.8338910E-01
        1   -1    0    0  501    0  0.00000000000E+00  0.00000000000E+00  0.13713484040E+04  0.13713484040E+04  0.50400001928E-02 0.  1.
       -1   -1    0    0    0  501  0.00000000000E+00  0.00000000000E+00 -0.13171931708E+04  0.13171931708E+04  0.50400001928E-02 0. -1.
    10030    2    1    2    0    0  0.00000000000E+00  0.00000000000E+00  0.54155233267E+02  0.26885415748E+04  0.26879960957E+04 0.  0.
        4    1    3    3  502    0  0.88941068136E+03  0.80370876944E+03  0.63492620475E+03  0.13565146680E+04  0.12699999809E+01 0.  1.
       -4    1    3    3    0  502 -0.88941068136E+03 -0.80370876944E+03 -0.58077097148E+03  0.13320269068E+04  0.12699999809E+01 0. -1.
</event>
<event>
 5   0  0.4927533E-06  0.3125286E+04  0.7818609E-02  0.8208832E-01
       -2   -1    0    0    0  501  0.00000000000E+00  0.00000000000E+00  0.15985560566E+04  0.15985560566E+04  0.25500000920E-02 0. -1.
        2   -1    0    0  501    0  0.00000000000E+00  0.00000000000E+00 -0.15275372262E+04  0.15275372262E+04  0.25500000920E-02 0.  1.
    10030    2    1    2    0    0  0.00000000000E+00  0.00000000000E+00  0.71018830368E+02  0.31260932828E+04  0.31252864730E+04 0.  0.
        5    1    3    3  502    0 -0.32563608857E+03 -0.66637336749E+03 -0.13402508544E+04  0.15317920126E+04  0.46999998093E+01 0.  1.
       -5    1    3    3    0  502  0.32563608857E+03  0.66637336749E+03  0.14112696848E+04  0.15943012702E+04  0.46999998093E+01 0. -1.
</event>
<event>
 5   0  0.1840431E-06  0.3132552E+04  0.7818609E-02  0.8206861E-01
       -1   -1    0    0    0  501  0.00000000000E+00  0.00000000000E+00  0.93127724860E+03  0.93127724861E+03  0.50400001928E-02 0. -1.
        1   -1    0    0  501    0  0.00000000000E+00  0.00000000000E+00 -0.26342534106E+04  0.26342534106E+04  0.50400001928E-02 0.  1.
    10030    2    1    2    0    0  0.00000000000E+00  0.00000000000E+00 -0.17029761620E+04  0.35655306592E+04  0.31325518469E+04 0.  0.
        1    1    3    3  502    0  0.59109054301E+03  0.26180876484E+03  0.77233566157E+03  0.10071912597E+04  0.50400001928E-02 0. -1.
       -1    1    3    3    0  502 -0.59109054301E+03 -0.26180876484E+03 -0.24753118235E+04  0.25583393995E+04  0.50400001928E-02 0.  1.
</event>
<event>
 5   0  0.5328368E-06  0.3071156E+04  0.7818609E-02  0.8223699E-01
        2   -1    0    0  501    0  0.00000000000E+00  0.00000000000E+00  0.13199246739E+04  0.13199246739E+04  0.25500000920E-02 0. -1.
       -2   -1    0    0    0  501  0.00000000000E+00  0.00000000000E+00 -0.17864650315E+04  0.17864650315E+04  0.25500000920E-02 0.  1.
    10030    2    1    2    0    0  0.00000000000E+00  0.00000000000E+00 -0.46654035757E+03  0.31063897054E+04  0.30711556614E+04 0.  0.
        1    1    3    3  502    0 -0.12099706270E+04 -0.24976937164E+03 -0.11556453281E+04  0.16917239082E+04  0.50400001928E-02 0.  1.
       -1    1    3    3    0  502  0.12099706270E+04  0.24976937164E+03  0.68910497052E+03  0.14146657972E+04  0.50400001928E-02 0. -1.
</event>
<event>
 5   0  0.1836401E-06  0.3088442E+04  0.7818609E-02  0.8218917E-01
        1   -1    0    0  501    0  0.00000000000E+00  0.00000000000E+00  0.14787834087E+04  0.14787834087E+04  0.50400001928E-02 0. -1.
       -1   -1    0    0    0  501  0.00000000000E+00  0.00000000000E+00 -0.16125542340E+04  0.16125542340E+04  0.50400001928E-02 0.  1.
    10030    2    1    2    0    0  0.00000000000E+00  0.00000000000E+00 -0.13377082524E+03  0.30913376427E+04  0.30884419677E+04 0.  0.
        2    1    3    3  502    0  0.11981074122E+04  0.62434773988E+03  0.68171083179E+03  0.15132749683E+04  0.25500000920E-02 0.  1.
       -2    1    3    3    0  502 -0.11981074122E+04 -0.62434773988E+03 -0.81548165703E+03  0.15780626744E+04  0.25500000920E-02 0. -1.
</event>
<event>
 5   0  0.1836401E-06  0.3088786E+04  0.7818609E-02  0.8218822E-01
       -1   -1    0    0    0  501  0.00000000000E+00  0.00000000000E+00  0.10201844890E+04  0.10201844890E+04  0.50400001928E-02 0. -1.
        1   -1    0    0  501    0  0.00000000000E+00  0.00000000000E+00 -0.23379587585E+04  0.23379587585E+04  0.50400001928E-02 0.  1.
    10030    2    1    2    0    0  0.00000000000E+00  0.00000000000E+00 -0.13177742695E+04  0.33581432475E+04  0.30887856911E+04 0.  0.
        2    1    3    3  502    0 -0.93826921459E+03 -0.65075384076E+03 -0.17894337518E+04  0.21227111986E+04  0.25500000920E-02 0.  1.
       -2    1    3    3    0  502  0.93826921459E+03  0.65075384076E+03  0.47165948236E+03  0.12354320490E+04  0.25500000920E-02 0. -1.
</event>
<event>
 5   0  0.1853742E-06  0.3082617E+04  0.7818609E-02  0.8220525E-01
       -1   -1    0    0    0  501  0.00000000000E+00  0.00000000000E+00  0.16800796556E+04  0.16800796556E+04  0.50400001928E-02 0.  1.
        1   -1    0    0  501    0  0.00000000000E+00  0.00000000000E+00 -0.14139994602E+04  0.14139994602E+04  0.50400001928E-02 0. -1.
    10030    2    1    2    0    0  0.00000000000E+00  0.00000000000E+00  0.26608019536E+03  0.30940791158E+04  0.30826168922E+04 0.  0.
        5    1    3    3  502    0 -0.11598683548E+04  0.16089050062E+03  0.11389788596E+04  0.16335468424E+04  0.46999998093E+01 0.  1.
       -5    1    3    3    0  502  0.11598683548E+04 -0.16089050062E+03 -0.87289866421E+03  0.14605322734E+04  0.46999998093E+01 0. -1.
</event>
<event>
 5   0  0.1853742E-06  0.3128228E+04  0.7818609E-02  0.8208033E-01
       -1   -1    0    0    0  501  0.00000000000E+00  0.00000000000E+00  0.11748942605E+04  0.11748942605E+04  0.50400001928E-02 0. -1.
        1   -1    0    0  501    0  0.00000000000E+00  0.00000000000E+00 -0.20822743393E+04  0.20822743393E+04  0.50400001928E-02 0.  1.
    10030    2    1    2    0    0  0.00000000000E+00  0.00000000000E+00 -0.90738007884E+03  0.32571685998E+04  0.31282277219E+04 0.  0.
        5    1    3    3  502    0  0.63896945502E+03  0.13492153741E+04  0.32198780157E+02  0.14932256834E+04  0.46999998093E+01 0. -1.
       -5    1    3    3    0  502 -0.63896945502E+03 -0.13492153741E+04 -0.93957885900E+03  0.17639429164E+04  0.46999998093E+01 0.  1.
</event>
<event>
 5   0  0.1843709E-06  0.3083739E+04  0.7818609E-02  0.8220215E-01
       -1   -1    0    0    0  501  0.00000000000E+00  0.00000000000E+00  0.15277064878E+04  0.15277064878E+04  0.50400001928E-02 0.  1.
        1   -1    0    0  501    0  0.00000000000E+00  0.00000000000E+00 -0.15561635472E+04  0.15561635472E+04  0.50400001928E-02 0. -1.
    10030    2    1    2    0    0  0.00000000000E+00  0.00000000000E+00 -0.28457059427E+02  0.30838700351E+04  0.30837387355E+04 0.  0.
        4    1    3    3  502    0  0.10325229456E+04  0.56245130573E+03  0.98326290067E+03  0.15327304555E+04  0.12699999809E+01 0.  1.
       -4    1    3    3    0  502 -0.10325229456E+04 -0.56245130573E+03 -0.10117199601E+04  0.15511395795E+04  0.12699999809E+01 0. -1.
</event>
<event>
 5   0  0.4900679E-06  0.3094166E+04  0.7818609E-02  0.8217341E-01
       -2   -1    0    0    0  501  0.00000000000E+00  0.00000000000E+00  0.97360520936E+03  0.97360520936E+03  0.25500000920E-02 0.  1.
        2   -1    0    0  501    0  0.00000000000E+00  0.00000000000E+00 -0.24583541345E+04  0.24583541345E+04  0.25500000920E-02 0. -1.
    10030    2    1    2    0    0  0.00000000000E+00  0.00000000000E+00 -0.14847489251E+04  0.34319593438E+04  0.30941663768E+04 0.  0.
        4    1    3    3  502    0  0.57490189907E+03 -0.84588033894E+03  0.54514272297E+03  0.11589684822E+04  0.12699999809E+01 0.  1.
       -4    1    3    3    0  502 -0.57490189907E+03  0.84588033894E+03 -0.20298916481E+04  0.22729908617E+04  0.12699999809E+01 0. -1.
</event>
<event>
 5   0  0.5328368E-06  0.3079021E+04  0.7818609E-02  0.8221519E-01
       -2   -1    0    0    0  501  0.00000000000E+00  0.00000000000E+00  0.10503848312E+04  0.10503848312E+04  0.25500000920E-02 0.  1.
        2   -1    0    0  501    0  0.00000000000E+00  0.00000000000E+00 -0.22564036380E+04  0.22564036380E+04  0.25500000920E-02 0. -1.
    10030    2    1    2    0    0  0.00000000000E+00  0.00000000000E+00 -0.12060188068E+04  0.33067884692E+04  0.30790207239E+04 0.  0.
        1    1    3    3  502    0  0.94071283359E+03 -0.85683174201E+03  0.32769364315E+03  0.13139575310E+04  0.50400001928E-02 0.  1.
       -1    1    3    3    0  502 -0.94071283359E+03  0.85683174201E+03 -0.15337124499E+04  0.19928309383E+04  0.50400001928E-02 0. -1.
</event>
<event>
 5   0  0.4927533E-06  0.3156806E+04  0.7818609E-02  0.8200319E-01
        2   -1    0    0  501    0  0.00000000000E+00  0.00000000000E+00  0.17245234153E+04  0.17245234154E+04  0.25500000920E-02 0. -1.
       -2   -1    0    0    0  501  0.00000000000E+00  0.00000000000E+00 -0.14446633784E+04  0.14446633784E+04  0.25500000920E-02 0.  1.
    10030    2    1    2    0    0  0.00000000000E+00  0.00000000000E+00  0.27986003694E+03  0.31691867938E+04  0.31568058688E+04 0.  0.
        5    1    3    3  502    0  0.99589626844E+03 -0.75737094101E+03  0.11059479700E+04  0.16698991353E+04  0.46999998093E+01 0. -1.
       -5    1    3    3    0  502 -0.99589626844E+03  0.75737094101E+03 -0.82608793301E+03  0.14992876585E+04  0.46999998093E+01 0.  1.
</event>
<event>
 5   0  0.5114870E-06  0.2611153E+04  0.7818609E-02  0.8364423E-01
       -2   -1    0    0    0  501  0.00000000000E+00  0.00000000000E+00  0.14944306585E+04  0.14944306585E+04  0.25500000920E-02 0.  1.
        2   -1    0    0  501    0  0.00000000000E+00  0.00000000000E+00 -0.11405880205E+04  0.11405880205E+04  0.25500000920E-02 0. -1.
    10030    2    1    2    0    0  0.00000000000E+00  0.00000000000E+00  0.35384263799E+03  0.26350186789E+04  0.26111527772E+04 0.  0.
        2    1    3    3  502    0  0.73043140430E+02  0.32818673527E+02  0.14919501173E+04  0.14940975598E+04  0.25500000920E-02 0.  1.
       -2    1    3    3    0  502 -0.73043140430E+02 -0.32818673527E+02 -0.11381074793E+04  0.11409211191E+04  0.25500000920E-02 0. -1.
</event>
<event>
 5   0  0.1836401E-06  0.3076680E+04  0.7818609E-02  0.8222167E-01
       -1   -1    0    0    0  501  0.00000000000E+00  0.00000000000E+00  0.21741130876E+04  0.21741130876E+04  0.50400001928E-02 0.  1.
        1   -1    0    0  501    0  0.00000000000E+00  0.00000000000E+00 -0.10884854833E+04  0.10884854833E+04  0.50400001928E-02 0. -1.
    10030    2    1    2    0    0  0.00000000000E+00  0.00000000000E+00  0.10856276043E+04  0.32625985709E+04  0.30766803765E+04 0.  0.
        2    1    3    3  502    0 -0.51677038902E+03  0.11986743262E+04  0.14060171651E+04  0.19185296567E+04  0.25500000920E-02 0.  1.
       -2    1    3    3    0  502  0.51677038902E+03 -0.11986743262E+04 -0.32038956085E+03  0.13440689141E+04  0.25500000920E-02 0. -1.
</event>
<event>
 5   0  0.1840431E-06  0.3177694E+04  0.7818609E-02  0.8194733E-01
       -1   -1    0    0    0  501  0.00000000000E+00  0.00000000000E+00  0.10988095210E+04  0.10988095210E+04  0.50400001928E-02 0.  1.
        1   -1    0    0  501    0  0.00000000000E+00  0.00000000000E+00 -0.22974274037E+04  0.22974274037E+04  0.50400001928E-02 0. -1.
    10030    2    1    2    0    0  0.00000000000E+00  0.00000000000E+00 -0.11986178827E+04  0.33962369246E+04  0.31776941986E+04 0.  0.
        1    1    3    3  502    0  0.11990384076E+04  0.19862008493E+03 -0.16930632694E+04  0.20841320197E+04  0.50400001928E-02 0. -1.
       -1    1    3    3    0  502 -0.11990384076E+04 -0.19862008493E+03  0.49444538672E+03  0.13121049050E+04  0.50400001928E-02 0.  1.
</event>
<event>
 5   0  0.4927533E-06  0.3126355E+04  0.7818609E-02  0.8208542E-01
        2   -1    0    0  501    0  0.00000000000E+00  0.00000000000E+00  0.21957351768E+04  0.21957351768E+04  0.25500000920E-02 0. -1.
       -2   -1    0    0    0  501  0.00000000000E+00  0.00000000000E+00 -0.11128497853E+04  0.11128497853E+04  0.25500000920E-02 0.  1.
    10030    2    1    2    0    0  0.00000000000E+00  0.00000000000E+00  0.10828853915E+04  0.33085849622E+04  0.31263546953E+04 0.  0.
        5    1    3    3  502    0 -0.12494801685E+03  0.13100916626E+04  0.14341446750E+04  0.19464699356E+04  0.46999998093E+01 0. -1.
       -5    1    3    3    0  502  0.12494801685E+03 -0.13100916626E+04 -0.35125928351E+03  0.13621150265E+04  0.46999998093E+01 0.  1.
</event>
<event>
 5   0  0.5328368E-06  0.3019765E+04  0.7818609E-02  0.8238109E-01
       -2   -1    0    0    0  501  0.00000000000E+00  0.00000000000E+00  0.14779099806E+04  0.14779099806E+04  0.25500000920E-02 0. -1.
        2   -1    0    0  501    0  0.00000000000E+00  0.00000000000E+00 -0.15425462653E+04  0.15425462653E+04  0.25500000920E-02 0.  1.
    10030    2    1    2    0    0  0.00000000000E+00  0.00000000000E+00 -0.64636284706E+02  0.30204562459E+04  0.30197645743E+04 0.  0.
        1    1    3    3  502    0 -0.70842809957E+02  0.14145453154E+04 -0.55568493840E+03  0.15214279161E+04  0.50400001928E-02 0.  1.
       -1    1    3    3    0  502  0.70842809957E+02 -0.14145453154E+04  0.49104865369E+03  0.14990283298E+04  0.50400001928E-02 0. -1.
</event>
<event>
 5   0  0.1649875E-06  0.3089806E+04  0.7818609E-02  0.8218541E-01
        3   -1    0    0  501    0  0.00000000000E+00  0.00000000000E+00  0.16102389463E+04  0.16102389495E+04  0.10100000352E+00 0.  1.
       -3   -1    0    0    0  501  0.00000000000E+00  0.00000000000E+00 -0.14822177512E+04  0.14822177546E+04  0.10100000352E+00 0. -1.
    10030    2    1    2    0    0  0.00000000000E+00  0.00000000000E+00  0.12802119509E+03  0.30924567041E+04  0.30898056638E+04 0.  0.
        4    1    3    3  502    0 -0.11733001611E+04 -0.51199013495E+03  0.92959711414E+03  0.15820618110E+04  0.12699999809E+01 0.  1.
       -4    1    3    3    0  502  0.11733001611E+04  0.51199013495E+03 -0.80157591905E+03  0.15103948931E+04  0.12699999809E+01 0. -1.
</event>
<event>
 5   0  0.1885307E-06  0.3117900E+04  0.7818609E-02  0.8210843E-01
       -1   -1    0    0    0  501  0.00000000000E+00  0.00000000000E+00  0.29727693793E+04  0.29727693793E+04  0.50400001928E-02 0.  1.
        1   -1    0    0  501    0  0.00000000000E+00  0.00000000000E+00 -0.81752889092E+03  0.81752889094E+03  0.50400001928E-02 0. -1.
    10030    2    1    2    0    0  0.00000000000E+00  0.00000000000E+00  0.21552404884E+04  0.37902982703E+04  0.31178998404E+04 0.  0.
        3    1    3    3  502    0 -0.10764604542E+03 -0.15544190473E+04  0.11386287839E+04  0.19298398285E+04  0.10100000352E+00 0.  1.
       -3    1    3    3    0  502  0.10764604542E+03  0.15544190473E+04  0.10166117045E+04  0.18604584418E+04  0.10100000352E+00 0. -1.
</event>
<event>
 5   0  0.4927533E-06  0.3152755E+04  0.7818609E-02  0.8201407E-01
       -2   -1    0    0    0  501  0.00000000000E+00  0.00000000000E+00  0.10890584068E+04  0.10890584069E+04  0.25500000920E-02 0. -1.
        2   -1    0    0  501    0  0.00000000000E+00  0.00000000000E+00 -0.22817565024E+04  0.22817565024E+04  0.25500000920E-02 0.  1.
    10030    2    1    2    0    0  0.00000000000E+00  0.00000000000E+00 -0.11926980956E+04  0.33708149093E+04  0.31527550500E+04 0.  0.
        5    1    3    3  502    0  0.95268742180E+03 -0.83162214019E+03 -0.16025776399E+04  0.20414421103E+04  0.46999998093E+01 0.  1.
       -5    1    3    3    0  502 -0.95268742180E+03  0.83162214019E+03  0.40987954438E+03  0.13293727990E+04  0.46999998093E+01 0. -1.
</event>
<event>
 5   0  0.1885307E-06  0.3053820E+04  0.7818609E-02  0.8228527E-01
       -1   -1    0    0    0  501  0.00000000000E+00  0.00000000000E+00  0.25921619656E+04  0.25921619657E+04  0.50400001928E-02 0.  1.
        1   -1    0    0  501    0  0.00000000000E+00  0.00000000000E+00 -0.89942442804E+03  0.89942442805E+03  0.50400001928E-02 0. -1.
    10030    2    1    2    0    0  0.00000000000E+00  0.00000000000E+00  0.16927375376E+04  0.34915863937E+04  0.30538197677E+04 0.  0.
        3    1    3    3  502    0 -0.98123936151E+02 -0.10414991662E+04  0.21180628942E+04  0.23623165016E+04  0.10100000352E+00 0.  1.
       -3    1    3    3    0  502  0.98123936151E+02  0.10414991662E+04 -0.42532535657E+03  0.11292698921E+04  0.10100000352E+00 0. -1.
</event>
<event>
 5   0  0.4927533E-06  0.3115024E+04  0.7818609E-02  0.8211627E-01
       -2   -1    0    0    0  501  0.00000000000E+00  0.00000000000E+00  0.81837614597E+03  0.81837614597E+03  0.25500000920E-02 0.  1.
        2   -1    0    0  501    0  0.00000000000E+00  0.00000000000E+00 -0.29642162623E+04  0.29642162623E+04  0.25500000920E-02 0. -1.
    10030    2    1    2    0    0  0.00000000000E+00  0.00000000000E+00 -0.21458401163E+04  0.37825924083E+04  0.31150241608E+04 0.  0.
        5    1    3    3  502    0  0.94398289013E+03 -0.10308302825E+03  0.42619068474E+03  0.10408604120E+04  0.46999998093E+01 0.  1.
       -5    1    3    3    0  502 -0.94398289013E+03  0.10308302825E+03 -0.25720308011E+04  0.27417319962E+04  0.46999998093E+01 0. -1.
</event>
<event>
 5   0  0.1836401E-06  0.3096977E+04  0.7818609E-02  0.8216568E-01
        1   -1    0    0  501    0  0.00000000000E+00  0.00000000000E+00  0.15084078149E+04  0.15084078149E+04  0.50400001928E-02 0.  1.
       -1   -1    0    0    0  501  0.00000000000E+00  0.00000000000E+00 -0.15896345365E+04  0.15896345365E+04  0.50400001928E-02 0. -1.
    10030    2    1    2    0    0  0.00000000000E+00  0.00000000000E+00 -0.81226721584E+02  0.30980423515E+04  0.30969773378E+04 0.  0.
        2    1    3    3  502    0  0.82624245250E+03 -0.60365551054E+03  0.11219999709E+04  0.15185389361E+04  0.25500000920E-02 0.  1.
       -2    1    3    3    0  502 -0.82624245250E+03  0.60365551054E+03 -0.12032266925E+04  0.15795034154E+04  0.25500000920E-02 0. -1.
</event>
<event>
 5   0  0.5328368E-06  0.3073109E+04  0.7818609E-02  0.8223157E-01
       -2   -1    0    0    0  501  0.00000000000E+00  0.00000000000E+00  0.13247952006E+04  0.13247952006E+04  0.25500000920E-02 0.  1.
        2   -1    0    0  501    0  0.00000000000E+00  0.00000000000E+00 -0.17821625926E+04  0.17821625926E+04  0.25500000920E-02 0. -1.
    10030    2    1    2    0    0  0.00000000000E+00  0.00000000000E+00 -0.45736739196E+03  0.31069577932E+04  0.30731094672E+04 0.  0.
        1    1    3    3  502    0 -0.10337451292E+04  0.11037423475E+04  0.46572807752E+02  0.15129590835E+04  0.50400001928E-02 0.  1.
       -1    1    3    3    0  502  0.10337451292E+04 -0.11037423475E+04 -0.50394019972E+03  0.15939987098E+04  0.50400001928E-02 0. -1.
</event>
<event>
 5   0  0.1836401E-06  0.3239402E+04  0.7818609E-02  0.8178488E-01
       -1   -1    0    0    0  501  0.00000000000E+00  0.00000000000E+00  0.19657878785E+04  0.19657878785E+04  0.50400001928E-02 0. -1.
        1   -1    0    0  501    0  0.00000000000E+00  0.00000000000E+00 -0.13345443314E+04  0.13345443314E+04  0.50400001928E-02 0.  1.
    10030    2    1    2    0    0  0.00000000000E+00  0.00000000000E+00  0.63124354706E+03  0.33003322099E+04  0.32394018398E+04 0.  0.
        2    1    3    3  502    0 -0.99924457490E+03 -0.59730582723E+03 -0.83168900650E+03  0.14307237942E+04  0.25500000920E-02 0.  1.
       -2    1    3    3    0  502  0.99924457490E+03  0.59730582723E+03  0.14629325536E+04  0.18696084157E+04  0.25500000920E-02 0. -1.
</event>
<event>
 5   0  0.4900679E-06  0.3030455E+04  0.7818609E-02  0.8235087E-01
        2   -1    0    0  501    0  0.00000000000E+00  0.00000000000E+00  0.17640788717E+04  0.17640788717E+04  0.25500000920E-02 0.  1.
       -2   -1    0    0    0  501  0.00000000000E+00  0.00000000000E+00 -0.13014806971E+04  0.13014806971E+04  0.25500000920E-02 0. -1.
    10030    2    1    2    0    0  0.00000000000E+00  0.00000000000E+00  0.46259817466E+03  0.30655595688E+04  0.30304551471E+04 0.  0.
        4    1    3    3  502    0 -0.59967045254E+03  0.80929647869E+03  0.13763778751E+04  0.17055741292E+04  0.12699999809E+01 0.  1.
       -4    1    3    3    0  502  0.59967045254E+03 -0.80929647869E+03 -0.91377970046E+03  0.13599854396E+04  0.12699999809E+01 0. -1.
</event>
<event>
 5   0  0.1843709E-06  0.3098713E+04  0.7818609E-02  0.8216091E-01
        1   -1    0    0  501    0  0.00000000000E+00  0.00000000000E+00  0.14173410016E+04  0.14173410017E+04  0.50400001928E-02 0. -1.
       -1   -1    0    0    0  501  0.00000000000E+00  0.00000000000E+00 -0.16936685874E+04  0.16936685874E+04  0.50400001928E-02 0.  1.
    10030    2    1    2    0    0  0.00000000000E+00  0.00000000000E+00 -0.27632758578E+03  0.31110095891E+04  0.30987132376E+04 0.  0.
        4    1    3    3  502    0  0.28175503201E+03 -0.47101425088E+03 -0.15927969779E+04  0.16847089210E+04  0.12699999809E+01 0.  1.
       -4    1    3    3    0  502 -0.28175503201E+03  0.47101425088E+03  0.13164693921E+04  0.14263006681E+04  0.12699999809E+01 0. -1.
</event>
<event>
 5   0  0.1836401E-06  0.2841447E+04  0.7818609E-02  0.8290515E-01
        1   -1    0    0  501    0  0.00000000000E+00  0.00000000000E+00  0.25428638098E+04  0.25428638098E+04  0.50400001928E-02 0.  1.
       -1   -1    0    0    0  501  0.00000000000E+00  0.00000000000E+00 -0.79377244036E+03  0.79377244037E+03  0.50400001928E-02 0. -1.
    10030    2    1    2    0    0  0.00000000000E+00  0.00000000000E+00  0.17490913694E+04  0.33366362502E+04  0.28414469637E+04 0.  0.
        2    1    3    3  502    0 -0.77561076286E+03  0.83179845487E+03 -0.12530848377E+03  0.11441865849E+04  0.25500000920E-02 0. -1.
       -2    1    3    3    0  502  0.77561076286E+03 -0.83179845487E+03  0.18743998532E+04  0.21924496653E+04  0.25500000920E-02 0.  1.
</event>
<event>
 5   0  0.1853742E-06  0.3101173E+04  0.7818609E-02  0.8215416E-01
       -1   -1    0    0    0  501  0.00000000000E+00  0.00000000000E+00  0.11916336712E+04  0.11916336712E+04  0.50400001928E-02 0. -1.
        1   -1    0    0  501    0  0.00000000000E+00  0.00000000000E+00 -0.20176664149E+04  0.20176664149E+04  0.50400001928E-02 0.  1.
    10030    2    1    2    0    0  0.00000000000E+00  0.00000000000E+00 -0.82603274369E+03  0.32093000861E+04  0.31011734794E+04 0.  0.
        5    1    3    3  502    0  0.10132219191E+04  0.99391571347E+03 -0.10591327937E+04  0.17709521358E+04  0.46999998093E+01 0.  1.
       -5    1    3    3    0  502 -0.10132219191E+04 -0.99391571347E+03  0.23310005002E+03  0.14383479503E+04  0.46999998093E+01 0. -1.
</event>
<event>
 5   0  0.1836401E-06  0.2391099E+04  0.7818609E-02  0.8442844E-01
        1   -1    0    0  501    0  0.00000000000E+00  0.00000000000E+00  0.13943705736E+04  0.13943705736E+04  0.50400001928E-02 0.  1.
       -1   -1    0    0    0  501  0.00000000000E+00  0.00000000000E+00 -0.10250776366E+04  0.10250776366E+04  0.50400001928E-02 0. -1.
    10030    2    1    2    0    0  0.00000000000E+00  0.00000000000E+00  0.36929293699E+03  0.24194482103E+04  0.23910985695E+04 0.  0.
        2    1    3    3  502    0 -0.10077985187E+04 -0.14049611726E+03  0.81973531498E+03  0.13066610118E+04  0.25500000920E-02 0.  1.
       -2    1    3    3    0  502  0.10077985187E+04  0.14049611726E+03 -0.45044237799E+03  0.11127871985E+04  0.25500000920E-02 0. -1.
</event>
<event>
 5   0  0.1885307E-06  0.3040311E+04  0.7818609E-02  0.8232313E-01
        1   -1    0    0  501    0  0.00000000000E+00  0.00000000000E+00  0.17778006207E+04  0.17778006207E+04  0.50400001928E-02 0.  1.
       -1   -1    0    0    0  501  0.00000000000E+00  0.00000000000E+00 -0.12998494452E+04  0.12998494452E+04  0.50400001928E-02 0. -1.
    10030    2    1    2    0    0  0.00000000000E+00  0.00000000000E+00  0.47795117551E+03  0.30776500658E+04  0.30403112672E+04 0.  0.
        3    1    3    3  502    0  0.65905365672E+03  0.62856637501E+03  0.14710618947E+04  0.17301648819E+04  0.10100000352E+00 0.  1.
       -3    1    3    3    0  502 -0.65905365672E+03 -0.62856637501E+03 -0.99311071919E+03  0.13474851840E+04  0.10100000352E+00 0. -1.
</event>
<event>
 5   0  0.1853742E-06  0.3105032E+04  0.7818609E-02  0.8214358E-01
       -1   -1    0    0    0  501  0.00000000000E+00  0.00000000000E+00  0.12632265886E+04  0.12632265886E+04  0.50400001928E-02 0. -1.
        1   -1    0    0  501    0  0.00000000000E+00  0.00000000000E+00 -0.19080550696E+04  0.19080550696E+04  0.50400001928E-02 0.  1.
    10030    2    1    2    0    0  0.00000000000E+00  0.00000000000E+00 -0.64482848102E+03  0.31712816583E+04  0.31050319783E+04 0.  0.
        5    1    3    3  502    0 -0.63889148289E+03 -0.51616892339E+03 -0.16679723479E+04  0.18592381579E+04  0.46999998093E+01 0.  1.
       -5    1    3    3    0  502  0.63889148289E+03  0.51616892339E+03  0.10231438669E+04  0.13120435003E+04  0.46999998093E+01 0. -1.
</event>
<event>
 5   0  0.1853742E-06  0.3171039E+04  0.7818609E-02  0.8196508E-01
        1   -1    0    0  501    0  0.00000000000E+00  0.00000000000E+00  0.25506915376E+04  0.25506915376E+04  0.50400001928E-02 0.  1.
       -1   -1    0    0    0  501  0.00000000000E+00  0.00000000000E+00 -0.98556513599E+03  0.98556513600E+03  0.50400001928E-02 0. -1.
    10030    2    1    2    0    0  0.00000000000E+00  0.00000000000E+00  0.15651264017E+04  0.35362566736E+04  0.31710393578E+04 0.  0.
        5    1    3    3  502    0  0.25451379088E+03  0.66216946100E+03 -0.79870492112E+03  0.10682683679E+04  0.46999998093E+01 0. -1.
       -5    1    3    3    0  502 -0.25451379088E+03 -0.66216946100E+03  0.23638313228E+04  0.24679883058E+04  0.46999998093E+01 0.  1.
</event>
<event>
 5   0  0.1853742E-06  0.3062084E+04  0.7818609E-02  0.8226221E-01
        1   -1    0    0  501    0  0.00000000000E+00  0.00000000000E+00  0.79392571153E+03  0.79392571155E+03  0.50400001928E-02 0.  1.
       -1   -1    0    0    0  501  0.00000000000E+00  0.00000000000E+00 -0.29525297721E+04  0.29525297721E+04  0.50400001928E-02 0. -1.
    10030    2    1    2    0    0  0.00000000000E+00  0.00000000000E+00 -0.21586040605E+04  0.37464554836E+04  0.30620838004E+04 0.  0.
        5    1    3    3  502    0  0.60688507600E+02  0.59291589194E+03  0.64614990714E+03  0.87907004406E+03  0.46999998093E+01 0.  1.
       -5    1    3    3    0  502 -0.60688507600E+02 -0.59291589194E+03 -0.28047539677E+04  0.28673854396E+04  0.46999998093E+01 0. -1.
</event>
<event>
 5   0  0.4900679E-06  0.3104959E+04  0.7818609E-02  0.8214378E-01
        2   -1    0    0  501    0  0.00000000000E+00  0.00000000000E+00  0.14621686548E+04  0.14621686548E+04  0.25500000920E-02 0. -1.
       -2   -1    0    0    0  501  0.00000000000E+00  0.00000000000E+00 -0.16483688008E+04  0.16483688008E+04  0.25500000920E-02 0.  1.
    10030    2    1    2    0    0  0.00000000000E+00  0.00000000000E+00 -0.18620014596E+03  0.31105374556E+04  0.31049593827E+04 0.  0.
        4    1    3    3  502    0  0.24513636933E+03  0.12467252493E+04  0.80056523929E+03  0.15017729529E+04  0.12699999809E+01 0. -1.
       -4    1    3    3    0  502 -0.24513636933E+03 -0.12467252493E+04 -0.98676538526E+03  0.16087645027E+04  0.12699999809E+01 0.  1.
</event>
<event>
 5   0  0.1843709E-06  0.3095414E+04  0.7818609E-02  0.8216998E-01
        1   -1    0    0  501    0  0.00000000000E+00  0.00000000000E+00  0.14419516115E+04  0.14419516115E+04  0.50400001928E-02 0. -1.
       -1   -1    0    0    0  501  0.00000000000E+00  0.00000000000E+00 -0.16612182454E+04  0.16612182454E+04  0.50400001928E-02 0.  1.
    10030    2    1    2    0    0  0.00000000000E+00  0.00000000000E+00 -0.21926663387E+03  0.31031698569E+04  0.30954135917E+04 0.  0.
        4    1    3    3  502    0  0.26664304851E+03 -0.10310284976E+04 -0.12355130556E+04  0.16311383760E+04  0.12699999809E+01 0. -1.
       -4    1    3    3    0  502 -0.26664304851E+03  0.10310284976E+04  0.10162464217E+04  0.14720314809E+04  0.12699999809E+01 0.  1.
</event>
<event>
 5   0  0.5001658E-06  0.3146436E+04  0.7818609E-02  0.8203108E-01
        2   -1    0    0  501    0  0.00000000000E+00  0.00000000000E+00  0.12189004894E+04  0.12189004895E+04  0.25500000920E-02 0. -1.
       -2   -1    0    0    0  501  0.00000000000E+00  0.00000000000E+00 -0.20305301981E+04  0.20305301981E+04  0.25500000920E-02 0.  1.
    10030    2    1    2    0    0  0.00000000000E+00  0.00000000000E+00 -0.81162970863E+03  0.32494306875E+04  0.31464356038E+04 0.  0.
        3    1    3    3  502    0  0.72839236852E+01 -0.15453650512E+04 -0.10153835021E+03  0.15487143842E+04  0.10100000352E+00 0.  1.
       -3    1    3    3    0  502 -0.72839236852E+01  0.15453650512E+04 -0.71009135842E+03  0.17007163034E+04  0.10100000352E+00 0. -1.
</event>
<event>
 5   0  0.5328368E-06  0.3148932E+04  0.7818609E-02  0.8202436E-01
        2   -1    0    0  501    0  0.00000000000E+00  0.00000000000E+00  0.21015045021E+04  0.21015045021E+04  0.25500000920E-02 0.  1.
       -2   -1    0    0    0  501  0.00000000000E+00  0.00000000000E+00 -0.11796039920E+04  0.11796039920E+04  0.25500000920E-02 0. -1.
    10030    2    1    2    0    0  0.00000000000E+00  0.00000000000E+00  0.92190051007E+03  0.32811084942E+04  0.31489319459E+04 0.  0.
        1    1    3    3  502    0  0.11310519791E+04  0.10581839582E+04  0.75550174715E+03  0.17233150492E+04  0.50400001928E-02 0.  1.
       -1    1    3    3    0  502 -0.11310519791E+04 -0.10581839582E+04  0.16639876292E+03  0.15577934450E+04  0.50400001928E-02 0. -1.
</event>
<event>
 5   0  0.1843709E-06  0.3077431E+04  0.7818609E-02  0.8221959E-01
       -1   -1    0    0    0  501  0.00000000000E+00  0.00000000000E+00  0.14956231747E+04  0.14956231747E+04  0.50400001928E-02 0.  1.
        1   -1    0    0  501    0  0.00000000000E+00  0.00000000000E+00 -0.15830491341E+04  0.15830491341E+04  0.50400001928E-02 0. -1.
    10030    2    1    2    0    0  0.00000000000E+00  0.00000000000E+00 -0.87425959362E+02  0.30786723088E+04  0.30774307282E+04 0.  0.
        4    1    3    3  502    0  0.76260555917E+03 -0.19508809879E+03  0.12789462746E+04  0.15017762121E+04  0.12699999809E+01 0.  1.
       -4    1    3    3    0  502 -0.76260555917E+03  0.19508809879E+03 -0.13663722339E+04  0.15768960967E+04  0.12699999809E+01 0. -1.
</event>
<event>
 5   0  0.5328368E-06  0.3075858E+04  0.7818609E-02  0.8222395E-01
       -2   -1    0    0    0  501  0.00000000000E+00  0.00000000000E+00  0.14167204155E+04  0.14167204155E+04  0.25500000920E-02 0.  1.
        2   -1    0    0  501    0  0.00000000000E+00  0.00000000000E+00 -0.16695078081E+04  0.16695078081E+04  0.25500000920E-02 0. -1.
    10030    2    1    2    0    0  0.00000000000E+00  0.00000000000E+00 -0.25278739263E+03  0.30862282236E+04  0.30758581213E+04 0.  0.
        1    1    3    3  502    0 -0.96346289269E+03  0.11886831067E+04 -0.28182730722E+03  0.15558453988E+04  0.50400001928E-02 0. -1.
       -1    1    3    3    0  502  0.96346289269E+03 -0.11886831067E+04  0.29039914591E+02  0.15303828248E+04  0.50400001928E-02 0.  1.
</event>
<event>
 5   0  0.5001658E-06  0.3101233E+04  0.7818609E-02  0.8215400E-01
        2   -1    0    0  501    0  0.00000000000E+00  0.00000000000E+00  0.22211767875E+04  0.22211767875E+04  0.25500000920E-02 0. -1.
       -2   -1    0    0    0  501  0.00000000000E+00  0.00000000000E+00 -0.10824944559E+04  0.10824944559E+04  0.25500000920E-02 0.  1.
    10030    2    1    2    0    0  0.00000000000E+00  0.00000000000E+00  0.11386823316E+04  0.33036712434E+04  0.31012330181E+04 0.  0.
        3    1    3    3  502    0  0.30270398782E+03 -0.23104094815E+03  0.21705912701E+04  0.22037413859E+04  0.10100000352E+00 0. -1.
       -3    1    3    3    0  502 -0.30270398782E+03  0.23104094815E+03 -0.10319089385E+04  0.10999298575E+04  0.10100000352E+00 0.  1.
</event>
<event>
 5   0  0.1836401E-06  0.3123448E+04  0.7818609E-02  0.8209332E-01
        1   -1    0    0  501    0  0.00000000000E+00  0.00000000000E+00  0.14426363848E+04  0.14426363848E+04  0.50400001928E-02 0.  1.
       -1   -1    0    0    0  501  0.00000000000E+00  0.00000000000E+00 -0.16906417683E+04  0.16906417683E+04  0.50400001928E-02 0. -1.
    10030    2    1    2    0    0  0.00000000000E+00  0.00000000000E+00 -0.24800538348E+03  0.31332781531E+04  0.31234476647E+04 0.  0.
        2    1    3    3  502    0  0.78784500004E+03  0.10860819984E+04  0.67770438527E+03  0.15031823193E+04  0.25500000920E-02 0.  1.
       -2    1    3    3    0  502 -0.78784500004E+03 -0.10860819984E+04 -0.92570976875E+03  0.16300958338E+04  0.25500000920E-02 0. -1.
</event>
<event>
 5   0  0.5001658E-06  0.2450132E+04  0.7818609E-02  0.8420970E-01
       -2   -1    0    0    0  501  0.00000000000E+00  0.00000000000E+00  0.91883228836E+03  0.91883228836E+03  0.25500000920E-02 0.  1.
        2   -1    0    0  501    0  0.00000000000E+00  0.00000000000E+00 -0.16333630055E+04  0.16333630055E+04  0.25500000920E-02 0. -1.
    10030    2    1    2    0    0  0.00000000000E+00  0.00000000000E+00 -0.71453071711E+03  0.25521952938E+04  0.24501319704E+04 0.  0.
        3    1    3    3  502    0  0.25662033009E+02 -0.79832020138E+03 -0.13248361726E+04  0.15469856425E+04  0.10100000352E+00 0. -1.
       -3    1    3    3    0  502 -0.25662033009E+02  0.79832020138E+03  0.61030545546E+03  0.10052096513E+04  0.10100000352E+00 0.  1.
</event>
<event>
 5   0  0.1840431E-06  0.3087816E+04  0.7818609E-02  0.8219090E-01
       -1   -1    0    0    0  501  0.00000000000E+00  0.00000000000E+00  0.10654897957E+04  0.10654897957E+04  0.50400001928E-02 0.  1.
        1   -1    0    0  501    0  0.00000000000E+00  0.00000000000E+00 -0.22371421478E+04  0.22371421478E+04  0.50400001928E-02 0. -1.
    10030    2    1    2    0    0  0.00000000000E+00  0.00000000000E+00 -0.11716523521E+04  0.33026319435E+04  0.30878161409E+04 0.  0.
        1    1    3    3  502    0  0.13773768293E+04 -0.69392834795E+03 -0.51058561616E+03  0.16246233882E+04  0.50400001928E-02 0. -1.
       -1    1    3    3    0  502 -0.13773768293E+04  0.69392834795E+03 -0.66106673596E+03  0.16780085552E+04  0.50400001928E-02 0.  1.
</event>
<event>
 5   0  0.1836401E-06  0.3098538E+04  0.7818609E-02  0.8216139E-01
       -1   -1    0    0    0  501  0.00000000000E+00  0.00000000000E+00  0.21060682886E+04  0.21060682886E+04  0.50400001928E-02 0. -1.
        1   -1    0    0  501    0  0.00000000000E+00  0.00000000000E+00 -0.11396752509E+04  0.11396752510E+04  0.50400001928E-02 0.  1.
    10030    2    1    2    0    0  0.00000000000E+00  0.00000000000E+00  0.96639303763E+03  0.32457435395E+04  0.30985376585E+04 0.  0.
        2    1    3    3  502    0 -0.58043947643E+01 -0.83307816354E+03 -0.88506770536E+03  0.12154825217E+04  0.25500000920E-02 0.  1.
       -2    1    3    3    0  502  0.58043947643E+01  0.83307816354E+03  0.18514607430E+04  0.20302610178E+04  0.25500000920E-02 0. -1.
</event>
<event>
 5   0  0.1840431E-06  0.3104066E+04  0.7818609E-02  0.8214623E-01
       -1   -1    0    0    0  501  0.00000000000E+00  0.00000000000E+00  0.22814903722E+04  0.22814903722E+04  0.50400001928E-02 0.  1.
        1   -1    0    0  501    0  0.00000000000E+00  0.00000000000E+00 -0.10558041516E+04  0.10558041516E+04  0.50400001928E-02 0. -1.
    10030    2    1    2    0    0  0.00000000000E+00  0.00000000000E+00  0.12256862206E+04  0.33372945238E+04  0.31040663697E+04 0.  0.
        1    1    3    3  502    0  0.96343390265E+03  0.84296469645E+03 -0.33059293517E+03  0.13221520537E+04  0.50400001928E-02 0. -1.
       -1    1    3    3    0  502 -0.96343390265E+03 -0.84296469645E+03  0.15562791558E+04  0.20151424701E+04  0.50400001928E-02 0.  1.
</event>
<event>
 5   0  0.5328368E-06  0.2214300E+04  0.7818609E-02  0.8512500E-01
        2   -1    0    0  501    0  0.00000000000E+00  0.00000000000E+00  0.17640473239E+04  0.17640473239E+04  0.25500000920E-02 0. -1.
       -2   -1    0    0    0  501  0.00000000000E+00  0.00000000000E+00 -0.69486872554E+03  0.69486872555E+03  0.25500000920E-02 0.  1.
    10030    2    1    2    0    0  0.00000000000E+00  0.00000000000E+00  0.10691785984E+04  0.24589160495E+04  0.22143001746E+04 0.  0.
        1    1    3    3  502    0  0.39727635454E+03 -0.36920319956E+03  0.16064335748E+04  0.16955141801E+04  0.50400001928E-02 0. -1.
       -1    1    3    3    0  502 -0.39727635454E+03  0.36920319956E+03 -0.53725497646E+03  0.76340186939E+03  0.50400001928E-02 0.  1.
</event>
<event>
 5   0  0.1840431E-06  0.3102075E+04  0.7818609E-02  0.8215169E-01
       -1   -1    0    0    0  501  0.00000000000E+00  0.00000000000E+00  0.10370903791E+04  0.10370903791E+04  0.50400001928E-02 0. -1.
        1   -1    0    0  501    0  0.00000000000E+00  0.00000000000E+00 -0.23196798772E+04  0.23196798772E+04  0.50400001928E-02 0.  1.
    10030    2    1    2    0    0  0.00000000000E+00  0.00000000000E+00 -0.12825894981E+04  0.33567702564E+04  0.31020752301E+04 0.  0.
        1    1    3    3  502    0  0.27322851690E+03 -0.14931455871E+04 -0.29641027348E+03  0.15466081007E+04  0.50400001928E-02 0.  1.
       -1    1    3    3    0  502 -0.27322851690E+03  0.14931455871E+04 -0.98617922467E+03  0.18101621557E+04  0.50400001928E-02 0. -1.
</event>
<event>
 5   0  0.1843709E-06  0.3084812E+04  0.7818609E-02  0.8219918E-01
       -1   -1    0    0    0  501  0.00000000000E+00  0.00000000000E+00  0.13698028211E+04  0.13698028211E+04  0.50400001928E-02 0. -1.
        1   -1    0    0  501    0  0.00000000000E+00  0.00000000000E+00 -0.17367582468E+04  0.17367582468E+04  0.50400001928E-02 0.  1.
    10030    2    1    2    0    0  0.00000000000E+00  0.00000000000E+00 -0.36695542568E+03  0.31065610679E+04  0.30848120500E+04 0.  0.
        4    1    3    3  502    0 -0.25481027216E+03  0.41742019632E+03 -0.16566126561E+04  0.17272912321E+04  0.12699999809E+01 0.  1.
       -4    1    3    3    0  502  0.25481027216E+03 -0.41742019632E+03  0.12896572304E+04  0.13792698358E+04  0.12699999809E+01 0. -1.
</event>
<event>
 5   0  0.5114870E-06  0.3076083E+04  0.7818609E-02  0.8222333E-01
        2   -1    0    0  501    0  0.00000000000E+00  0.00000000000E+00  0.84138401313E+03  0.84138401313E+03  0.25500000920E-02 0.  1.
       -2   -1    0    0    0  501  0.00000000000E+00  0.00000000000E+00 -0.28115237425E+04  0.28115237425E+04  0.25500000920E-02 0. -1.
    10030    2    1    2    0    0  0.00000000000E+00  0.00000000000E+00 -0.19701397293E+04  0.36529077556E+04  0.30760826578E+04 0.  0.
        2    1    3    3  502    0  0.24257592252E+03  0.49627226415E+03  0.71952387705E+03  0.90710740709E+03  0.25500000920E-02 0.  1.
       -2    1    3    3    0  502 -0.24257592252E+03 -0.49627226415E+03 -0.26896636064E+04  0.27458003485E+04  0.25500000920E-02 0. -1.
</event>
<event>
 5   0  0.5114870E-06  0.3161509E+04  0.7818609E-02  0.8199057E-01
       -2   -1    0    0    0  501  0.00000000000E+00  0.00000000000E+00  0.12505756423E+04  0.12505756423E+04  0.25500000920E-02 0.  1.
        2   -1    0    0  501    0  0.00000000000E+00  0.00000000000E+00 -0.19981081934E+04  0.19981081934E+04  0.25500000920E-02 0. -1.
    10030    2    1    2    0    0  0.00000000000E+00  0.00000000000E+00 -0.74753255117E+03  0.32486838357E+04  0.31615094100E+04 0.  0.
        2    1    3    3  502    0  0.84007289868E+03 -0.69205880630E+03 -0.15517250184E+04  0.18953939958E+04  0.25500000920E-02 0. -1.
       -2    1    3    3    0  502 -0.84007289868E+03  0.69205880630E+03  0.80419246725E+03  0.13532898399E+04  0.25500000920E-02 0.  1.
</event>
<event>
 5   0  0.1649875E-06  0.3096699E+04  0.7818609E-02  0.8216645E-01
       -4   -1    0    0    0  501  0.00000000000E+00  0.00000000000E+00  0.18289979991E+04  0.18289984400E+04  0.12699999809E+01 0. -1.
        4   -1    0    0  501    0  0.00000000000E+00  0.00000000000E+00 -0.13107636164E+04  0.13107642317E+04  0.12699999809E+01 0.  1.
    10030    2    1    2    0    0  0.00000000000E+00  0.00000000000E+00  0.51823438264E+03  0.31397626717E+04  0.30966986872E+04 0.  0.
        2    1    3    3  502    0 -0.15178428970E+04  0.15006692357E+03 -0.11081827204E+02  0.15252835633E+04  0.25500000920E-02 0.  1.
       -2    1    3    3    0  502  0.15178428970E+04 -0.15006692357E+03  0.52931620984E+03  0.16144791084E+04  0.25500000920E-02 0. -1.
</event>
<event>
 5   0  0.5328368E-06  0.3104410E+04  0.7818609E-02  0.8214529E-01
       -2   -1    0    0    0  501  0.00000000000E+00  0.00000000000E+00  0.17934319207E+04  0.17934319207E+04  0.25500000920E-02 0.  1.
        2   -1    0    0  501    0  0.00000000000E+00  0.00000000000E+00 -0.13434241668E+04  0.13434241668E+04  0.25500000920E-02 0. -1.
    10030    2    1    2    0    0  0.00000000000E+00  0.00000000000E+00  0.45000775396E+03  0.31368560875E+04  0.31044096275E+04 0.  0.
        1    1    3    3  502    0 -0.40572142156E+02 -0.15515485120E+04  0.20502604073E+03  0.15655620592E+04  0.50400001928E-02 0.  1.
       -1    1    3    3    0  502  0.40572142156E+02  0.15515485120E+04  0.24498171324E+03  0.15712940284E+04  0.50400001928E-02 0. -1.
</event>
<event>
 5   0  0.1885307E-06  0.3091609E+04  0.7818609E-02  0.8218045E-01
       -1   -1    0    0    0  501  0.00000000000E+00  0.00000000000E+00  0.11368593592E+04  0.11368593592E+04  0.50400001928E-02 0.  1.
        1   -1    0    0  501    0  0.00000000000E+00  0.00000000000E+00 -0.21018528130E+04  0.21018528130E+04  0.50400001928E-02 0. -1.
    10030    2    1    2    0    0  0.00000000000E+00  0.00000000000E+00 -0.96499345378E+03  0.32387121723E+04  0.30916086701E+04 0.  0.
        3    1    3    3  502    0  0.12278045094E+02  0.15411522045E+04 -0.60737514364E+03  0.16565643493E+04  0.10100000352E+00 0. -1.
       -3    1    3    3    0  502 -0.12278045094E+02 -0.15411522045E+04 -0.35761831014E+03  0.15821478230E+04  0.10100000352E+00 0.  1.
</event>
<event>
 5   0  0.4900679E-06  0.3057971E+04  0.7818609E-02  0.8227368E-01
       -2   -1    0    0    0  501  0.00000000000E+00  0.00000000000E+00  0.11792630625E+04  0.11792630625E+04  0.25500000920E-02 0. -1.
        2   -1    0    0  501    0  0.00000000000E+00  0.00000000000E+00 -0.19824215585E+04  0.19824215585E+04  0.25500000920E-02 0.  1.
    10030    2    1    2    0    0  0.00000000000E+00  0.00000000000E+00 -0.80315849600E+03  0.31616846211E+04  0.30579709079E+04 0.  0.
        4    1    3    3  502    0 -0.11830129740E+04  0.80903288714E+03  0.14916027248E+03  0.14409386902E+04  0.12699999809E+01 0. -1.
       -4    1    3    3    0  502  0.11830129740E+04 -0.80903288714E+03 -0.95231876848E+03  0.17207459309E+04  0.12699999809E+01 0.  1.
</event>
<event>
 5   0  0.4927533E-06  0.3080425E+04  0.7818609E-02  0.8221131E-01
       -2   -1    0    0    0  501  0.00000000000E+00  0.00000000000E+00  0.10933956084E+04  0.10933956084E+04  0.25500000920E-02 0.  1.
        2   -1    0    0  501    0  0.00000000000E+00  0.00000000000E+00 -0.21696220460E+04  0.21696220460E+04  0.25500000920E-02 0. -1.
    10030    2    1    2    0    0  0.00000000000E+00  0.00000000000E+00 -0.10762264376E+04  0.32630176544E+04  0.30804254362E+04 0.  0.
        5    1    3    3  502    0 -0.90995162066E+03 -0.10858766902E+04 -0.11781581596E+04  0.18426119714E+04  0.46999998093E+01 0. -1.
       -5    1    3    3    0  502  0.90995162066E+03  0.10858766902E+04  0.10193172204E+03  0.14204056829E+04  0.46999998093E+01 0.  1.
</event>
<event>
 5   0  0.5001658E-06  0.3178405E+04  0.7818609E-02  0.8194544E-01
       -2   -1    0    0    0  501  0.00000000000E+00  0.00000000000E+00  0.98263617845E+03  0.98263617846E+03  0.25500000920E-02 0. -1.
        2   -1    0    0  501    0  0.00000000000E+00  0.00000000000E+00 -0.25701927395E+04  0.25701927395E+04  0.25500000920E-02 0.  1.
    10030    2    1    2    0    0  0.00000000000E+00  0.00000000000E+00 -0.15875565610E+04  0.35528289179E+04  0.31784048650E+04 0.  0.
        3    1    3    3  502    0  0.96868539911E+03 -0.94831830210E+03  0.13332778823E+03  0.13621436466E+04  0.10100000352E+00 0. -1.
       -3    1    3    3    0  502 -0.96868539911E+03  0.94831830210E+03 -0.17208843493E+04  0.21906852714E+04  0.10100000352E+00 0.  1.
</event>
<event>
 5   0  0.1840431E-06  0.2611812E+04  0.7818609E-02  0.8364200E-01
        1   -1    0    0  501    0  0.00000000000E+00  0.00000000000E+00  0.11929433695E+04  0.11929433695E+04  0.50400001928E-02 0. -1.
       -1   -1    0    0    0  501  0.00000000000E+00  0.00000000000E+00 -0.14295654479E+04  0.14295654479E+04  0.50400001928E-02 0.  1.
    10030    2    1    2    0    0  0.00000000000E+00  0.00000000000E+00 -0.23662207834E+03  0.26225088174E+04  0.26118121083E+04 0.  0.
        1    1    3    3  502    0 -0.10778003440E+04  0.32634086743E+03 -0.78225941503E+03  0.13711607257E+04  0.50400001928E-02 0.  1.
       -1    1    3    3    0  502  0.10778003440E+04 -0.32634086743E+03  0.54563733669E+03  0.12513480917E+04  0.50400001928E-02 0. -1.
</event>
<event>
 5   0  0.1836401E-06  0.3105239E+04  0.7818609E-02  0.8214302E-01
        1   -1    0    0  501    0  0.00000000000E+00  0.00000000000E+00  0.25281390472E+04  0.25281390472E+04  0.50400001928E-02 0.  1.
       -1   -1    0    0    0  501  0.00000000000E+00  0.00000000000E+00 -0.95351825978E+03  0.95351825979E+03  0.50400001928E-02 0. -1.
    10030    2    1    2    0    0  0.00000000000E+00  0.00000000000E+00  0.15746207874E+04  0.34816573070E+04  0.31052386348E+04 0.  0.
        2    1    3    3  502    0  0.87810485290E+02  0.86793261360E+03 -0.65275281610E+03  0.10895429969E+04  0.25500000920E-02 0. -1.
       -2    1    3    3    0  502 -0.87810485290E+02 -0.86793261360E+03  0.22273736035E+04  0.23921143101E+04  0.25500000920E-02 0.  1.
</event>
<event>
 5   0  0.1836401E-06  0.2991898E+04  0.7818609E-02  0.8246048E-01
       -1   -1    0    0    0  501  0.00000000000E+00  0.00000000000E+00  0.10446232583E+04  0.10446232584E+04  0.50400001928E-02 0.  1.
        1   -1    0    0  501    0  0.00000000000E+00  0.00000000000E+00 -0.21422689254E+04  0.21422689254E+04  0.50400001928E-02 0. -1.
    10030    2    1    2    0    0  0.00000000000E+00  0.00000000000E+00 -0.10976456671E+04  0.31868921838E+04  0.29918983573E+04 0.  0.
        2    1    3    3  502    0 -0.18056856957E+03  0.13149052105E+04  0.18628860093E+03  0.13402552607E+04  0.25500000920E-02 0.  1.
       -2    1    3    3    0  502  0.18056856957E+03 -0.13149052105E+04 -0.12839342680E+04  0.18466369231E+04  0.25500000920E-02 0. -1.
</event>
<event>
 5   0  0.5114870E-06  0.3093683E+04  0.7818609E-02  0.8217474E-01
       -2   -1    0    0    0  501  0.00000000000E+00  0.00000000000E+00  0.22788944335E+04  0.22788944335E+04  0.25500000920E-02 0. -1.
        2   -1    0    0  501    0  0.00000000000E+00  0.00000000000E+00 -0.10499474467E+04  0.10499474467E+04  0.25500000920E-02 0.  1.
    10030    2    1    2    0    0  0.00000000000E+00  0.00000000000E+00  0.12289469868E+04  0.33288418802E+04  0.30936834950E+04 0.  0.
        2    1    3    3  502    0 -0.29496209337E+02  0.87404168925E+03  0.19873491788E+04  0.21712613061E+04  0.25500000920E-02 0. -1.
       -2    1    3    3    0  502  0.29496209337E+02 -0.87404168925E+03 -0.75840219193E+03  0.11575805741E+04  0.25500000920E-02 0.  1.
</event>
<event>
 5   0  0.4900679E-06  0.3098131E+04  0.7818609E-02  0.8216251E-01
       -2   -1    0    0    0  501  0.00000000000E+00  0.00000000000E+00  0.17725138455E+04  0.17725138455E+04  0.25500000920E-02 0. -1.
        2   -1    0    0  501    0  0.00000000000E+00  0.00000000000E+00 -0.13537853736E+04  0.13537853736E+04  0.25500000920E-02 0.  1.
    10030    2    1    2    0    0  0.00000000000E+00  0.00000000000E+00  0.41872847195E+03  0.31262992191E+04  0.30981306096E+04 0.  0.
        4    1    3    3  502    0 -0.12115562641E+04 -0.51145891435E+03  0.10354298244E+04  0.16737907086E+04  0.12699999809E+01 0. -1.
       -4    1    3    3    0  502  0.12115562641E+04  0.51145891435E+03 -0.61670135244E+03  0.14525085105E+04  0.12699999809E+01 0.  1.
</event>
<event>
 5   0  0.4927533E-06  0.2749875E+04  0.7818609E-02  0.8319001E-01
       -2   -1    0    0    0  501  0.00000000000E+00  0.00000000000E+00  0.12140321313E+04  0.12140321313E+04  0.25500000920E-02 0. -1.
        2   -1    0    0  501    0  0.00000000000E+00  0.00000000000E+00 -0.15571694968E+04  0.15571694968E+04  0.25500000920E-02 0.  1.
    10030    2    1    2    0    0  0.00000000000E+00  0.00000000000E+00 -0.34313736548E+03  0.27712016281E+04  0.27498754903E+04 0.  0.
        5    1    3    3  502    0  0.21969272842E+03  0.13213746888E+04 -0.48403093184E+03  0.14242906993E+04  0.46999998093E+01 0.  1.
       -5    1    3    3    0  502 -0.21969272842E+03 -0.13213746888E+04  0.14089356636E+03  0.13469109288E+04  0.46999998093E+01 0. -1.
</event>
<event>
 5   0  0.1840431E-06  0.3131864E+04  0.7818609E-02  0.8207047E-01
        1   -1    0    0  501    0  0.00000000000E+00  0.00000000000E+00  0.33420099432E+04  0.33420099432E+04  0.50400001928E-02 0. -1.
       -1   -1    0    0    0  501  0.00000000000E+00  0.00000000000E+00 -0.73373307253E+03  0.73373307255E+03  0.50400001928E-02 0.  1.
    10030    2    1    2    0    0  0.00000000000E+00  0.00000000000E+00  0.26082768707E+04  0.40757430158E+04  0.31318641248E+04 0.  0.
        1    1    3    3  502    0  0.55927450434E+03  0.13496440323E+04  0.20377935050E+04  0.25073749927E+04  0.50400001928E-02 0. -1.
       -1    1    3    3    0  502 -0.55927450434E+03 -0.13496440323E+04  0.57048336567E+03  0.15683680230E+04  0.50400001928E-02 0.  1.
</event>
<event>
 5   0  0.1843709E-06  0.2992938E+04  0.7818609E-02  0.8245750E-01
        1   -1    0    0  501    0  0.00000000000E+00  0.00000000000E+00  0.83325504455E+03  0.83325504456E+03  0.50400001928E-02 0.  1.
       -1   -1    0    0    0  501  0.00000000000E+00  0.00000000000E+00 -0.26875563393E+04  0.26875563393E+04  0.50400001928E-02 0. -1.
    10030    2    1    2    0    0  0.00000000000E+00  0.00000000000E+00 -0.18543012947E+04  0.35208113838E+04  0.29929382735E+04 0.  0.
        4    1    3    3  502    0 -0.34509281240E+03 -0.37508071677E+03  0.72800375174E+03  0.88868761031E+03  0.12699999809E+01 0.  1.
       -4    1    3    3    0  502  0.34509281240E+03  0.37508071677E+03 -0.25823050465E+04  0.26321237735E+04  0.12699999809E+01 0. -1.
</event>
<event>
 5   0  0.5114870E-06  0.2921618E+04  0.7818609E-02  0.8266474E-01
        2   -1    0    0  501    0  0.00000000000E+00  0.00000000000E+00  0.22010843986E+04  0.22010843986E+04  0.25500000920E-02 0. -1.
       -2   -1    0    0    0  501  0.00000000000E+00  0.00000000000E+00 -0.96950531128E+03  0.96950531129E+03  0.25500000920E-02 0.  1.
    10030    2    1    2    0    0  0.00000000000E+00  0.00000000000E+00  0.12315790873E+04  0.31705897099E+04  0.29216180552E+04 0.  0.
        2    1    3    3  502    0 -0.10951497553E+04  0.90149697669E+03  0.99470474091E+03  0.17324801030E+04  0.25500000920E-02 0. -1.
       -2    1    3    3    0  502  0.10951497553E+04 -0.90149697669E+03  0.23687434642E+03  0.14381096069E+04  0.25500000920E-02 0.  1.
</event>
<event>
 5   0  0.5328368E-06  0.3015569E+04  0.7818609E-02  0.8239299E-01
       -2   -1    0    0    0  501  0.00000000000E+00  0.00000000000E+00  0.13048134892E+04  0.13048134892E+04  0.25500000920E-02 0. -1.
        2   -1    0    0  501    0  0.00000000000E+00  0.00000000000E+00 -0.17423284671E+04  0.17423284671E+04  0.25500000920E-02 0.  1.
    10030    2    1    2    0    0  0.00000000000E+00  0.00000000000E+00 -0.43751497792E+03  0.30471419563E+04  0.30155687268E+04 0.  0.
        1    1    3    3  502    0  0.26045649578E+03  0.73444523233E+03 -0.15230729114E+04  0.17108472985E+04  0.50400001928E-02 0.  1.
       -1    1    3    3    0  502 -0.26045649578E+03 -0.73444523233E+03  0.10855579335E+04  0.13362946578E+04  0.50400001928E-02 0. -1.
</event>
<event>
 5   0  0.5328368E-06  0.3083807E+04  0.7818609E-02  0.8220196E-01
        2   -1    0    0  501    0  0.00000000000E+00  0.00000000000E+00  0.23062980131E+04  0.23062980131E+04  0.25500000920E-02 0.  1.
       -2   -1    0    0    0  501  0.00000000000E+00  0.00000000000E+00 -0.10308582095E+04  0.10308582095E+04  0.25500000920E-02 0. -1.
    10030    2    1    2    0    0  0.00000000000E+00  0.00000000000E+00  0.12754398036E+04  0.33371562225E+04  0.30838068943E+04 0.  0.
        1    1    3    3  502    0 -0.12012909462E+04 -0.81142915349E+03  0.69254810954E+02  0.14513143827E+04  0.50400001928E-02 0. -1.
       -1    1    3    3    0  502  0.12012909462E+04  0.81142915349E+03  0.12061849926E+04  0.18858418399E+04  0.50400001928E-02 0.  1.
</event>
<event>
 5   0  0.1836401E-06  0.3114363E+04  0.7818609E-02  0.8211807E-01
       -1   -1    0    0    0  501  0.00000000000E+00  0.00000000000E+00  0.14866662720E+04  0.14866662720E+04  0.50400001928E-02 0. -1.
        1   -1    0    0  501    0  0.00000000000E+00  0.00000000000E+00 -0.16310417133E+04  0.16310417133E+04  0.50400001928E-02 0.  1.
    10030    2    1    2    0    0  0.00000000000E+00  0.00000000000E+00 -0.14437544125E+03  0.31177079853E+04  0.31143633079E+04 0.  0.
        2    1    3    3  502    0  0.37758803672E+02 -0.30119603459E+03 -0.16011360414E+04  0.16296568355E+04  0.25500000920E-02 0.  1.
       -2    1    3    3    0  502 -0.37758803672E+02  0.30119603459E+03  0.14567606001E+04  0.14880511498E+04  0.25500000920E-02 0. -1.
</event>
<event>
 5   0  0.4927533E-06  0.3094600E+04  0.7818609E-02  0.8217221E-01
       -2   -1    0    0    0  501  0.00000000000E+00  0.00000000000E+00  0.15061196848E+04  0.15061196848E+04  0.25500000920E-02 0. -1.
        2   -1    0    0  501    0  0.00000000000E+00  0.00000000000E+00 -0.15896061506E+04  0.15896061506E+04  0.25500000920E-02 0.  1.
    10030    2    1    2    0    0  0.00000000000E+00  0.00000000000E+00 -0.83486465795E+02  0.30957258354E+04  0.30945998866E+04 0.  0.
        5    1    3    3  502    0  0.51131888730E+03 -0.11319298459E+04 -0.96479388741E+03  0.15727560255E+04  0.46999998093E+01 0.  1.
       -5    1    3    3    0  502 -0.51131888730E+03  0.11319298459E+04  0.88130742161E+03  0.15229698099E+04  0.46999998093E+01 0. -1.
</event>
<event>
 5   0  0.1843709E-06  0.3402162E+04  0.7818609E-02  0.8137376E-01
       -1   -1    0    0    0  501  0.00000000000E+00  0.00000000000E+00  0.22052116941E+04  0.22052116941E+04  0.50400001928E-02 0. -1.
        1   -1    0    0  501    0  0.00000000000E+00  0.00000000000E+00 -0.13121987852E+04  0.13121987852E+04  0.50400001928E-02 0.  1.
    10030    2    1    2    0    0  0.00000000000E+00  0.00000000000E+00  0.89301290884E+03  0.35174104793E+04  0.34021617281E+04 0.  0.
        4    1    3    3  502    0  0.13705204210E+04  0.79574610056E+03  0.10856189507E+04  0.19209654344E+04  0.12699999809E+01 0. -1.
       -4    1    3    3    0  502 -0.13705204210E+04 -0.79574610056E+03 -0.19260604190E+03  0.15964450449E+04  0.12699999809E+01 0.  1.
</event>
<event>
 5   0  0.1840431E-06  0.3146002E+04  0.7818609E-02  0.8203225E-01
       -1   -1    0    0    0  501  0.00000000000E+00  0.00000000000E+00  0.14308688074E+04  0.14308688074E+04  0.50400001928E-02 0.  1.
        1   -1    0    0  501    0  0.00000000000E+00  0.00000000000E+00 -0.17292519902E+04  0.17292519902E+04  0.50400001928E-02 0. -1.
    10030    2    1    2    0    0  0.00000000000E+00  0.00000000000E+00 -0.29838318281E+03  0.31601207976E+04  0.31460023731E+04 0.  0.
        1    1    3    3  502    0 -0.83767818003E+03 -0.12883949632E+04  0.18797294024E+03  0.15482248354E+04  0.50400001928E-02 0.  1.
       -1    1    3    3    0  502  0.83767818003E+03  0.12883949632E+04 -0.48635612305E+03  0.16118959622E+04  0.50400001928E-02 0. -1.
</event>
<event>
 5   0  0.1840431E-06  0.3135846E+04  0.7818609E-02  0.8205968E-01
       -1   -1    0    0    0  501  0.00000000000E+00  0.00000000000E+00  0.12486440474E+04  0.12486440474E+04  0.50400001928E-02 0. -1.
        1   -1    0    0  501    0  0.00000000000E+00  0.00000000000E+00 -0.19688423597E+04  0.19688423597E+04  0.50400001928E-02 0.  1.
    10030    2    1    2    0    0  0.00000000000E+00  0.00000000000E+00 -0.72019831230E+03  0.32174864071E+04  0.31358464840E+04 0.  0.
        1    1    3    3  502    0  0.11561191163E+04  0.28794564126E+03  0.68568069511E+03  0.13746570914E+04  0.50400001928E-02 0. -1.
       -1    1    3    3    0  502 -0.11561191163E+04 -0.28794564126E+03 -0.14058790074E+04  0.18428293157E+04  0.50400001928E-02 0.  1.
</event>
<event>
 5   0  0.1836401E-06  0.3134778E+04  0.7818609E-02  0.8206258E-01
       -1   -1    0    0    0  501  0.00000000000E+00  0.00000000000E+00  0.21211920818E+04  0.21211920818E+04  0.50400001928E-02 0.  1.
        1   -1    0    0  501    0  0.00000000000E+00  0.00000000000E+00 -0.11581736813E+04  0.11581736813E+04  0.50400001928E-02 0. -1.
    10030    2    1    2    0    0  0.00000000000E+00  0.00000000000E+00  0.96301840050E+03  0.32793657631E+04  0.31347783603E+04 0.  0.
        2    1    3    3  502    0  0.18565445025E+03 -0.13429422971E+04  0.13043951751E+04  0.18813315394E+04  0.25500000920E-02 0.  1.
       -2    1    3    3    0  502 -0.18565445025E+03  0.13429422971E+04 -0.34137677458E+03  0.13980342237E+04  0.25500000920E-02 0. -1.
</event>
<event>
 5   0  0.1885307E-06  0.2628728E+04  0.7818609E-02  0.8358508E-01
       -1   -1    0    0    0  501  0.00000000000E+00  0.00000000000E+00  0.68611785483E+03  0.68611785485E+03  0.50400001928E-02 0.  1.
        1   -1    0    0  501    0  0.00000000000E+00  0.00000000000E+00 -0.25178653746E+04  0.25178653746E+04  0.50400001928E-02 0. -1.
    10030    2    1    2    0    0  0.00000000000E+00  0.00000000000E+00 -0.18317475198E+04  0.32039832295E+04  0.26287277452E+04 0.  0.
        3    1    3    3  502    0  0.41235637687E+03 -0.10096970409E+04 -0.18098921493E+04  0.21131103847E+04  0.10100000352E+00 0. -1.
       -3    1    3    3    0  502 -0.41235637687E+03  0.10096970409E+04 -0.21855370537E+02  0.10908728447E+04  0.10100000352E+00 0.  1.
</event>
<event>
 5   0  0.5001658E-06  0.3134644E+04  0.7818609E-02  0.8206294E-01
       -2   -1    0    0    0  501  0.00000000000E+00  0.00000000000E+00  0.13990179628E+04  0.13990179628E+04  0.25500000920E-02 0. -1.
        2   -1    0    0  501    0  0.00000000000E+00  0.00000000000E+00 -0.17558730211E+04  0.17558730211E+04  0.25500000920E-02 0.  1.
    10030    2    1    2    0    0  0.00000000000E+00  0.00000000000E+00 -0.35685505834E+03  0.31548909838E+04  0.31346437736E+04 0.  0.
        3    1    3    3  502    0  0.12435282325E+04  0.17638307001E+03 -0.11220464416E+04  0.16841798240E+04  0.10100000352E+00 0.  1.
       -3    1    3    3    0  502 -0.12435282325E+04 -0.17638307001E+03  0.76519138330E+03  0.14707111598E+04  0.10100000352E+00 0. -1.
</event>
<event>
 5   0  0.1885307E-06  0.2959168E+04  0.7818609E-02  0.8255488E-01
        1   -1    0    0  501    0  0.00000000000E+00  0.00000000000E+00  0.19898124459E+04  0.19898124459E+04  0.50400001928E-02 0.  1.
       -1   -1    0    0    0  501  0.00000000000E+00  0.00000000000E+00 -0.11001887035E+04  0.11001887035E+04  0.50400001928E-02 0. -1.
    10030    2    1    2    0    0  0.00000000000E+00  0.00000000000E+00  0.88962374239E+03  0.30900011494E+04  0.29591682446E+04 0.  0.
        3    1    3    3  502    0 -0.44633372893E+03  0.15027632966E+02  0.19177550945E+04  0.19690668450E+04  0.10100000352E+00 0.  1.
       -3    1    3    3    0  502  0.44633372893E+03 -0.15027632966E+02 -0.10281313521E+04  0.11209343044E+04  0.10100000352E+00 0. -1.
</event>
<event>
 5   0  0.4900679E-06  0.3198373E+04  0.7818609E-02  0.8189247E-01
        2   -1    0    0  501    0  0.00000000000E+00  0.00000000000E+00  0.18333932959E+04  0.18333932959E+04  0.25500000920E-02 0.  1.
       -2   -1    0    0    0  501  0.00000000000E+00  0.00000000000E+00 -0.13948983418E+04  0.13948983418E+04  0.25500000920E-02 0. -1.
    10030    2    1    2    0    0  0.00000000000E+00  0.00000000000E+00  0.43849495405E+03  0.32282916377E+04  0.31983728791E+04 0.  0.
        4    1    3    3  502    0  0.51600875256E+03  0.60359065695E+03  0.16203276701E+04  0.18044528493E+04  0.12699999809E+01 0.  1.
       -4    1    3    3    0  502 -0.51600875256E+03 -0.60359065695E+03 -0.11818327160E+04  0.14238387884E+04  0.12699999809E+01 0. -1.
</event>
<event>
 5   0  0.5001658E-06  0.3069415E+04  0.7818609E-02  0.8224182E-01
        2   -1    0    0  501    0  0.00000000000E+00  0.00000000000E+00  0.22922843763E+04  0.22922843763E+04  0.25500000920E-02 0. -1.
       -2   -1    0    0    0  501  0.00000000000E+00  0.00000000000E+00 -0.10275018476E+04  0.10275018476E+04  0.25500000920E-02 0.  1.
    10030    2    1    2    0    0  0.00000000000E+00  0.00000000000E+00  0.12647825287E+04  0.33197862238E+04  0.30694145577E+04 0.  0.
        3    1    3    3  502    0 -0.13440615840E+04  0.65881789998E+03  0.99882459676E+03  0.17994980279E+04  0.10100000352E+00 0. -1.
       -3    1    3    3    0  502  0.13440615840E+04 -0.65881789998E+03  0.26595793192E+03  0.15202881960E+04  0.10100000352E+00 0.  1.
</event>
<event>
 5   0  0.5114870E-06  0.3098765E+04  0.7818609E-02  0.8216077E-01
       -2   -1    0    0    0  501  0.00000000000E+00  0.00000000000E+00  0.26479180673E+04  0.26479180673E+04  0.25500000920E-02 0. -1.
        2   -1    0    0  501    0  0.00000000000E+00  0.00000000000E+00 -0.90659403382E+03  0.90659403383E+03  0.25500000920E-02 0.  1.
    10030    2    1    2    0    0  0.00000000000E+00  0.00000000000E+00  0.17413240334E+04  0.35545121011E+04  0.30987653811E+04 0.  0.
        2    1    3    3  502    0 -0.11099422415E+04 -0.75606561733E+03 -0.15618275716E+02  0.13430751757E+04  0.25500000920E-02 0.  1.
       -2    1    3    3    0  502  0.11099422415E+04  0.75606561733E+03  0.17569423091E+04  0.22114369253E+04  0.25500000920E-02 0. -1.
</event>
<event>
 5   0  0.1853742E-06  0.2900599E+04  0.7818609E-02  0.8272699E-01
       -1   -1    0    0    0  501  0.00000000000E+00  0.00000000000E+00  0.11136478206E+04  0.11136478206E+04  0.50400001928E-02 0. -1.
        1   -1    0    0  501    0  0.00000000000E+00  0.00000000000E+00 -0.18887203507E+04  0.18887203507E+04  0.50400001928E-02 0.  1.
    10030    2    1    2    0    0  0.00000000000E+00  0.00000000000E+00 -0.77507253009E+03  0.30023681712E+04  0.29005994568E+04 0.  0.
        5    1    3    3  502    0  0.12332597793E+04 -0.74282837870E+03 -0.56867186059E+03  0.15479449145E+04  0.46999998093E+01 0.  1.
       -5    1    3    3    0  502 -0.12332597793E+04  0.74282837870E+03 -0.20640066950E+03  0.14544232567E+04  0.46999998093E+01 0. -1.
</event>
<event>
 5   0  0.1840431E-06  0.3103943E+04  0.7818609E-02  0.8214657E-01
       -1   -1    0    0    0  501  0.00000000000E+00  0.00000000000E+00  0.23750710684E+04  0.23750710684E+04  0.50400001928E-02 0.  1.
        1   -1    0    0  501    0  0.00000000000E+00  0.00000000000E+00 -0.10141237284E+04  0.10141237284E+04  0.50400001928E-02 0. -1.
    10030    2    1    2    0    0  0.00000000000E+00  0.00000000000E+00  0.13609473400E+04  0.33891947968E+04  0.31039432514E+04 0.  0.
        1    1    3    3  502    0  0.96737573097E+03 -0.10738042736E+04  0.63048538821E+02  0.14466673913E+04  0.50400001928E-02 0. -1.
       -1    1    3    3    0  502 -0.96737573097E+03  0.10738042736E+04  0.12978988012E+04  0.19425274055E+04  0.50400001928E-02 0.  1.
</event>
<event>
 5   0  0.4900679E-06  0.3156854E+04  0.7818609E-02  0.8200306E-01
        2   -1    0    0  501    0  0.00000000000E+00  0.00000000000E+00  0.20405329963E+04  0.20405329963E+04  0.25500000920E-02 0. -1.
       -2   -1    0    0    0  501  0.00000000000E+00  0.00000000000E+00 -0.12209713421E+04  0.12209713421E+04  0.25500000920E-02 0.  1.
    10030    2    1    2    0    0  0.00000000000E+00  0.00000000000E+00  0.81956165425E+03  0.32615043384E+04  0.31568543274E+04 0.  0.
        4    1    3    3  502    0  0.63693574302E+03 -0.88343461398E+02  0.18990726836E+04  0.20049863786E+04  0.12699999809E+01 0. -1.
       -4    1    3    3    0  502 -0.63693574302E+03  0.88343461398E+02 -0.10795110293E+04  0.12565179598E+04  0.12699999809E+01 0.  1.
</event>
<event>
 5   0  0.4900679E-06  0.3115484E+04  0.7818609E-02  0.8211501E-01
       -2   -1    0    0    0  501  0.00000000000E+00  0.00000000000E+00  0.93562118792E+03  0.93562118792E+03  0.25500000920E-02 0.  1.
        2   -1    0    0  501    0  0.00000000000E+00  0.00000000000E+00 -0.25935277217E+04  0.25935277217E+04  0.25500000920E-02 0. -1.
    10030    2    1    2    0    0  0.00000000000E+00  0.00000000000E+00 -0.16579065338E+04  0.35291489096E+04  0.31154835823E+04 0.  0.
        4    1    3    3  502    0 -0.26557585567E+03  0.10985418115E+04  0.38540994929E+03  0.11940967668E+04  0.12699999809E+01 0.  1.
       -4    1    3    3    0  502  0.26557585567E+03 -0.10985418115E+04 -0.20433164831E+04  0.23350521428E+04  0.12699999809E+01 0. -1.
</event>
<event>
 5   0  0.4927533E-06  0.3112766E+04  0.7818609E-02  0.8212243E-01
       -2   -1    0    0    0  501  0.00000000000E+00  0.00000000000E+00  0.25830544618E+04  0.25830544618E+04  0.25500000920E-02 0.  1.
        2   -1    0    0  501    0  0.00000000000E+00  0.00000000000E+00 -0.93777683642E+03  0.93777683642E+03  0.25500000920E-02 0. -1.
    10030    2    1    2    0    0  0.00000000000E+00  0.00000000000E+00  0.16452776254E+04  0.35208312983E+04  0.31127663848E+04 0.  0.
        5    1    3    3  502    0 -0.55834912219E+03 -0.78766126986E+03 -0.55810337261E+03  0.11151975084E+04  0.46999998093E+01 0. -1.
       -5    1    3    3    0  502  0.55834912219E+03  0.78766126986E+03  0.22033809980E+04  0.24056337898E+04  0.46999998093E+01 0.  1.
</event>
<event>
 5   0  0.5001658E-06  0.3096700E+04  0.7818609E-02  0.8216644E-01
       -2   -1    0    0    0  501  0.00000000000E+00  0.00000000000E+00  0.14552954101E+04  0.14552954101E+04  0.25500000920E-02 0.  1.
        2   -1    0    0  501    0  0.00000000000E+00  0.00000000000E+00 -0.16473549074E+04  0.16473549074E+04  0.25500000920E-02 0. -1.
    10030    2    1    2    0    0  0.00000000000E+00  0.00000000000E+00 -0.19205949723E+03  0.31026503175E+04  0.30967002022E+04 0.  0.
        3    1    3    3  502    0 -0.69968508356E+03  0.53168323589E+01  0.12878557315E+04  0.14656602199E+04  0.10100000352E+00 0.  1.
       -3    1    3    3    0  502  0.69968508356E+03 -0.53168323589E+01 -0.14799152288E+04  0.16369900975E+04  0.10100000352E+00 0. -1.
</event>
<event>
 5   0  0.4900679E-06  0.3138508E+04  0.7818609E-02  0.8205248E-01
       -2   -1    0    0    0  501  0.00000000000E+00  0.00000000000E+00  0.15724158727E+04  0.15724158727E+04  0.25500000920E-02 0. -1.
        2   -1    0    0  501    0  0.00000000000E+00  0.00000000000E+00 -0.15660988830E+04  0.15660988830E+04  0.25500000920E-02 0.  1.
    10030    2    1    2    0    0  0.00000000000E+00  0.00000000000E+00  0.63169897213E+01  0.31385147556E+04  0.31385083984E+04 0.  0.
        4    1    3    3  502    0  0.83225104287E+03  0.12638561170E+04  0.41859049311E+03  0.15700935312E+04  0.12699999809E+01 0. -1.
       -4    1    3    3    0  502 -0.83225104287E+03 -0.12638561170E+04 -0.41227350339E+03  0.15684212245E+04  0.12699999809E+01 0.  1.
</event>
<event>
 5   0  0.1853742E-06  0.2685373E+04  0.7818609E-02  0.8339767E-01
       -1   -1    0    0    0  501  0.00000000000E+00  0.00000000000E+00  0.89801271085E+03  0.89801271086E+03  0.50400001928E-02 0.  1.
        1   -1    0    0  501    0  0.00000000000E+00  0.00000000000E+00 -0.20075510622E+04  0.20075510622E+04  0.50400001928E-02 0. -1.
    10030    2    1    2    0    0  0.00000000000E+00  0.00000000000E+00 -0.11095383514E+04  0.29055637731E+04  0.26853725042E+04 0.  0.
        5    1    3    3  502    0 -0.46429938306E+03  0.35389665656E+03  0.75349285281E+03  0.95320004714E+03  0.46999998093E+01 0.  1.
       -5    1    3    3    0  502  0.46429938306E+03 -0.35389665656E+03 -0.18630312042E+04  0.19523637259E+04  0.46999998093E+01 0. -1.
</event>
<event>
 5   0  0.1836401E-06  0.3108892E+04  0.7818609E-02  0.8213302E-01
        1   -1    0    0  501    0  0.00000000000E+00  0.00000000000E+00  0.18173673317E+04  0.18173673318E+04  0.50400001928E-02 0. -1.
       -1   -1    0    0    0  501  0.00000000000E+00  0.00000000000E+00 -0.13295619738E+04  0.13295619738E+04  0.50400001928E-02 0.  1.
    10030    2    1    2    0    0  0.00000000000E+00  0.00000000000E+00  0.48780535792E+03  0.31469293056E+04  0.31088920835E+04 0.  0.
        2    1    3    3  502    0  0.92510010067E+02 -0.12843616124E+04 -0.63747423643E+03  0.14368424602E+04  0.25500000920E-02 0.  1.
       -2    1    3    3    0  502 -0.92510010067E+02  0.12843616124E+04  0.11252795943E+04  0.17100868454E+04  0.25500000920E-02 0. -1.
</event>
<event>
 5   0  0.4900679E-06  0.3138998E+04  0.7818609E-02  0.8205116E-01
        2   -1    0    0  501    0  0.00000000000E+00  0.00000000000E+00  0.18814551720E+04  0.18814551720E+04  0.25500000920E-02 0.  1.
       -2   -1    0    0    0  501  0.00000000000E+00  0.00000000000E+00 -0.13092668513E+04  0.13092668513E+04  0.25500000920E-02 0. -1.
    10030    2    1    2    0    0  0.00000000000E+00  0.00000000000E+00  0.57218832070E+03  0.31907220233E+04  0.31389978585E+04 0.  0.
        4    1    3    3  502    0 -0.14224100308E+04 -0.66246521404E+03  0.25066556074E+03  0.15890076437E+04  0.12699999809E+01 0.  1.
       -4    1    3    3    0  502  0.14224100308E+04  0.66246521404E+03  0.32152275996E+03  0.16017143796E+04  0.12699999809E+01 0. -1.
</event>
<event>
 5   0  0.5001658E-06  0.3146636E+04  0.7818609E-02  0.8203054E-01
        2   -1    0    0  501    0  0.00000000000E+00  0.00000000000E+00  0.18089139494E+04  0.18089139494E+04  0.25500000920E-02 0.  1.
       -2   -1    0    0    0  501  0.00000000000E+00  0.00000000000E+00 -0.13684065883E+04  0.13684065883E+04  0.25500000920E-02 0. -1.
    10030    2    1    2    0    0  0.00000000000E+00  0.00000000000E+00  0.44050736109E+03  0.31773205377E+04  0.31466361506E+04 0.  0.
        3    1    3    3  502    0 -0.88399251845E+03 -0.68068321937E+03  0.13403759443E+04  0.17439553033E+04  0.10100000352E+00 0.  1.
       -3    1    3    3    0  502  0.88399251845E+03  0.68068321937E+03 -0.89986858319E+03  0.14333652343E+04  0.10100000352E+00 0. -1.
</event>
<event>
 5   0  0.5114870E-06  0.3081395E+04  0.7818609E-02  0.8220862E-01
       -2   -1    0    0    0  501  0.00000000000E+00  0.00000000000E+00  0.92361778854E+03  0.92361778855E+03  0.25500000920E-02 0. -1.
        2   -1    0    0  501    0  0.00000000000E+00  0.00000000000E+00 -0.25700558889E+04  0.25700558889E+04  0.25500000920E-02 0.  1.
    10030    2    1    2    0    0  0.00000000000E+00  0.00000000000E+00 -0.16464381003E+04  0.34936736774E+04  0.30813953570E+04 0.  0.
        2    1    3    3  502    0 -0.21764438224E+03 -0.72657545586E+03  0.69728056857E+03  0.10302820786E+04  0.25500000920E-02 0. -1.
       -2    1    3    3    0  502  0.21764438224E+03  0.72657545586E+03 -0.23437186689E+04  0.24633915988E+04  0.25500000920E-02 0.  1.
</event>
<event>
 5   0  0.4900679E-06  0.3187515E+04  0.7818609E-02  0.8192122E-01
       -2   -1    0    0    0  501  0.00000000000E+00  0.00000000000E+00  0.11780604975E+04  0.11780604975E+04  0.25500000920E-02 0.  1.
        2   -1    0    0  501    0  0.00000000000E+00  0.00000000000E+00 -0.21561396702E+04  0.21561396702E+04  0.25500000920E-02 0. -1.
    10030    2    1    2    0    0  0.00000000000E+00  0.00000000000E+00 -0.97807917268E+03  0.33342001677E+04  0.31875150023E+04 0.  0.
        4    1    3    3  502    0 -0.12228778869E+03  0.14679555434E+04  0.14741233749E+03  0.14803985243E+04  0.12699999809E+01 0.  1.
       -4    1    3    3    0  502  0.12228778869E+03 -0.14679555434E+04 -0.11254915102E+04  0.18538016434E+04  0.12699999809E+01 0. -1.
</event>
<event>
 5   0  0.1840431E-06  0.3137614E+04  0.7818609E-02  0.8205490E-01
       -1   -1    0    0    0  501  0.00000000000E+00  0.00000000000E+00  0.12503995318E+04  0.12503995318E+04  0.50400001928E-02 0.  1.
        1   -1    0    0  501    0  0.00000000000E+00  0.00000000000E+00 -0.19682947985E+04  0.19682947985E+04  0.50400001928E-02 0. -1.
    10030    2    1    2    0    0  0.00000000000E+00  0.00000000000E+00 -0.71789526673E+03  0.32186943303E+04  0.31376136757E+04 0.  0.
        1    1    3    3  502    0  0.14630278043E+04  0.41174594332E+03  0.39905316763E+02  0.15203872902E+04  0.50400001928E-02 0. -1.
       -1    1    3    3    0  502 -0.14630278043E+04 -0.41174594332E+03 -0.75780058350E+03  0.16983070401E+04  0.50400001928E-02 0.  1.
</event>
<event>
 5   0  0.5114870E-06  0.3033979E+04  0.7818609E-02  0.8234094E-01
       -2   -1    0    0    0  501  0.00000000000E+00  0.00000000000E+00  0.14497974603E+04  0.14497974603E+04  0.25500000920E-02 0.  1.
        2   -1    0    0  501    0  0.00000000000E+00  0.00000000000E+00 -0.15872960005E+04  0.15872960005E+04  0.25500000920E-02 0. -1.
    10030    2    1    2    0    0  0.00000000000E+00  0.00000000000E+00 -0.13749854015E+03  0.30370934608E+04  0.30339793738E+04 0.  0.
        2    1    3    3  502    0  0.14970061486E+04  0.13653913334E+03 -0.27288839149E+03  0.15277887348E+04  0.25500000920E-02 0.  1.
       -2    1    3    3    0  502 -0.14970061486E+04 -0.13653913334E+03  0.13538985133E+03  0.15093047260E+04  0.25500000920E-02 0. -1.
</event>
<event>
 5   0  0.1853742E-06  0.2693399E+04  0.7818609E-02  0.8337150E-01
       -1   -1    0    0    0  501  0.00000000000E+00  0.00000000000E+00  0.99838451035E+03  0.99838451036E+03  0.50400001928E-02 0.  1.
        1   -1    0    0  501    0  0.00000000000E+00  0.00000000000E+00 -0.18165335859E+04  0.18165335859E+04  0.50400001928E-02 0. -1.
    10030    2    1    2    0    0  0.00000000000E+00  0.00000000000E+00 -0.81814907558E+03  0.28149180963E+04  0.26933985927E+04 0.  0.
        5    1    3    3  502    0  0.10208633368E+04 -0.85193545935E+03 -0.63230177263E+03  0.14723394992E+04  0.46999998093E+01 0.  1.
       -5    1    3    3    0  502 -0.10208633368E+04  0.85193545935E+03 -0.18584730296E+03  0.13425785971E+04  0.46999998093E+01 0. -1.
</event>
<event>
 5   0  0.1885307E-06  0.2321800E+04  0.7818609E-02  0.8469375E-01
       -1   -1    0    0    0  501  0.00000000000E+00  0.00000000000E+00  0.20287716183E+04  0.20287716183E+04  0.50400001928E-02 0. -1.
        1   -1    0    0  501    0  0.00000000000E+00  0.00000000000E+00 -0.66428827168E+03  0.66428827170E+03  0.50400001928E-02 0.  1.
    10030    2    1    2    0    0  0.00000000000E+00  0.00000000000E+00  0.13644833467E+04  0.26930598901E+04  0.23218003291E+04 0.  0.
        3    1    3    3  502    0 -0.16416930143E+03  0.28193071046E+02 -0.65035490707E+03  0.67134784139E+03  0.10100000352E+00 0.  1.
       -3    1    3    3    0  502  0.16416930143E+03 -0.28193071046E+02  0.20148382537E+04  0.20217120487E+04  0.10100000352E+00 0. -1.
</event>
<event>
 5   0  0.4927533E-06  0.3083532E+04  0.7818609E-02  0.8220272E-01
        2   -1    0    0  501    0  0.00000000000E+00  0.00000000000E+00  0.22898534916E+04  0.22898534916E+04  0.25500000920E-02 0. -1.
       -2   -1    0    0    0  501  0.00000000000E+00  0.00000000000E+00 -0.10380764100E+04  0.10380764100E+04  0.25500000920E-02 0.  1.
    10030    2    1    2    0    0  0.00000000000E+00  0.00000000000E+00  0.12517770816E+04  0.33279299016E+04  0.30835323199E+04 0.  0.
        5    1    3    3  502    0 -0.15242986615E+04 -0.42207037290E+02  0.87141214800E+03  0.17563169034E+04  0.46999998093E+01 0.  1.
       -5    1    3    3    0  502  0.15242986615E+04  0.42207037290E+02  0.38036493363E+03  0.15716129982E+04  0.46999998093E+01 0. -1.
</event>
<event>
 5   0  0.1853742E-06  0.3121876E+04  0.7818609E-02  0.8209760E-01
        1   -1    0    0  501    0  0.00000000000E+00  0.00000000000E+00  0.23182597242E+04  0.23182597242E+04  0.50400001928E-02 0.  1.
       -1   -1    0    0    0  501  0.00000000000E+00  0.00000000000E+00 -0.10510156760E+04  0.10510156760E+04  0.50400001928E-02 0. -1.
    10030    2    1    2    0    0  0.00000000000E+00  0.00000000000E+00  0.12672440482E+04  0.33692754002E+04  0.31218759176E+04 0.  0.
        5    1    3    3  502    0  0.79604194442E+03  0.20951679261E+03 -0.79772372920E+03  0.11462832555E+04  0.46999998093E+01 0. -1.
       -5    1    3    3    0  502 -0.79604194442E+03 -0.20951679261E+03  0.20649677774E+04  0.22229921447E+04  0.46999998093E+01 0.  1.
</event>
<event>
 5   0  0.5001658E-06  0.3069573E+04  0.7818609E-02  0.8224138E-01
       -2   -1    0    0    0  501  0.00000000000E+00  0.00000000000E+00  0.12739263810E+04  0.12739263810E+04  0.25500000920E-02 0.  1.
        2   -1    0    0  501    0  0.00000000000E+00  0.00000000000E+00 -0.18490621933E+04  0.18490621933E+04  0.25500000920E-02 0. -1.
    10030    2    1    2    0    0  0.00000000000E+00  0.00000000000E+00 -0.57513581226E+03  0.31229885744E+04  0.30695726792E+04 0.  0.
        3    1    3    3  502    0 -0.62665707926E+03  0.25483046759E+03  0.11140599953E+04  0.13033676939E+04  0.10100000352E+00 0.  1.
       -3    1    3    3    0  502  0.62665707926E+03 -0.25483046759E+03 -0.16891958075E+04  0.18196208805E+04  0.10100000352E+00 0. -1.
</event>
<event>
 5   0  0.1840431E-06  0.3088050E+04  0.7818609E-02  0.8219025E-01
       -1   -1    0    0    0  501  0.00000000000E+00  0.00000000000E+00  0.93378764132E+03  0.93378764134E+03  0.50400001928E-02 0. -1.
        1   -1    0    0  501    0  0.00000000000E+00  0.00000000000E+00 -0.25530566928E+04  0.25530566928E+04  0.50400001928E-02 0.  1.
    10030    2    1    2    0    0  0.00000000000E+00  0.00000000000E+00 -0.16192690515E+04  0.34868443341E+04  0.30880497323E+04 0.  0.
        1    1    3    3  502    0  0.95086949207E+01  0.40977014096E+03  0.87123579938E+03  0.96283633181E+03  0.50400001928E-02 0. -1.
       -1    1    3    3    0  502 -0.95086949207E+01 -0.40977014096E+03 -0.24905048508E+04  0.25240080023E+04  0.50400001928E-02 0.  1.
</event>
<event>
 5   0  0.1853742E-06  0.3085288E+04  0.7818609E-02  0.8219787E-01
       -1   -1    0    0    0  501  0.00000000000E+00  0.00000000000E+00  0.20495036891E+04  0.20495036891E+04  0.50400001928E-02 0. -1.
        1   -1    0    0  501    0  0.00000000000E+00  0.00000000000E+00 -0.11611346672E+04  0.11611346672E+04  0.50400001928E-02 0.  1.
    10030    2    1    2    0    0  0.00000000000E+00  0.00000000000E+00  0.88836902189E+03  0.32106383563E+04  0.30852875289E+04 0.  0.
        5    1    3    3  502    0  0.35178045222E+03 -0.55570522749E+03 -0.10079193181E+04  0.12035286570E+04  0.46999998093E+01 0.  1.
       -5    1    3    3    0  502 -0.35178045222E+03  0.55570522749E+03  0.18962883400E+04  0.20071096993E+04  0.46999998093E+01 0. -1.
</event>
<event>
 5   0  0.5001658E-06  0.3030399E+04  0.7818609E-02  0.8235103E-01
       -2   -1    0    0    0  501  0.00000000000E+00  0.00000000000E+00  0.15893403440E+04  0.15893403440E+04  0.25500000920E-02 0. -1.
        2   -1    0    0  501    0  0.00000000000E+00  0.00000000000E+00 -0.14445168972E+04  0.14445168972E+04  0.25500000920E-02 0.  1.
    10030    2    1    2    0    0  0.00000000000E+00  0.00000000000E+00  0.14482344677E+03  0.30338572412E+04  0.30303986420E+04 0.  0.
        3    1    3    3  502    0 -0.13802422686E+04  0.41313748400E+03 -0.39724805583E+03  0.14945090594E+04  0.10100000352E+00 0.  1.
       -3    1    3    3    0  502  0.13802422686E+04 -0.41313748400E+03  0.54207150260E+03  0.15393481818E+04  0.10100000352E+00 0. -1.
</event>
<event>
 5   0  0.4927533E-06  0.3086268E+04  0.7818609E-02  0.8219517E-01
       -2   -1    0    0    0  501  0.00000000000E+00  0.00000000000E+00  0.16865135695E+04  0.16865135695E+04  0.25500000920E-02 0.  1.
        2   -1    0    0  501    0  0.00000000000E+00  0.00000000000E+00 -0.14119434640E+04  0.14119434641E+04  0.25500000920E-02 0. -1.
    10030    2    1    2    0    0  0.00000000000E+00  0.00000000000E+00  0.27457010543E+03  0.30984570335E+04  0.30862675266E+04 0.  0.
        5    1    3    3  502    0 -0.81511536617E+03 -0.54627923187E+03 -0.10583871616E+04  0.14432738941E+04  0.46999998093E+01 0. -1.
       -5    1    3    3    0  502  0.81511536617E+03  0.54627923187E+03  0.13329572671E+04  0.16551831395E+04  0.46999998093E+01 0.  1.
</event>
<event>
 5   0  0.4927533E-06  0.3116577E+04  0.7818609E-02  0.8211203E-01
        2   -1    0    0  501    0  0.00000000000E+00  0.00000000000E+00  0.22166015221E+04  0.22166015221E+04  0.25500000920E-02 0. -1.
       -2   -1    0    0    0  501  0.00000000000E+00  0.00000000000E+00 -0.10954888662E+04  0.10954888662E+04  0.25500000920E-02 0.  1.
    10030    2    1    2    0    0  0.00000000000E+00  0.00000000000E+00  0.11211126558E+04  0.33120903883E+04  0.31165765117E+04 0.  0.
        5    1    3    3  502    0  0.12009880023E+04  0.74639203637E+03 -0.13532476250E+03  0.14204957357E+04  0.46999998093E+01 0. -1.
       -5    1    3    3    0  502 -0.12009880023E+04 -0.74639203637E+03  0.12564374183E+04  0.18915946527E+04  0.46999998093E+01 0.  1.
</event>
<event>
 5   0  0.1843709E-06  0.2876014E+04  0.7818609E-02  0.8280050E-01
       -1   -1    0    0    0  501  0.00000000000E+00  0.00000000000E+00  0.22433419966E+04  0.22433419966E+04  0.50400001928E-02 0.  1.
        1   -1    0    0  501    0  0.00000000000E+00  0.00000000000E+00 -0.92177854112E+03  0.92177854114E+03  0.50400001928E-02 0. -1.
    10030    2    1    2    0    0  0.00000000000E+00  0.00000000000E+00  0.13215634555E+04  0.31651205377E+04  0.28760142648E+04 0.  0.
        4    1    3    3  502    0 -0.93948925941E+03  0.37020066919E+03  0.17875016435E+04  0.20530105558E+04  0.12699999809E+01 0.  1.
       -4    1    3    3    0  502  0.93948925941E+03 -0.37020066919E+03 -0.46593818798E+03  0.11121099819E+04  0.12699999809E+01 0. -1.
</event>
<event>
 5   0  0.1649875E-06  0.3106965E+04  0.7818609E-02  0.8213829E-01
        3   -1    0    0  501    0  0.00000000000E+00  0.00000000000E+00  0.12041578071E+04  0.12041578113E+04  0.10100000352E+00 0.  1.
       -3   -1    0    0    0  501  0.00000000000E+00  0.00000000000E+00 -0.20041463213E+04  0.20041463238E+04  0.10100000352E+00 0. -1.
    10030    2    1    2    0    0  0.00000000000E+00  0.00000000000E+00 -0.79998851421E+03  0.32083041352E+04  0.31069653685E+04 0.  0.
        5    1    3    3  502    0  0.10234061122E+04  0.39890860543E+03 -0.15343687382E+04  0.18870075942E+04  0.46999998093E+01 0. -1.
       -5    1    3    3    0  502 -0.10234061122E+04 -0.39890860543E+03  0.73438022395E+03  0.13212965410E+04  0.46999998093E+01 0.  1.
</event>
<event>
 5   0  0.1843709E-06  0.3079577E+04  0.7818609E-02  0.8221365E-01
       -1   -1    0    0    0  501  0.00000000000E+00  0.00000000000E+00  0.11883616431E+04  0.11883616431E+04  0.50400001928E-02 0.  1.
        1   -1    0    0  501    0  0.00000000000E+00  0.00000000000E+00 -0.19951400518E+04  0.19951400518E+04  0.50400001928E-02 0. -1.
    10030    2    1    2    0    0  0.00000000000E+00  0.00000000000E+00 -0.80677840878E+03  0.31835016949E+04  0.30795765359E+04 0.  0.
        4    1    3    3  502    0  0.77506711498E+03 -0.13138243549E+04 -0.18634469084E+03  0.15367463763E+04  0.12699999809E+01 0.  1.
       -4    1    3    3    0  502 -0.77506711498E+03  0.13138243549E+04 -0.62043371794E+03  0.16467553186E+04  0.12699999809E+01 0. -1.
</event>
<event>
 5   0  0.1885307E-06  0.2945910E+04  0.7818609E-02  0.8259347E-01
       -1   -1    0    0    0  501  0.00000000000E+00  0.00000000000E+00  0.17989619402E+04  0.17989619402E+04  0.50400001928E-02 0.  1.
        1   -1    0    0  501    0  0.00000000000E+00  0.00000000000E+00 -0.12060271621E+04  0.12060271621E+04  0.50400001928E-02 0. -1.
    10030    2    1    2    0    0  0.00000000000E+00  0.00000000000E+00  0.59293477810E+03  0.30049891023E+04  0.29459103608E+04 0.  0.
        3    1    3    3  502    0 -0.13159895252E+04  0.15980488693E+03  0.95139553628E+03  0.16317228653E+04  0.10100000352E+00 0.  1.
       -3    1    3    3    0  502  0.13159895252E+04 -0.15980488693E+03 -0.35846075819E+03  0.13732662370E+04  0.10100000352E+00 0. -1.
</event>
<event>
 5   0  0.1840431E-06  0.2260497E+04  0.7818609E-02  0.8493662E-01
       -1   -1    0    0    0  501  0.00000000000E+00  0.00000000000E+00  0.97565344020E+03  0.97565344022E+03  0.50400001928E-02 0.  1.
        1   -1    0    0  501    0  0.00000000000E+00  0.00000000000E+00 -0.13093391106E+04  0.13093391107E+04  0.50400001928E-02 0. -1.
    10030    2    1    2    0    0  0.00000000000E+00  0.00000000000E+00 -0.33368567044E+03  0.22849925509E+04  0.22604965894E+04 0.  0.
        1    1    3    3  502    0 -0.31341782797E+03  0.10858073662E+04 -0.18291596976E+03  0.11448434930E+04  0.50400001928E-02 0. -1.
       -1    1    3    3    0  502  0.31341782797E+03 -0.10858073662E+04 -0.15076970069E+03  0.11401490579E+04  0.50400001928E-02 0.  1.
</event>
<event>
 5   0  0.5001658E-06  0.3111404E+04  0.7818609E-02  0.8212615E-01
        2   -1    0    0  501    0  0.00000000000E+00  0.00000000000E+00  0.21443736673E+04  0.21443736673E+04  0.25500000920E-02 0.  1.
       -2   -1    0    0    0  501  0.00000000000E+00  0.00000000000E+00 -0.11286318068E+04  0.11286318068E+04  0.25500000920E-02 0. -1.
    10030    2    1    2    0    0  0.00000000000E+00  0.00000000000E+00  0.10157418605E+04  0.32730054741E+04  0.31114037517E+04 0.  0.
        3    1    3    3  502    0  0.15341538420E+04 -0.23616338663E+03  0.39851403941E+03  0.16025650084E+04  0.10100000352E+00 0.  1.
       -3    1    3    3    0  502 -0.15341538420E+04  0.23616338663E+03  0.61722782108E+03  0.16704404657E+04  0.10100000352E+00 0. -1.
</event>
<event>
 5   0  0.4927533E-06  0.3092355E+04  0.7818609E-02  0.8217839E-01
       -2   -1    0    0    0  501  0.00000000000E+00  0.00000000000E+00  0.15987704807E+04  0.15987704807E+04  0.25500000920E-02 0.  1.
        2   -1    0    0  501    0  0.00000000000E+00  0.00000000000E+00 -0.14953148498E+04  0.14953148498E+04  0.25500000920E-02 0. -1.
    10030    2    1    2    0    0  0.00000000000E+00  0.00000000000E+00  0.10345563090E+03  0.30940853305E+04  0.30923552456E+04 0.  0.
        5    1    3    3  502    0  0.38821728410E+03  0.92728851974E+03 -0.11236917440E+04  0.15077406554E+04  0.46999998093E+01 0. -1.
       -5    1    3    3    0  502 -0.38821728410E+03 -0.92728851974E+03  0.12271473749E+04  0.15863446751E+04  0.46999998093E+01 0.  1.
</event>
<event>
 5   0  0.4927533E-06  0.2881147E+04  0.7818609E-02  0.8278509E-01
       -2   -1    0    0    0  501  0.00000000000E+00  0.00000000000E+00  0.78424640713E+03  0.78424640713E+03  0.25500000920E-02 0.  1.
        2   -1    0    0  501    0  0.00000000000E+00  0.00000000000E+00 -0.26461736999E+04  0.26461736999E+04  0.25500000920E-02 0. -1.
    10030    2    1    2    0    0  0.00000000000E+00  0.00000000000E+00 -0.18619272928E+04  0.34304201071E+04  0.28811471443E+04 0.  0.
        5    1    3    3  502    0 -0.17555366121E+03  0.61227222068E+03 -0.24693997879E+04  0.25502262179E+04  0.46999998093E+01 0. -1.
       -5    1    3    3    0  502  0.17555366121E+03 -0.61227222068E+03  0.60747249509E+03  0.88019388914E+03  0.46999998093E+01 0.  1.
</event>
<event>
 5   0  0.1840431E-06  0.3016598E+04  0.7818609E-02  0.8239007E-01
        1   -1    0    0  501    0  0.00000000000E+00  0.00000000000E+00  0.20910967549E+04  0.20910967549E+04  0.50400001928E-02 0. -1.
       -1   -1    0    0    0  501  0.00000000000E+00  0.00000000000E+00 -0.10879297345E+04  0.10879297345E+04  0.50400001928E-02 0.  1.
    10030    2    1    2    0    0  0.00000000000E+00  0.00000000000E+00  0.10031670204E+04  0.31790264894E+04  0.30165983077E+04 0.  0.
        1    1    3    3  502    0 -0.30735105556E+03 -0.64236960219E+03  0.19027861989E+04  0.20316738655E+04  0.50400001928E-02 0. -1.
       -1    1    3    3    0  502  0.30735105556E+03  0.64236960219E+03 -0.89961917853E+03  0.11473526239E+04  0.50400001928E-02 0.  1.
</event>
<event>
 5   0  0.5328368E-06  0.3154581E+04  0.7818609E-02  0.8200916E-01
        2   -1    0    0  501    0  0.00000000000E+00  0.00000000000E+00  0.14228417736E+04  0.14228417736E+04  0.25500000920E-02 0. -1.
       -2   -1    0    0    0  501  0.00000000000E+00  0.00000000000E+00 -0.17485045713E+04  0.17485045713E+04  0.25500000920E-02 0.  1.
    10030    2    1    2    0    0  0.00000000000E+00  0.00000000000E+00 -0.32566279770E+03  0.31713463450E+04  0.31545810153E+04 0.  0.
        1    1    3    3  502    0 -0.22186163289E+03 -0.46071629383E+03  0.13371987984E+04  0.14316363763E+04  0.50400001928E-02 0. -1.
       -1    1    3    3    0  502  0.22186163289E+03  0.46071629383E+03 -0.16628615960E+04  0.17397099687E+04  0.50400001928E-02 0.  1.
</event>
<event>
 5   0  0.5328368E-06  0.3171113E+04  0.7818609E-02  0.8196488E-01
        2   -1    0    0  501    0  0.00000000000E+00  0.00000000000E+00  0.20560891308E+04  0.20560891308E+04  0.25500000920E-02 0. -1.
       -2   -1    0    0    0  501  0.00000000000E+00  0.00000000000E+00 -0.12227047357E+04  0.12227047357E+04  0.25500000920E-02 0.  1.
    10030    2    1    2    0    0  0.00000000000E+00  0.00000000000E+00  0.83338439511E+03  0.32787938666E+04  0.31711133170E+04 0.  0.
        1    1    3    3  502    0 -0.32765739283E+03  0.12215121454E+04 -0.57209624080E+03  0.13880725475E+04  0.50400001928E-02 0.  1.
       -1    1    3    3    0  502  0.32765739283E+03 -0.12215121454E+04  0.14054806359E+04  0.18907213191E+04  0.50400001928E-02 0. -1.
</event>
<event>
 5   0  0.1885307E-06  0.3091332E+04  0.7818609E-02  0.8218121E-01
       -1   -1    0    0    0  501  0.00000000000E+00  0.00000000000E+00  0.15504781469E+04  0.15504781469E+04  0.50400001928E-02 0.  1.
        1   -1    0    0  501    0  0.00000000000E+00  0.00000000000E+00 -0.15408685194E+04  0.15408685194E+04  0.50400001928E-02 0. -1.
    10030    2    1    2    0    0  0.00000000000E+00  0.00000000000E+00  0.96096274620E+01  0.30913466663E+04  0.30913317302E+04 0.  0.
        3    1    3    3  502    0 -0.22102579797E+03 -0.15191253202E+04 -0.17544259534E+03  0.15451130238E+04  0.10100000352E+00 0. -1.
       -3    1    3    3    0  502  0.22102579797E+03  0.15191253202E+04  0.18505222280E+03  0.15462336425E+04  0.10100000352E+00 0.  1.
</event>
<event>
 5   0  0.4900679E-06  0.3069174E+04  0.7818609E-02  0.8224249E-01
       -2   -1    0    0    0  501  0.00000000000E+00  0.00000000000E+00  0.96069626206E+03  0.96069626207E+03  0.25500000920E-02 0. -1.
        2   -1    0    0  501    0  0.00000000000E+00  0.00000000000E+00 -0.24513024011E+04  0.24513024011E+04  0.25500000920E-02 0.  1.
    10030    2    1    2    0    0  0.00000000000E+00  0.00000000000E+00 -0.14906061390E+04  0.34119986631E+04  0.30691738653E+04 0.  0.
        4    1    3    3  502    0 -0.33095912990E+03 -0.14541839592E+04 -0.34328806141E+03  0.15303702947E+04  0.12699999809E+01 0. -1.
       -4    1    3    3    0  502  0.33095912990E+03  0.14541839592E+04 -0.11473180776E+04  0.18816283685E+04  0.12699999809E+01 0.  1.
</event>
<event>
 5   0  0.1836401E-06  0.3095205E+04  0.7818609E-02  0.8217055E-01
        1   -1    0    0  501    0  0.00000000000E+00  0.00000000000E+00  0.10868437245E+04  0.10868437245E+04  0.50400001928E-02 0. -1.
       -1   -1    0    0    0  501  0.00000000000E+00  0.00000000000E+00 -0.22036961164E+04  0.22036961164E+04  0.50400001928E-02 0.  1.
    10030    2    1    2    0    0  0.00000000000E+00  0.00000000000E+00 -0.11168523919E+04  0.32905398409E+04  0.30952048687E+04 0.  0.
        2    1    3    3  502    0 -0.14473029570E+04  0.51979418723E+03 -0.74317925587E+03  0.17079775329E+04  0.25500000920E-02 0.  1.
       -2    1    3    3    0  502  0.14473029570E+04 -0.51979418723E+03 -0.37367313606E+03  0.15825623081E+04  0.25500000920E-02 0. -1.
</event>
<event>
 5   0  0.5114870E-06  0.3013259E+04  0.7818609E-02  0.8239955E-01
        2   -1    0    0  501    0  0.00000000000E+00  0.00000000000E+00  0.12717750466E+04  0.12717750466E+04  0.25500000920E-02 0. -1.
       -2   -1    0    0    0  501  0.00000000000E+00  0.00000000000E+00 -0.17848532994E+04  0.17848532994E+04  0.25500000920E-02 0.  1.
    10030    2    1    2    0    0  0.00000000000E+00  0.00000000000E+00 -0.51307825287E+03  0.30566283460E+04  0.30132586268E+04 0.  0.
        2    1    3    3  502    0 -0.47095126731E+03  0.43613700146E+03 -0.16392134099E+04  0.17604065393E+04  0.25500000920E-02 0.  1.
       -2    1    3    3    0  502  0.47095126731E+03 -0.43613700146E+03  0.11261351571E+04  0.12962218067E+04  0.25500000920E-02 0. -1.
</event>
<event>
 5   0  0.1840431E-06  0.2940104E+04  0.7818609E-02  0.8261044E-01
        1   -1    0    0  501    0  0.00000000000E+00  0.00000000000E+00  0.93137453650E+03  0.93137453651E+03  0.50400001928E-02 0.  1.
       -1   -1    0    0    0  501  0.00000000000E+00  0.00000000000E+00 -0.23202841606E+04  0.23202841606E+04  0.50400001928E-02 0. -1.
    10030    2    1    2    0    0  0.00000000000E+00  0.00000000000E+00 -0.13889096241E+04  0.32516586971E+04  0.29401044775E+04 0.  0.
        1    1    3    3  502    0  0.14020437914E+04  0.43837382558E+03 -0.63233154300E+03  0.15992940894E+04  0.50400001928E-02 0.  1.
       -1    1    3    3    0  502 -0.14020437914E+04 -0.43837382558E+03 -0.75657808107E+03  0.16523646077E+04  0.50400001928E-02 0. -1.
</event>
<event>
 5   0  0.5114870E-06  0.3050911E+04  0.7818609E-02  0.8229341E-01
       -2   -1    0    0    0  501  0.00000000000E+00  0.00000000000E+00  0.11849046542E+04  0.11849046542E+04  0.25500000920E-02 0.  1.
        2   -1    0    0  501    0  0.00000000000E+00  0.00000000000E+00 -0.19638829683E+04  0.19638829683E+04  0.25500000920E-02 0. -1.
    10030    2    1    2    0    0  0.00000000000E+00  0.00000000000E+00 -0.77897831406E+03  0.31487876225E+04  0.30509107293E+04 0.  0.
        2    1    3    3  502    0 -0.62228998601E+03  0.96598714258E+03 -0.14249902168E+04  0.18305663343E+04  0.25500000920E-02 0. -1.
       -2    1    3    3    0  502  0.62228998601E+03 -0.96598714258E+03  0.64601190270E+03  0.13182212882E+04  0.25500000920E-02 0.  1.
</event>
<event>
 5   0  0.4927533E-06  0.3086006E+04  0.7818609E-02  0.8219589E-01
       -2   -1    0    0    0  501  0.00000000000E+00  0.00000000000E+00  0.10698189458E+04  0.10698189458E+04  0.25500000920E-02 0.  1.
        2   -1    0    0  501    0  0.00000000000E+00  0.00000000000E+00 -0.22254778170E+04  0.22254778170E+04  0.25500000920E-02 0. -1.
    10030    2    1    2    0    0  0.00000000000E+00  0.00000000000E+00 -0.11556588712E+04  0.32952967628E+04  0.30860060480E+04 0.  0.
        5    1    3    3  502    0  0.92622120761E+02 -0.38103557163E+03  0.10157166297E+04  0.10887926001E+04  0.46999998093E+01 0.  1.
       -5    1    3    3    0  502 -0.92622120761E+02  0.38103557163E+03 -0.21713755009E+04  0.22065041627E+04  0.46999998093E+01 0. -1.
</event>
<event>
 5   0  0.4927533E-06  0.2906583E+04  0.7818609E-02  0.8270922E-01
       -2   -1    0    0    0  501  0.00000000000E+00  0.00000000000E+00  0.13275673772E+04  0.13275673772E+04  0.25500000920E-02 0. -1.
        2   -1    0    0  501    0  0.00000000000E+00  0.00000000000E+00 -0.15909216729E+04  0.15909216729E+04  0.25500000920E-02 0.  1.
    10030    2    1    2    0    0  0.00000000000E+00  0.00000000000E+00 -0.26335429579E+03  0.29184890501E+04  0.29065826757E+04 0.  0.
        5    1    3    3  502    0  0.43190124437E+03 -0.81978575329E+02 -0.15225497460E+04  0.15847520282E+04  0.46999998093E+01 0.  1.
       -5    1    3    3    0  502 -0.43190124437E+03  0.81978575329E+02  0.12591954503E+04  0.13337370219E+04  0.46999998093E+01 0. -1.
</event>
<event>
 5   0  0.4927533E-06  0.3137191E+04  0.7818609E-02  0.8205605E-01
       -2   -1    0    0    0  501  0.00000000000E+00  0.00000000000E+00  0.10922050642E+04  0.10922050642E+04  0.25500000920E-02 0. -1.
        2   -1    0    0  501    0  0.00000000000E+00  0.00000000000E+00 -0.22527740842E+04  0.22527740842E+04  0.25500000920E-02 0.  1.
    10030    2    1    2    0    0  0.00000000000E+00  0.00000000000E+00 -0.11605690200E+04  0.33449791484E+04  0.31371906306E+04 0.  0.
        5    1    3    3  502    0 -0.56717809733E+03 -0.10768138418E+04  0.47482934105E+03  0.13064088323E+04  0.46999998093E+01 0. -1.
       -5    1    3    3    0  502  0.56717809733E+03  0.10768138418E+04 -0.16353983611E+04  0.20385703161E+04  0.46999998093E+01 0.  1.
</event>
<event>
 5   0  0.1885307E-06  0.2735871E+04  0.7818609E-02  0.8323459E-01
       -1   -1    0    0    0  501  0.00000000000E+00  0.00000000000E+00  0.14181909906E+04  0.14181909906E+04  0.50400001928E-02 0.  1.
        1   -1    0    0  501    0  0.00000000000E+00  0.00000000000E+00 -0.13194605748E+04  0.13194605748E+04  0.50400001928E-02 0. -1.
    10030    2    1    2    0    0  0.00000000000E+00  0.00000000000E+00  0.98730415840E+02  0.27376515654E+04  0.27358706839E+04 0.  0.
        3    1    3    3  502    0  0.92996110366E+02 -0.10393961071E+04 -0.83566206565E+03  0.13369082400E+04  0.10100000352E+00 0. -1.
       -3    1    3    3    0  502 -0.92996110366E+02  0.10393961071E+04  0.93439248149E+03  0.14007433254E+04  0.10100000352E+00 0.  1.
</event>
<event>
 5   0  0.1885307E-06  0.2242502E+04  0.7818609E-02  0.8500943E-01
        1   -1    0    0  501    0  0.00000000000E+00  0.00000000000E+00  0.64662573117E+03  0.64662573119E+03  0.50400001928E-02 0. -1.
       -1   -1    0    0    0  501  0.00000000000E+00  0.00000000000E+00 -0.19442532424E+04  0.19442532424E+04  0.50400001928E-02 0.  1.
    10030    2    1    2    0    0  0.00000000000E+00  0.00000000000E+00 -0.12976275112E+04  0.25908789736E+04  0.22425023295E+04 0.  0.
        3    1    3    3  502    0  0.62920898373E+03  0.20696648978E+03 -0.16940496226E+04  0.18189401330E+04  0.10100000352E+00 0.  1.
       -3    1    3    3    0  502 -0.62920898373E+03 -0.20696648978E+03  0.39642211139E+03  0.77193884065E+03  0.10100000352E+00 0. -1.
</event>
<event>
 5   0  0.1853742E-06  0.3100259E+04  0.7818609E-02  0.8215667E-01
        1   -1    0    0  501    0  0.00000000000E+00  0.00000000000E+00  0.31276849100E+04  0.31276849101E+04  0.50400001928E-02 0.  1.
       -1   -1    0    0    0  501  0.00000000000E+00  0.00000000000E+00 -0.76826858090E+03  0.76826858091E+03  0.50400001928E-02 0. -1.
    10030    2    1    2    0    0  0.00000000000E+00  0.00000000000E+00  0.23594163292E+04  0.38959534910E+04  0.31002593746E+04 0.  0.
        5    1    3    3  502    0 -0.20641029346E+03  0.15351445704E+04  0.12551691283E+04  0.19936764260E+04  0.46999998093E+01 0.  1.
       -5    1    3    3    0  502  0.20641029346E+03 -0.15351445704E+04  0.11042472009E+04  0.19022770649E+04  0.46999998093E+01 0. -1.
</event>
<event>
 5   0  0.5328368E-06  0.3100000E+04  0.7818609E-02  0.8215738E-01
        2   -1    0    0  501    0  0.00000000000E+00  0.00000000000E+00  0.18700693066E+04  0.18700693066E+04  0.25500000920E-02 0.  1.
       -2   -1    0    0    0  501  0.00000000000E+00  0.00000000000E+00 -0.12847120030E+04  0.12847120030E+04  0.25500000920E-02 0. -1.
    10030    2    1    2    0    0  0.00000000000E+00  0.00000000000E+00  0.58535730358E+03  0.31547813096E+04  0.31000003126E+04 0.  0.
        1    1    3    3  502    0 -0.62906113745E+03  0.12614600948E+04  0.94866312174E+03  0.16991060014E+04  0.50400001928E-02 0.  1.
       -1    1    3    3    0  502  0.62906113745E+03 -0.12614600948E+04 -0.36330581816E+03  0.14556753082E+04  0.50400001928E-02 0. -1.
</event>
<event>
 5   0  0.1853742E-06  0.3110593E+04  0.7818609E-02  0.8212837E-01
        1   -1    0    0  501    0  0.00000000000E+00  0.00000000000E+00  0.25038870790E+04  0.25038870790E+04  0.50400001928E-02 0.  1.
       -1   -1    0    0    0  501  0.00000000000E+00  0.00000000000E+00 -0.96607692836E+03  0.96607692837E+03  0.50400001928E-02 0. -1.
    10030    2    1    2    0    0  0.00000000000E+00  0.00000000000E+00  0.15378101507E+04  0.34699640074E+04  0.31105932156E+04 0.  0.
        5    1    3    3  502    0  0.42620314882E+03 -0.14944745263E+04  0.69993840128E+03  0.17044175220E+04  0.46999998093E+01 0.  1.
       -5    1    3    3    0  502 -0.42620314882E+03  0.14944745263E+04  0.83787174937E+03  0.17655464854E+04  0.46999998093E+01 0. -1.
</event>
<event>
 5   0  0.5328368E-06  0.3089136E+04  0.7818609E-02  0.8218726E-01
       -2   -1    0    0    0  501  0.00000000000E+00  0.00000000000E+00  0.12879737272E+04  0.12879737272E+04  0.25500000920E-02 0.  1.
        2   -1    0    0  501    0  0.00000000000E+00  0.00000000000E+00 -0.18522813267E+04  0.18522813267E+04  0.25500000920E-02 0. -1.
    10030    2    1    2    0    0  0.00000000000E+00  0.00000000000E+00 -0.56430759951E+03  0.31402550540E+04  0.30891355971E+04 0.  0.
        1    1    3    3  502    0  0.85364213358E+03 -0.83041234039E+03  0.71768738860E+03  0.13904548663E+04  0.50400001928E-02 0.  1.
       -1    1    3    3    0  502 -0.85364213358E+03  0.83041234039E+03 -0.12819949881E+04  0.17498001877E+04  0.50400001928E-02 0. -1.
</event>
<event>
 5   0  0.5001658E-06  0.3063449E+04  0.7818609E-02  0.8225841E-01
        2   -1    0    0  501    0  0.00000000000E+00  0.00000000000E+00  0.22024849002E+04  0.22024849002E+04  0.25500000920E-02 0.  1.
       -2   -1    0    0    0  501  0.00000000000E+00  0.00000000000E+00 -0.10652423464E+04  0.10652423464E+04  0.25500000920E-02 0. -1.
    10030    2    1    2    0    0  0.00000000000E+00  0.00000000000E+00  0.11372425538E+04  0.32677272466E+04  0.30634491561E+04 0.  0.
        3    1    3    3  502    0 -0.11627287649E+04 -0.35001376501E+03 -0.42730388668E+03  0.12872592739E+04  0.10100000352E+00 0.  1.
       -3    1    3    3    0  502  0.11627287649E+04  0.35001376501E+03  0.15645464404E+04  0.19804679727E+04  0.10100000352E+00 0. -1.
</event>
<event>
 5   0  0.5114870E-06  0.3085071E+04  0.7818609E-02  0.8219847E-01
       -2   -1    0    0    0  501  0.00000000000E+00  0.00000000000E+00  0.11869617777E+04  0.11869617777E+04  0.25500000920E-02 0. -1.
        2   -1    0    0  501    0  0.00000000000E+00  0.00000000000E+00 -0.20046265961E+04  0.20046265961E+04  0.25500000920E-02 0.  1.
    10030    2    1    2    0    0  0.00000000000E+00  0.00000000000E+00 -0.81766481839E+03  0.31915883738E+04  0.30850705977E+04 0.  0.
        2    1    3    3  502    0  0.14328447429E+03 -0.11629556909E+04 -0.14466741446E+04  0.18616826959E+04  0.25500000920E-02 0.  1.
       -2    1    3    3    0  502 -0.14328447429E+03  0.11629556909E+04  0.62900932625E+03  0.13299056779E+04  0.25500000920E-02 0. -1.
</event>
<event>
 5   0  0.1836401E-06  0.3095060E+04  0.7818609E-02  0.8217095E-01
       -1   -1    0    0    0  501  0.00000000000E+00  0.00000000000E+00  0.15239560287E+04  0.15239560287E+04  0.50400001928E-02 0. -1.
        1   -1    0    0  501    0  0.00000000000E+00  0.00000000000E+00 -0.15714689794E+04  0.15714689794E+04  0.50400001928E-02 0.  1.
    10030    2    1    2    0    0  0.00000000000E+00  0.00000000000E+00 -0.47512950733E+02  0.30954250081E+04  0.30950603387E+04 0.  0.
        2    1    3    3  502    0  0.10628723183E+04  0.64297120109E+03  0.89924992530E+03  0.15335448994E+04  0.25500000920E-02 0. -1.
       -2    1    3    3    0  502 -0.10628723183E+04 -0.64297120109E+03 -0.94676287603E+03  0.15618801087E+04  0.25500000920E-02 0.  1.
</event>
<event>
 5   0  0.4927533E-06  0.3109871E+04  0.7818609E-02  0.8213034E-01
        2   -1    0    0  501    0  0.00000000000E+00  0.00000000000E+00  0.18301079476E+04  0.18301079476E+04  0.25500000920E-02 0.  1.
       -2   -1    0    0    0  501  0.00000000000E+00  0.00000000000E+00 -0.13211375645E+04  0.13211375645E+04  0.25500000920E-02 0. -1.
    10030    2    1    2    0    0  0.00000000000E+00  0.00000000000E+00  0.50897038308E+03  0.31512455121E+04  0.31098709662E+04 0.  0.
        5    1    3    3  502    0  0.10503082424E+04  0.76493830563E+03 -0.61100019055E+03  0.14358347183E+04  0.46999998093E+01 0. -1.
       -5    1    3    3    0  502 -0.10503082424E+04 -0.76493830563E+03  0.11199705736E+04  0.17154107937E+04  0.46999998093E+01 0.  1.
</event>
<event>
 5   0  0.4927533E-06  0.3135886E+04  0.7818609E-02  0.8205958E-01
        2   -1    0    0  501    0  0.00000000000E+00  0.00000000000E+00  0.20567703720E+04  0.20567703720E+04  0.25500000920E-02 0.  1.
       -2   -1    0    0    0  501  0.00000000000E+00  0.00000000000E+00 -0.11952943185E+04  0.11952943185E+04  0.25500000920E-02 0. -1.
    10030    2    1    2    0    0  0.00000000000E+00  0.00000000000E+00  0.86147605349E+03  0.32520646905E+04  0.31358864393E+04 0.  0.
        5    1    3    3  502    0  0.13563011504E+04 -0.10275385173E+03  0.12395774029E+04  0.18402949199E+04  0.46999998093E+01 0. -1.
       -5    1    3    3    0  502 -0.13563011504E+04  0.10275385173E+03 -0.37810134936E+03  0.14117697706E+04  0.46999998093E+01 0.  1.
</event>
<event>
 5   0  0.5328368E-06  0.3086090E+04  0.7818609E-02  0.8219566E-01
        2   -1    0    0  501    0  0.00000000000E+00  0.00000000000E+00  0.17997330739E+04  0.17997330739E+04  0.25500000920E-02 0. -1.
       -2   -1    0    0    0  501  0.00000000000E+00  0.00000000000E+00 -0.13229672976E+04  0.13229672976E+04  0.25500000920E-02 0.  1.
    10030    2    1    2    0    0  0.00000000000E+00  0.00000000000E+00  0.47676577638E+03  0.31227003715E+04  0.30860900837E+04 0.  0.
        1    1    3    3  502    0 -0.45056125842E+03 -0.10456024166E+04 -0.81546071462E+03  0.14004520836E+04  0.50400001928E-02 0.  1.
       -1    1    3    3    0  502  0.45056125842E+03  0.10456024166E+04  0.12922264910E+04  0.17222482879E+04  0.50400001928E-02 0. -1.
</event>
<event>
 5   0  0.4900679E-06  0.3080189E+04  0.7818609E-02  0.8221196E-01
        2   -1    0    0  501    0  0.00000000000E+00  0.00000000000E+00  0.19655409976E+04  0.19655409976E+04  0.25500000920E-02 0. -1.
       -2   -1    0    0    0  501  0.00000000000E+00  0.00000000000E+00 -0.12067367262E+04  0.12067367262E+04  0.25500000920E-02 0.  1.
    10030    2    1    2    0    0  0.00000000000E+00  0.00000000000E+00  0.75880427138E+03  0.31722777238E+04  0.30801886362E+04 0.  0.
        4    1    3    3  502    0 -0.13516152029E+04 -0.49023363894E+03  0.94789814338E+03  0.17221222897E+04  0.12699999809E+01 0. -1.
       -4    1    3    3    0  502  0.13516152029E+04  0.49023363894E+03 -0.18909387200E+03  0.14501554341E+04  0.12699999809E+01 0.  1.
</event>
<event>
 5   0  0.1836401E-06  0.2782151E+04  0.7818609E-02  0.8308831E-01
       -1   -1    0    0    0  501  0.00000000000E+00  0.00000000000E+00  0.11134891207E+04  0.11134891207E+04  0.50400001928E-02 0. -1.
        1   -1    0    0  501    0  0.00000000000E+00  0.00000000000E+00 -0.17378626587E+04  0.17378626587E+04  0.50400001928E-02 0.  1.
    10030    2    1    2    0    0  0.00000000000E+00  0.00000000000E+00 -0.62437353800E+03  0.28513517795E+04  0.27821510842E+04 0.  0.
        2    1    3    3  502    0  0.25047477830E+03  0.30802849923E+03  0.10541931582E+04  0.11264734288E+04  0.25500000920E-02 0. -1.
       -2    1    3    3    0  502 -0.25047477830E+03 -0.30802849923E+03 -0.16785666962E+04  0.17248783507E+04  0.25500000920E-02 0.  1.
</event>
<event>
 5   0  0.1836401E-06  0.3200539E+04  0.7818609E-02  0.8188675E-01
        1   -1    0    0  501    0  0.00000000000E+00  0.00000000000E+00  0.16626274629E+04  0.16626274629E+04  0.50400001928E-02 0.  1.
       -1   -1    0    0    0  501  0.00000000000E+00  0.00000000000E+00 -0.15402505211E+04  0.15402505212E+04  0.50400001928E-02 0. -1.
    10030    2    1    2    0    0  0.00000000000E+00  0.00000000000E+00  0.12237694176E+03  0.32028779841E+04  0.32005392147E+04 0.  0.
        2    1    3    3  502    0  0.77831360309E+03  0.13980186304E+04  0.35977591507E+02  0.16004757239E+04  0.25500000920E-02 0.  1.
       -2    1    3    3    0  502 -0.77831360309E+03 -0.13980186304E+04  0.86399350256E+02  0.16024022602E+04  0.25500000920E-02 0. -1.
</event>
<event>
 5   0  0.4927533E-06  0.3079605E+04  0.7818609E-02  0.8221357E-01
        2   -1    0    0  501    0  0.00000000000E+00  0.00000000000E+00  0.23604958613E+04  0.23604958613E+04  0.25500000920E-02 0. -1.
       -2   -1    0    0    0  501  0.00000000000E+00  0.00000000000E+00 -0.10044465841E+04  0.10044465841E+04  0.25500000920E-02 0.  1.
    10030    2    1    2    0    0  0.00000000000E+00  0.00000000000E+00  0.13560492772E+04  0.33649424454E+04  0.30796051725E+04 0.  0.
        5    1    3    3  502    0  0.12069369898E+04  0.98751791173E+02 -0.36115816474E+03  0.12636875103E+04  0.46999998093E+01 0.  1.
       -5    1    3    3    0  502 -0.12069369898E+04 -0.98751791173E+02  0.17172074420E+04  0.21012549351E+04  0.46999998093E+01 0. -1.
</event>
<event>
 5   0  0.5001658E-06  0.3040991E+04  0.7818609E-02  0.8232122E-01
       -2   -1    0    0    0  501  0.00000000000E+00  0.00000000000E+00  0.15106501523E+04  0.15106501523E+04  0.25500000920E-02 0.  1.
        2   -1    0    0  501    0  0.00000000000E+00  0.00000000000E+00 -0.15304047729E+04  0.15304047729E+04  0.25500000920E-02 0. -1.
    10030    2    1    2    0    0  0.00000000000E+00  0.00000000000E+00 -0.19754620598E+02  0.30410549252E+04  0.30409907617E+04 0.  0.
        3    1    3    3  502    0 -0.14312060945E+04 -0.40476179676E+03  0.30591914970E+03  0.15184760563E+04  0.10100000352E+00 0.  1.
       -3    1    3    3    0  502  0.14312060945E+04  0.40476179676E+03 -0.32567377030E+03  0.15225788689E+04  0.10100000352E+00 0. -1.
</event>
<event>
 5   0  0.1836401E-06  0.3059508E+04  0.7818609E-02  0.8226939E-01
        1   -1    0    0  501    0  0.00000000000E+00  0.00000000000E+00  0.20607551084E+04  0.20607551084E+04  0.50400001928E-02 0.  1.
       -1   -1    0    0    0  501  0.00000000000E+00  0.00000000000E+00 -0.11355776570E+04  0.11355776570E+04  0.50400001928E-02 0. -1.
    10030    2    1    2    0    0  0.00000000000E+00  0.00000000000E+00  0.92517745137E+03  0.31963327654E+04  0.30595081027E+04 0.  0.
        2    1    3    3  502    0  0.52779548442E+02 -0.64380700468E+03  0.19112799473E+04  0.20174895729E+04  0.25500000920E-02 0.  1.
       -2    1    3    3    0  502 -0.52779548442E+02  0.64380700468E+03 -0.98610249591E+03  0.11788431925E+04  0.25500000920E-02 0. -1.
</event>
<event>
 5   0  0.4900679E-06  0.3262091E+04  0.7818609E-02  0.8172609E-01
       -2   -1    0    0    0  501  0.00000000000E+00  0.00000000000E+00  0.18003861622E+04  0.18003861622E+04  0.25500000920E-02 0. -1.
        2   -1    0    0  501    0  0.00000000000E+00  0.00000000000E+00 -0.14776330037E+04  0.14776330037E+04  0.25500000920E-02 0.  1.
    10030    2    1    2    0    0  0.00000000000E+00  0.00000000000E+00  0.32275315849E+03  0.32780191659E+04  0.32620913615E+04 0.  0.
        4    1    3    3  502    0 -0.10214894676E+04  0.11154851591E+04  0.77473423168E+03  0.16994006635E+04  0.12699999809E+01 0.  1.
       -4    1    3    3    0  502  0.10214894676E+04 -0.11154851591E+04 -0.45198107319E+03  0.15786185024E+04  0.12699999809E+01 0. -1.
</event>
<event>
 5   0  0.1843709E-06  0.2873684E+04  0.7818609E-02  0.8280750E-01
        1   -1    0    0  501    0  0.00000000000E+00  0.00000000000E+00  0.16420093580E+04  0.16420093580E+04  0.50400001928E-02 0.  1.
       -1   -1    0    0    0  501  0.00000000000E+00  0.00000000000E+00 -0.12573103886E+04  0.12573103886E+04  0.50400001928E-02 0. -1.
    10030    2    1    2    0    0  0.00000000000E+00  0.00000000000E+00  0.38469896942E+03  0.28993197465E+04  0.28736843417E+04 0.  0.
        4    1    3    3  502    0 -0.56186583778E+03  0.12794929684E+04 -0.14487513966E+03  0.14049149066E+04  0.12699999809E+01 0. -1.
       -4    1    3    3    0  502  0.56186583778E+03 -0.12794929684E+04  0.52957410908E+03  0.14944048400E+04  0.12699999809E+01 0.  1.
</event>
<event>
 5   0  0.1885307E-06  0.3133900E+04  0.7818609E-02  0.8206496E-01
        1   -1    0    0  501    0  0.00000000000E+00  0.00000000000E+00  0.23727403161E+04  0.23727403161E+04  0.50400001928E-02 0. -1.
       -1   -1    0    0    0  501  0.00000000000E+00  0.00000000000E+00 -0.10348084817E+04  0.10348084817E+04  0.50400001928E-02 0.  1.
    10030    2    1    2    0    0  0.00000000000E+00  0.00000000000E+00  0.13379318344E+04  0.34075487978E+04  0.31338996818E+04 0.  0.
        3    1    3    3  502    0 -0.14719411979E+04 -0.43502566374E+03  0.10119001640E+04  0.18384232838E+04  0.10100000352E+00 0. -1.
       -3    1    3    3    0  502  0.14719411979E+04  0.43502566374E+03  0.32603167035E+03  0.15691255140E+04  0.10100000352E+00 0.  1.
</event>
<event>
 5   0  0.5328368E-06  0.3067120E+04  0.7818609E-02  0.8224820E-01
       -2   -1    0    0    0  501  0.00000000000E+00  0.00000000000E+00  0.10524437812E+04  0.10524437812E+04  0.25500000920E-02 0. -1.
        2   -1    0    0  501    0  0.00000000000E+00  0.00000000000E+00 -0.22346150176E+04  0.22346150176E+04  0.25500000920E-02 0.  1.
    10030    2    1    2    0    0  0.00000000000E+00  0.00000000000E+00 -0.11821712365E+04  0.32870587988E+04  0.30671202641E+04 0.  0.
        1    1    3    3  502    0  0.11055926061E+04 -0.25328621145E+03  0.51507005656E+03  0.12457070598E+04  0.50400001928E-02 0. -1.
       -1    1    3    3    0  502 -0.11055926061E+04  0.25328621145E+03 -0.16972412930E+04  0.20413517390E+04  0.50400001928E-02 0.  1.
</event>
<event>
 5   0  0.1836401E-06  0.3154222E+04  0.7818609E-02  0.8201013E-01
       -1   -1    0    0    0  501  0.00000000000E+00  0.00000000000E+00  0.13957815283E+04  0.13957815283E+04  0.50400001928E-02 0.  1.
        1   -1    0    0  501    0  0.00000000000E+00  0.00000000000E+00 -0.17819972287E+04  0.17819972287E+04  0.50400001928E-02 0. -1.
    10030    2    1    2    0    0  0.00000000000E+00  0.00000000000E+00 -0.38621570041E+03  0.31777787570E+04  0.31542218154E+04 0.  0.
        2    1    3    3  502    0 -0.58287059802E+03 -0.10656501047E+04 -0.12065682345E+04  0.17120616765E+04  0.25500000920E-02 0. -1.
       -2    1    3    3    0  502  0.58287059802E+03  0.10656501047E+04  0.82035253411E+03  0.14657170804E+04  0.25500000920E-02 0.  1.
</event>
<event>
 5   0  0.5328368E-06  0.3122564E+04  0.7818609E-02  0.8209572E-01
       -2   -1    0    0    0  501  0.00000000000E+00  0.00000000000E+00  0.10119180010E+04  0.10119180010E+04  0.25500000920E-02 0.  1.
        2   -1    0    0  501    0  0.00000000000E+00  0.00000000000E+00 -0.24088929859E+04  0.24088929859E+04  0.25500000920E-02 0. -1.
    10030    2    1    2    0    0  0.00000000000E+00  0.00000000000E+00 -0.13969749849E+04  0.34208109869E+04  0.31225644428E+04 0.  0.
        1    1    3    3  502    0  0.35203734391E+03 -0.13356425084E+04  0.98855811961E+02  0.13847901189E+04  0.50400001928E-02 0.  1.
       -1    1    3    3    0  502 -0.35203734391E+03  0.13356425084E+04 -0.14958307968E+04  0.20360208679E+04  0.50400001928E-02 0. -1.
</event>
<event>
 5   0  0.5001658E-06  0.3088269E+04  0.7818609E-02  0.8218965E-01
        2   -1    0    0  501    0  0.00000000000E+00  0.00000000000E+00  0.22223684290E+04  0.22223684290E+04  0.25500000920E-02 0. -1.
       -2   -1    0    0    0  501  0.00000000000E+00  0.00000000000E+00 -0.10728873094E+04  0.10728873094E+04  0.25500000920E-02 0.  1.
    10030    2    1    2    0    0  0.00000000000E+00  0.00000000000E+00  0.11494811196E+04  0.32952557384E+04  0.30882686957E+04 0.  0.
        3    1    3    3  502    0  0.69072182627E+03 -0.51751600513E+03 -0.79147954656E+03  0.11710505282E+04  0.10100000352E+00 0.  1.
       -3    1    3    3    0  502 -0.69072182627E+03  0.51751600513E+03  0.19409606662E+04  0.21242052101E+04  0.10100000352E+00 0. -1.
</event>
<event>
 5   0  0.1840431E-06  0.2287830E+04  0.7818609E-02  0.8482735E-01
        1   -1    0    0  501    0  0.00000000000E+00  0.00000000000E+00  0.51746172430E+03  0.51746172433E+03  0.50400001928E-02 0. -1.
       -1   -1    0    0    0  501  0.00000000000E+00  0.00000000000E+00 -0.25287696750E+04  0.25287696751E+04  0.50400001928E-02 0.  1.
    10030    2    1    2    0    0  0.00000000000E+00  0.00000000000E+00 -0.20113079507E+04  0.30462313994E+04  0.22878299906E+04 0.  0.
        1    1    3    3  502    0 -0.79001743058E+03 -0.24627814169E+02 -0.21067014738E+04  0.22500944802E+04  0.50400001928E-02 0.  1.
       -1    1    3    3    0  502  0.79001743058E+03  0.24627814169E+02  0.95393523078E+02  0.79613691921E+03  0.50400001928E-02 0. -1.
</event>
<event>
 5   0  0.1840431E-06  0.2948866E+04  0.7818609E-02  0.8258485E-01
       -1   -1    0    0    0  501  0.00000000000E+00  0.00000000000E+00  0.11330502457E+04  0.11330502457E+04  0.50400001928E-02 0. -1.
        1   -1    0    0  501    0  0.00000000000E+00  0.00000000000E+00 -0.19186725499E+04  0.19186725499E+04  0.50400001928E-02 0.  1.
    10030    2    1    2    0    0  0.00000000000E+00  0.00000000000E+00 -0.78562230419E+03  0.30517227956E+04  0.29488658187E+04 0.  0.
        1    1    3    3  502    0  0.20461617012E+02 -0.94500136080E+03 -0.15638758936E+04  0.18273352348E+04  0.50400001928E-02 0.  1.
       -1    1    3    3    0  502 -0.20461617012E+02  0.94500136080E+03  0.77825358941E+03  0.12243875608E+04  0.50400001928E-02 0. -1.
</event>
<event>
 5   0  0.5328368E-06  0.3110595E+04  0.7818609E-02  0.8212836E-01
        2   -1    0    0  501    0  0.00000000000E+00  0.00000000000E+00  0.10890896352E+04  0.10890896352E+04  0.25500000920E-02 0. -1.
       -2   -1    0    0    0  501  0.00000000000E+00  0.00000000000E+00 -0.22210755610E+04  0.22210755610E+04  0.25500000920E-02 0.  1.
    10030    2    1    2    0    0  0.00000000000E+00  0.00000000000E+00 -0.11319859258E+04  0.33101651962E+04  0.31105950379E+04 0.  0.
        1    1    3    3  502    0 -0.63276724548E+03 -0.27867056408E+03  0.91655116174E+03  0.11480930722E+04  0.50400001928E-02 0. -1.
       -1    1    3    3    0  502  0.63276724548E+03  0.27867056408E+03 -0.20485370876E+04  0.21620721240E+04  0.50400001928E-02 0.  1.
</event>
<event>
 5   0  0.1836401E-06  0.3094119E+04  0.7818609E-02  0.8217354E-01
        1   -1    0    0  501    0  0.00000000000E+00  0.00000000000E+00  0.17511400803E+04  0.17511400803E+04  0.50400001928E-02 0. -1.
       -1   -1    0    0    0  501  0.00000000000E+00  0.00000000000E+00 -0.13667624080E+04  0.13667624080E+04  0.50400001928E-02 0.  1.
    10030    2    1    2    0    0  0.00000000000E+00  0.00000000000E+00  0.38437767227E+03  0.31179024883E+04  0.30941185710E+04 0.  0.
        2    1    3    3  502    0 -0.73271592525E+03 -0.29874490083E+03 -0.11474174822E+04  0.13938034371E+04  0.25500000920E-02 0.  1.
       -2    1    3    3    0  502  0.73271592525E+03  0.29874490083E+03  0.15317951545E+04  0.17240990511E+04  0.25500000920E-02 0. -1.
</event>
<event>
 5   0  0.1840431E-06  0.3126059E+04  0.7818609E-02  0.8208622E-01
       -1   -1    0    0    0  501  0.00000000000E+00  0.00000000000E+00  0.10392510914E+04  0.10392510914E+04  0.50400001928E-02 0.  1.
        1   -1    0    0  501    0  0.00000000000E+00  0.00000000000E+00 -0.23507905617E+04  0.23507905617E+04  0.50400001928E-02 0. -1.
    10030    2    1    2    0    0  0.00000000000E+00  0.00000000000E+00 -0.13115394703E+04  0.33900416531E+04  0.31260592809E+04 0.  0.
        1    1    3    3  502    0 -0.10485365571E+04  0.19299923379E+03 -0.18952603938E+04  0.21745550294E+04  0.50400001928E-02 0. -1.
       -1    1    3    3    0  502  0.10485365571E+04 -0.19299923379E+03  0.58372092348E+03  0.12154866237E+04  0.50400001928E-02 0.  1.
</event>
<event>
 5   0  0.5001658E-06  0.3084341E+04  0.7818609E-02  0.8220049E-01
       -2   -1    0    0    0  501  0.00000000000E+00  0.00000000000E+00  0.16653661217E+04  0.16653661217E+04  0.25500000920E-02 0. -1.
        2   -1    0    0  501    0  0.00000000000E+00  0.00000000000E+00 -0.14280883795E+04  0.14280883795E+04  0.25500000920E-02 0.  1.
    10030    2    1    2    0    0  0.00000000000E+00  0.00000000000E+00  0.23727774221E+03  0.30934545011E+04  0.30843411004E+04 0.  0.
        3    1    3    3  502    0  0.11514217080E+04 -0.10101229641E+04  0.29852780804E+03  0.15605253009E+04  0.10100000352E+00 0.  1.
       -3    1    3    3    0  502 -0.11514217080E+04  0.10101229641E+04 -0.61250065831E+02  0.15329292003E+04  0.10100000352E+00 0. -1.
</event>
<event>
 5   0  0.1843709E-06  0.2751786E+04  0.7818609E-02  0.8318395E-01
       -1   -1    0    0    0  501  0.00000000000E+00  0.00000000000E+00  0.17483479621E+04  0.17483479621E+04  0.50400001928E-02 0.  1.
        1   -1    0    0  501    0  0.00000000000E+00  0.00000000000E+00 -0.10827831019E+04  0.10827831020E+04  0.50400001928E-02 0. -1.
    10030    2    1    2    0    0  0.00000000000E+00  0.00000000000E+00  0.66556486019E+03  0.28311310641E+04  0.27517860598E+04 0.  0.
        4    1    3    3  502    0  0.58198011125E+03 -0.12463867246E+04  0.36363543883E+03  0.14228187033E+04  0.12699999809E+01 0. -1.
       -4    1    3    3    0  502 -0.58198011125E+03  0.12463867246E+04  0.30192942136E+03  0.14083123608E+04  0.12699999809E+01 0.  1.
</event>
<event>
 5   0  0.1840431E-06  0.3109958E+04  0.7818609E-02  0.8213010E-01
        1   -1    0    0  501    0  0.00000000000E+00  0.00000000000E+00  0.78405476690E+03  0.78405476692E+03  0.50400001928E-02 0.  1.
       -1   -1    0    0    0  501  0.00000000000E+00  0.00000000000E+00 -0.30839165820E+04  0.30839165820E+04  0.50400001928E-02 0. -1.
    10030    2    1    2    0    0  0.00000000000E+00  0.00000000000E+00 -0.22998618151E+04  0.38679713489E+04  0.31099578755E+04 0.  0.
        1    1    3    3  502    0  0.13853371315E+04  0.12692481023E+02 -0.20281887785E+04  0.24561900961E+04  0.50400001928E-02 0.  1.
       -1    1    3    3    0  502 -0.13853371315E+04 -0.12692481023E+02 -0.27167303659E+03  0.14117812528E+04  0.50400001928E-02 0. -1.
</event>
<event>
 5   0  0.1840431E-06  0.3103306E+04  0.7818609E-02  0.8214831E-01
        1   -1    0    0  501    0  0.00000000000E+00  0.00000000000E+00  0.17174731350E+04  0.17174731350E+04  0.50400001928E-02 0. -1.
       -1   -1    0    0    0  501  0.00000000000E+00  0.00000000000E+00 -0.14018424322E+04  0.14018424322E+04  0.50400001928E-02 0.  1.
    10030    2    1    2    0    0  0.00000000000E+00  0.00000000000E+00  0.31563070282E+03  0.31193155671E+04  0.31033057965E+04 0.  0.
        1    1    3    3  502    0  0.43640156936E+03  0.14624673776E+04  0.43920520539E+03  0.15881304647E+04  0.50400001928E-02 0. -1.
       -1    1    3    3    0  502 -0.43640156936E+03 -0.14624673776E+04 -0.12357450257E+03  0.15311851025E+04  0.50400001928E-02 0.  1.
</event>
<event>
 5   0  0.5114870E-06  0.3104176E+04  0.7818609E-02  0.8214593E-01
        2   -1    0    0  501    0  0.00000000000E+00  0.00000000000E+00  0.18069016004E+04  0.18069016004E+04  0.25500000920E-02 0.  1.
       -2   -1    0    0    0  501  0.00000000000E+00  0.00000000000E+00 -0.13332085649E+04  0.13332085649E+04  0.25500000920E-02 0. -1.
    10030    2    1    2    0    0  0.00000000000E+00  0.00000000000E+00  0.47369303552E+03  0.31401101653E+04  0.31041756971E+04 0.  0.
        2    1    3    3  502    0  0.55103537068E+02 -0.53316194318E+03 -0.12366136216E+04  0.13477801403E+04  0.25500000920E-02 0. -1.
       -2    1    3    3    0  502 -0.55103537068E+02  0.53316194318E+03  0.17103066571E+04  0.17923300250E+04  0.25500000920E-02 0.  1.
</event>
<event>
 5   0  0.4900679E-06  0.2249239E+04  0.7818609E-02  0.8498209E-01
        2   -1    0    0  501    0  0.00000000000E+00  0.00000000000E+00  0.13929837619E+04  0.13929837619E+04  0.25500000920E-02 0.  1.
       -2   -1    0    0    0  501  0.00000000000E+00  0.00000000000E+00 -0.90795693745E+03  0.90795693745E+03  0.25500000920E-02 0. -1.
    10030    2    1    2    0    0  0.00000000000E+00  0.00000000000E+00  0.48502682447E+03  0.23009406994E+04  0.22492392228E+04 0.  0.
        4    1    3    3  502    0  0.75759541236E+03  0.66474130929E+03 -0.26788990931E+03  0.10428798749E+04  0.12699999809E+01 0. -1.
       -4    1    3    3    0  502 -0.75759541236E+03 -0.66474130929E+03  0.75291673378E+03  0.12580608245E+04  0.12699999809E+01 0.  1.
</event>
<event>
 5   0  0.5001658E-06  0.3162538E+04  0.7818609E-02  0.8198781E-01
       -2   -1    0    0    0  501  0.00000000000E+00  0.00000000000E+00  0.77213662758E+03  0.77213662759E+03  0.25500000920E-02 0.  1.
        2   -1    0    0  501    0  0.00000000000E+00  0.00000000000E+00 -0.32383028129E+04  0.32383028129E+04  0.25500000920E-02 0. -1.
    10030    2    1    2    0    0  0.00000000000E+00  0.00000000000E+00 -0.24661661853E+04  0.40104394405E+04  0.31625383558E+04 0.  0.
        3    1    3    3  502    0 -0.34133559504E+03  0.35559626979E+03 -0.31383927494E+04  0.31768644533E+04  0.10100000352E+00 0. -1.
       -3    1    3    3    0  502  0.34133559504E+03 -0.35559626979E+03  0.67222656406E+03  0.83357498712E+03  0.10100000352E+00 0.  1.
</event>
<event>
 5   0  0.1885307E-06  0.3106321E+04  0.7818609E-02  0.8214005E-01
       -1   -1    0    0    0  501  0.00000000000E+00  0.00000000000E+00  0.19422739568E+04  0.19422739568E+04  0.50400001928E-02 0. -1.
        1   -1    0    0  501    0  0.00000000000E+00  0.00000000000E+00 -0.12420013957E+04  0.12420013957E+04  0.50400001928E-02 0.  1.
    10030    2    1    2    0    0  0.00000000000E+00  0.00000000000E+00  0.70027256114E+03  0.31842753525E+04  0.31063206306E+04 0.  0.
        3    1    3    3  502    0  0.16324368509E+03  0.45526778939E+03 -0.11628400054E+04  0.12594102386E+04  0.10100000352E+00 0.  1.
       -3    1    3    3    0  502 -0.16324368509E+03 -0.45526778939E+03  0.18631125665E+04  0.19248651139E+04  0.10100000352E+00 0. -1.
</event>
<event>
 5   0  0.4927533E-06  0.3077966E+04  0.7818609E-02  0.8221811E-01
       -2   -1    0    0    0  501  0.00000000000E+00  0.00000000000E+00  0.79239712360E+03  0.79239712361E+03  0.25500000920E-02 0. -1.
        2   -1    0    0  501    0  0.00000000000E+00  0.00000000000E+00 -0.29889926073E+04  0.29889926073E+04  0.25500000920E-02 0.  1.
    10030    2    1    2    0    0  0.00000000000E+00  0.00000000000E+00 -0.21965954837E+04  0.37813897309E+04  0.30779663055E+04 0.  0.
        5    1    3    3  502    0  0.99381021293E+03 -0.17708082818E+03 -0.25254255597E+04  0.27197082024E+04  0.46999998093E+01 0.  1.
       -5    1    3    3    0  502 -0.99381021293E+03  0.17708082818E+03  0.32883007596E+03  0.10616815285E+04  0.46999998093E+01 0. -1.
</event>
<event>
 5   0  0.5114870E-06  0.3126504E+04  0.7818609E-02  0.8208502E-01
        2   -1    0    0  501    0  0.00000000000E+00  0.00000000000E+00  0.11538277528E+04  0.11538277528E+04  0.25500000920E-02 0.  1.
       -2   -1    0    0    0  501  0.00000000000E+00  0.00000000000E+00 -0.21179558114E+04  0.21179558114E+04  0.25500000920E-02 0. -1.
    10030    2    1    2    0    0  0.00000000000E+00  0.00000000000E+00 -0.96412805861E+03  0.32717835643E+04  0.31265036028E+04 0.  0.
        2    1    3    3  502    0  0.48450077685E+03 -0.84007216609E+03  0.80099780699E+03  0.12577995603E+04  0.25500000920E-02 0.  1.
       -2    1    3    3    0  502 -0.48450077685E+03  0.84007216609E+03 -0.17651258656E+04  0.20139840040E+04  0.25500000920E-02 0. -1.
</event>
<event>
 5   0  0.1885307E-06  0.3106361E+04  0.7818609E-02  0.8213994E-01
       -1   -1    0    0    0  501  0.00000000000E+00  0.00000000000E+00  0.13117365858E+04  0.13117365858E+04  0.50400001928E-02 0.  1.
        1   -1    0    0  501    0  0.00000000000E+00  0.00000000000E+00 -0.18390658440E+04  0.18390658440E+04  0.50400001928E-02 0. -1.
    10030    2    1    2    0    0  0.00000000000E+00  0.00000000000E+00 -0.52732925824E+03  0.31508024298E+04  0.31063611840E+04 0.  0.
        3    1    3    3  502    0 -0.60788279362E+03  0.64721859237E+03 -0.15562416258E+04  0.17917313988E+04  0.10100000352E+00 0. -1.
       -3    1    3    3    0  502  0.60788279362E+03 -0.64721859237E+03  0.10289123676E+04  0.13590710311E+04  0.10100000352E+00 0.  1.
</event>
<event>
 5   0  0.4927533E-06  0.3126480E+04  0.7818609E-02  0.8208508E-01
       -2   -1    0    0    0  501  0.00000000000E+00  0.00000000000E+00  0.13644171708E+04  0.13644171708E+04  0.25500000920E-02 0.  1.
        2   -1    0    0  501    0  0.00000000000E+00  0.00000000000E+00 -0.17910349427E+04  0.17910349427E+04  0.25500000920E-02 0. -1.
    10030    2    1    2    0    0  0.00000000000E+00  0.00000000000E+00 -0.42661777189E+03  0.31554521135E+04  0.31264797005E+04 0.  0.
        5    1    3    3  502    0  0.82941879963E+03 -0.13214390873E+04 -0.31198985403E+03  0.15910677439E+04  0.46999998093E+01 0.  1.
       -5    1    3    3    0  502 -0.82941879963E+03  0.13214390873E+04 -0.11462791786E+03  0.15643843697E+04  0.46999998093E+01 0. -1.
</event>
<event>
 5   0  0.4927533E-06  0.3188080E+04  0.7818609E-02  0.8191972E-01
        2   -1    0    0  501    0  0.00000000000E+00  0.00000000000E+00  0.20689164449E+04  0.20689164449E+04  0.25500000920E-02 0. -1.
       -2   -1    0    0    0  501  0.00000000000E+00  0.00000000000E+00 -0.12281613967E+04  0.12281613967E+04  0.25500000920E-02 0.  1.
    10030    2    1    2    0    0  0.00000000000E+00  0.00000000000E+00  0.84075504818E+03  0.32970778417E+04  0.31880798677E+04 0.  0.
        5    1    3    3  502    0 -0.74346130072E+03 -0.52315304873E+03 -0.93378551751E+03  0.13032272637E+04  0.46999998093E+01 0.  1.
       -5    1    3    3    0  502  0.74346130072E+03  0.52315304873E+03  0.17745405657E+04  0.19938505780E+04  0.46999998093E+01 0. -1.
</event>
<event>
 5   0  0.5328368E-06  0.3114419E+04  0.7818609E-02  0.8211792E-01
       -2   -1    0    0    0  501  0.00000000000E+00  0.00000000000E+00  0.10270881346E+04  0.10270881346E+04  0.25500000920E-02 0.  1.
        2   -1    0    0  501    0  0.00000000000E+00  0.00000000000E+00 -0.23609483643E+04  0.23609483643E+04  0.25500000920E-02 0. -1.
    10030    2    1    2    0    0  0.00000000000E+00  0.00000000000E+00 -0.13338602297E+04  0.33880364990E+04  0.31144194011E+04 0.  0.
        1    1    3    3  502    0 -0.12790216663E+04 -0.57797524321E+03 -0.14006882625E+04  0.19828967228E+04  0.50400001928E-02 0. -1.
       -1    1    3    3    0  502  0.12790216663E+04  0.57797524321E+03  0.66828032830E+02  0.14051397762E+04  0.50400001928E-02 0.  1.
</event>
<event>
 5   0  0.4900679E-06  0.3059681E+04  0.7818609E-02  0.8226891E-01
        2   -1    0    0  501    0  0.00000000000E+00  0.00000000000E+00  0.20473784317E+04  0.20473784317E+04  0.25500000920E-02 0. -1.
       -2   -1    0    0    0  501  0.00000000000E+00  0.00000000000E+00 -0.11431263791E+04  0.11431263791E+04  0.25500000920E-02 0.  1.
    10030    2    1    2    0    0  0.00000000000E+00  0.00000000000E+00  0.90425205265E+03  0.31905048108E+04  0.30596812208E+04 0.  0.
        4    1    3    3  502    0 -0.37923593466E+03 -0.35919871132E+03 -0.10472585059E+04  0.11702972270E+04  0.12699999809E+01 0.  1.
       -4    1    3    3    0  502  0.37923593466E+03  0.35919871132E+03  0.19515105586E+04  0.20202075838E+04  0.12699999809E+01 0. -1.
</event>
<event>
 5   0  0.1885307E-06  0.3039306E+04  0.7818609E-02  0.8232595E-01
        1   -1    0    0  501    0  0.00000000000E+00  0.00000000000E+00  0.20919001594E+04  0.20919001594E+04  0.50400001928E-02 0. -1.
       -1   -1    0    0    0  501  0.00000000000E+00  0.00000000000E+00 -0.11039462288E+04  0.11039462288E+04  0.50400001928E-02 0.  1.
    10030    2    1    2    0    0  0.00000000000E+00  0.00000000000E+00  0.98795393063E+03  0.31958463882E+04  0.30393060339E+04 0.  0.
        3    1    3    3  502    0 -0.78850206629E+03 -0.90656315870E+03  0.14723590006E+04  0.19003771484E+04  0.10100000352E+00 0. -1.
       -3    1    3    3    0  502  0.78850206629E+03  0.90656315870E+03 -0.48440506998E+03  0.12954692398E+04  0.10100000352E+00 0.  1.
</event>
<event>
 5   0  0.1843709E-06  0.3070953E+04  0.7818609E-02  0.8223755E-01
       -1   -1    0    0    0  501  0.00000000000E+00  0.00000000000E+00  0.12411073953E+04  0.12411073953E+04  0.50400001928E-02 0.  1.
        1   -1    0    0  501    0  0.00000000000E+00  0.00000000000E+00 -0.18996644264E+04  0.18996644264E+04  0.50400001928E-02 0. -1.
    10030    2    1    2    0    0  0.00000000000E+00  0.00000000000E+00 -0.65855703107E+03  0.31407718217E+04  0.30709526653E+04 0.  0.
        4    1    3    3  502    0 -0.10644276627E+04  0.97136124976E+03 -0.87155689379E+03  0.16840908404E+04  0.12699999809E+01 0. -1.
       -4    1    3    3    0  502  0.10644276627E+04 -0.97136124976E+03  0.21299986271E+03  0.14566809813E+04  0.12699999809E+01 0.  1.
</event>
<event>
 5   0  0.5328368E-06  0.3097007E+04  0.7818609E-02  0.8216560E-01
        2   -1    0    0  501    0  0.00000000000E+00  0.00000000000E+00  0.16667313610E+04  0.16667313611E+04  0.25500000920E-02 0. -1.
       -2   -1    0    0    0  501  0.00000000000E+00  0.00000000000E+00 -0.14386622609E+04  0.14386622609E+04  0.25500000920E-02 0.  1.
    10030    2    1    2    0    0  0.00000000000E+00  0.00000000000E+00  0.22806910013E+03  0.31053936220E+04  0.30970072704E+04 0.  0.
        1    1    3    3  502    0  0.98521782075E+03 -0.10316019973E+04 -0.49009730498E+03  0.15083276181E+04  0.50400001928E-02 0.  1.
       -1    1    3    3    0  502 -0.98521782075E+03  0.10316019973E+04  0.71816640511E+03  0.15970660039E+04  0.50400001928E-02 0. -1.
</event>
<event>
 5   0  0.1840431E-06  0.3121782E+04  0.7818609E-02  0.8209785E-01
       -1   -1    0    0    0  501  0.00000000000E+00  0.00000000000E+00  0.12755680990E+04  0.12755680990E+04  0.50400001928E-02 0.  1.
        1   -1    0    0  501    0  0.00000000000E+00  0.00000000000E+00 -0.19100363837E+04  0.19100363837E+04  0.50400001928E-02 0. -1.
    10030    2    1    2    0    0  0.00000000000E+00  0.00000000000E+00 -0.63446828468E+03  0.31856044828E+04  0.31217824902E+04 0.  0.
        1    1    3    3  502    0 -0.52702311658E+03  0.13903363822E+04 -0.80191055684E+03  0.16893339405E+04  0.50400001928E-02 0. -1.
       -1    1    3    3    0  502  0.52702311658E+03 -0.13903363822E+04  0.16744227216E+03  0.14962705423E+04  0.50400001928E-02 0.  1.
</event>
<event>
 5   0  0.4900679E-06  0.3036794E+04  0.7818609E-02  0.8233302E-01
        2   -1    0    0  501    0  0.00000000000E+00  0.00000000000E+00  0.16137093778E+04  0.16137093778E+04  0.25500000920E-02 0. -1.
       -2   -1    0    0    0  501  0.00000000000E+00  0.00000000000E+00 -0.14287136974E+04  0.14287136974E+04  0.25500000920E-02 0.  1.
    10030    2    1    2    0    0  0.00000000000E+00  0.00000000000E+00  0.18499568043E+03  0.30424230752E+04  0.30367935009E+04 0.  0.
        4    1    3    3  502    0 -0.63896117957E+03  0.13737149319E+04  0.19349630844E+03  0.15273527875E+04  0.12699999809E+01 0.  1.
       -4    1    3    3    0  502  0.63896117957E+03 -0.13737149319E+04 -0.85006280142E+01  0.15150702877E+04  0.12699999809E+01 0. -1.
</event>
<event>
 5   0  0.4927533E-06  0.3058269E+04  0.7818609E-02  0.8227285E-01
       -2   -1    0    0    0  501  0.00000000000E+00  0.00000000000E+00  0.13215018185E+04  0.13215018185E+04  0.25500000920E-02 0.  1.
        2   -1    0    0  501    0  0.00000000000E+00  0.00000000000E+00 -0.17693901638E+04  0.17693901638E+04  0.25500000920E-02 0. -1.
    10030    2    1    2    0    0  0.00000000000E+00  0.00000000000E+00 -0.44788834535E+03  0.30908919823E+04  0.30582690000E+04 0.  0.
        5    1    3    3  502    0  0.12164935611E+02  0.69922181790E+03  0.11504037594E+04  0.13462949290E+04  0.46999998093E+01 0.  1.
       -5    1    3    3    0  502 -0.12164935611E+02 -0.69922181790E+03 -0.15982921048E+04  0.17445970533E+04  0.46999998093E+01 0. -1.
</event>
<event>
 5   0  0.4927533E-06  0.3107393E+04  0.7818609E-02  0.8213712E-01
        2   -1    0    0  501    0  0.00000000000E+00  0.00000000000E+00  0.16142828817E+04  0.16142828817E+04  0.25500000920E-02 0.  1.
       -2   -1    0    0    0  501  0.00000000000E+00  0.00000000000E+00 -0.14953836735E+04  0.14953836735E+04  0.25500000920E-02 0. -1.
    10030    2    1    2    0    0  0.00000000000E+00  0.00000000000E+00  0.11889920812E+03  0.31096665552E+04  0.31073926470E+04 0.  0.
        5    1    3    3  502    0 -0.10964929840E+03 -0.78596418008E+03 -0.12772626735E+04  0.15037236076E+04  0.46999998093E+01 0. -1.
       -5    1    3    3    0  502  0.10964929840E+03  0.78596418008E+03  0.13961618816E+04  0.16059429475E+04  0.46999998093E+01 0.  1.
</event>
<event>
 5   0  0.1843709E-06  0.3105631E+04  0.7818609E-02  0.8214194E-01
       -1   -1    0    0    0  501  0.00000000000E+00  0.00000000000E+00  0.13561302172E+04  0.13561302172E+04  0.50400001928E-02 0.  1.
        1   -1    0    0  501    0  0.00000000000E+00  0.00000000000E+00 -0.17780269549E+04  0.17780269549E+04  0.50400001928E-02 0. -1.
    10030    2    1    2    0    0  0.00000000000E+00  0.00000000000E+00 -0.42189673771E+03  0.31341571722E+04  0.31056310667E+04 0.  0.
        4    1    3    3  502    0  0.14523749948E+04 -0.45191197861E+03 -0.52625523493E+03  0.16095228321E+04  0.12699999809E+01 0.  1.
       -4    1    3    3    0  502 -0.14523749948E+04  0.45191197861E+03  0.10435849722E+03  0.15246343400E+04  0.12699999809E+01 0. -1.
</event>
<event>
 5   0  0.1843709E-06  0.3121781E+04  0.7818609E-02  0.8209786E-01
        1   -1    0    0  501    0  0.00000000000E+00  0.00000000000E+00  0.28613768139E+04  0.28613768139E+04  0.50400001928E-02 0.  1.
       -1   -1    0    0    0  501  0.00000000000E+00  0.00000000000E+00 -0.85147081248E+03  0.85147081249E+03  0.50400001928E-02 0. -1.
    10030    2    1    2    0    0  0.00000000000E+00  0.00000000000E+00  0.20099060015E+04  0.37128476264E+04  0.31217807999E+04 0.  0.
        4    1    3    3  502    0 -0.11416064415E+04 -0.90795558439E+03  0.34411780538E+03  0.14986885225E+04  0.12699999809E+01 0. -1.
       -4    1    3    3    0  502  0.11416064415E+04  0.90795558439E+03  0.16657881961E+04  0.22141591040E+04  0.12699999809E+01 0.  1.
</event>
<event>
 5   0  0.1840431E-06  0.3064941E+04  0.7818609E-02  0.8225426E-01
       -1   -1    0    0    0  501  0.00000000000E+00  0.00000000000E+00  0.14793937459E+04  0.14793937459E+04  0.50400001928E-02 0. -1.
        1   -1    0    0  501    0  0.00000000000E+00  0.00000000000E+00 -0.15874514456E+04  0.15874514456E+04  0.50400001928E-02 0.  1.
    10030    2    1    2    0    0  0.00000000000E+00  0.00000000000E+00 -0.10805769968E+03  0.30668451916E+04  0.30649409395E+04 0.  0.
        1    1    3    3  502    0 -0.55934720315E+03 -0.12884285741E+04  0.55917181778E+03  0.15118169882E+04  0.50400001928E-02 0. -1.
       -1    1    3    3    0  502  0.55934720315E+03  0.12884285741E+04 -0.66722951746E+03  0.15550282033E+04  0.50400001928E-02 0.  1.
</event>
<event>
 5   0  0.4927533E-06  0.3086264E+04  0.7818609E-02  0.8219518E-01
       -2   -1    0    0    0  501  0.00000000000E+00  0.00000000000E+00  0.13143777221E+04  0.13143777221E+04  0.25500000920E-02 0. -1.
        2   -1    0    0  501    0  0.00000000000E+00  0.00000000000E+00 -0.18116989213E+04  0.18116989213E+04  0.25500000920E-02 0.  1.
    10030    2    1    2    0    0  0.00000000000E+00  0.00000000000E+00 -0.49732119919E+03  0.31260766433E+04  0.30862642150E+04 0.  0.
        5    1    3    3  502    0 -0.17074576341E+03  0.32465121335E+03  0.12695685639E+04  0.13215063203E+04  0.46999998093E+01 0. -1.
       -5    1    3    3    0  502  0.17074576341E+03 -0.32465121335E+03 -0.17668897631E+04  0.18045703231E+04  0.46999998093E+01 0.  1.
</event>
<event>
 5   0  0.4900679E-06  0.3070099E+04  0.7818609E-02  0.8223992E-01
        2   -1    0    0  501    0  0.00000000000E+00  0.00000000000E+00  0.17963237793E+04  0.17963237793E+04  0.25500000920E-02 0.  1.
       -2   -1    0    0    0  501  0.00000000000E+00  0.00000000000E+00 -0.13117771180E+04  0.13117771180E+04  0.25500000920E-02 0. -1.
    10030    2    1    2    0    0  0.00000000000E+00  0.00000000000E+00  0.48454666133E+03  0.31081008974E+04  0.30700986501E+04 0.  0.
        4    1    3    3  502    0 -0.11556781596E+03 -0.22980287315E+03 -0.12898029447E+04  0.13152028473E+04  0.12699999809E+01 0. -1.
       -4    1    3    3    0  502  0.11556781596E+03  0.22980287315E+03  0.17743496060E+04  0.17928980500E+04  0.12699999809E+01 0.  1.
</event>
<event>
 5   0  0.5328368E-06  0.3105868E+04  0.7818609E-02  0.8214129E-01
        2   -1    0    0  501    0  0.00000000000E+00  0.00000000000E+00  0.20881236014E+04  0.20881236014E+04  0.25500000920E-02 0.  1.
       -2   -1    0    0    0  501  0.00000000000E+00  0.00000000000E+00 -0.11549143571E+04  0.11549143571E+04  0.25500000920E-02 0. -1.
    10030    2    1    2    0    0  0.00000000000E+00  0.00000000000E+00  0.93320924430E+03  0.32430379585E+04  0.31058679474E+04 0.  0.
        1    1    3    3  502    0 -0.47162040779E+03 -0.86575944294E+03  0.17194451741E+04  0.19820335337E+04  0.50400001928E-02 0.  1.
       -1    1    3    3    0  502  0.47162040779E+03  0.86575944294E+03 -0.78623592979E+03  0.12610044248E+04  0.50400001928E-02 0. -1.
</event>
<event>
 5   0  0.5328368E-06  0.3214646E+04  0.7818609E-02  0.8184960E-01
       -2   -1    0    0    0  501  0.00000000000E+00  0.00000000000E+00  0.14580096546E+04  0.14580096546E+04  0.25500000920E-02 0. -1.
        2   -1    0    0  501    0  0.00000000000E+00  0.00000000000E+00 -0.17719271686E+04  0.17719271686E+04  0.25500000920E-02 0.  1.
    10030    2    1    2    0    0  0.00000000000E+00  0.00000000000E+00 -0.31391751403E+03  0.32299368232E+04  0.32146458088E+04 0.  0.
        1    1    3    3  502    0  0.90765904286E+03 -0.79887729587E+03 -0.12209752212E+04  0.17183801566E+04  0.50400001928E-02 0.  1.
       -1    1    3    3    0  502 -0.90765904286E+03  0.79887729587E+03  0.90705770716E+03  0.15115566665E+04  0.50400001928E-02 0. -1.
</event>
<event>
 5   0  0.1836401E-06  0.3138390E+04  0.7818609E-02  0.8205280E-01
       -1   -1    0    0    0  501  0.00000000000E+00  0.00000000000E+00  0.22366855332E+04  0.22366855332E+04  0.50400001928E-02 0.  1.
        1   -1    0    0  501    0  0.00000000000E+00  0.00000000000E+00 -0.11009023821E+04  0.11009023821E+04  0.50400001928E-02 0. -1.
    10030    2    1    2    0    0  0.00000000000E+00  0.00000000000E+00  0.11357831510E+04  0.33375879153E+04  0.31383896709E+04 0.  0.
        2    1    3    3  502    0  0.15719262736E+03  0.13117459707E+04  0.14683859623E+04  0.19752327326E+04  0.25500000920E-02 0. -1.
       -2    1    3    3    0  502 -0.15719262736E+03 -0.13117459707E+04 -0.33260281124E+03  0.13623551827E+04  0.25500000920E-02 0.  1.
</event>
<event>
 5   0  0.1853742E-06  0.3069404E+04  0.7818609E-02  0.8224185E-01
       -1   -1    0    0    0  501  0.00000000000E+00  0.00000000000E+00  0.22909193483E+04  0.22909193483E+04  0.50400001928E-02 0.  1.
        1   -1    0    0  501    0  0.00000000000E+00  0.00000000000E+00 -0.10281070209E+04  0.10281070209E+04  0.50400001928E-02 0. -1.
    10030    2    1    2    0    0  0.00000000000E+00  0.00000000000E+00  0.12628123274E+04  0.33190263692E+04  0.30694040244E+04 0.  0.
        5    1    3    3  502    0 -0.12832758856E+04  0.84025664407E+03  0.68503764252E+03  0.16799187147E+04  0.46999998093E+01 0. -1.
       -5    1    3    3    0  502  0.12832758856E+04 -0.84025664407E+03  0.57777468492E+03  0.16391076545E+04  0.46999998093E+01 0.  1.
</event>
<event>
 5   0  0.4927533E-06  0.3218112E+04  0.7818609E-02  0.8184050E-01
        2   -1    0    0  501    0  0.00000000000E+00  0.00000000000E+00  0.20103380851E+04  0.20103380851E+04  0.25500000920E-02 0. -1.
       -2   -1    0    0    0  501  0.00000000000E+00  0.00000000000E+00 -0.12878738929E+04  0.12878738929E+04  0.25500000920E-02 0.  1.
    10030    2    1    2    0    0  0.00000000000E+00  0.00000000000E+00  0.72246419218E+03  0.32982119781E+04  0.32181124504E+04 0.  0.
        5    1    3    3  502    0 -0.70217500642E+03 -0.97696591522E+03  0.14562483798E+04  0.18889662709E+04  0.46999998093E+01 0. -1.
       -5    1    3    3    0  502  0.70217500642E+03  0.97696591522E+03 -0.73378418758E+03  0.14092457071E+04  0.46999998093E+01 0.  1.
</event>
<event>
 5   0  0.1843709E-06  0.3125306E+04  0.7818609E-02  0.8208827E-01
       -1   -1    0    0    0  501  0.00000000000E+00  0.00000000000E+00  0.14870385320E+04  0.14870385320E+04  0.50400001928E-02 0.  1.
        1   -1    0    0  501    0  0.00000000000E+00  0.00000000000E+00 -0.16421127738E+04  0.16421127738E+04  0.50400001928E-02 0. -1.
    10030    2    1    2    0    0  0.00000000000E+00  0.00000000000E+00 -0.15507424179E+03  0.31291513059E+04  0.31253063649E+04 0.  0.
        4    1    3    3  502    0 -0.38713369655E+03 -0.13562379759E+04 -0.75114219713E+03  0.15979581219E+04  0.12699999809E+01 0.  1.
       -4    1    3    3    0  502  0.38713369655E+03  0.13562379759E+04  0.59606795534E+03  0.15311931839E+04  0.12699999809E+01 0. -1.
</event>
<event>
 5   0  0.5114870E-06  0.3164656E+04  0.7818609E-02  0.8198214E-01
       -2   -1    0    0    0  501  0.00000000000E+00  0.00000000000E+00  0.12412479987E+04  0.12412479987E+04  0.25500000920E-02 0.  1.
        2   -1    0    0  501    0  0.00000000000E+00  0.00000000000E+00 -0.20171326150E+04  0.20171326150E+04  0.25500000920E-02 0. -1.
    10030    2    1    2    0    0  0.00000000000E+00  0.00000000000E+00 -0.77588461622E+03  0.32583806137E+04  0.31646559507E+04 0.  0.
        2    1    3    3  502    0 -0.89413354035E+03 -0.90381146586E+03  0.58198218671E+03  0.13982321765E+04  0.25500000920E-02 0.  1.
       -2    1    3    3    0  502  0.89413354035E+03  0.90381146586E+03 -0.13578668029E+04  0.18601484372E+04  0.25500000920E-02 0. -1.
</event>
<event>
 5   0  0.1840431E-06  0.2289429E+04  0.7818609E-02  0.8482101E-01
       -1   -1    0    0    0  501  0.00000000000E+00  0.00000000000E+00  0.12817393085E+04  0.12817393085E+04  0.50400001928E-02 0.  1.
        1   -1    0    0  501    0  0.00000000000E+00  0.00000000000E+00 -0.10223380903E+04  0.10223380903E+04  0.50400001928E-02 0. -1.
    10030    2    1    2    0    0  0.00000000000E+00  0.00000000000E+00  0.25940121819E+03  0.23040773988E+04  0.22894286772E+04 0.  0.
        1    1    3    3  502    0 -0.78451029590E+03 -0.81920310952E+03  0.28502795282E+03  0.11695260035E+04  0.50400001928E-02 0.  1.
       -1    1    3    3    0  502  0.78451029590E+03  0.81920310952E+03 -0.25626734637E+02  0.11345513953E+04  0.50400001928E-02 0. -1.
</event>
<event>
 5   0  0.5001658E-06  0.3345589E+04  0.7818609E-02  0.8151391E-01
       -2   -1    0    0    0  501  0.00000000000E+00  0.00000000000E+00  0.13216115600E+04  0.13216115600E+04  0.25500000920E-02 0. -1.
        2   -1    0    0  501    0  0.00000000000E+00  0.00000000000E+00 -0.21172954043E+04  0.21172954043E+04  0.25500000920E-02 0.  1.
    10030    2    1    2    0    0  0.00000000000E+00  0.00000000000E+00 -0.79568384434E+03  0.34389069644E+04  0.33455893845E+04 0.  0.
        3    1    3    3  502    0  0.35353241288E+03  0.16337962531E+04 -0.46258046648E+03  0.17344324899E+04  0.10100000352E+00 0.  1.
       -3    1    3    3    0  502 -0.35353241288E+03 -0.16337962531E+04 -0.33310337785E+03  0.17044744745E+04  0.10100000352E+00 0. -1.
</event>
<event>
 5   0  0.4927533E-06  0.3119917E+04  0.7818609E-02  0.8210293E-01
        2   -1    0    0  501    0  0.00000000000E+00  0.00000000000E+00  0.24302090342E+04  0.24302090342E+04  0.25500000920E-02 0. -1.
       -2   -1    0    0    0  501  0.00000000000E+00  0.00000000000E+00 -0.10013420381E+04  0.10013420381E+04  0.25500000920E-02 0.  1.
    10030    2    1    2    0    0  0.00000000000E+00  0.00000000000E+00  0.14288669961E+04  0.34315510723E+04  0.31199169652E+04 0.  0.
        5    1    3    3  502    0 -0.65587403822E+03 -0.13184140302E+04  0.12807004581E+04  0.19515640042E+04  0.46999998093E+01 0. -1.
       -5    1    3    3    0  502  0.65587403822E+03  0.13184140302E+04  0.14816653796E+03  0.14799870682E+04  0.46999998093E+01 0.  1.
</event>
<event>
 5   0  0.1840431E-06  0.3144754E+04  0.7818609E-02  0.8203562E-01
        1   -1    0    0  501    0  0.00000000000E+00  0.00000000000E+00  0.15688815799E+04  0.15688815799E+04  0.50400001928E-02 0.  1.
       -1   -1    0    0    0  501  0.00000000000E+00  0.00000000000E+00 -0.15758804662E+04  0.15758804662E+04  0.50400001928E-02 0. -1.
    10030    2    1    2    0    0  0.00000000000E+00  0.00000000000E+00 -0.69988862421E+01  0.31447620461E+04  0.31447542578E+04 0.  0.
        1    1    3    3  502    0 -0.13439634375E+04  0.81589784520E+03 -0.24542792299E+02  0.15724278565E+04  0.50400001928E-02 0.  1.
       -1    1    3    3    0  502  0.13439634375E+04 -0.81589784520E+03  0.17543906057E+02  0.15723341896E+04  0.50400001928E-02 0. -1.
</event>
<event>
 5   0  0.1843709E-06  0.3126732E+04  0.7818609E-02  0.8208440E-01
        1   -1    0    0  501    0  0.00000000000E+00  0.00000000000E+00  0.20267948467E+04  0.20267948467E+04  0.50400001928E-02 0. -1.
       -1   -1    0    0    0  501  0.00000000000E+00  0.00000000000E+00 -0.12059003781E+04  0.12059003781E+04  0.50400001928E-02 0.  1.
    10030    2    1    2    0    0  0.00000000000E+00  0.00000000000E+00  0.82089446855E+03  0.32326952248E+04  0.31267316303E+04 0.  0.
        4    1    3    3  502    0  0.42926683948E+03 -0.22483083784E+03 -0.11262939408E+04  0.12261152389E+04  0.12699999809E+01 0.  1.
       -4    1    3    3    0  502 -0.42926683948E+03  0.22483083784E+03  0.19471884094E+04  0.20065799859E+04  0.12699999809E+01 0. -1.
</event>
<event>
 5   0  0.1649875E-06  0.2835918E+04  0.7818609E-02  0.8292203E-01
       -3   -1    0    0    0  501  0.00000000000E+00  0.00000000000E+00  0.89839793592E+03  0.89839794160E+03  0.10100000352E+00 0. -1.
        3   -1    0    0  501    0  0.00000000000E+00  0.00000000000E+00 -0.22379916982E+04  0.22379917005E+04  0.10100000352E+00 0.  1.
    10030    2    1    2    0    0  0.00000000000E+00  0.00000000000E+00 -0.13395937623E+04  0.31363896421E+04  0.28359175833E+04 0.  0.
        5    1    3    3  502    0 -0.57159587641E+03 -0.94724711257E+03  0.31106880371E+03  0.11492540315E+04  0.46999998093E+01 0. -1.
       -5    1    3    3    0  502  0.57159587641E+03  0.94724711257E+03 -0.16506625660E+04  0.19871356106E+04  0.46999998093E+01 0.  1.
</event>
<event>
 5   0  0.1853742E-06  0.3084433E+04  0.7818609E-02  0.8220023E-01
       -1   -1    0    0    0  501  0.00000000000E+00  0.00000000000E+00  0.14672382764E+04  0.14672382764E+04  0.50400001928E-02 0. -1.
        1   -1    0    0  501    0  0.00000000000E+00  0.00000000000E+00 -0.16210261315E+04  0.16210261315E+04  0.50400001928E-02 0.  1.
    10030    2    1    2    0    0  0.00000000000E+00  0.00000000000E+00 -0.15378785509E+03  0.30882644079E+04  0.30844329055E+04 0.  0.
        5    1    3    3  502    0 -0.64017226836E+03  0.74558468630E+03  0.11131499081E+04  0.14848709929E+04  0.46999998093E+01 0. -1.
       -5    1    3    3    0  502  0.64017226836E+03 -0.74558468630E+03 -0.12669377632E+04  0.16033934150E+04  0.46999998093E+01 0.  1.
</event>
<event>
 5   0  0.4927533E-06  0.3138488E+04  0.7818609E-02  0.8205254E-01
       -2   -1    0    0    0  501  0.00000000000E+00  0.00000000000E+00  0.19248558139E+04  0.19248558139E+04  0.25500000920E-02 0. -1.
        2   -1    0    0  501    0  0.00000000000E+00  0.00000000000E+00 -0.12793304632E+04  0.12793304632E+04  0.25500000920E-02 0.  1.
    10030    2    1    2    0    0  0.00000000000E+00  0.00000000000E+00  0.64552535072E+03  0.32041862771E+04  0.31384879671E+04 0.  0.
        5    1    3    3  502    0  0.59762302971E+03  0.35743577033E+02 -0.11581442437E+04  0.13037450165E+04  0.46999998093E+01 0.  1.
       -5    1    3    3    0  502 -0.59762302971E+03 -0.35743577033E+02  0.18036695944E+04  0.19004412605E+04  0.46999998093E+01 0. -1.
</event>
<event>
 5   0  0.4927533E-06  0.3499152E+04  0.7818609E-02  0.8113991E-01
        2   -1    0    0  501    0  0.00000000000E+00  0.00000000000E+00  0.18660107850E+04  0.18660107850E+04  0.25500000920E-02 0.  1.
       -2   -1    0    0    0  501  0.00000000000E+00  0.00000000000E+00 -0.16404068243E+04  0.16404068243E+04  0.25500000920E-02 0. -1.
    10030    2    1    2    0    0  0.00000000000E+00  0.00000000000E+00  0.22560396065E+03  0.35064176093E+04  0.34991523693E+04 0.  0.
        5    1    3    3  502    0  0.11347054489E+04  0.47012372566E+02  0.14464402011E+04  0.18390154878E+04  0.46999998093E+01 0.  1.
       -5    1    3    3    0  502 -0.11347054489E+04 -0.47012372566E+02 -0.12208362404E+04  0.16674021215E+04  0.46999998093E+01 0. -1.
</event>
<event>
 5   0  0.5001658E-06  0.3074617E+04  0.7818609E-02  0.8222739E-01
       -2   -1    0    0    0  501  0.00000000000E+00  0.00000000000E+00  0.92145780945E+03  0.92145780945E+03  0.25500000920E-02 0.  1.
        2   -1    0    0  501    0  0.00000000000E+00  0.00000000000E+00 -0.25647596027E+04  0.25647596027E+04  0.25500000920E-02 0. -1.
    10030    2    1    2    0    0  0.00000000000E+00  0.00000000000E+00 -0.16433017932E+04  0.34862174121E+04  0.30746172219E+04 0.  0.
        3    1    3    3  502    0  0.11028153971E+04 -0.60637252402E+03  0.17938926607E+03  0.12712474020E+04  0.10100000352E+00 0.  1.
       -3    1    3    3    0  502 -0.11028153971E+04  0.60637252402E+03 -0.18226910593E+04  0.22149700102E+04  0.10100000352E+00 0. -1.
</event>
<event>
 5   0  0.4927533E-06  0.3124934E+04  0.7818609E-02  0.8208928E-01
       -2   -1    0    0    0  501  0.00000000000E+00  0.00000000000E+00  0.12373626275E+04  0.12373626275E+04  0.25500000920E-02 0.  1.
        2   -1    0    0  501    0  0.00000000000E+00  0.00000000000E+00 -0.19729888139E+04  0.19729888139E+04  0.25500000920E-02 0. -1.
    10030    2    1    2    0    0  0.00000000000E+00  0.00000000000E+00 -0.73562618639E+03  0.32103514414E+04  0.31249336779E+04 0.  0.
        5    1    3    3  502    0  0.13128899048E+04  0.82904539999E+03 -0.54659391952E+03  0.16461419077E+04  0.46999998093E+01 0.  1.
       -5    1    3    3    0  502 -0.13128899048E+04 -0.82904539999E+03 -0.18903226687E+03  0.15642095337E+04  0.46999998093E+01 0. -1.
</event>
<event>
 5   0  0.1836401E-06  0.3092812E+04  0.7818609E-02  0.8217713E-01
       -1   -1    0    0    0  501  0.00000000000E+00  0.00000000000E+00  0.17981011584E+04  0.17981011584E+04  0.50400001928E-02 0. -1.
        1   -1    0    0  501    0  0.00000000000E+00  0.00000000000E+00 -0.13299429235E+04  0.13299429235E+04  0.50400001928E-02 0.  1.
    10030    2    1    2    0    0  0.00000000000E+00  0.00000000000E+00  0.46815823496E+03  0.31280440819E+04  0.30928122551E+04 0.  0.
        2    1    3    3  502    0  0.60002520267E+03 -0.11394152303E+04  0.11000302675E+04  0.16936244862E+04  0.25500000920E-02 0. -1.
       -2    1    3    3    0  502 -0.60002520267E+03  0.11394152303E+04 -0.63187203255E+03  0.14344195957E+04  0.25500000920E-02 0.  1.
</event>
<event>
 5   0  0.5001658E-06  0.3395276E+04  0.7818609E-02  0.8139067E-01
        2   -1    0    0  501    0  0.00000000000E+00  0.00000000000E+00  0.18010506502E+04  0.18010506502E+04  0.25500000920E-02 0. -1.
       -2   -1    0    0    0  501  0.00000000000E+00  0.00000000000E+00 -0.16001627930E+04  0.16001627930E+04  0.25500000920E-02 0.  1.
    10030    2    1    2    0    0  0.00000000000E+00  0.00000000000E+00  0.20088785729E+03  0.34012134432E+04  0.33952756817E+04 0.  0.
        3    1    3    3  502    0  0.34941989903E+03  0.95686478233E+03 -0.12599773634E+04  0.16202553638E+04  0.10100000352E+00 0.  1.
       -3    1    3    3    0  502 -0.34941989903E+03 -0.95686478233E+03  0.14608652207E+04  0.17809580794E+04  0.10100000352E+00 0. -1.
</event>
<event>
 5   0  0.4900679E-06  0.3032776E+04  0.7818609E-02  0.8234433E-01
       -2   -1    0    0    0  501  0.00000000000E+00  0.00000000000E+00  0.24015535617E+04  0.24015535617E+04  0.25500000920E-02 0. -1.
        2   -1    0    0  501    0  0.00000000000E+00  0.00000000000E+00 -0.95747703209E+03  0.95747703210E+03  0.25500000920E-02 0.  1.
    10030    2    1    2    0    0  0.00000000000E+00  0.00000000000E+00  0.14440765296E+04  0.33590305938E+04  0.30327758748E+04 0.  0.
        4    1    3    3  502    0  0.72449690307E+03 -0.10777911970E+04  0.15891376058E+04  0.20522888612E+04  0.12699999809E+01 0. -1.
       -4    1    3    3    0  502 -0.72449690307E+03  0.10777911970E+04 -0.14506107613E+03  0.13067417326E+04  0.12699999809E+01 0.  1.
</event>
<event>
 5   0  0.5001658E-06  0.3378350E+04  0.7818609E-02  0.8143240E-01
        2   -1    0    0  501    0  0.00000000000E+00  0.00000000000E+00  0.15215900449E+04  0.15215900449E+04  0.25500000920E-02 0. -1.
       -2   -1    0    0    0  501  0.00000000000E+00  0.00000000000E+00 -0.18752179195E+04  0.18752179195E+04  0.25500000920E-02 0.  1.
    10030    2    1    2    0    0  0.00000000000E+00  0.00000000000E+00 -0.35362787457E+03  0.33968079645E+04  0.33783504368E+04 0.  0.
        3    1    3    3  502    0  0.42997595033E+03 -0.14555430317E+04  0.56874117634E+03  0.16207872688E+04  0.10100000352E+00 0.  1.
       -3    1    3    3    0  502 -0.42997595033E+03  0.14555430317E+04 -0.92236905091E+03  0.17760206956E+04  0.10100000352E+00 0. -1.
</event>
<event>
 5   0  0.1836401E-06  0.3092279E+04  0.7818609E-02  0.8217860E-01
       -1   -1    0    0    0  501  0.00000000000E+00  0.00000000000E+00  0.12154824920E+04  0.12154824920E+04  0.50400001928E-02 0. -1.
        1   -1    0    0  501    0  0.00000000000E+00  0.00000000000E+00 -0.19667470700E+04  0.19667470700E+04  0.50400001928E-02 0.  1.
    10030    2    1    2    0    0  0.00000000000E+00  0.00000000000E+00 -0.75126457800E+03  0.31822295620E+04  0.30922785319E+04 0.  0.
        2    1    3    3  502    0  0.72336044270E+03 -0.13625807835E+04 -0.26933229523E+03  0.15660193507E+04  0.25500000920E-02 0. -1.
       -2    1    3    3    0  502 -0.72336044270E+03  0.13625807835E+04 -0.48193228277E+03  0.16162102112E+04  0.25500000920E-02 0.  1.
</event>
<event>
 5   0  0.5114870E-06  0.3066355E+04  0.7818609E-02  0.8225033E-01
       -2   -1    0    0    0  501  0.00000000000E+00  0.00000000000E+00  0.13592773450E+04  0.13592773450E+04  0.25500000920E-02 0.  1.
        2   -1    0    0  501    0  0.00000000000E+00  0.00000000000E+00 -0.17293254392E+04  0.17293254392E+04  0.25500000920E-02 0. -1.
    10030    2    1    2    0    0  0.00000000000E+00  0.00000000000E+00 -0.37004809423E+03  0.30886027842E+04  0.30663547686E+04 0.  0.
        2    1    3    3  502    0  0.14666234967E+03  0.43891658909E+03 -0.16572978826E+04  0.17206957572E+04  0.25500000920E-02 0. -1.
       -2    1    3    3    0  502 -0.14666234967E+03 -0.43891658909E+03  0.12872497884E+04  0.13679070271E+04  0.25500000920E-02 0.  1.
</event>
<event>
 5   0  0.1843709E-06  0.3085762E+04  0.7818609E-02  0.8219656E-01
        1   -1    0    0  501    0  0.00000000000E+00  0.00000000000E+00  0.16327613277E+04  0.16327613277E+04  0.50400001928E-02 0.  1.
       -1   -1    0    0    0  501  0.00000000000E+00  0.00000000000E+00 -0.14579481609E+04  0.14579481609E+04  0.50400001928E-02 0. -1.
    10030    2    1    2    0    0  0.00000000000E+00  0.00000000000E+00  0.17481316676E+03  0.30907094887E+04  0.30857617374E+04 0.  0.
        4    1    3    3  502    0  0.11767090582E+04  0.99271113330E+03 -0.14541492702E+02  0.15395884741E+04  0.12699999809E+01 0. -1.
       -4    1    3    3    0  502 -0.11767090582E+04 -0.99271113330E+03  0.18935465946E+03  0.15511210145E+04  0.12699999809E+01 0.  1.
</event>
<event>
 5   0  0.1843709E-06  0.3096367E+04  0.7818609E-02  0.8216736E-01
       -1   -1    0    0    0  501  0.00000000000E+00  0.00000000000E+00  0.18151692558E+04  0.18151692558E+04  0.50400001928E-02 0.  1.
        1   -1    0    0  501    0  0.00000000000E+00  0.00000000000E+00 -0.13204674829E+04  0.13204674829E+04  0.50400001928E-02 0. -1.
    10030    2    1    2    0    0  0.00000000000E+00  0.00000000000E+00  0.49470177293E+03  0.31356367388E+04  0.30963668893E+04 0.  0.
        4    1    3    3  502    0 -0.46220655699E+03 -0.55613991594E+03  0.16336329920E+04  0.17865287215E+04  0.12699999809E+01 0.  1.
       -4    1    3    3    0  502  0.46220655699E+03  0.55613991594E+03 -0.11389312191E+04  0.13491080172E+04  0.12699999809E+01 0. -1.
</event>
<event>
 5   0  0.4900679E-06  0.3109509E+04  0.7818609E-02  0.8213133E-01
       -2   -1    0    0    0  501  0.00000000000E+00  0.00000000000E+00  0.16540567881E+04  0.16540567881E+04  0.25500000920E-02 0.  1.
        2   -1    0    0  501    0  0.00000000000E+00  0.00000000000E+00 -0.14614136974E+04  0.14614136974E+04  0.25500000920E-02 0. -1.
    10030    2    1    2    0    0  0.00000000000E+00  0.00000000000E+00  0.19264309070E+03  0.31154704855E+04  0.31095088013E+04 0.  0.
        4    1    3    3  502    0  0.68910787747E+03 -0.95905472228E+03  0.11094991834E+04  0.16203844229E+04  0.12699999809E+01 0.  1.
       -4    1    3    3    0  502 -0.68910787747E+03  0.95905472228E+03 -0.91685609267E+03  0.14950860626E+04  0.12699999809E+01 0. -1.
</event>
<event>
 5   0  0.1853742E-06  0.3192204E+04  0.7818609E-02  0.8190879E-01
        1   -1    0    0  501    0  0.00000000000E+00  0.00000000000E+00  0.14481911387E+04  0.14481911387E+04  0.50400001928E-02 0.  1.
       -1   -1    0    0    0  501  0.00000000000E+00  0.00000000000E+00 -0.17591197210E+04  0.17591197210E+04  0.50400001928E-02 0. -1.
    10030    2    1    2    0    0  0.00000000000E+00  0.00000000000E+00 -0.31092858231E+03  0.32073108597E+04  0.31922039985E+04 0.  0.
        5    1    3    3  502    0 -0.79366547425E+03  0.52711849739E+03 -0.14420557239E+04  0.17283823640E+04  0.46999998093E+01 0. -1.
       -5    1    3    3    0  502  0.79366547425E+03 -0.52711849739E+03  0.11311271416E+04  0.14789284958E+04  0.46999998093E+01 0.  1.
</event>
<event>
 5   0  0.1836401E-06  0.2284167E+04  0.7818609E-02  0.8484190E-01
        1   -1    0    0  501    0  0.00000000000E+00  0.00000000000E+00  0.62934559654E+03  0.62934559656E+03  0.50400001928E-02 0. -1.
       -1   -1    0    0    0  501  0.00000000000E+00  0.00000000000E+00 -0.20725570345E+04  0.20725570346E+04  0.50400001928E-02 0.  1.
    10030    2    1    2    0    0  0.00000000000E+00  0.00000000000E+00 -0.14432114380E+04  0.27019026311E+04  0.22841669320E+04 0.  0.
        2    1    3    3  502    0 -0.30551915805E+03  0.43989092066E+02 -0.20222811909E+04  0.20457023760E+04  0.25500000920E-02 0.  1.
       -2    1    3    3    0  502  0.30551915805E+03 -0.43989092066E+02  0.57906975286E+03  0.65620025514E+03  0.25500000920E-02 0. -1.
</event>
<event>
 5   0  0.5001658E-06  0.2467947E+04  0.7818609E-02  0.8414494E-01
        2   -1    0    0  501    0  0.00000000000E+00  0.00000000000E+00  0.59803136187E+03  0.59803136188E+03  0.25500000920E-02 0.  1.
       -2   -1    0    0    0  501  0.00000000000E+00  0.00000000000E+00 -0.25461719875E+04  0.25461719875E+04  0.25500000920E-02 0. -1.
    10030    2    1    2    0    0  0.00000000000E+00  0.00000000000E+00 -0.19481406256E+04  0.31442033494E+04  0.24679470831E+04 0.  0.
        3    1    3    3  502    0  0.11518797782E+04 -0.34157672175E+03 -0.61555538641E+03  0.13499667122E+04  0.10100000352E+00 0.  1.
       -3    1    3    3    0  502 -0.11518797782E+04  0.34157672175E+03 -0.13325852392E+04  0.17942366372E+04  0.10100000352E+00 0. -1.
</event>
<event>
 5   0  0.5001658E-06  0.3066781E+04  0.7818609E-02  0.8224914E-01
       -2   -1    0    0    0  501  0.00000000000E+00  0.00000000000E+00  0.11903304265E+04  0.11903304265E+04  0.25500000920E-02 0.  1.
        2   -1    0    0  501    0  0.00000000000E+00  0.00000000000E+00 -0.19753223523E+04  0.19753223523E+04  0.25500000920E-02 0. -1.
    10030    2    1    2    0    0  0.00000000000E+00  0.00000000000E+00 -0.78499192584E+03  0.31656527788E+04  0.30667809169E+04 0.  0.
        3    1    3    3  502    0 -0.14323647682E+04 -0.54150374247E+03 -0.30997387189E+03  0.15623632560E+04  0.10100000352E+00 0.  1.
       -3    1    3    3    0  502  0.14323647682E+04  0.54150374247E+03 -0.47501805395E+03  0.16032895228E+04  0.10100000352E+00 0. -1.
</event>
<event>
 5   0  0.4900679E-06  0.3078765E+04  0.7818609E-02  0.8221590E-01
       -2   -1    0    0    0  501  0.00000000000E+00  0.00000000000E+00  0.30431552430E+04  0.30431552430E+04  0.25500000920E-02 0.  1.
        2   -1    0    0  501    0  0.00000000000E+00  0.00000000000E+00 -0.77869777302E+03  0.77869777303E+03  0.25500000920E-02 0. -1.
    10030    2    1    2    0    0  0.00000000000E+00  0.00000000000E+00  0.22644574700E+04  0.38218530160E+04  0.30787648242E+04 0.  0.
        4    1    3    3  502    0 -0.14868802343E+04  0.14607969272E+03  0.67184596312E+03  0.16381485643E+04  0.12699999809E+01 0. -1.
       -4    1    3    3    0  502  0.14868802343E+04 -0.14607969272E+03  0.15926115069E+04  0.21837044517E+04  0.12699999809E+01 0.  1.
</event>
<event>
 5   0  0.1840431E-06  0.3071163E+04  0.7818609E-02  0.8223697E-01
       -1   -1    0    0    0  501  0.00000000000E+00  0.00000000000E+00  0.18263470985E+04  0.18263470985E+04  0.50400001928E-02 0.  1.
        1   -1    0    0  501    0  0.00000000000E+00  0.00000000000E+00 -0.12911078915E+04  0.12911078915E+04  0.50400001928E-02 0. -1.
    10030    2    1    2    0    0  0.00000000000E+00  0.00000000000E+00  0.53523920708E+03  0.31174549900E+04  0.30711633962E+04 0.  0.
        1    1    3    3  502    0 -0.43186830574E+03 -0.50342386575E+03 -0.11381979651E+04  0.13173611615E+04  0.50400001928E-02 0. -1.
       -1    1    3    3    0  502  0.43186830574E+03  0.50342386575E+03  0.16734371722E+04  0.18000938285E+04  0.50400001928E-02 0.  1.
</event>
<event>
 5   0  0.4900679E-06  0.3101496E+04  0.7818609E-02  0.8215328E-01
        2   -1    0    0  501    0  0.00000000000E+00  0.00000000000E+00  0.16838381865E+04  0.16838381865E+04  0.25500000920E-02 0.  1.
       -2   -1    0    0    0  501  0.00000000000E+00  0.00000000000E+00 -0.14281769467E+04  0.14281769467E+04  0.25500000920E-02 0. -1.
    10030    2    1    2    0    0  0.00000000000E+00  0.00000000000E+00  0.25566123982E+03  0.31120151331E+04  0.31014956907E+04 0.  0.
        4    1    3    3  502    0  0.19533723323E+03  0.14310435891E+04  0.69434711887E+03  0.16025485711E+04  0.12699999809E+01 0.  1.
       -4    1    3    3    0  502 -0.19533723323E+03 -0.14310435891E+04 -0.43868587905E+03  0.15094665620E+04  0.12699999809E+01 0. -1.
</event>
<event>
 5   0  0.1885307E-06  0.3103541E+04  0.7818609E-02  0.8214767E-01
       -1   -1    0    0    0  501  0.00000000000E+00  0.00000000000E+00  0.12574079438E+04  0.12574079438E+04  0.50400001928E-02 0. -1.
        1   -1    0    0  501    0  0.00000000000E+00  0.00000000000E+00 -0.19150442282E+04  0.19150442282E+04  0.50400001928E-02 0.  1.
    10030    2    1    2    0    0  0.00000000000E+00  0.00000000000E+00 -0.65763628445E+03  0.31724521720E+04  0.31035410906E+04 0.  0.
        3    1    3    3  502    0  0.75617620619E+02  0.11826809355E+04  0.69519337177E+03  0.13739527117E+04  0.10100000352E+00 0. -1.
       -3    1    3    3    0  502 -0.75617620619E+02 -0.11826809355E+04 -0.13528296562E+04  0.17984994603E+04  0.10100000352E+00 0.  1.
</event>
<event>
 5   0  0.5001658E-06  0.3070786E+04  0.7818609E-02  0.8223801E-01
       -2   -1    0    0    0  501  0.00000000000E+00  0.00000000000E+00  0.13387866572E+04  0.13387866572E+04  0.25500000920E-02 0. -1.
        2   -1    0    0  501    0  0.00000000000E+00  0.00000000000E+00 -0.17608720465E+04  0.17608720465E+04  0.25500000920E-02 0.  1.
    10030    2    1    2    0    0  0.00000000000E+00  0.00000000000E+00 -0.42208538935E+03  0.30996587037E+04  0.30707862191E+04 0.  0.
        3    1    3    3  502    0 -0.48589543464E+03  0.97239892661E+02 -0.16779380072E+04  0.17495787882E+04  0.10100000352E+00 0.  1.
       -3    1    3    3    0  502  0.48589543464E+03 -0.97239892661E+02  0.12558526178E+04  0.13500799154E+04  0.10100000352E+00 0. -1.
</event>
<event>
 5   0  0.5001658E-06  0.3098364E+04  0.7818609E-02  0.8216187E-01
       -2   -1    0    0    0  501  0.00000000000E+00  0.00000000000E+00  0.14015092968E+04  0.14015092968E+04  0.25500000920E-02 0. -1.
        2   -1    0    0  501    0  0.00000000000E+00  0.00000000000E+00 -0.17124150436E+04  0.17124150436E+04  0.25500000920E-02 0.  1.
    10030    2    1    2    0    0  0.00000000000E+00  0.00000000000E+00 -0.31090574681E+03  0.31139243403E+04  0.30983644740E+04 0.  0.
        3    1    3    3  502    0  0.17295950547E+02 -0.14765205945E+04 -0.62637122268E+03  0.16039804035E+04  0.10100000352E+00 0. -1.
       -3    1    3    3    0  502 -0.17295950547E+02  0.14765205945E+04  0.31546547587E+03  0.15099439369E+04  0.10100000352E+00 0.  1.
</event>
<event>
 5   0  0.1840431E-06  0.3105651E+04  0.7818609E-02  0.8214189E-01
       -1   -1    0    0    0  501  0.00000000000E+00  0.00000000000E+00  0.12405679956E+04  0.12405679956E+04  0.50400001928E-02 0. -1.
        1   -1    0    0  501    0  0.00000000000E+00  0.00000000000E+00 -0.19436803859E+04  0.19436803859E+04  0.50400001928E-02 0.  1.
    10030    2    1    2    0    0  0.00000000000E+00  0.00000000000E+00 -0.70311239038E+03  0.31842483815E+04  0.31056514166E+04 0.  0.
        1    1    3    3  502    0 -0.28486078456E+02 -0.87992962417E+03  0.95994828659E+03  0.13025315018E+04  0.50400001928E-02 0. -1.
       -1    1    3    3    0  502  0.28486078456E+02  0.87992962417E+03 -0.16630606770E+04  0.18817168797E+04  0.50400001928E-02 0.  1.
</event>
<event>
 5   0  0.1840431E-06  0.2780742E+04  0.7818609E-02  0.8309272E-01
        1   -1    0    0  501    0  0.00000000000E+00  0.00000000000E+00  0.23570754785E+04  0.23570754786E+04  0.50400001928E-02 0. -1.
       -1   -1    0    0    0  501  0.00000000000E+00  0.00000000000E+00 -0.82013968952E+03  0.82013968954E+03  0.50400001928E-02 0.  1.
    10030    2    1    2    0    0  0.00000000000E+00  0.00000000000E+00  0.15369357890E+04  0.31772151681E+04  0.27807417364E+04 0.  0.
        1    1    3    3  502    0  0.60793650914E+03 -0.97850327403E+03 -0.12103917877E+03  0.11583203094E+04  0.50400001928E-02 0.  1.
       -1    1    3    3    0  502 -0.60793650914E+03  0.97850327403E+03  0.16579749678E+04  0.20188948587E+04  0.50400001928E-02 0. -1.
</event>
<event>
 5   0  0.5328368E-06  0.3124371E+04  0.7818609E-02  0.8209081E-01
        2   -1    0    0  501    0  0.00000000000E+00  0.00000000000E+00  0.12272882412E+04  0.12272882412E+04  0.25500000920E-02 0. -1.
       -2   -1    0    0    0  501  0.00000000000E+00  0.00000000000E+00 -0.19884676420E+04  0.19884676420E+04  0.25500000920E-02 0.  1.
    10030    2    1    2    0    0  0.00000000000E+00  0.00000000000E+00 -0.76117940079E+03  0.32157558832E+04  0.31243706279E+04 0.  0.
        1    1    3    3  502    0 -0.42060627081E+03 -0.13765049384E+04  0.24441754783E+03  0.14599367856E+04  0.50400001928E-02 0. -1.
       -1    1    3    3    0  502  0.42060627081E+03  0.13765049384E+04 -0.10055969486E+04  0.17558190976E+04  0.50400001928E-02 0.  1.
</event>
<event>
 5   0  0.1843709E-06  0.3133798E+04  0.7818609E-02  0.8206523E-01
        1   -1    0    0  501    0  0.00000000000E+00  0.00000000000E+00  0.18298669659E+04  0.18298669659E+04  0.50400001928E-02 0. -1.
       -1   -1    0    0    0  501  0.00000000000E+00  0.00000000000E+00 -0.13417217278E+04  0.13417217278E+04  0.50400001928E-02 0.  1.
    10030    2    1    2    0    0  0.00000000000E+00  0.00000000000E+00  0.48814523810E+03  0.31715886938E+04  0.31337978667E+04 0.  0.
        4    1    3    3  502    0  0.26656901926E+02 -0.11234281743E+04 -0.86105200355E+03  0.14157025178E+04  0.12699999809E+01 0.  1.
       -4    1    3    3    0  502 -0.26656901926E+02  0.11234281743E+04  0.13491972416E+04  0.17558861760E+04  0.12699999809E+01 0. -1.
</event>
<event>
 5   0  0.4927533E-06  0.3116152E+04  0.7818609E-02  0.8211319E-01
        2   -1    0    0  501    0  0.00000000000E+00  0.00000000000E+00  0.19873065407E+04  0.19873065407E+04  0.25500000920E-02 0.  1.
       -2   -1    0    0    0  501  0.00000000000E+00  0.00000000000E+00 -0.12215533543E+04  0.12215533543E+04  0.25500000920E-02 0. -1.
    10030    2    1    2    0    0  0.00000000000E+00  0.00000000000E+00  0.76575318634E+03  0.32088598950E+04  0.31161520957E+04 0.  0.
        5    1    3    3  502    0  0.70224423563E+03  0.13908383373E+04  0.38369644531E+03  0.16046255947E+04  0.46999998093E+01 0.  1.
       -5    1    3    3    0  502 -0.70224423563E+03 -0.13908383373E+04  0.38205674103E+03  0.16042343003E+04  0.46999998093E+01 0. -1.
</event>
<event>
 5   0  0.1836401E-06  0.3055194E+04  0.7818609E-02  0.8228143E-01
        1   -1    0    0  501    0  0.00000000000E+00  0.00000000000E+00  0.26620615295E+04  0.26620615295E+04  0.50400001928E-02 0.  1.
       -1   -1    0    0    0  501  0.00000000000E+00  0.00000000000E+00 -0.87659617551E+03  0.87659617553E+03  0.50400001928E-02 0. -1.
    10030    2    1    2    0    0  0.00000000000E+00  0.00000000000E+00  0.17854653540E+04  0.35386577051E+04  0.30551942366E+04 0.  0.
        2    1    3    3  502    0  0.70789759864E+03 -0.31773611381E+02 -0.67471923229E+03  0.97845521868E+03  0.25500000920E-02 0. -1.
       -2    1    3    3    0  502 -0.70789759864E+03  0.31773611381E+02  0.24601845863E+04  0.25602024864E+04  0.25500000920E-02 0.  1.
</event>
<event>
 5   0  0.1853742E-06  0.3056803E+04  0.7818609E-02  0.8227694E-01
        1   -1    0    0  501    0  0.00000000000E+00  0.00000000000E+00  0.18503450052E+04  0.18503450052E+04  0.50400001928E-02 0.  1.
       -1   -1    0    0    0  501  0.00000000000E+00  0.00000000000E+00 -0.12624732133E+04  0.12624732133E+04  0.50400001928E-02 0. -1.
    10030    2    1    2    0    0  0.00000000000E+00  0.00000000000E+00  0.58787179197E+03  0.31128182185E+04  0.30568029079E+04 0.  0.
        5    1    3    3  502    0  0.12313819690E+04  0.37156365155E+03 -0.54680074163E+03  0.13976316545E+04  0.46999998093E+01 0. -1.
       -5    1    3    3    0  502 -0.12313819690E+04 -0.37156365155E+03  0.11346725336E+04  0.17151865640E+04  0.46999998093E+01 0.  1.
</event>
<event>
 5   0  0.1885307E-06  0.3161859E+04  0.7818609E-02  0.8198963E-01
        1   -1    0    0  501    0  0.00000000000E+00  0.00000000000E+00  0.18543887711E+04  0.18543887711E+04  0.50400001928E-02 0.  1.
       -1   -1    0    0    0  501  0.00000000000E+00  0.00000000000E+00 -0.13477957869E+04  0.13477957869E+04  0.50400001928E-02 0. -1.
    10030    2    1    2    0    0  0.00000000000E+00  0.00000000000E+00  0.50659298421E+03  0.32021845579E+04  0.31618585502E+04 0.  0.
        3    1    3    3  502    0  0.10777961080E+04  0.10639031406E+04 -0.20614455475E+03  0.15284076455E+04  0.10100000352E+00 0. -1.
       -3    1    3    3    0  502 -0.10777961080E+04 -0.10639031406E+04  0.71273753896E+03  0.16737769125E+04  0.10100000352E+00 0.  1.
</event>
<event>
 5   0  0.4927533E-06  0.3121593E+04  0.7818609E-02  0.8209837E-01
        2   -1    0    0  501    0  0.00000000000E+00  0.00000000000E+00  0.16550240308E+04  0.16550240308E+04  0.25500000920E-02 0. -1.
       -2   -1    0    0    0  501  0.00000000000E+00  0.00000000000E+00 -0.14719333288E+04  0.14719333288E+04  0.25500000920E-02 0.  1.
    10030    2    1    2    0    0  0.00000000000E+00  0.00000000000E+00  0.18309070196E+03  0.31269573596E+04  0.31215925621E+04 0.  0.
        5    1    3    3  502    0 -0.43997359709E+03 -0.32626552697E+03 -0.13724851525E+04  0.14777562533E+04  0.46999998093E+01 0.  1.
       -5    1    3    3    0  502  0.43997359709E+03  0.32626552697E+03  0.15555758545E+04  0.16492011064E+04  0.46999998093E+01 0. -1.
</event>
<event>
 5   0  0.1836401E-06  0.3022522E+04  0.7818609E-02  0.8237329E-01
        1   -1    0    0  501    0  0.00000000000E+00  0.00000000000E+00  0.11635863073E+04  0.11635863073E+04  0.50400001928E-02 0. -1.
       -1   -1    0    0    0  501  0.00000000000E+00  0.00000000000E+00 -0.19628197731E+04  0.19628197731E+04  0.50400001928E-02 0.  1.
    10030    2    1    2    0    0  0.00000000000E+00  0.00000000000E+00 -0.79923346580E+03  0.31264060804E+04  0.30225222657E+04 0.  0.
        2    1    3    3  502    0 -0.10283440398E+04  0.63351163567E+03  0.53994294357E+03  0.13230143004E+04  0.25500000920E-02 0. -1.
       -2    1    3    3    0  502  0.10283440398E+04 -0.63351163567E+03 -0.13391764094E+04  0.18033917800E+04  0.25500000920E-02 0.  1.
</event>
<event>
 5   0  0.1885307E-06  0.3160164E+04  0.7818609E-02  0.8199418E-01
        1   -1    0    0  501    0  0.00000000000E+00  0.00000000000E+00  0.19243104184E+04  0.19243104184E+04  0.50400001928E-02 0. -1.
       -1   -1    0    0    0  501  0.00000000000E+00  0.00000000000E+00 -0.12974304553E+04  0.12974304554E+04  0.50400001928E-02 0.  1.
    10030    2    1    2    0    0  0.00000000000E+00  0.00000000000E+00  0.62687996309E+03  0.32217408738E+04  0.31601638834E+04 0.  0.
        3    1    3    3  502    0  0.64314509935E+03  0.63455888114E+03  0.16349849773E+04  0.18680140467E+04  0.10100000352E+00 0. -1.
       -3    1    3    3    0  502 -0.64314509935E+03 -0.63455888114E+03 -0.10081050142E+04  0.13537268271E+04  0.10100000352E+00 0.  1.
</event>
<event>
 5   0  0.5001658E-06  0.3061451E+04  0.7818609E-02  0.8226398E-01
       -2   -1    0    0    0  501  0.00000000000E+00  0.00000000000E+00  0.15019064414E+04  0.15019064414E+04  0.25500000920E-02 0.  1.
        2   -1    0    0  501    0  0.00000000000E+00  0.00000000000E+00 -0.15600976253E+04  0.15600976253E+04  0.25500000920E-02 0. -1.
    10030    2    1    2    0    0  0.00000000000E+00  0.00000000000E+00 -0.58191183887E+02  0.30620040667E+04  0.30614510760E+04 0.  0.
        3    1    3    3  502    0 -0.83219786599E+03  0.83961873673E+03 -0.10016948891E+04  0.15494855831E+04  0.10100000352E+00 0. -1.
       -3    1    3    3    0  502  0.83219786599E+03 -0.83961873673E+03  0.94350370526E+03  0.15125184836E+04  0.10100000352E+00 0.  1.
</event>
<event>
 5   0  0.4927533E-06  0.3098417E+04  0.7818609E-02  0.8216172E-01
       -2   -1    0    0    0  501  0.00000000000E+00  0.00000000000E+00  0.24450702331E+04  0.24450702331E+04  0.25500000920E-02 0.  1.
        2   -1    0    0  501    0  0.00000000000E+00  0.00000000000E+00 -0.98158617960E+03  0.98158617960E+03  0.25500000920E-02 0. -1.
    10030    2    1    2    0    0  0.00000000000E+00  0.00000000000E+00  0.14634840535E+04  0.34266564127E+04  0.30984171113E+04 0.  0.
        5    1    3    3  502    0  0.98037727001E+03 -0.91907432677E+03  0.15842384415E+04  0.20774192497E+04  0.46999998093E+01 0.  1.
       -5    1    3    3    0  502 -0.98037727001E+03  0.91907432677E+03 -0.12075438800E+03  0.13492371630E+04  0.46999998093E+01 0. -1.
</event>
<event>
 5   0  0.5328368E-06  0.3089265E+04  0.7818609E-02  0.8218690E-01
       -2   -1    0    0    0  501  0.00000000000E+00  0.00000000000E+00  0.16754970918E+04  0.16754970918E+04  0.25500000920E-02 0. -1.
        2   -1    0    0  501    0  0.00000000000E+00  0.00000000000E+00 -0.14239892213E+04  0.14239892213E+04  0.25500000920E-02 0.  1.
    10030    2    1    2    0    0  0.00000000000E+00  0.00000000000E+00  0.25150787050E+03  0.30994863131E+04  0.30892651547E+04 0.  0.
        1    1    3    3  502    0  0.26171222143E+03  0.10454658309E+04 -0.98443217923E+03  0.14596570851E+04  0.50400001928E-02 0.  1.
       -1    1    3    3    0  502 -0.26171222143E+03 -0.10454658309E+04  0.12359400497E+04  0.16398292280E+04  0.50400001928E-02 0. -1.
</event>
<event>
 5   0  0.1843709E-06  0.3100651E+04  0.7818609E-02  0.8215559E-01
       -1   -1    0    0    0  501  0.00000000000E+00  0.00000000000E+00  0.15656527381E+04  0.15656527381E+04  0.50400001928E-02 0. -1.
        1   -1    0    0  501    0  0.00000000000E+00  0.00000000000E+00 -0.15351478799E+04  0.15351478799E+04  0.50400001928E-02 0.  1.
    10030    2    1    2    0    0  0.00000000000E+00  0.00000000000E+00  0.30504858180E+02  0.31008006180E+04  0.31006505650E+04 0.  0.
        4    1    3    3  502    0 -0.68190540051E+03  0.35875906258E+03 -0.13301021710E+04  0.15371650655E+04  0.12699999809E+01 0.  1.
       -4    1    3    3    0  502  0.68190540051E+03 -0.35875906258E+03  0.13606070292E+04  0.15636355525E+04  0.12699999809E+01 0. -1.
</event>
<event>
 5   0  0.1853742E-06  0.2851329E+04  0.7818609E-02  0.8287508E-01
        1   -1    0    0  501    0  0.00000000000E+00  0.00000000000E+00  0.14894741301E+04  0.14894741301E+04  0.50400001928E-02 0. -1.
       -1   -1    0    0    0  501  0.00000000000E+00  0.00000000000E+00 -0.13645881288E+04  0.13645881289E+04  0.50400001928E-02 0.  1.
    10030    2    1    2    0    0  0.00000000000E+00  0.00000000000E+00  0.12488600129E+03  0.28540622590E+04  0.28513286140E+04 0.  0.
        5    1    3    3  502    0 -0.66648949084E+03 -0.57535879165E+03  0.11847898815E+04  0.14761419762E+04  0.46999998093E+01 0. -1.
       -5    1    3    3    0  502  0.66648949084E+03  0.57535879165E+03 -0.10599038802E+04  0.13779202828E+04  0.46999998093E+01 0.  1.
</event>
<event>
 5   0  0.1885307E-06  0.3113734E+04  0.7818609E-02  0.8211979E-01
        1   -1    0    0  501    0  0.00000000000E+00  0.00000000000E+00  0.17395001305E+04  0.17395001305E+04  0.50400001928E-02 0.  1.
       -1   -1    0    0    0  501  0.00000000000E+00  0.00000000000E+00 -0.13934090266E+04  0.13934090267E+04  0.50400001928E-02 0. -1.
    10030    2    1    2    0    0  0.00000000000E+00  0.00000000000E+00  0.34609110387E+03  0.31329091572E+04  0.31137342107E+04 0.  0.
        3    1    3    3  502    0 -0.27959403741E+03 -0.14729699370E+04 -0.24908776599E+03  0.15198216956E+04  0.10100000352E+00 0. -1.
       -3    1    3    3    0  502  0.27959403741E+03  0.14729699370E+04  0.59517886986E+03  0.16130874615E+04  0.10100000352E+00 0.  1.
</event>
<event>
 5   0  0.5114870E-06  0.3098674E+04  0.7818609E-02  0.8216102E-01
        2   -1    0    0  501    0  0.00000000000E+00  0.00000000000E+00  0.98850640486E+03  0.98850640486E+03  0.25500000920E-02 0.  1.
       -2   -1    0    0    0  501  0.00000000000E+00  0.00000000000E+00 -0.24283564414E+04  0.24283564414E+04  0.25500000920E-02 0. -1.
    10030    2    1    2    0    0  0.00000000000E+00  0.00000000000E+00 -0.14398500365E+04  0.34168628462E+04  0.30986744880E+04 0.  0.
        2    1    3    3  502    0 -0.15888016453E+03  0.11646942253E+04  0.39301737657E+03  0.12394426987E+04  0.25500000920E-02 0.  1.
       -2    1    3    3    0  502  0.15888016453E+03 -0.11646942253E+04 -0.18328674131E+04  0.21774201475E+04  0.25500000920E-02 0. -1.
</event>
<event>
 5   0  0.1885307E-06  0.2750271E+04  0.7818609E-02  0.8318876E-01
        1   -1    0    0  501    0  0.00000000000E+00  0.00000000000E+00  0.16645980232E+04  0.16645980232E+04  0.50400001928E-02 0.  1.
       -1   -1    0    0    0  501  0.00000000000E+00  0.00000000000E+00 -0.11360087575E+04  0.11360087575E+04  0.50400001928E-02 0. -1.
    10030    2    1    2    0    0  0.00000000000E+00  0.00000000000E+00  0.52858926577E+03  0.28006067807E+04  0.27502712099E+04 0.  0.
        3    1    3    3  502    0  0.10809720222E+03  0.10136562089E+04  0.12041239794E+04  0.15776877014E+04  0.10100000352E+00 0. -1.
       -3    1    3    3    0  502 -0.10809720222E+03 -0.10136562089E+04 -0.67553471368E+03  0.12229190793E+04  0.10100000352E+00 0.  1.
</event>
<event>
 5   0  0.1836401E-06  0.3060755E+04  0.7818609E-02  0.8226592E-01
       -1   -1    0    0    0  501  0.00000000000E+00  0.00000000000E+00  0.15759465683E+04  0.15759465683E+04  0.50400001928E-02 0. -1.
        1   -1    0    0  501    0  0.00000000000E+00  0.00000000000E+00 -0.14861258836E+04  0.14861258836E+04  0.50400001928E-02 0.  1.
    10030    2    1    2    0    0  0.00000000000E+00  0.00000000000E+00  0.89820684658E+02  0.30620724519E+04  0.30607547999E+04 0.  0.
        2    1    3    3  502    0  0.11595810027E+04  0.83532252399E+03  0.59256098859E+03  0.15471006257E+04  0.25500000920E-02 0. -1.
       -2    1    3    3    0  502 -0.11595810027E+04 -0.83532252399E+03 -0.50274030393E+03  0.15149718262E+04  0.25500000920E-02 0.  1.
</event>
<event>
 5   0  0.1843709E-06  0.3132376E+04  0.7818609E-02  0.8206908E-01
       -1   -1    0    0    0  501  0.00000000000E+00  0.00000000000E+00  0.12116611015E+04  0.12116611015E+04  0.50400001928E-02 0. -1.
        1   -1    0    0  501    0  0.00000000000E+00  0.00000000000E+00 -0.20244485868E+04  0.20244485868E+04  0.50400001928E-02 0.  1.
    10030    2    1    2    0    0  0.00000000000E+00  0.00000000000E+00 -0.81278748528E+03  0.32361096883E+04  0.31323764810E+04 0.  0.
        4    1    3    3  502    0 -0.12616439859E+04 -0.19455767109E+03  0.53103961870E+03  0.13826072921E+04  0.12699999809E+01 0. -1.
       -4    1    3    3    0  502  0.12616439859E+04  0.19455767109E+03 -0.13438271040E+04  0.18535023962E+04  0.12699999809E+01 0.  1.
</event>
<event>
 5   0  0.5001658E-06  0.3085418E+04  0.7818609E-02  0.8219751E-01
        2   -1    0    0  501    0  0.00000000000E+00  0.00000000000E+00  0.18995190438E+04  0.18995190438E+04  0.25500000920E-02 0. -1.
       -2   -1    0    0    0  501  0.00000000000E+00  0.00000000000E+00 -0.12529233329E+04  0.12529233329E+04  0.25500000920E-02 0.  1.
    10030    2    1    2    0    0  0.00000000000E+00  0.00000000000E+00  0.64659571090E+03  0.31524423768E+04  0.30854184361E+04 0.  0.
        3    1    3    3  502    0 -0.29212956230E+03  0.11999726541E+04 -0.62127239939E+03  0.13824809063E+04  0.10100000352E+00 0.  1.
       -3    1    3    3    0  502  0.29212956230E+03 -0.11999726541E+04  0.12678681103E+04  0.17699614705E+04  0.10100000352E+00 0. -1.
</event>
<event>
 5   0  0.5001658E-06  0.3167064E+04  0.7818609E-02  0.8197570E-01
        2   -1    0    0  501    0  0.00000000000E+00  0.00000000000E+00  0.14196655633E+04  0.14196655633E+04  0.25500000920E-02 0. -1.
       -2   -1    0    0    0  501  0.00000000000E+00  0.00000000000E+00 -0.17663132759E+04  0.17663132759E+04  0.25500000920E-02 0.  1.
    10030    2    1    2    0    0  0.00000000000E+00  0.00000000000E+00 -0.34664771266E+03  0.31859788392E+04  0.31670643389E+04 0.  0.
        3    1    3    3  502    0  0.88220283805E+03  0.12925339005E+04  0.70296766277E+02  0.15664824853E+04  0.10100000352E+00 0. -1.
       -3    1    3    3    0  502 -0.88220283805E+03 -0.12925339005E+04 -0.41694447894E+03  0.16194963538E+04  0.10100000352E+00 0.  1.
</event>
<event>
 5   0  0.1836401E-06  0.3055446E+04  0.7818609E-02  0.8228073E-01
        1   -1    0    0  501    0  0.00000000000E+00  0.00000000000E+00  0.13680916350E+04  0.13680916350E+04  0.50400001928E-02 0.  1.
       -1   -1    0    0    0  501  0.00000000000E+00  0.00000000000E+00 -0.17059809483E+04  0.17059809483E+04  0.50400001928E-02 0. -1.
    10030    2    1    2    0    0  0.00000000000E+00  0.00000000000E+00 -0.33788931328E+03  0.30740725833E+04  0.30554464583E+04 0.  0.
        2    1    3    3  502    0  0.10961980266E+04  0.67944652382E+03 -0.99286334117E+03  0.16275980175E+04  0.25500000920E-02 0.  1.
       -2    1    3    3    0  502 -0.10961980266E+04 -0.67944652382E+03  0.65497402789E+03  0.14464745658E+04  0.25500000920E-02 0. -1.
</event>
<event>
 5   0  0.1853742E-06  0.3093632E+04  0.7818609E-02  0.8217488E-01
       -1   -1    0    0    0  501  0.00000000000E+00  0.00000000000E+00  0.11243979552E+04  0.11243979553E+04  0.50400001928E-02 0.  1.
        1   -1    0    0  501    0  0.00000000000E+00  0.00000000000E+00 -0.21279293957E+04  0.21279293957E+04  0.50400001928E-02 0. -1.
    10030    2    1    2    0    0  0.00000000000E+00  0.00000000000E+00 -0.10035314405E+04  0.32523273510E+04  0.30936318213E+04 0.  0.
        5    1    3    3  502    0 -0.47084146713E+02  0.11727018710E+04 -0.15610076865E+04  0.19530011987E+04  0.46999998093E+01 0. -1.
       -5    1    3    3    0  502  0.47084146713E+02 -0.11727018710E+04  0.55747624600E+03  0.12993261522E+04  0.46999998093E+01 0.  1.
</event>
<event>
 5   0  0.4927533E-06  0.3095615E+04  0.7818609E-02  0.8216942E-01
       -2   -1    0    0    0  501  0.00000000000E+00  0.00000000000E+00  0.99343115478E+03  0.99343115479E+03  0.25500000920E-02 0. -1.
        2   -1    0    0  501    0  0.00000000000E+00  0.00000000000E+00 -0.24115498117E+04  0.24115498117E+04  0.25500000920E-02 0.  1.
    10030    2    1    2    0    0  0.00000000000E+00  0.00000000000E+00 -0.14181186570E+04  0.34049809665E+04  0.30956154246E+04 0.  0.
        5    1    3    3  502    0 -0.96862431287E+03 -0.99890462084E+03 -0.14547832421E+04  0.20130722472E+04  0.46999998093E+01 0.  1.
       -5    1    3    3    0  502  0.96862431287E+03  0.99890462084E+03  0.36664585175E+02  0.13919087193E+04  0.46999998093E+01 0. -1.
</event>
<event>
 5   0  0.5328368E-06  0.3083436E+04  0.7818609E-02  0.8220298E-01
        2   -1    0    0  501    0  0.00000000000E+00  0.00000000000E+00  0.84932426818E+03  0.84932426819E+03  0.25500000920E-02 0. -1.
       -2   -1    0    0    0  501  0.00000000000E+00  0.00000000000E+00 -0.27985713408E+04  0.27985713408E+04  0.25500000920E-02 0.  1.
    10030    2    1    2    0    0  0.00000000000E+00  0.00000000000E+00 -0.19492470727E+04  0.36478956090E+04  0.30834361067E+04 0.  0.
        1    1    3    3  502    0  0.67233565671E+03 -0.64651205188E+03  0.47764522885E+03  0.10479303570E+04  0.50400001928E-02 0. -1.
       -1    1    3    3    0  502 -0.67233565671E+03  0.64651205188E+03 -0.24268923015E+04  0.25999652520E+04  0.50400001928E-02 0.  1.
</event>
<event>
 5   0  0.1649875E-06  0.3121871E+04  0.7818609E-02  0.8209761E-01
       -3   -1    0    0    0  501  0.00000000000E+00  0.00000000000E+00  0.14532740854E+04  0.14532740889E+04  0.10100000352E+00 0. -1.
        3   -1    0    0  501    0  0.00000000000E+00  0.00000000000E+00 -0.16765731126E+04  0.16765731156E+04  0.10100000352E+00 0.  1.
    10030    2    1    2    0    0  0.00000000000E+00  0.00000000000E+00 -0.22329902719E+03  0.31298472046E+04  0.31218714048E+04 0.  0.
        5    1    3    3  502    0 -0.96096270841E+03  0.11965472830E+04 -0.39755074308E+03  0.15853212327E+04  0.46999998093E+01 0.  1.
       -5    1    3    3    0  502  0.96096270841E+03 -0.11965472830E+04  0.17425171589E+03  0.15445259719E+04  0.46999998093E+01 0. -1.
</event>
<event>
 5   0  0.1843709E-06  0.2746739E+04  0.7818609E-02  0.8319997E-01
       -1   -1    0    0    0  501  0.00000000000E+00  0.00000000000E+00  0.94096742762E+03  0.94096742764E+03  0.50400001928E-02 0. -1.
        1   -1    0    0  501    0  0.00000000000E+00  0.00000000000E+00 -0.20044734901E+04  0.20044734901E+04  0.50400001928E-02 0.  1.
    10030    2    1    2    0    0  0.00000000000E+00  0.00000000000E+00 -0.10635060625E+04  0.29454409177E+04  0.27467393496E+04 0.  0.
        4    1    3    3  502    0 -0.88782024610E+02 -0.11711811817E+04  0.23149085503E+03  0.11971371004E+04  0.12699999809E+01 0. -1.
       -4    1    3    3    0  502  0.88782024610E+02  0.11711811817E+04 -0.12949969175E+04  0.17483038173E+04  0.12699999809E+01 0.  1.
</event>
<event>
 5   0  0.4900679E-06  0.3153375E+04  0.7818609E-02  0.8201240E-01
       -2   -1    0    0    0  501  0.00000000000E+00  0.00000000000E+00  0.20594854347E+04  0.20594854347E+04  0.25500000920E-02 0. -1.
        2   -1    0    0  501    0  0.00000000000E+00  0.00000000000E+00 -0.12070704412E+04  0.12070704412E+04  0.25500000920E-02 0.  1.
    10030    2    1    2    0    0  0.00000000000E+00  0.00000000000E+00  0.85241499345E+03  0.32665558759E+04  0.31533753296E+04 0.  0.
        4    1    3    3  502    0  0.20253019728E+03 -0.31283367384E+03 -0.11607906824E+04  0.12191472469E+04  0.12699999809E+01 0.  1.
       -4    1    3    3    0  502 -0.20253019728E+03  0.31283367384E+03  0.20132056758E+04  0.20474086291E+04  0.12699999809E+01 0. -1.
</event>
<event>
 5   0  0.5001658E-06  0.3048922E+04  0.7818609E-02  0.8229897E-01
       -2   -1    0    0    0  501  0.00000000000E+00  0.00000000000E+00  0.17784111703E+04  0.17784111703E+04  0.25500000920E-02 0. -1.
        2   -1    0    0  501    0  0.00000000000E+00  0.00000000000E+00 -0.13067737549E+04  0.13067737549E+04  0.25500000920E-02 0.  1.
    10030    2    1    2    0    0  0.00000000000E+00  0.00000000000E+00  0.47163741538E+03  0.30851849253E+04  0.30489218047E+04 0.  0.
        3    1    3    3  502    0  0.15138501488E+04 -0.17012829457E+03  0.29390460836E+03  0.15514721521E+04  0.10100000352E+00 0. -1.
       -3    1    3    3    0  502 -0.15138501488E+04  0.17012829457E+03  0.17773280702E+03  0.15337127732E+04  0.10100000352E+00 0.  1.
</event>
<event>
 5   0  0.4927533E-06  0.3104977E+04  0.7818609E-02  0.8214373E-01
       -2   -1    0    0    0  501  0.00000000000E+00  0.00000000000E+00  0.14086256919E+04  0.14086256919E+04  0.25500000920E-02 0.  1.
        2   -1    0    0  501    0  0.00000000000E+00  0.00000000000E+00 -0.17110441243E+04  0.17110441243E+04  0.25500000920E-02 0. -1.
    10030    2    1    2    0    0  0.00000000000E+00  0.00000000000E+00 -0.30241843232E+03  0.31196698162E+04  0.31049771100E+04 0.  0.
        5    1    3    3  502    0 -0.69687231374E+03 -0.69862072765E+03 -0.13554200817E+04  0.16765701986E+04  0.46999998093E+01 0. -1.
       -5    1    3    3    0  502  0.69687231374E+03  0.69862072765E+03  0.10530016494E+04  0.14430996176E+04  0.46999998093E+01 0.  1.
</event>
<event>
 5   0  0.4927533E-06  0.2890762E+04  0.7818609E-02  0.8275631E-01
       -2   -1    0    0    0  501  0.00000000000E+00  0.00000000000E+00  0.82266198140E+03  0.82266198140E+03  0.25500000920E-02 0.  1.
        2   -1    0    0  501    0  0.00000000000E+00  0.00000000000E+00 -0.25394713090E+04  0.25394713090E+04  0.25500000920E-02 0. -1.
    10030    2    1    2    0    0  0.00000000000E+00  0.00000000000E+00 -0.17168093276E+04  0.33621332904E+04  0.28907621824E+04 0.  0.
        5    1    3    3  502    0 -0.72004351927E+03 -0.90362958711E+03  0.15158209884E+03  0.11653361416E+04  0.46999998093E+01 0.  1.
       -5    1    3    3    0  502  0.72004351927E+03  0.90362958711E+03 -0.18683914264E+04  0.21967971487E+04  0.46999998093E+01 0. -1.
</event>
<event>
 5   0  0.4927533E-06  0.2994051E+04  0.7818609E-02  0.8245432E-01
        2   -1    0    0  501    0  0.00000000000E+00  0.00000000000E+00  0.11381595780E+04  0.11381595780E+04  0.25500000920E-02 0. -1.
       -2   -1    0    0    0  501  0.00000000000E+00  0.00000000000E+00 -0.19690425887E+04  0.19690425887E+04  0.25500000920E-02 0.  1.
    10030    2    1    2    0    0  0.00000000000E+00  0.00000000000E+00 -0.83088301065E+03  0.31072021667E+04  0.29940505552E+04 0.  0.
        5    1    3    3  502    0 -0.69159473659E+03  0.10762374808E+04 -0.12223021760E+04  0.17693600804E+04  0.46999998093E+01 0.  1.
       -5    1    3    3    0  502  0.69159473659E+03 -0.10762374808E+04  0.39141916533E+03  0.13378420862E+04  0.46999998093E+01 0. -1.
</event>
<event>
 5   0  0.1853742E-06  0.2801844E+04  0.7818609E-02  0.8302696E-01
       -1   -1    0    0    0  501  0.00000000000E+00  0.00000000000E+00  0.17210193422E+04  0.17210193422E+04  0.50400001928E-02 0.  1.
        1   -1    0    0  501    0  0.00000000000E+00  0.00000000000E+00 -0.11403603031E+04  0.11403603031E+04  0.50400001928E-02 0. -1.
    10030    2    1    2    0    0  0.00000000000E+00  0.00000000000E+00  0.58065903913E+03  0.28613796453E+04  0.28018437777E+04 0.  0.
        5    1    3    3  502    0 -0.94179601017E+03 -0.59873312493E+03 -0.57448130280E+03  0.12551939838E+04  0.46999998093E+01 0. -1.
       -5    1    3    3    0  502  0.94179601017E+03  0.59873312493E+03  0.11551403419E+04  0.16061856615E+04  0.46999998093E+01 0.  1.
</event>
<event>
 5   0  0.5328368E-06  0.3100756E+04  0.7818609E-02  0.8215531E-01
        2   -1    0    0  501    0  0.00000000000E+00  0.00000000000E+00  0.21989513065E+04  0.21989513065E+04  0.25500000920E-02 0.  1.
       -2   -1    0    0    0  501  0.00000000000E+00  0.00000000000E+00 -0.10930990246E+04  0.10930990246E+04  0.25500000920E-02 0. -1.
    10030    2    1    2    0    0  0.00000000000E+00  0.00000000000E+00  0.11058522819E+04  0.32920503311E+04  0.31007557326E+04 0.  0.
        1    1    3    3  502    0  0.15318878338E+04 -0.40300919204E+02  0.80274459740E+03  0.17299431748E+04  0.50400001928E-02 0. -1.
       -1    1    3    3    0  502 -0.15318878338E+04  0.40300919204E+02  0.30310768446E+03  0.15621071563E+04  0.50400001928E-02 0.  1.
</event>
<event>
 5   0  0.1836401E-06  0.3105794E+04  0.7818609E-02  0.8214150E-01
       -1   -1    0    0    0  501  0.00000000000E+00  0.00000000000E+00  0.16003561334E+04  0.16003561334E+04  0.50400001928E-02 0. -1.
        1   -1    0    0  501    0  0.00000000000E+00  0.00000000000E+00 -0.15068453546E+04  0.15068453546E+04  0.50400001928E-02 0.  1.
    10030    2    1    2    0    0  0.00000000000E+00  0.00000000000E+00  0.93510778832E+02  0.31072014880E+04  0.31057940726E+04 0.  0.
        2    1    3    3  502    0  0.11803435312E+04  0.45749139559E+03  0.94659611665E+03  0.15806813204E+04  0.25500000920E-02 0. -1.
       -2    1    3    3    0  502 -0.11803435312E+04 -0.45749139559E+03 -0.85308533782E+03  0.15265201676E+04  0.25500000920E-02 0.  1.
</event>
<event>
 5   0  0.1843709E-06  0.3153014E+04  0.7818609E-02  0.8201338E-01
        1   -1    0    0  501    0  0.00000000000E+00  0.00000000000E+00  0.11929686741E+04  0.11929686741E+04  0.50400001928E-02 0. -1.
       -1   -1    0    0    0  501  0.00000000000E+00  0.00000000000E+00 -0.20833519252E+04  0.20833519252E+04  0.50400001928E-02 0.  1.
    10030    2    1    2    0    0  0.00000000000E+00  0.00000000000E+00 -0.89038325111E+03  0.32763205993E+04  0.31530135324E+04 0.  0.
        4    1    3    3  502    0 -0.12221893029E+04 -0.86268883780E+03 -0.96202967512E+03  0.17786178431E+04  0.12699999809E+01 0.  1.
       -4    1    3    3    0  502  0.12221893029E+04  0.86268883780E+03  0.71646424011E+02  0.14977027562E+04  0.12699999809E+01 0. -1.
</event>
<event>
 5   0  0.1885307E-06  0.2955420E+04  0.7818609E-02  0.8256577E-01
        1   -1    0    0  501    0  0.00000000000E+00  0.00000000000E+00  0.15971697819E+04  0.15971697819E+04  0.50400001928E-02 0. -1.
       -1   -1    0    0    0  501  0.00000000000E+00  0.00000000000E+00 -0.13671849050E+04  0.13671849050E+04  0.50400001928E-02 0.  1.
    10030    2    1    2    0    0  0.00000000000E+00  0.00000000000E+00  0.22998487696E+03  0.29643546869E+04  0.29554197106E+04 0.  0.
        3    1    3    3  502    0  0.15281648604E+03 -0.25999986346E+03  0.15659735142E+04  0.15947494677E+04  0.10100000352E+00 0. -1.
       -3    1    3    3    0  502 -0.15281648604E+03  0.25999986346E+03 -0.13359886372E+04  0.13696052192E+04  0.10100000352E+00 0.  1.
</event>
<event>
 5   0  0.5328368E-06  0.3097540E+04  0.7818609E-02  0.8216413E-01
        2   -1    0    0  501    0  0.00000000000E+00  0.00000000000E+00  0.15992620926E+04  0.15992620926E+04  0.25500000920E-02 0.  1.
       -2   -1    0    0    0  501  0.00000000000E+00  0.00000000000E+00 -0.14998720205E+04  0.14998720205E+04  0.25500000920E-02 0. -1.
    10030    2    1    2    0    0  0.00000000000E+00  0.00000000000E+00  0.99390072098E+02  0.30991341132E+04  0.30975399699E+04 0.  0.
        1    1    3    3  502    0 -0.22585102133E+03  0.26507345797E+03  0.15595826422E+04  0.15979895619E+04  0.50400001928E-02 0.  1.
       -1    1    3    3    0  502  0.22585102133E+03 -0.26507345797E+03 -0.14601925701E+04  0.15011445513E+04  0.50400001928E-02 0. -1.
</event>
<event>
 5   0  0.1843709E-06  0.3092330E+04  0.7818609E-02  0.8217846E-01
        1   -1    0    0  501    0  0.00000000000E+00  0.00000000000E+00  0.22066798048E+04  0.22066798048E+04  0.50400001928E-02 0. -1.
       -1   -1    0    0    0  501  0.00000000000E+00  0.00000000000E+00 -0.10833586817E+04  0.10833586817E+04  0.50400001928E-02 0.  1.
    10030    2    1    2    0    0  0.00000000000E+00  0.00000000000E+00  0.11233211231E+04  0.32900384865E+04  0.30923296876E+04 0.  0.
        4    1    3    3  502    0 -0.13360324317E+04  0.77207494136E+03  0.45773343339E+03  0.16095353002E+04  0.12699999809E+01 0.  1.
       -4    1    3    3    0  502  0.13360324317E+04 -0.77207494136E+03  0.66558768973E+03  0.16805031863E+04  0.12699999809E+01 0. -1.
</event>
<event>
 5   0  0.1843709E-06  0.3118647E+04  0.7818609E-02  0.8210639E-01
       -1   -1    0    0    0  501  0.00000000000E+00  0.00000000000E+00  0.12682010132E+04  0.12682010132E+04  0.50400001928E-02 0.  1.
        1   -1    0    0  501    0  0.00000000000E+00  0.00000000000E+00 -0.19172749174E+04  0.19172749174E+04  0.50400001928E-02 0. -1.
    10030    2    1    2    0    0  0.00000000000E+00  0.00000000000E+00 -0.64907390423E+03  0.31854759306E+04  0.31186471380E+04 0.  0.
        4    1    3    3  502    0  0.82801389170E+03 -0.12986954361E+04 -0.75862486947E+02  0.15420679526E+04  0.12699999809E+01 0.  1.
       -4    1    3    3    0  502 -0.82801389170E+03  0.12986954361E+04 -0.57321141728E+03  0.16434079781E+04  0.12699999809E+01 0. -1.
</event>
<event>
 5   0  0.1853742E-06  0.2788902E+04  0.7818609E-02  0.8306722E-01
       -1   -1    0    0    0  501  0.00000000000E+00  0.00000000000E+00  0.12583108669E+04  0.12583108669E+04  0.50400001928E-02 0. -1.
        1   -1    0    0  501    0  0.00000000000E+00  0.00000000000E+00 -0.15453200322E+04  0.15453200322E+04  0.50400001928E-02 0.  1.
    10030    2    1    2    0    0  0.00000000000E+00  0.00000000000E+00 -0.28700916534E+03  0.28036308991E+04  0.27889015683E+04 0.  0.
        5    1    3    3  502    0 -0.20611211867E+03  0.76524435615E+03 -0.12969044588E+04  0.15198895997E+04  0.46999998093E+01 0.  1.
       -5    1    3    3    0  502  0.20611211867E+03 -0.76524435615E+03  0.10098952935E+04  0.12837412994E+04  0.46999998093E+01 0. -1.
</event>
<event>
 5   0  0.5114870E-06  0.3294607E+04  0.7818609E-02  0.8164269E-01
        2   -1    0    0  501    0  0.00000000000E+00  0.00000000000E+00  0.16163315140E+04  0.16163315140E+04  0.25500000920E-02 0.  1.
       -2   -1    0    0    0  501  0.00000000000E+00  0.00000000000E+00 -0.16788685272E+04  0.16788685272E+04  0.25500000920E-02 0. -1.
    10030    2    1    2    0    0  0.00000000000E+00  0.00000000000E+00 -0.62537013175E+02  0.32952000412E+04  0.32946065673E+04 0.  0.
        2    1    3    3  502    0  0.28740754147E+03  0.75300205432E+03  0.14056506217E+04  0.16203298612E+04  0.25500000920E-02 0.  1.
       -2    1    3    3    0  502 -0.28740754147E+03 -0.75300205432E+03 -0.14681876349E+04  0.16748701800E+04  0.25500000920E-02 0. -1.
</event>
<event>
 5   0  0.4900679E-06  0.3053861E+04  0.7818609E-02  0.8228516E-01
        2   -1    0    0  501    0  0.00000000000E+00  0.00000000000E+00  0.18414077862E+04  0.18414077862E+04  0.25500000920E-02 0.  1.
       -2   -1    0    0    0  501  0.00000000000E+00  0.00000000000E+00 -0.12661601137E+04  0.12661601137E+04  0.25500000920E-02 0. -1.
    10030    2    1    2    0    0  0.00000000000E+00  0.00000000000E+00  0.57524767258E+03  0.31075678999E+04  0.30538612227E+04 0.  0.
        4    1    3    3  502    0 -0.10752322084E+03  0.13737740951E+04 -0.38174310689E+03  0.14298761904E+04  0.12699999809E+01 0. -1.
       -4    1    3    3    0  502  0.10752322084E+03 -0.13737740951E+04  0.95699077947E+03  0.16776917095E+04  0.12699999809E+01 0.  1.
</event>
<event>
 5   0  0.4927533E-06  0.3022156E+04  0.7818609E-02  0.8237432E-01
       -2   -1    0    0    0  501  0.00000000000E+00  0.00000000000E+00  0.15768992183E+04  0.15768992183E+04  0.25500000920E-02 0. -1.
        2   -1    0    0  501    0  0.00000000000E+00  0.00000000000E+00 -0.14480042422E+04  0.14480042422E+04  0.25500000920E-02 0.  1.
    10030    2    1    2    0    0  0.00000000000E+00  0.00000000000E+00  0.12889497616E+03  0.30249034605E+04  0.30221560235E+04 0.  0.
        5    1    3    3  502    0  0.15722119350E+03 -0.86378726450E+03 -0.11665029479E+04  0.14599993697E+04  0.46999998093E+01 0.  1.
       -5    1    3    3    0  502 -0.15722119350E+03  0.86378726450E+03  0.12953979240E+04  0.15649040909E+04  0.46999998093E+01 0. -1.
</event>
<event>
 5   0  0.5001658E-06  0.3087722E+04  0.7818609E-02  0.8219115E-01
       -2   -1    0    0    0  501  0.00000000000E+00  0.00000000000E+00  0.12214183209E+04  0.12214183209E+04  0.25500000920E-02 0. -1.
        2   -1    0    0  501    0  0.00000000000E+00  0.00000000000E+00 -0.19514258945E+04  0.19514258945E+04  0.25500000920E-02 0.  1.
    10030    2    1    2    0    0  0.00000000000E+00  0.00000000000E+00 -0.73000757352E+03  0.31728442154E+04  0.30877223576E+04 0.  0.
        3    1    3    3  502    0  0.33059099735E+03  0.15436296126E+03  0.11764812187E+04  0.12317574434E+04  0.10100000352E+00 0. -1.
       -3    1    3    3    0  502 -0.33059099735E+03 -0.15436296126E+03 -0.19064887922E+04  0.19410867720E+04  0.10100000352E+00 0.  1.
</event>
<event>
 5   0  0.4927533E-06  0.2863014E+04  0.7818609E-02  0.8283968E-01
       -2   -1    0    0    0  501  0.00000000000E+00  0.00000000000E+00  0.12669903749E+04  0.12669903749E+04  0.25500000920E-02 0. -1.
        2   -1    0    0  501    0  0.00000000000E+00  0.00000000000E+00 -0.16173861738E+04  0.16173861738E+04  0.25500000920E-02 0.  1.
    10030    2    1    2    0    0  0.00000000000E+00  0.00000000000E+00 -0.35039579891E+03  0.28843765487E+04  0.28630142960E+04 0.  0.
        5    1    3    3  502    0 -0.13973612313E+04 -0.16511335922E+03 -0.44042978877E+03  0.14744088039E+04  0.46999998093E+01 0.  1.
       -5    1    3    3    0  502  0.13973612313E+04  0.16511335922E+03  0.90033989864E+02  0.14099677448E+04  0.46999998093E+01 0. -1.
</event>
<event>
 5   0  0.5114870E-06  0.3109450E+04  0.7818609E-02  0.8213149E-01
        2   -1    0    0  501    0  0.00000000000E+00  0.00000000000E+00  0.13200658616E+04  0.13200658616E+04  0.25500000920E-02 0.  1.
       -2   -1    0    0    0  501  0.00000000000E+00  0.00000000000E+00 -0.18310979652E+04  0.18310979652E+04  0.25500000920E-02 0. -1.
    10030    2    1    2    0    0  0.00000000000E+00  0.00000000000E+00 -0.51103210358E+03  0.31511638268E+04  0.31094500563E+04 0.  0.
        2    1    3    3  502    0 -0.10336412207E+04 -0.58984974718E+03  0.75832111588E+03  0.14111654092E+04  0.25500000920E-02 0. -1.
       -2    1    3    3    0  502  0.10336412207E+04  0.58984974718E+03 -0.12693532195E+04  0.17399984176E+04  0.25500000920E-02 0.  1.
</event>
<event>
 5   0  0.1840431E-06  0.3108710E+04  0.7818609E-02  0.8213352E-01
        1   -1    0    0  501    0  0.00000000000E+00  0.00000000000E+00  0.14415290719E+04  0.14415290719E+04  0.50400001928E-02 0. -1.
       -1   -1    0    0    0  501  0.00000000000E+00  0.00000000000E+00 -0.16760115942E+04  0.16760115942E+04  0.50400001928E-02 0.  1.
    10030    2    1    2    0    0  0.00000000000E+00  0.00000000000E+00 -0.23448252230E+03  0.31175406660E+04  0.31087099818E+04 0.  0.
        1    1    3    3  502    0  0.20077267308E+03  0.12754807989E+04 -0.98506555246E+03  0.16240428188E+04  0.50400001928E-02 0.  1.
       -1    1    3    3    0  502 -0.20077267308E+03 -0.12754807989E+04  0.75058303016E+03  0.14934978472E+04  0.50400001928E-02 0. -1.
</event>
<event>
 5   0  0.1843709E-06  0.3099236E+04  0.7818609E-02  0.8215948E-01
       -1   -1    0    0    0  501  0.00000000000E+00  0.00000000000E+00  0.98888401134E+03  0.98888401136E+03  0.50400001928E-02 0. -1.
        1   -1    0    0  501    0  0.00000000000E+00  0.00000000000E+00 -0.24283094548E+04  0.24283094548E+04  0.50400001928E-02 0.  1.
    10030    2    1    2    0    0  0.00000000000E+00  0.00000000000E+00 -0.14394254434E+04  0.34171934662E+04  0.30992362895E+04 0.  0.
        4    1    3    3  502    0  0.12057560828E+04 -0.83088388780E+03 -0.16064414163E+03  0.14731001050E+04  0.12699999809E+01 0. -1.
       -4    1    3    3    0  502 -0.12057560828E+04  0.83088388780E+03 -0.12787813018E+04  0.19440933612E+04  0.12699999809E+01 0.  1.
</event>
<event>
 5   0  0.4900679E-06  0.3054862E+04  0.7818609E-02  0.8228236E-01
       -2   -1    0    0    0  501  0.00000000000E+00  0.00000000000E+00  0.15483401740E+04  0.15483401740E+04  0.25500000920E-02 0.  1.
        2   -1    0    0  501    0  0.00000000000E+00  0.00000000000E+00 -0.15068044704E+04  0.15068044704E+04  0.25500000920E-02 0. -1.
    10030    2    1    2    0    0  0.00000000000E+00  0.00000000000E+00  0.41535703604E+02  0.30551446443E+04  0.30548622854E+04 0.  0.
        4    1    3    3  502    0 -0.57653615778E+03  0.14354161233E+02  0.14352692184E+04  0.15468029369E+04  0.12699999809E+01 0.  1.
       -4    1    3    3    0  502  0.57653615778E+03 -0.14354161233E+02 -0.13937335148E+04  0.15083417075E+04  0.12699999809E+01 0. -1.
</event>
<event>
 5   0  0.4900679E-06  0.3107663E+04  0.7818609E-02  0.8213638E-01
        2   -1    0    0  501    0  0.00000000000E+00  0.00000000000E+00  0.23474622043E+04  0.23474622043E+04  0.25500000920E-02 0.  1.
       -2   -1    0    0    0  501  0.00000000000E+00  0.00000000000E+00 -0.10285119954E+04  0.10285119954E+04  0.25500000920E-02 0. -1.
    10030    2    1    2    0    0  0.00000000000E+00  0.00000000000E+00  0.13189502089E+04  0.33759741997E+04  0.31076634541E+04 0.  0.
        4    1    3    3  502    0 -0.70032605333E+03  0.54583317223E+03  0.20447167553E+04  0.22291834055E+04  0.12699999809E+01 0.  1.
       -4    1    3    3    0  502  0.70032605333E+03 -0.54583317223E+03 -0.72576654647E+03  0.11467907942E+04  0.12699999809E+01 0. -1.
</event>
<event>
 5   0  0.1836401E-06  0.3216272E+04  0.7818609E-02  0.8184533E-01
       -1   -1    0    0    0  501  0.00000000000E+00  0.00000000000E+00  0.15996459292E+04  0.15996459292E+04  0.50400001928E-02 0. -1.
        1   -1    0    0  501    0  0.00000000000E+00  0.00000000000E+00 -0.16166713352E+04  0.16166713353E+04  0.50400001928E-02 0.  1.
    10030    2    1    2    0    0  0.00000000000E+00  0.00000000000E+00 -0.17025406005E+02  0.32163172645E+04  0.32162722026E+04 0.  0.
        2    1    3    3  502    0 -0.59282085830E+03  0.18070316374E+03 -0.14924511183E+04  0.16160137821E+04  0.25500000920E-02 0.  1.
       -2    1    3    3    0  502  0.59282085830E+03 -0.18070316374E+03  0.14754257123E+04  0.16003034824E+04  0.25500000920E-02 0. -1.
</event>
<event>
 5   0  0.1836401E-06  0.3021402E+04  0.7818609E-02  0.8237646E-01
       -1   -1    0    0    0  501  0.00000000000E+00  0.00000000000E+00  0.12207248715E+04  0.12207248715E+04  0.50400001928E-02 0.  1.
        1   -1    0    0  501    0  0.00000000000E+00  0.00000000000E+00 -0.18695594358E+04  0.18695594358E+04  0.50400001928E-02 0. -1.
    10030    2    1    2    0    0  0.00000000000E+00  0.00000000000E+00 -0.64883456434E+03  0.30902843074E+04  0.30214021262E+04 0.  0.
        2    1    3    3  502    0  0.13948640139E+04  0.82943443425E+02  0.26286164834E+03  0.14218373600E+04  0.25500000920E-02 0.  1.
       -2    1    3    3    0  502 -0.13948640139E+04 -0.82943443425E+02 -0.91169621268E+03  0.16684469474E+04  0.25500000920E-02 0. -1.
</event>
<event>
 5   0  0.5114870E-06  0.3007526E+04  0.7818609E-02  0.8241585E-01
        2   -1    0    0  501    0  0.00000000000E+00  0.00000000000E+00  0.15712393546E+04  0.15712393546E+04  0.25500000920E-02 0.  1.
       -2   -1    0    0    0  501  0.00000000000E+00  0.00000000000E+00 -0.14391839582E+04  0.14391839582E+04  0.25500000920E-02 0. -1.
    10030    2    1    2    0    0  0.00000000000E+00  0.00000000000E+00  0.13205539648E+03  0.30104233128E+04  0.30075255434E+04 0.  0.
        2    1    3    3  502    0  0.73848977112E+03 -0.45831017336E+03 -0.11623005875E+04  0.14513297395E+04  0.25500000920E-02 0. -1.
       -2    1    3    3    0  502 -0.73848977112E+03  0.45831017336E+03  0.12943559840E+04  0.15590935733E+04  0.25500000920E-02 0.  1.
</event>
<event>
 5   0  0.5001658E-06  0.3064578E+04  0.7818609E-02  0.8225527E-01
        2   -1    0    0  501    0  0.00000000000E+00  0.00000000000E+00  0.19727556764E+04  0.19727556764E+04  0.25500000920E-02 0. -1.
       -2   -1    0    0    0  501  0.00000000000E+00  0.00000000000E+00 -0.11901675932E+04  0.11901675932E+04  0.25500000920E-02 0.  1.
    10030    2    1    2    0    0  0.00000000000E+00  0.00000000000E+00  0.78258808327E+03  0.31629232696E+04  0.30645781931E+04 0.  0.
        3    1    3    3  502    0  0.85180759178E+03  0.10301058542E+04  0.11644779819E+04  0.17727671096E+04  0.10100000352E+00 0. -1.
       -3    1    3    3    0  502 -0.85180759178E+03 -0.10301058542E+04 -0.38188989865E+03  0.13901561600E+04  0.10100000352E+00 0.  1.
</event>
<event>
 5   0  0.5114870E-06  0.3068710E+04  0.7818609E-02  0.8224378E-01
        2   -1    0    0  501    0  0.00000000000E+00  0.00000000000E+00  0.27734702036E+04  0.27734702036E+04  0.25500000920E-02 0. -1.
       -2   -1    0    0    0  501  0.00000000000E+00  0.00000000000E+00 -0.84884452747E+03  0.84884452748E+03  0.25500000920E-02 0.  1.
    10030    2    1    2    0    0  0.00000000000E+00  0.00000000000E+00  0.19246256761E+04  0.36223147311E+04  0.30687098295E+04 0.  0.
        2    1    3    3  502    0 -0.12313665140E+04  0.26415475204E+03 -0.72277879043E+02  0.12614536522E+04  0.25500000920E-02 0.  1.
       -2    1    3    3    0  502  0.12313665140E+04 -0.26415475204E+03  0.19969035552E+04  0.23608610788E+04  0.25500000920E-02 0. -1.
</event>
<event>
 5   0  0.5328368E-06  0.3091590E+04  0.7818609E-02  0.8218050E-01
        2   -1    0    0  501    0  0.00000000000E+00  0.00000000000E+00  0.24467533627E+04  0.24467533627E+04  0.25500000920E-02 0.  1.
       -2   -1    0    0    0  501  0.00000000000E+00  0.00000000000E+00 -0.97659304953E+03  0.97659304953E+03  0.25500000920E-02 0. -1.
    10030    2    1    2    0    0  0.00000000000E+00  0.00000000000E+00  0.14701603131E+04  0.34233464122E+04  0.30915900944E+04 0.  0.
        1    1    3    3  502    0  0.15347805983E+03 -0.46828912780E+03 -0.88728179037E+03  0.10149478793E+04  0.50400001928E-02 0. -1.
       -1    1    3    3    0  502 -0.15347805983E+03  0.46828912780E+03  0.23574421035E+04  0.24083985329E+04  0.50400001928E-02 0.  1.
</event>
<event>
 5   0  0.1853742E-06  0.3099771E+04  0.7818609E-02  0.8215801E-01
       -1   -1    0    0    0  501  0.00000000000E+00  0.00000000000E+00  0.14586372677E+04  0.14586372677E+04  0.50400001928E-02 0.  1.
        1   -1    0    0  501    0  0.00000000000E+00  0.00000000000E+00 -0.16468414438E+04  0.16468414438E+04  0.50400001928E-02 0. -1.
    10030    2    1    2    0    0  0.00000000000E+00  0.00000000000E+00 -0.18820417606E+03  0.31054787115E+04  0.30997705102E+04 0.  0.
        5    1    3    3  502    0 -0.13918101596E+04 -0.46727734529E+03  0.40343964714E+03  0.15225863774E+04  0.46999998093E+01 0.  1.
       -5    1    3    3    0  502  0.13918101596E+04  0.46727734529E+03 -0.59164382321E+03  0.15828923341E+04  0.46999998093E+01 0. -1.
</event>
<event>
 5   0  0.4927533E-06  0.2687069E+04  0.7818609E-02  0.8339213E-01
        2   -1    0    0  501    0  0.00000000000E+00  0.00000000000E+00  0.17079396605E+04  0.17079396605E+04  0.25500000920E-02 0. -1.
       -2   -1    0    0    0  501  0.00000000000E+00  0.00000000000E+00 -0.10568785804E+04  0.10568785804E+04  0.25500000920E-02 0.  1.
    10030    2    1    2    0    0  0.00000000000E+00  0.00000000000E+00  0.65106108007E+03  0.27648182409E+04  0.26870689189E+04 0.  0.
        5    1    3    3  502    0 -0.29509106042E+03 -0.30603580115E+03  0.16368979699E+04  0.16912107200E+04  0.46999998093E+01 0. -1.
       -5    1    3    3    0  502  0.29509106042E+03  0.30603580115E+03 -0.98583688984E+03  0.10736075209E+04  0.46999998093E+01 0.  1.
</event>
<event>
 5   0  0.4900679E-06  0.2643923E+04  0.7818609E-02  0.8353433E-01
       -2   -1    0    0    0  501  0.00000000000E+00  0.00000000000E+00  0.79745041049E+03  0.79745041049E+03  0.25500000920E-02 0.  1.
        2   -1    0    0  501    0  0.00000000000E+00  0.00000000000E+00 -0.21914622277E+04  0.21914622277E+04  0.25500000920E-02 0. -1.
    10030    2    1    2    0    0  0.00000000000E+00  0.00000000000E+00 -0.13940118172E+04  0.29889126382E+04  0.26439231858E+04 0.  0.
        4    1    3    3  502    0  0.11063518770E+04  0.45983277205E+03 -0.65430347307E+02  0.11998930774E+04  0.12699999809E+01 0.  1.
       -4    1    3    3    0  502 -0.11063518770E+04 -0.45983277205E+03 -0.13285814699E+04  0.17890195608E+04  0.12699999809E+01 0. -1.
</event>
<event>
 5   0  0.5114870E-06  0.3117917E+04  0.7818609E-02  0.8210838E-01
       -2   -1    0    0    0  501  0.00000000000E+00  0.00000000000E+00  0.10316967572E+04  0.10316967572E+04  0.25500000920E-02 0.  1.
        2   -1    0    0  501    0  0.00000000000E+00  0.00000000000E+00 -0.23556846152E+04  0.23556846152E+04  0.25500000920E-02 0. -1.
    10030    2    1    2    0    0  0.00000000000E+00  0.00000000000E+00 -0.13239878580E+04  0.33873813724E+04  0.31179173680E+04 0.  0.
        2    1    3    3  502    0  0.10774387343E+04 -0.84753116071E+03 -0.14685635111E+04  0.20089455146E+04  0.25500000920E-02 0. -1.
       -2    1    3    3    0  502 -0.10774387343E+04  0.84753116071E+03  0.14457565314E+03  0.13784358578E+04  0.25500000920E-02 0.  1.
</event>
<event>
 5   0  0.1853742E-06  0.3157061E+04  0.7818609E-02  0.8200250E-01
        1   -1    0    0  501    0  0.00000000000E+00  0.00000000000E+00  0.19299101086E+04  0.19299101086E+04  0.50400001928E-02 0.  1.
       -1   -1    0    0    0  501  0.00000000000E+00  0.00000000000E+00 -0.12911263575E+04  0.12911263575E+04  0.50400001928E-02 0. -1.
    10030    2    1    2    0    0  0.00000000000E+00  0.00000000000E+00  0.63878375106E+03  0.32210364661E+04  0.31570605372E+04 0.  0.
        5    1    3    3  502    0 -0.92398486567E+03 -0.74061840698E+03  0.13843211871E+04  0.18217109803E+04  0.46999998093E+01 0.  1.
       -5    1    3    3    0  502  0.92398486567E+03  0.74061840698E+03 -0.74553743600E+03  0.13993254858E+04  0.46999998093E+01 0. -1.
</event>
<event>
 5   0  0.1853742E-06  0.2997674E+04  0.7818609E-02  0.8244395E-01
        1   -1    0    0  501    0  0.00000000000E+00  0.00000000000E+00  0.16199373280E+04  0.16199373280E+04  0.50400001928E-02 0.  1.
       -1   -1    0    0    0  501  0.00000000000E+00  0.00000000000E+00 -0.13867893698E+04  0.13867893698E+04  0.50400001928E-02 0. -1.
    10030    2    1    2    0    0  0.00000000000E+00  0.00000000000E+00  0.23314795827E+03  0.30067266978E+04  0.29976736755E+04 0.  0.
        5    1    3    3  502    0  0.30509298606E+03 -0.64868235084E+03 -0.12036911956E+04  0.14009871901E+04  0.46999998093E+01 0. -1.
       -5    1    3    3    0  502 -0.30509298606E+03  0.64868235084E+03  0.14368391539E+04  0.16057395077E+04  0.46999998093E+01 0.  1.
</event>
<event>
 5   0  0.5328368E-06  0.3075104E+04  0.7818609E-02  0.8222604E-01
       -2   -1    0    0    0  501  0.00000000000E+00  0.00000000000E+00  0.89282685407E+03  0.89282685407E+03  0.25500000920E-02 0. -1.
        2   -1    0    0  501    0  0.00000000000E+00  0.00000000000E+00 -0.26478439518E+04  0.26478439518E+04  0.25500000920E-02 0.  1.
    10030    2    1    2    0    0  0.00000000000E+00  0.00000000000E+00 -0.17550170977E+04  0.35406708059E+04  0.30751040214E+04 0.  0.
        1    1    3    3  502    0  0.10086133900E+04  0.99234215197E+03 -0.18473167528E+03  0.14269441856E+04  0.50400001928E-02 0. -1.
       -1    1    3    3    0  502 -0.10086133900E+04 -0.99234215197E+03 -0.15702854224E+04  0.21137266202E+04  0.50400001928E-02 0.  1.
</event>
<event>
 5   0  0.4927533E-06  0.2939676E+04  0.7818609E-02  0.8261170E-01
        2   -1    0    0  501    0  0.00000000000E+00  0.00000000000E+00  0.12517270522E+04  0.12517270522E+04  0.25500000920E-02 0.  1.
       -2   -1    0    0    0  501  0.00000000000E+00  0.00000000000E+00 -0.17259541240E+04  0.17259541240E+04  0.25500000920E-02 0. -1.
    10030    2    1    2    0    0  0.00000000000E+00  0.00000000000E+00 -0.47422707187E+03  0.29776811762E+04  0.29396758106E+04 0.  0.
        5    1    3    3  502    0  0.43052163368E+03  0.44330896337E+03 -0.15879703359E+04  0.17039787533E+04  0.46999998093E+01 0. -1.
       -5    1    3    3    0  502 -0.43052163368E+03 -0.44330896337E+03  0.11137432640E+04  0.12737024229E+04  0.46999998093E+01 0.  1.
</event>
<event>
 5   0  0.4927533E-06  0.3122407E+04  0.7818609E-02  0.8209615E-01
       -2   -1    0    0    0  501  0.00000000000E+00  0.00000000000E+00  0.14589500201E+04  0.14589500201E+04  0.25500000920E-02 0. -1.
        2   -1    0    0  501    0  0.00000000000E+00  0.00000000000E+00 -0.16706235760E+04  0.16706235760E+04  0.25500000920E-02 0.  1.
    10030    2    1    2    0    0  0.00000000000E+00  0.00000000000E+00 -0.21167355592E+03  0.31295735961E+04  0.31224069560E+04 0.  0.
        5    1    3    3  502    0  0.53662113570E+03  0.12059956944E+04  0.72971102748E+03  0.15082732285E+04  0.46999998093E+01 0. -1.
       -5    1    3    3    0  502 -0.53662113570E+03 -0.12059956944E+04 -0.94138458341E+03  0.16213003676E+04  0.46999998093E+01 0.  1.
</event>
<event>
 5   0  0.1843709E-06  0.3116774E+04  0.7818609E-02  0.8211149E-01
        1   -1    0    0  501    0  0.00000000000E+00  0.00000000000E+00  0.22596613887E+04  0.22596613887E+04  0.50400001928E-02 0. -1.
       -1   -1    0    0    0  501  0.00000000000E+00  0.00000000000E+00 -0.10747495052E+04  0.10747495052E+04  0.50400001928E-02 0.  1.
    10030    2    1    2    0    0  0.00000000000E+00  0.00000000000E+00  0.11849118835E+04  0.33344108940E+04  0.31167739472E+04 0.  0.
        4    1    3    3  502    0  0.69682364765E+03 -0.55227032436E+03 -0.77675736069E+03  0.11806436030E+04  0.12699999809E+01 0.  1.
       -4    1    3    3    0  502 -0.69682364765E+03  0.55227032436E+03  0.19616692442E+04  0.21537672910E+04  0.12699999809E+01 0. -1.
</event>
<event>
 5   0  0.1843709E-06  0.3111347E+04  0.7818609E-02  0.8212631E-01
       -1   -1    0    0    0  501  0.00000000000E+00  0.00000000000E+00  0.13159049551E+04  0.13159049551E+04  0.50400001928E-02 0. -1.
        1   -1    0    0  501    0  0.00000000000E+00  0.00000000000E+00 -0.18391292935E+04  0.18391292935E+04  0.50400001928E-02 0.  1.
    10030    2    1    2    0    0  0.00000000000E+00  0.00000000000E+00 -0.52322433842E+03  0.31550342486E+04  0.31113465576E+04 0.  0.
        4    1    3    3  502    0  0.12614038670E+04 -0.16254813222E+03 -0.11700462053E+04  0.17281699414E+04  0.12699999809E+01 0.  1.
       -4    1    3    3    0  502 -0.12614038670E+04  0.16254813222E+03  0.64682186686E+03  0.14268643072E+04  0.12699999809E+01 0. -1.
</event>
<event>
 5   0  0.1836401E-06  0.3120567E+04  0.7818609E-02  0.8210116E-01
        1   -1    0    0  501    0  0.00000000000E+00  0.00000000000E+00  0.14956771925E+04  0.14956771925E+04  0.50400001928E-02 0.  1.
       -1   -1    0    0    0  501  0.00000000000E+00  0.00000000000E+00 -0.16276802949E+04  0.16276802949E+04  0.50400001928E-02 0. -1.
    10030    2    1    2    0    0  0.00000000000E+00  0.00000000000E+00 -0.13200310234E+03  0.31233574874E+04  0.31205668035E+04 0.  0.
        2    1    3    3  502    0 -0.47108111919E+03 -0.13198293723E+04  0.62062746922E+03  0.15326595996E+04  0.25500000920E-02 0.  1.
       -2    1    3    3    0  502  0.47108111919E+03  0.13198293723E+04 -0.75263057156E+03  0.15906978877E+04  0.25500000920E-02 0. -1.
</event>
<event>
 5   0  0.5328368E-06  0.3074287E+04  0.7818609E-02  0.8222830E-01
       -2   -1    0    0    0  501  0.00000000000E+00  0.00000000000E+00  0.14486377901E+04  0.14486377901E+04  0.25500000920E-02 0.  1.
        2   -1    0    0  501    0  0.00000000000E+00  0.00000000000E+00 -0.16310568210E+04  0.16310568210E+04  0.25500000920E-02 0. -1.
    10030    2    1    2    0    0  0.00000000000E+00  0.00000000000E+00 -0.18241903092E+03  0.30796946111E+04  0.30742872662E+04 0.  0.
        1    1    3    3  502    0  0.12815618168E+03  0.14268752041E+04 -0.64933729969E+03  0.15729067944E+04  0.50400001928E-02 0. -1.
       -1    1    3    3    0  502 -0.12815618168E+03 -0.14268752041E+04  0.46691826877E+03  0.15067878167E+04  0.50400001928E-02 0.  1.
</event>
<event>
 5   0  0.4927533E-06  0.3060409E+04  0.7818609E-02  0.8226688E-01
       -2   -1    0    0    0  501  0.00000000000E+00  0.00000000000E+00  0.10681503869E+04  0.10681503869E+04  0.25500000920E-02 0.  1.
        2   -1    0    0  501    0  0.00000000000E+00  0.00000000000E+00 -0.21921315787E+04  0.21921315787E+04  0.25500000920E-02 0. -1.
    10030    2    1    2    0    0  0.00000000000E+00  0.00000000000E+00 -0.11239811919E+04  0.32602819656E+04  0.30604092497E+04 0.  0.
        5    1    3    3  502    0  0.44876106457E+03  0.40132566310E+03  0.93667460517E+03  0.11134766216E+04  0.46999998093E+01 0.  1.
       -5    1    3    3    0  502 -0.44876106457E+03 -0.40132566310E+03 -0.20606557970E+04  0.21468053439E+04  0.46999998093E+01 0. -1.
</event>
<event>
 5   0  0.5001658E-06  0.3143300E+04  0.7818609E-02  0.8203954E-01
       -2   -1    0    0    0  501  0.00000000000E+00  0.00000000000E+00  0.19000845567E+04  0.19000845567E+04  0.25500000920E-02 0.  1.
        2   -1    0    0  501    0  0.00000000000E+00  0.00000000000E+00 -0.12999863362E+04  0.12999863362E+04  0.25500000920E-02 0. -1.
    10030    2    1    2    0    0  0.00000000000E+00  0.00000000000E+00  0.60009822051E+03  0.32000708930E+04  0.31433001521E+04 0.  0.
        3    1    3    3  502    0 -0.87216367862E+02  0.90774417471E+03 -0.10030997327E+04  0.13556604536E+04  0.10100000352E+00 0. -1.
       -3    1    3    3    0  502  0.87216367862E+02 -0.90774417471E+03  0.16031979532E+04  0.18444104394E+04  0.10100000352E+00 0.  1.
</event>
<event>
 5   0  0.1840431E-06  0.3116431E+04  0.7818609E-02  0.8211243E-01
        1   -1    0    0  501    0  0.00000000000E+00  0.00000000000E+00  0.19903096839E+04  0.19903096839E+04  0.50400001928E-02 0. -1.
       -1   -1    0    0    0  501  0.00000000000E+00  0.00000000000E+00 -0.12199288036E+04  0.12199288036E+04  0.50400001928E-02 0.  1.
    10030    2    1    2    0    0  0.00000000000E+00  0.00000000000E+00  0.77038088026E+03  0.32102384875E+04  0.31164313639E+04 0.  0.
        1    1    3    3  502    0 -0.14638128083E+04  0.30310537900E+03 -0.67837666149E+02  0.14964032737E+04  0.50400001928E-02 0.  1.
       -1    1    3    3    0  502  0.14638128083E+04 -0.30310537900E+03  0.83821854641E+03  0.17138352138E+04  0.50400001928E-02 0. -1.
</event>
<event>
 5   0  0.5328368E-06  0.3225805E+04  0.7818609E-02  0.8182035E-01
       -2   -1    0    0    0  501  0.00000000000E+00  0.00000000000E+00  0.13113789616E+04  0.13113789616E+04  0.25500000920E-02 0.  1.
        2   -1    0    0  501    0  0.00000000000E+00  0.00000000000E+00 -0.19837545566E+04  0.19837545566E+04  0.25500000920E-02 0. -1.
    10030    2    1    2    0    0  0.00000000000E+00  0.00000000000E+00 -0.67237559498E+03  0.32951335181E+04  0.32258046999E+04 0.  0.
        1    1    3    3  502    0 -0.12414754962E+04  0.10000131478E+03  0.71062582461E+03  0.14339632956E+04  0.50400001928E-02 0.  1.
       -1    1    3    3    0  502  0.12414754962E+04 -0.10000131478E+03 -0.13830014196E+04  0.18611702225E+04  0.50400001928E-02 0. -1.
</event>
<event>
 5   0  0.1843709E-06  0.3029978E+04  0.7818609E-02  0.8235222E-01
        1   -1    0    0  501    0  0.00000000000E+00  0.00000000000E+00  0.23930647096E+04  0.23930647096E+04  0.50400001928E-02 0.  1.
       -1   -1    0    0    0  501  0.00000000000E+00  0.00000000000E+00 -0.95910163549E+03  0.95910163551E+03  0.50400001928E-02 0. -1.
    10030    2    1    2    0    0  0.00000000000E+00  0.00000000000E+00  0.14339630741E+04  0.33521663451E+04  0.30299784005E+04 0.  0.
        4    1    3    3  502    0 -0.85318324217E+03  0.12150720255E+04  0.38348303767E+03  0.15334218353E+04  0.12699999809E+01 0. -1.
       -4    1    3    3    0  502  0.85318324217E+03 -0.12150720255E+04  0.10504800364E+04  0.18187445098E+04  0.12699999809E+01 0.  1.
</event>
<event>
 5   0  0.5001658E-06  0.3136592E+04  0.7818609E-02  0.8205767E-01
       -2   -1    0    0    0  501  0.00000000000E+00  0.00000000000E+00  0.15676333442E+04  0.15676333442E+04  0.25500000920E-02 0. -1.
        2   -1    0    0  501    0  0.00000000000E+00  0.00000000000E+00 -0.15689594195E+04  0.15689594195E+04  0.25500000920E-02 0.  1.
    10030    2    1    2    0    0  0.00000000000E+00  0.00000000000E+00 -0.13260752888E+01  0.31365927638E+04  0.31365924835E+04 0.  0.
        3    1    3    3  502    0  0.37968320306E+03  0.14877463012E+04  0.31871873771E+03  0.15681613550E+04  0.10100000352E+00 0. -1.
       -3    1    3    3    0  502 -0.37968320306E+03 -0.14877463012E+04 -0.32004481300E+03  0.15684314087E+04  0.10100000352E+00 0.  1.
</event>
<event>
 5   0  0.4900679E-06  0.3044118E+04  0.7818609E-02  0.8231244E-01
       -2   -1    0    0    0  501  0.00000000000E+00  0.00000000000E+00  0.10033650658E+04  0.10033650658E+04  0.25500000920E-02 0. -1.
        2   -1    0    0  501    0  0.00000000000E+00  0.00000000000E+00 -0.23088946767E+04  0.23088946767E+04  0.25500000920E-02 0.  1.
    10030    2    1    2    0    0  0.00000000000E+00  0.00000000000E+00 -0.13055296109E+04  0.33122597425E+04  0.30441184334E+04 0.  0.
        4    1    3    3  502    0  0.16111189538E+03  0.77299178198E+03  0.76307983112E+03  0.10980736676E+04  0.12699999809E+01 0. -1.
       -4    1    3    3    0  502 -0.16111189538E+03 -0.77299178198E+03 -0.20686094420E+04  0.22141860749E+04  0.12699999809E+01 0.  1.
</event>
<event>
 5   0  0.1840431E-06  0.3000034E+04  0.7818609E-02  0.8243721E-01
       -1   -1    0    0    0  501  0.00000000000E+00  0.00000000000E+00  0.17648732433E+04  0.17648732433E+04  0.50400001928E-02 0.  1.
        1   -1    0    0  501    0  0.00000000000E+00  0.00000000000E+00 -0.12749077169E+04  0.12749077169E+04  0.50400001928E-02 0. -1.
    10030    2    1    2    0    0  0.00000000000E+00  0.00000000000E+00  0.48996552647E+03  0.30397809602E+04  0.30000336780E+04 0.  0.
        1    1    3    3  502    0 -0.58008703597E+03 -0.12716146785E+04  0.79675766821E+03  0.16088280336E+04  0.50400001928E-02 0. -1.
       -1    1    3    3    0  502  0.58008703597E+03  0.12716146785E+04 -0.30679214174E+03  0.14309529266E+04  0.50400001928E-02 0.  1.
</event>
<event>
 5   0  0.5328368E-06  0.3116541E+04  0.7818609E-02  0.8211213E-01
       -2   -1    0    0    0  501  0.00000000000E+00  0.00000000000E+00  0.23885641321E+04  0.23885641321E+04  0.25500000920E-02 0. -1.
        2   -1    0    0  501    0  0.00000000000E+00  0.00000000000E+00 -0.10165970875E+04  0.10165970875E+04  0.25500000920E-02 0.  1.
    10030    2    1    2    0    0  0.00000000000E+00  0.00000000000E+00  0.13719670446E+04  0.34051612197E+04  0.31165412496E+04 0.  0.
        1    1    3    3  502    0 -0.40017803293E+03 -0.13386483415E+04 -0.67905251814E+02  0.13988327146E+04  0.50400001928E-02 0.  1.
       -1    1    3    3    0  502  0.40017803293E+03  0.13386483415E+04  0.14398722964E+04  0.20063285051E+04  0.50400001928E-02 0. -1.
</event>
<event>
 5   0  0.1853742E-06  0.3052103E+04  0.7818609E-02  0.8229007E-01
        1   -1    0    0  501    0  0.00000000000E+00  0.00000000000E+00  0.16893544249E+04  0.16893544249E+04  0.50400001928E-02 0. -1.
       -1   -1    0    0    0  501  0.00000000000E+00  0.00000000000E+00 -0.13785347916E+04  0.13785347916E+04  0.50400001928E-02 0.  1.
    10030    2    1    2    0    0  0.00000000000E+00  0.00000000000E+00  0.31081963331E+03  0.30678892166E+04  0.30521034387E+04 0.  0.
        5    1    3    3  502    0 -0.14426382247E+04 -0.32108519683E+03 -0.22670237268E+03  0.14952313556E+04  0.46999998093E+01 0.  1.
       -5    1    3    3    0  502  0.14426382247E+04  0.32108519683E+03  0.53752200599E+03  0.15726578610E+04  0.46999998093E+01 0. -1.
</event>
<event>
 5   0  0.1853742E-06  0.3065732E+04  0.7818609E-02  0.8225206E-01
        1   -1    0    0  501    0  0.00000000000E+00  0.00000000000E+00  0.10391669209E+04  0.10391669209E+04  0.50400001928E-02 0.  1.
       -1   -1    0    0    0  501  0.00000000000E+00  0.00000000000E+00 -0.22611167299E+04  0.22611167299E+04  0.50400001928E-02 0. -1.
    10030    2    1    2    0    0  0.00000000000E+00  0.00000000000E+00 -0.12219498090E+04  0.33002836509E+04  0.30657316974E+04 0.  0.
        5    1    3    3  502    0  0.10719167536E+04  0.66220231830E+03 -0.15507717522E+04  0.19981072429E+04  0.46999998093E+01 0. -1.
       -5    1    3    3    0  502 -0.10719167536E+04 -0.66220231830E+03  0.32882194317E+03  0.13021764079E+04  0.46999998093E+01 0.  1.
</event>
<event>
 5   0  0.1840431E-06  0.3087050E+04  0.7818609E-02  0.8219301E-01
        1   -1    0    0  501    0  0.00000000000E+00  0.00000000000E+00  0.14125150014E+04  0.14125150014E+04  0.50400001928E-02 0. -1.
       -1   -1    0    0    0  501  0.00000000000E+00  0.00000000000E+00 -0.16866861342E+04  0.16866861342E+04  0.50400001928E-02 0.  1.
    10030    2    1    2    0    0  0.00000000000E+00  0.00000000000E+00 -0.27417113281E+03  0.30992011356E+04  0.30870500269E+04 0.  0.
        1    1    3    3  502    0 -0.29113612874E+03 -0.63382922425E+03  0.12452764608E+04  0.14273097753E+04  0.50400001928E-02 0. -1.
       -1    1    3    3    0  502  0.29113612874E+03  0.63382922425E+03 -0.15194475936E+04  0.16718913603E+04  0.50400001928E-02 0.  1.
</event>
<event>
 5   0  0.1885307E-06  0.3042785E+04  0.7818609E-02  0.8231618E-01
        1   -1    0    0  501    0  0.00000000000E+00  0.00000000000E+00  0.20375496244E+04  0.20375496244E+04  0.50400001928E-02 0. -1.
       -1   -1    0    0    0  501  0.00000000000E+00  0.00000000000E+00 -0.11359894889E+04  0.11359894889E+04  0.50400001928E-02 0.  1.
    10030    2    1    2    0    0  0.00000000000E+00  0.00000000000E+00  0.90156013556E+03  0.31735391133E+04  0.30427848799E+04 0.  0.
        3    1    3    3  502    0  0.71290314727E+03  0.96920403868E+03  0.14219474128E+04  0.18626652466E+04  0.10100000352E+00 0. -1.
       -3    1    3    3    0  502 -0.71290314727E+03 -0.96920403868E+03 -0.52038727720E+03  0.13108738667E+04  0.10100000352E+00 0.  1.
</event>
<event>
 5   0  0.1885307E-06  0.3051246E+04  0.7818609E-02  0.8229247E-01
        1   -1    0    0  501    0  0.00000000000E+00  0.00000000000E+00  0.14472134273E+04  0.14472134273E+04  0.50400001928E-02 0.  1.
       -1   -1    0    0    0  501  0.00000000000E+00  0.00000000000E+00 -0.16082806890E+04  0.16082806890E+04  0.50400001928E-02 0. -1.
    10030    2    1    2    0    0  0.00000000000E+00  0.00000000000E+00 -0.16106726172E+03  0.30554941162E+04  0.30512459146E+04 0.  0.
        3    1    3    3  502    0  0.80164034640E+03  0.12965568034E+04 -0.14257639480E+03  0.15310175793E+04  0.10100000352E+00 0. -1.
       -3    1    3    3    0  502 -0.80164034640E+03 -0.12965568034E+04 -0.18490866922E+02  0.15244765370E+04  0.10100000352E+00 0.  1.
</event>
<event>
 5   0  0.1843709E-06  0.3106548E+04  0.7818609E-02  0.8213943E-01
        1   -1    0    0  501    0  0.00000000000E+00  0.00000000000E+00  0.17674141012E+04  0.17674141012E+04  0.50400001928E-02 0.  1.
       -1   -1    0    0    0  501  0.00000000000E+00  0.00000000000E+00 -0.13650787204E+04  0.13650787204E+04  0.50400001928E-02 0. -1.
    10030    2    1    2    0    0  0.00000000000E+00  0.00000000000E+00  0.40233538078E+03  0.31324928216E+04  0.31065475240E+04 0.  0.
        4    1    3    3  502    0  0.15490966522E+04 -0.31587616447E+02  0.31144077633E+03  0.15804098157E+04  0.12699999809E+01 0.  1.
       -4    1    3    3    0  502 -0.15490966522E+04  0.31587616447E+02  0.90894604449E+02  0.15520830060E+04  0.12699999809E+01 0. -1.
</event>
<event>
 5   0  0.1885307E-06  0.2248398E+04  0.7818609E-02  0.8498550E-01
       -1   -1    0    0    0  501  0.00000000000E+00  0.00000000000E+00  0.82008325021E+03  0.82008325023E+03  0.50400001928E-02 0. -1.
        1   -1    0    0  501    0  0.00000000000E+00  0.00000000000E+00 -0.15410915665E+04  0.15410915665E+04  0.50400001928E-02 0.  1.
    10030    2    1    2    0    0  0.00000000000E+00  0.00000000000E+00 -0.72100831630E+03  0.23611748167E+04  0.22483979904E+04 0.  0.
        3    1    3    3  502    0  0.10187203317E+03 -0.21034334074E+03 -0.15152973846E+04  0.15332150554E+04  0.10100000352E+00 0.  1.
       -3    1    3    3    0  502 -0.10187203317E+03  0.21034334074E+03  0.79428906832E+03  0.82795976133E+03  0.10100000352E+00 0. -1.
</event>
<event>
 5   0  0.1840431E-06  0.2929198E+04  0.7818609E-02  0.8264243E-01
       -1   -1    0    0    0  501  0.00000000000E+00  0.00000000000E+00  0.96038718035E+03  0.96038718036E+03  0.50400001928E-02 0. -1.
        1   -1    0    0  501    0  0.00000000000E+00  0.00000000000E+00 -0.22335264403E+04  0.22335264403E+04  0.50400001928E-02 0.  1.
    10030    2    1    2    0    0  0.00000000000E+00  0.00000000000E+00 -0.12731392600E+04  0.31939136207E+04  0.29291979518E+04 0.  0.
        1    1    3    3  502    0  0.99616548351E+03 -0.65658281884E+03  0.28967085088E+03  0.12277442203E+04  0.50400001928E-02 0.  1.
       -1    1    3    3    0  502 -0.99616548351E+03  0.65658281884E+03 -0.15628101108E+04  0.19661694004E+04  0.50400001928E-02 0. -1.
</event>
<event>
 5   0  0.1853742E-06  0.3134967E+04  0.7818609E-02  0.8206206E-01
       -1   -1    0    0    0  501  0.00000000000E+00  0.00000000000E+00  0.22484098632E+04  0.22484098632E+04  0.50400001928E-02 0. -1.
        1   -1    0    0  501    0  0.00000000000E+00  0.00000000000E+00 -0.10927745362E+04  0.10927745362E+04  0.50400001928E-02 0.  1.
    10030    2    1    2    0    0  0.00000000000E+00  0.00000000000E+00  0.11556353269E+04  0.33411843994E+04  0.31349673335E+04 0.  0.
        5    1    3    3  502    0 -0.10879274909E+04 -0.18646042161E+03  0.17639635016E+04  0.20808515178E+04  0.46999998093E+01 0. -1.
       -5    1    3    3    0  502  0.10879274909E+04  0.18646042161E+03 -0.60832817468E+03  0.12603328816E+04  0.46999998093E+01 0.  1.
</event>
<event>
 5   0  0.5001658E-06  0.3097598E+04  0.7818609E-02  0.8216397E-01
       -2   -1    0    0    0  501  0.00000000000E+00  0.00000000000E+00  0.10777221826E+04  0.10777221826E+04  0.25500000920E-02 0. -1.
        2   -1    0    0  501    0  0.00000000000E+00  0.00000000000E+00 -0.22257858858E+04  0.22257858858E+04  0.25500000920E-02 0.  1.
    10030    2    1    2    0    0  0.00000000000E+00  0.00000000000E+00 -0.11480637031E+04  0.33035080684E+04  0.30975983102E+04 0.  0.
        3    1    3    3  502    0  0.49175956834E+03  0.42009061486E+03 -0.20748738666E+04  0.21733396353E+04  0.10100000352E+00 0.  1.
       -3    1    3    3    0  502 -0.49175956834E+03 -0.42009061486E+03  0.92681016350E+03  0.11301684331E+04  0.10100000352E+00 0. -1.
</event>
<event>
 5   0  0.5114870E-06  0.2918679E+04  0.7818609E-02  0.8267342E-01
       -2   -1    0    0    0  501  0.00000000000E+00  0.00000000000E+00  0.10205338110E+04  0.10205338110E+04  0.25500000920E-02 0.  1.
        2   -1    0    0  501    0  0.00000000000E+00  0.00000000000E+00 -0.20868208813E+04  0.20868208813E+04  0.25500000920E-02 0. -1.
    10030    2    1    2    0    0  0.00000000000E+00  0.00000000000E+00 -0.10662870704E+04  0.31073546923E+04  0.29186786509E+04 0.  0.
        2    1    3    3  502    0  0.64056233998E+03 -0.88953894542E+03  0.49249727684E+03  0.12017292601E+04  0.25500000920E-02 0.  1.
       -2    1    3    3    0  502 -0.64056233998E+03  0.88953894542E+03 -0.15587843472E+04  0.19056254322E+04  0.25500000920E-02 0. -1.
</event>
<event>
 5   0  0.1853742E-06  0.3103805E+04  0.7818609E-02  0.8214694E-01
       -1   -1    0    0    0  501  0.00000000000E+00  0.00000000000E+00  0.15401078700E+04  0.15401078700E+04  0.50400001928E-02 0. -1.
        1   -1    0    0  501    0  0.00000000000E+00  0.00000000000E+00 -0.15637878700E+04  0.15637878700E+04  0.50400001928E-02 0.  1.
    10030    2    1    2    0    0  0.00000000000E+00  0.00000000000E+00 -0.23680000059E+02  0.31038957400E+04  0.31038054099E+04 0.  0.
        5    1    3    3  502    0  0.34423868412E+03 -0.35882223716E+03  0.14582797361E+04  0.15407321468E+04  0.46999998093E+01 0. -1.
       -5    1    3    3    0  502 -0.34423868412E+03  0.35882223716E+03 -0.14819597361E+04  0.15631635932E+04  0.46999998093E+01 0.  1.
</event>
<event>
 5   0  0.5001658E-06  0.3216475E+04  0.7818609E-02  0.8184480E-01
       -2   -1    0    0    0  501  0.00000000000E+00  0.00000000000E+00  0.22206027003E+04  0.22206027004E+04  0.25500000920E-02 0. -1.
        2   -1    0    0  501    0  0.00000000000E+00  0.00000000000E+00 -0.11647416706E+04  0.11647416706E+04  0.25500000920E-02 0.  1.
    10030    2    1    2    0    0  0.00000000000E+00  0.00000000000E+00  0.10558610298E+04  0.33853443709E+04  0.32164753995E+04 0.  0.
        3    1    3    3  502    0 -0.12579923480E+04 -0.99044646885E+03  0.36865979753E+03  0.16429969604E+04  0.10100000352E+00 0.  1.
       -3    1    3    3    0  502  0.12579923480E+04  0.99044646885E+03  0.68720123224E+03  0.17423474106E+04  0.10100000352E+00 0. -1.
</event>
<event>
 5   0  0.5328368E-06  0.3108100E+04  0.7818609E-02  0.8213518E-01
       -2   -1    0    0    0  501  0.00000000000E+00  0.00000000000E+00  0.11562809257E+04  0.11562809257E+04  0.25500000920E-02 0.  1.
        2   -1    0    0  501    0  0.00000000000E+00  0.00000000000E+00 -0.20886549626E+04  0.20886549626E+04  0.25500000920E-02 0. -1.
    10030    2    1    2    0    0  0.00000000000E+00  0.00000000000E+00 -0.93237403696E+03  0.32449358883E+04  0.31081003160E+04 0.  0.
        1    1    3    3  502    0  0.95262519392E+03 -0.10539957816E+03 -0.17433455812E+04  0.19894365149E+04  0.50400001928E-02 0. -1.
       -1    1    3    3    0  502 -0.95262519392E+03  0.10539957816E+03  0.81097154424E+03  0.12554993735E+04  0.50400001928E-02 0.  1.
</event>
<event>
 5   0  0.4900679E-06  0.3094295E+04  0.7818609E-02  0.8217305E-01
       -2   -1    0    0    0  501  0.00000000000E+00  0.00000000000E+00  0.15172374350E+04  0.15172374350E+04  0.25500000920E-02 0. -1.
        2   -1    0    0  501    0  0.00000000000E+00  0.00000000000E+00 -0.15776469710E+04  0.15776469710E+04  0.25500000920E-02 0.  1.
    10030    2    1    2    0    0  0.00000000000E+00  0.00000000000E+00 -0.60409536011E+02  0.30948844060E+04  0.30942947782E+04 0.  0.
        4    1    3    3  502    0 -0.11939633542E+04  0.51530674245E+03  0.80815176803E+03  0.15310781898E+04  0.12699999809E+01 0. -1.
       -4    1    3    3    0  502  0.11939633542E+04 -0.51530674245E+03 -0.86856130405E+03  0.15638062162E+04  0.12699999809E+01 0.  1.
</event>
<event>
 5   0  0.5114870E-06  0.3124178E+04  0.7818609E-02  0.8209134E-01
       -2   -1    0    0    0  501  0.00000000000E+00  0.00000000000E+00  0.10984067117E+04  0.10984067117E+04  0.25500000920E-02 0.  1.
        2   -1    0    0  501    0  0.00000000000E+00  0.00000000000E+00 -0.22215107951E+04  0.22215107951E+04  0.25500000920E-02 0. -1.
    10030    2    1    2    0    0  0.00000000000E+00  0.00000000000E+00 -0.11231040834E+04  0.33199175068E+04  0.31241782071E+04 0.  0.
        2    1    3    3  502    0  0.13285416456E+04  0.57161761483E+03 -0.11887449301E+04  0.18721335718E+04  0.25500000920E-02 0. -1.
       -2    1    3    3    0  502 -0.13285416456E+04 -0.57161761483E+03  0.65640846725E+02  0.14477839350E+04  0.25500000920E-02 0.  1.
</event>
<event>
 5   0  0.1853742E-06  0.3079862E+04  0.7818609E-02  0.8221286E-01
        1   -1    0    0  501    0  0.00000000000E+00  0.00000000000E+00  0.17192629881E+04  0.17192629881E+04  0.50400001928E-02 0. -1.
       -1   -1    0    0    0  501  0.00000000000E+00  0.00000000000E+00 -0.13793046827E+04  0.13793046827E+04  0.50400001928E-02 0.  1.
    10030    2    1    2    0    0  0.00000000000E+00  0.00000000000E+00  0.33995830541E+03  0.30985676708E+04  0.30798620036E+04 0.  0.
        5    1    3    3  502    0  0.88923194095E+02  0.14836511509E+04  0.57521244690E+03  0.15937438694E+04  0.46999998093E+01 0. -1.
       -5    1    3    3    0  502 -0.88923194095E+02 -0.14836511509E+04 -0.23525414149E+03  0.15048238014E+04  0.46999998093E+01 0.  1.
</event>
<event>
 5   0  0.5114870E-06  0.3103307E+04  0.7818609E-02  0.8214831E-01
       -2   -1    0    0    0  501  0.00000000000E+00  0.00000000000E+00  0.10696577119E+04  0.10696577119E+04  0.25500000920E-02 0.  1.
        2   -1    0    0  501    0  0.00000000000E+00  0.00000000000E+00 -0.22508401069E+04  0.22508401069E+04  0.25500000920E-02 0. -1.
    10030    2    1    2    0    0  0.00000000000E+00  0.00000000000E+00 -0.11811823950E+04  0.33204978188E+04  0.31033069320E+04 0.  0.
        2    1    3    3  502    0 -0.39751308652E+03 -0.74090961041E+02  0.10122914734E+04  0.10900642879E+04  0.25500000920E-02 0.  1.
       -2    1    3    3    0  502  0.39751308652E+03  0.74090961041E+02 -0.21934738684E+04  0.22304335309E+04  0.25500000920E-02 0. -1.
</event>
<event>
 5   0  0.1853742E-06  0.3100736E+04  0.7818609E-02  0.8215536E-01
        1   -1    0    0  501    0  0.00000000000E+00  0.00000000000E+00  0.22811189110E+04  0.22811189110E+04  0.50400001928E-02 0.  1.
       -1   -1    0    0    0  501  0.00000000000E+00  0.00000000000E+00 -0.10537111731E+04  0.10537111731E+04  0.50400001928E-02 0. -1.
    10030    2    1    2    0    0  0.00000000000E+00  0.00000000000E+00  0.12274077379E+04  0.33348300841E+04  0.31007357086E+04 0.  0.
        5    1    3    3  502    0  0.66564450358E+03 -0.87787733361E+03 -0.55945871109E+03  0.12356242784E+04  0.46999998093E+01 0. -1.
       -5    1    3    3    0  502 -0.66564450358E+03  0.87787733361E+03  0.17868664490E+04  0.20992058056E+04  0.46999998093E+01 0.  1.
</event>
<event>
 5   0  0.1843709E-06  0.3125964E+04  0.7818609E-02  0.8208648E-01
        1   -1    0    0  501    0  0.00000000000E+00  0.00000000000E+00  0.18459862040E+04  0.18459862040E+04  0.50400001928E-02 0.  1.
       -1   -1    0    0    0  501  0.00000000000E+00  0.00000000000E+00 -0.13233645402E+04  0.13233645402E+04  0.50400001928E-02 0. -1.
    10030    2    1    2    0    0  0.00000000000E+00  0.00000000000E+00  0.52262166378E+03  0.31693507442E+04  0.31259639691E+04 0.  0.
        4    1    3    3  502    0  0.15558576092E+04 -0.14879877177E+03  0.27021316053E+03  0.15861433541E+04  0.12699999809E+01 0. -1.
       -4    1    3    3    0  502 -0.15558576092E+04  0.14879877177E+03  0.25240850325E+03  0.15832073901E+04  0.12699999809E+01 0.  1.
</event>
<event>
 5   0  0.1836401E-06  0.3002454E+04  0.7818609E-02  0.8243031E-01
       -1   -1    0    0    0  501  0.00000000000E+00  0.00000000000E+00  0.21661157082E+04  0.21661157082E+04  0.50400001928E-02 0.  1.
        1   -1    0    0  501    0  0.00000000000E+00  0.00000000000E+00 -0.10404256042E+04  0.10404256042E+04  0.50400001928E-02 0. -1.
    10030    2    1    2    0    0  0.00000000000E+00  0.00000000000E+00  0.11256901041E+04  0.32065413124E+04  0.30024538261E+04 0.  0.
        2    1    3    3  502    0  0.84180377248E+03  0.99218782432E+03 -0.23678974987E+03  0.13225504360E+04  0.25500000920E-02 0. -1.
       -2    1    3    3    0  502 -0.84180377248E+03 -0.99218782432E+03  0.13624798539E+04  0.18839908764E+04  0.25500000920E-02 0.  1.
</event>
<event>
 5   0  0.1843709E-06  0.3085364E+04  0.7818609E-02  0.8219766E-01
       -1   -1    0    0    0  501  0.00000000000E+00  0.00000000000E+00  0.10297256675E+04  0.10297256675E+04  0.50400001928E-02 0.  1.
        1   -1    0    0  501    0  0.00000000000E+00  0.00000000000E+00 -0.23111671128E+04  0.23111671129E+04  0.50400001928E-02 0. -1.
    10030    2    1    2    0    0  0.00000000000E+00  0.00000000000E+00 -0.12814414453E+04  0.33408927804E+04  0.30853642236E+04 0.  0.
        4    1    3    3  502    0  0.42039485113E+03 -0.31424900642E+03 -0.22115117440E+04  0.22729430427E+04  0.12699999809E+01 0. -1.
       -4    1    3    3    0  502 -0.42039485113E+03  0.31424900642E+03  0.93007029861E+03  0.10679497377E+04  0.12699999809E+01 0.  1.
</event>
<event>
 5   0  0.5328368E-06  0.2864399E+04  0.7818609E-02  0.8283549E-01
       -2   -1    0    0    0  501  0.00000000000E+00  0.00000000000E+00  0.90049923695E+03  0.90049923695E+03  0.25500000920E-02 0. -1.
        2   -1    0    0  501    0  0.00000000000E+00  0.00000000000E+00 -0.22778431189E+04  0.22778431189E+04  0.25500000920E-02 0.  1.
    10030    2    1    2    0    0  0.00000000000E+00  0.00000000000E+00 -0.13773438819E+04  0.31783423558E+04  0.28643994068E+04 0.  0.
        1    1    3    3  502    0  0.38227666569E+03 -0.82650951556E+03 -0.19152423877E+04  0.21207090399E+04  0.50400001928E-02 0.  1.
       -1    1    3    3    0  502 -0.38227666569E+03  0.82650951556E+03  0.53789850573E+03  0.10576333159E+04  0.50400001928E-02 0. -1.
</event>
<event>
 5   0  0.4900679E-06  0.3133325E+04  0.7818609E-02  0.8206651E-01
        2   -1    0    0  501    0  0.00000000000E+00  0.00000000000E+00  0.18712225852E+04  0.18712225852E+04  0.25500000920E-02 0.  1.
       -2   -1    0    0    0  501  0.00000000000E+00  0.00000000000E+00 -0.13116724889E+04  0.13116724889E+04  0.25500000920E-02 0. -1.
    10030    2    1    2    0    0  0.00000000000E+00  0.00000000000E+00  0.55955009639E+03  0.31828950741E+04  0.31333248702E+04 0.  0.
        4    1    3    3  502    0 -0.12254888246E+03  0.12542838781E+04  0.12251885465E+04  0.17576503812E+04  0.12699999809E+01 0.  1.
       -4    1    3    3    0  502  0.12254888246E+03 -0.12542838781E+04 -0.66563845009E+03  0.14252446929E+04  0.12699999809E+01 0. -1.
</event>
<event>
 5   0  0.1885307E-06  0.3142070E+04  0.7818609E-02  0.8204286E-01
        1   -1    0    0  501    0  0.00000000000E+00  0.00000000000E+00  0.25052179044E+04  0.25052179044E+04  0.50400001928E-02 0.  1.
       -1   -1    0    0    0  501  0.00000000000E+00  0.00000000000E+00 -0.98520436877E+03  0.98520436879E+03  0.50400001928E-02 0. -1.
    10030    2    1    2    0    0  0.00000000000E+00  0.00000000000E+00  0.15200135356E+04  0.34904222732E+04  0.31420704156E+04 0.  0.
        3    1    3    3  502    0 -0.13371469992E+04  0.81970050896E+03  0.86109317365E+03  0.17892323733E+04  0.10100000352E+00 0.  1.
       -3    1    3    3    0  502  0.13371469992E+04 -0.81970050896E+03  0.65892036199E+03  0.17011898999E+04  0.10100000352E+00 0. -1.
</event>
<event>
 5   0  0.5001658E-06  0.3519543E+04  0.7818609E-02  0.8109174E-01
        2   -1    0    0  501    0  0.00000000000E+00  0.00000000000E+00  0.18279014425E+04  0.18279014425E+04  0.25500000920E-02 0. -1.
       -2   -1    0    0    0  501  0.00000000000E+00  0.00000000000E+00 -0.16941813316E+04  0.16941813316E+04  0.25500000920E-02 0.  1.
    10030    2    1    2    0    0  0.00000000000E+00  0.00000000000E+00  0.13372011093E+03  0.35220827741E+04  0.35195434362E+04 0.  0.
        3    1    3    3  502    0  0.15055023685E+04 -0.89511358406E+03  0.23736719879E+03  0.17675148959E+04  0.10100000352E+00 0.  1.
       -3    1    3    3    0  502 -0.15055023685E+04  0.89511358406E+03 -0.10364708786E+03  0.17545678782E+04  0.10100000352E+00 0. -1.
</event>
<event>
 5   0  0.1885307E-06  0.3084823E+04  0.7818609E-02  0.8219916E-01
       -1   -1    0    0    0  501  0.00000000000E+00  0.00000000000E+00  0.12647369366E+04  0.12647369366E+04  0.50400001928E-02 0. -1.
        1   -1    0    0  501    0  0.00000000000E+00  0.00000000000E+00 -0.18810494543E+04  0.18810494543E+04  0.50400001928E-02 0.  1.
    10030    2    1    2    0    0  0.00000000000E+00  0.00000000000E+00 -0.61631251769E+03  0.31457863910E+04  0.30848226688E+04 0.  0.
        3    1    3    3  502    0 -0.93566123199E+03  0.11627910870E+04 -0.70506225132E+03  0.16506537619E+04  0.10100000352E+00 0.  1.
       -3    1    3    3    0  502  0.93566123199E+03 -0.11627910870E+04  0.88749733625E+02  0.14951326291E+04  0.10100000352E+00 0. -1.
</event>
<event>
 5   0  0.1836401E-06  0.2715201E+04  0.7818609E-02  0.8330090E-01
       -1   -1    0    0    0  501  0.00000000000E+00  0.00000000000E+00  0.10172268009E+04  0.10172268009E+04  0.50400001928E-02 0. -1.
        1   -1    0    0  501    0  0.00000000000E+00  0.00000000000E+00 -0.18118663000E+04  0.18118663000E+04  0.50400001928E-02 0.  1.
    10030    2    1    2    0    0  0.00000000000E+00  0.00000000000E+00 -0.79463949912E+03  0.28290931010E+04  0.27152008840E+04 0.  0.
        2    1    3    3  502    0 -0.13392435411E+04  0.20324207882E+03 -0.30297697683E+03  0.13880474248E+04  0.25500000920E-02 0. -1.
       -2    1    3    3    0  502  0.13392435411E+04 -0.20324207882E+03 -0.49166252228E+03  0.14410456762E+04  0.25500000920E-02 0.  1.
</event>
<event>
 5   0  0.5114870E-06  0.3089080E+04  0.7818609E-02  0.8218741E-01
       -2   -1    0    0    0  501  0.00000000000E+00  0.00000000000E+00  0.30646130862E+04  0.30646130862E+04  0.25500000920E-02 0. -1.
        2   -1    0    0  501    0  0.00000000000E+00  0.00000000000E+00 -0.77843545857E+03  0.77843545858E+03  0.25500000920E-02 0.  1.
    10030    2    1    2    0    0  0.00000000000E+00  0.00000000000E+00  0.22861776277E+04  0.38430485448E+04  0.30890797938E+04 0.  0.
        2    1    3    3  502    0 -0.91578964297E+02 -0.12046503628E+03  0.30553688469E+04  0.30591138132E+04  0.25500000920E-02 0. -1.
       -2    1    3    3    0  502  0.91578964297E+02  0.12046503628E+03 -0.76919121922E+03  0.78393473160E+03  0.25500000920E-02 0.  1.
</event>
<event>
 5   0  0.1649875E-06  0.3107665E+04  0.7818609E-02  0.8213637E-01
        3   -1    0    0  501    0  0.00000000000E+00  0.00000000000E+00  0.10890255920E+04  0.10890255967E+04  0.10100000352E+00 0. -1.
       -3   -1    0    0    0  501  0.00000000000E+00  0.00000000000E+00 -0.22170235308E+04  0.22170235331E+04  0.10100000352E+00 0.  1.
    10030    2    1    2    0    0  0.00000000000E+00  0.00000000000E+00 -0.11279979389E+04  0.33060491298E+04  0.31076649592E+04 0.  0.
        3    1    3    3  502    0  0.26110282390E+03  0.94046818415E+03  0.72220610528E+03  0.12141815180E+04  0.10100000352E+00 0. -1.
       -3    1    3    3    0  502 -0.26110282390E+03 -0.94046818415E+03 -0.18502040441E+04  0.20918676118E+04  0.10100000352E+00 0.  1.
</event>
<event>
 5   0  0.1840431E-06  0.3060837E+04  0.7818609E-02  0.8226569E-01
        1   -1    0    0  501    0  0.00000000000E+00  0.00000000000E+00  0.24858018543E+04  0.24858018543E+04  0.50400001928E-02 0. -1.
       -1   -1    0    0    0  501  0.00000000000E+00  0.00000000000E+00 -0.94222317223E+03  0.94222317224E+03  0.50400001928E-02 0.  1.
    10030    2    1    2    0    0  0.00000000000E+00  0.00000000000E+00  0.15435786821E+04  0.34280250266E+04  0.30608365580E+04 0.  0.
        1    1    3    3  502    0  0.28903062432E+03  0.14635401750E+04  0.38920818730E+03  0.15417430262E+04  0.50400001928E-02 0.  1.
       -1    1    3    3    0  502 -0.28903062432E+03 -0.14635401750E+04  0.11543704948E+04  0.18862820004E+04  0.50400001928E-02 0. -1.
</event>
<event>
 5   0  0.4900679E-06  0.3086795E+04  0.7818609E-02  0.8219371E-01
        2   -1    0    0  501    0  0.00000000000E+00  0.00000000000E+00  0.16559941030E+04  0.16559941030E+04  0.25500000920E-02 0.  1.
       -2   -1    0    0    0  501  0.00000000000E+00  0.00000000000E+00 -0.14384570011E+04  0.14384570011E+04  0.25500000920E-02 0. -1.
    10030    2    1    2    0    0  0.00000000000E+00  0.00000000000E+00  0.21753710193E+03  0.30944511042E+04  0.30867953034E+04 0.  0.
        4    1    3    3  502    0 -0.18801605882E+03 -0.12401797259E+04 -0.79272754804E+03  0.14838511951E+04  0.12699999809E+01 0. -1.
       -4    1    3    3    0  502  0.18801605882E+03  0.12401797259E+04  0.10102646500E+04  0.16105999090E+04  0.12699999809E+01 0.  1.
</event>
<event>
 5   0  0.1840431E-06  0.3093143E+04  0.7818609E-02  0.8217622E-01
       -1   -1    0    0    0  501  0.00000000000E+00  0.00000000000E+00  0.29128206416E+04  0.29128206416E+04  0.50400001928E-02 0. -1.
        1   -1    0    0  501    0  0.00000000000E+00  0.00000000000E+00 -0.82115689596E+03  0.82115689598E+03  0.50400001928E-02 0.  1.
    10030    2    1    2    0    0  0.00000000000E+00  0.00000000000E+00  0.20916637457E+04  0.37339775376E+04  0.30931425810E+04 0.  0.
        1    1    3    3  502    0 -0.10529022759E+04  0.10773906752E+03 -0.31548519565E+03  0.11044192220E+04  0.50400001928E-02 0.  1.
       -1    1    3    3    0  502  0.10529022759E+04 -0.10773906752E+03  0.24071489413E+04  0.26295583156E+04  0.50400001928E-02 0. -1.
</event>
<event>
 5   0  0.4900679E-06  0.3098882E+04  0.7818609E-02  0.8216045E-01
       -2   -1    0    0    0  501  0.00000000000E+00  0.00000000000E+00  0.20551639994E+04  0.20551639994E+04  0.25500000920E-02 0.  1.
        2   -1    0    0  501    0  0.00000000000E+00  0.00000000000E+00 -0.11681637024E+04  0.11681637024E+04  0.25500000920E-02 0. -1.
    10030    2    1    2    0    0  0.00000000000E+00  0.00000000000E+00  0.88700029699E+03  0.32233277017E+04  0.30988823704E+04 0.  0.
        4    1    3    3  502    0 -0.55011519687E+03 -0.98277594948E+03 -0.66332345403E+03  0.13070864219E+04  0.12699999809E+01 0. -1.
       -4    1    3    3    0  502  0.55011519687E+03  0.98277594948E+03  0.15503237510E+04  0.19162412798E+04  0.12699999809E+01 0.  1.
</event>
<event>
 5   0  0.4927533E-06  0.2974511E+04  0.7818609E-02  0.8251047E-01
       -2   -1    0    0    0  501  0.00000000000E+00  0.00000000000E+00  0.13026363415E+04  0.13026363415E+04  0.25500000920E-02 0.  1.
        2   -1    0    0  501    0  0.00000000000E+00  0.00000000000E+00 -0.16980405581E+04  0.16980405581E+04  0.25500000920E-02 0. -1.
    10030    2    1    2    0    0  0.00000000000E+00  0.00000000000E+00 -0.39540421662E+03  0.30006768996E+04  0.29745112810E+04 0.  0.
        5    1    3    3  502    0  0.66382951659E+02  0.78989860211E+03 -0.14671678324E+04  0.16676180727E+04  0.46999998093E+01 0. -1.
       -5    1    3    3    0  502 -0.66382951659E+02 -0.78989860211E+03  0.10717636158E+04  0.13330588269E+04  0.46999998093E+01 0.  1.
</event>
<event>
 5   0  0.1843709E-06  0.3043866E+04  0.7818609E-02  0.8231314E-01
        1   -1    0    0  501    0  0.00000000000E+00  0.00000000000E+00  0.13310122427E+04  0.13310122427E+04  0.50400001928E-02 0. -1.
       -1   -1    0    0    0  501  0.00000000000E+00  0.00000000000E+00 -0.17402399881E+04  0.17402399881E+04  0.50400001928E-02 0.  1.
    10030    2    1    2    0    0  0.00000000000E+00  0.00000000000E+00 -0.40922774538E+03  0.30712522308E+04  0.30438664421E+04 0.  0.
        4    1    3    3  502    0 -0.51223966549E+03  0.56862738663E+03 -0.15319541910E+04  0.17124870324E+04  0.12699999809E+01 0.  1.
       -4    1    3    3    0  502  0.51223966549E+03 -0.56862738663E+03  0.11227264456E+04  0.13587651984E+04  0.12699999809E+01 0. -1.
</event>
<event>
 5   0  0.4927533E-06  0.3131017E+04  0.7818609E-02  0.8207277E-01
       -2   -1    0    0    0  501  0.00000000000E+00  0.00000000000E+00  0.11425188450E+04  0.11425188450E+04  0.25500000920E-02 0.  1.
        2   -1    0    0  501    0  0.00000000000E+00  0.00000000000E+00 -0.21450996529E+04  0.21450996529E+04  0.25500000920E-02 0. -1.
    10030    2    1    2    0    0  0.00000000000E+00  0.00000000000E+00 -0.10025808079E+04  0.32876184978E+04  0.31310169452E+04 0.  0.
        5    1    3    3  502    0  0.10630978184E+03  0.10349673204E+04  0.72697524098E+03  0.12692415905E+04  0.46999998093E+01 0.  1.
       -5    1    3    3    0  502 -0.10630978184E+03 -0.10349673204E+04 -0.17295560489E+04  0.20183769074E+04  0.46999998093E+01 0. -1.
</event>
<event>
 5   0  0.1836401E-06  0.3103188E+04  0.7818609E-02  0.8214863E-01
        1   -1    0    0  501    0  0.00000000000E+00  0.00000000000E+00  0.13313447835E+04  0.13313447835E+04  0.50400001928E-02 0.  1.
       -1   -1    0    0    0  501  0.00000000000E+00  0.00000000000E+00 -0.18082802124E+04  0.18082802124E+04  0.50400001928E-02 0. -1.
    10030    2    1    2    0    0  0.00000000000E+00  0.00000000000E+00 -0.47693542892E+03  0.31396249960E+04  0.31031883140E+04 0.  0.
        2    1    3    3  502    0 -0.34071357151E+03  0.27147507909E+03 -0.17451341925E+04  0.17986878012E+04  0.25500000920E-02 0. -1.
       -2    1    3    3    0  502  0.34071357151E+03 -0.27147507909E+03  0.12681987636E+04  0.13409371948E+04  0.25500000920E-02 0.  1.
</event>
<event>
 5   0  0.5114870E-06  0.3079630E+04  0.7818609E-02  0.8221350E-01
        2   -1    0    0  501    0  0.00000000000E+00  0.00000000000E+00  0.92423474545E+03  0.92423474545E+03  0.25500000920E-02 0. -1.
       -2   -1    0    0    0  501  0.00000000000E+00  0.00000000000E+00 -0.25653990872E+04  0.25653990872E+04  0.25500000920E-02 0.  1.
    10030    2    1    2    0    0  0.00000000000E+00  0.00000000000E+00 -0.16411643418E+04  0.34896338327E+04  0.30796304794E+04 0.  0.
        2    1    3    3  502    0 -0.72828632316E+03  0.12255524554E+04 -0.16116910507E+03  0.14346969261E+04  0.25500000920E-02 0. -1.
       -2    1    3    3    0  502  0.72828632316E+03 -0.12255524554E+04 -0.14799952367E+04  0.20549369066E+04  0.25500000920E-02 0.  1.
</event>
<event>
 5   0  0.1853742E-06  0.3066802E+04  0.7818609E-02  0.8224908E-01
        1   -1    0    0  501    0  0.00000000000E+00  0.00000000000E+00  0.15381789874E+04  0.15381789874E+04  0.50400001928E-02 0.  1.
       -1   -1    0    0    0  501  0.00000000000E+00  0.00000000000E+00 -0.15286380363E+04  0.15286380363E+04  0.50400001928E-02 0. -1.
    10030    2    1    2    0    0  0.00000000000E+00  0.00000000000E+00  0.95409511480E+01  0.30668170237E+04  0.30668021826E+04 0.  0.
        5    1    3    3  502    0  0.14926802097E+04  0.34847525482E+03 -0.37272625671E+02  0.15332777146E+04  0.46999998093E+01 0. -1.
       -5    1    3    3    0  502 -0.14926802097E+04 -0.34847525482E+03  0.46813576819E+02  0.15335393091E+04  0.46999998093E+01 0.  1.
</event>
</LesHouchesEvents>
