<LesHouchesEvents version="3.0">
<header>
<!--
#*********************************************************************
#                                                                    *
#                        MadGraph5_aMC@NLO                           *
#                                                                    *
#                           Going Beyond                             *
#                                                                    *
#                   http://madgraph.hep.uiuc.edu                     *
#                   http://madgraph.phys.ucl.ac.be                   *
#                   http://amcatnlo.cern.ch                          *
#                                                                    *
#                     The MadGraph5_aMC@NLO team                     *
#                                                                    *
#....................................................................*
#                                                                    *
# This file contains all the information necessary to reproduce      *
# the events generated:                                              *
#                                                                    *
# 1. software version                                                *
# 2. proc_card          : code generation info including model       *
# 3. param_card         : model primary parameters in the LH format  *
# 4. run_card           : running parameters (collider and cuts)     *
# 5. pythia_card        : present only if pythia has been run        *
# 6. pgs_card           : present only if pgs has been run           *
# 7. delphes_cards      : present only if delphes has been run       *
#                                                                    *
#                                                                    *
#*********************************************************************
-->
<MGVersion>
#5.2.2.3
</MGVersion>
<MG5ProcCard>
#************************************************************
#*                     MadGraph5_aMC@NLO                    *
#*                                                          *
#*                *                       *                 *
#*                  *        * *        *                   *
#*                    * * * * 5 * * * *                     *
#*                  *        * *        *                   *
#*                *                       *                 *
#*                                                          *
#*                                                          *
#*         VERSION 2.2.3                 2015-02-10         *
#*                                                          *
#*    The MadGraph5_aMC@NLO Development Team - Find us at   *
#*    https://server06.fynu.ucl.ac.be/projects/madgraph     *
#*                                                          *
#************************************************************
#*                                                          *
#*               Command File for MadGraph5_aMC@NLO         *
#*                                                          *
#*     run as ./bin/mg5_aMC  filename                       *
#*                                                          *
#************************************************************
set group_subprocesses Auto
set ignore_six_quark_processes False
set loop_optimized_output True
set gauge unitary
set complex_mass_scheme False
import model sm
define p = g u c d s u~ c~ d~ s~
define j = g u c d s u~ c~ d~ s~
define l+ = e+ mu+
define l- = e- mu-
define vl = ve vm vt
define vl~ = ve~ vm~ vt~
import model Zprime_UFO
generate p p > zph, zph > j j
add process p p > zph, zph > b b~
output Dijet_signal
</MG5ProcCard>
<MGProcCard>
#*********************************************************************
#                        MadGraph/MadEvent                           *
#                   http://madgraph.hep.uiuc.edu                     *
#                                                                    *
#                          proc_card.dat                             *
#*********************************************************************
#                                                                    *
#            This Files is generated by MADGRAPH 5                   *
#                                                                    *
# WARNING: This Files is generated for MADEVENT (compatibility issue)*
#          This files is NOT a valid MG4 proc_card.dat               *
#          Running this in MG4 will NEVER reproduce the result of MG5*
#                                                                    *
#*********************************************************************
#*********************************************************************
# Process(es) requested : mg2 input                                  *
#*********************************************************************
# Begin PROCESS # This is TAG. Do not modify this line
p p > zph , zph > j j           #Process
# Be carefull the coupling are here in MG5 convention
          
end_coup           # End the couplings input

done               # this tells MG there are no more procs
# End PROCESS  # This is TAG. Do not modify this line
#*********************************************************************
# Model information                                                  *
#*********************************************************************
# Begin MODEL  # This is TAG. Do not modify this line
Zprime_UFO
# End   MODEL  # This is TAG. Do not modify this line
#*********************************************************************
# Start multiparticle definitions                                    *
#*********************************************************************
# Begin MULTIPARTICLES # This is TAG. Do not modify this line

# End  MULTIPARTICLES # This is TAG. Do not modify this line
</MGProcCard>
<MGRunCard>
#*********************************************************************
#                       MadGraph5_aMC@NLO                            *
#                                                                    *
#                     run_card.dat MadEvent                          *
#                                                                    *
#  This file is used to set the parameters of the run.               *
#                                                                    *
#  Some notation/conventions:                                        *
#                                                                    *
#   Lines starting with a '# ' are info or comments                  *
#                                                                    *
#   mind the format:   value    = variable     ! comment             *
#*********************************************************************
#
#*******************                                                 
# Running parameters
#*******************                                                 
#                                                                    
#*********************************************************************
# Tag name for the run (one word)                                    *
#*********************************************************************
  tag_1     = run_tag ! name of the run 
#*********************************************************************
# Run to generate the grid pack                                      *
#*********************************************************************
  .false.     = gridpack  !True = setting up the grid pack
#*********************************************************************
# Number of events and rnd seed                                      *
# Warning: Do not generate more than 1M events in a single run       *
# If you want to run Pythia, avoid more than 50k events in a run.    *
#*********************************************************************
  2000 = nevents ! Number of unweighted events requested 
 1191 = iseed   ! rnd seed (0=assigned automatically=default))
#*********************************************************************
# Collider type and energy                                           *
# lpp: 0=No PDF, 1=proton, -1=antiproton, 2=photon from proton,      *
#                                         3=photon from electron     *
#*********************************************************************
        1     = lpp1    ! beam 1 type 
        1     = lpp2    ! beam 2 type
     4000     = ebeam1  ! beam 1 total energy in GeV
     4000     = ebeam2  ! beam 2 total energy in GeV
#*********************************************************************
# Beam polarization from -100 (left-handed) to 100 (right-handed)    *
#*********************************************************************
        0     = polbeam1 ! beam polarization for beam 1
        0     = polbeam2 ! beam polarization for beam 2
#*********************************************************************
# PDF CHOICE: this automatically fixes also alpha_s and its evol.    *
#*********************************************************************
 'nn23lo1'    = pdlabel     ! PDF set                                     
 230000    = lhaid     ! if pdlabel=lhapdf, this is the lhapdf number
#*********************************************************************
# Renormalization and factorization scales                           *
#*********************************************************************
 F        = fixed_ren_scale  ! if .true. use fixed ren scale
 F        = fixed_fac_scale  ! if .true. use fixed fac scale
 91.1880  = scale            ! fixed ren scale
 91.1880  = dsqrt_q2fact1    ! fixed fact scale for pdf1
 91.1880  = dsqrt_q2fact2    ! fixed fact scale for pdf2
 1        = scalefact        ! scale factor for event-by-event scales
#*********************************************************************
# Matching - Warning! ickkw > 1 is still beta
#*********************************************************************
 0        = ickkw            ! 0 no matching, 1 MLM, 2 CKKW matching
 1        = highestmult      ! for ickkw=2, highest mult group
 1        = ktscheme         ! for ickkw=1, 1 Durham kT, 2 Pythia pTE
 1        = alpsfact         ! scale factor for QCD emission vx
 F        = chcluster        ! cluster only according to channel diag
 T        = pdfwgt           ! for ickkw=1, perform pdf reweighting
 5        = asrwgtflavor     ! highest quark flavor for a_s reweight
 T        = clusinfo         ! include clustering tag in output
 3.0      = lhe_version       ! Change the way clustering information pass to shower.        
#*********************************************************************
#**********************************************************
#
#**********************************************************
# Automatic ptj and mjj cuts if xqcut > 0
# (turn off for VBF and single top processes)
#**********************************************************
   T  = auto_ptj_mjj  ! Automatic setting of ptj and mjj
#**********************************************************
#                                                                    
#**********************************
# BW cutoff (M+/-bwcutoff*Gamma)
#**********************************
  15  = bwcutoff      ! (M+/-bwcutoff*Gamma)
#**********************************************************
# Apply pt/E/eta/dr/mij cuts on decay products or not
# (note that etmiss/ptll/ptheavy/ht/sorted cuts always apply)
#**********************************************************
   T  = cut_decays    ! Cut decay products 
#*************************************************************
# Number of helicities to sum per event (0 = all helicities)
# 0 gives more stable result, but longer run time (needed for
# long decay chains e.g.).
# Use >=2 if most helicities contribute, e.g. pure QCD.
#*************************************************************
   0  = nhel          ! Number of helicities used per event
#*******************                                                 
# Standard Cuts
#*******************                                                 
#                                                                    
#*********************************************************************
# Minimum and maximum pt's (for max, -1 means no cut)                *
#*********************************************************************
 20  = ptj       ! minimum pt for the jets 
  0  = ptb       ! minimum pt for the b 
 10  = pta       ! minimum pt for the photons 
 10  = ptl       ! minimum pt for the charged leptons 
  0  = misset    ! minimum missing Et (sum of neutrino's momenta)
  0  = ptheavy   ! minimum pt for one heavy final state
 1.0 = ptonium   ! minimum pt for the quarkonium states
 -1  = ptjmax    ! maximum pt for the jets
 -1  = ptbmax    ! maximum pt for the b
 -1  = ptamax    ! maximum pt for the photons
 -1  = ptlmax    ! maximum pt for the charged leptons
 -1  = missetmax ! maximum missing Et (sum of neutrino's momenta)
#*********************************************************************
# Minimum and maximum E's (in the center of mass frame)              *
#*********************************************************************
  0  = ej     ! minimum E for the jets 
  0  = eb     ! minimum E for the b 
  0  = ea     ! minimum E for the photons 
  0  = el     ! minimum E for the charged leptons 
 -1   = ejmax ! maximum E for the jets
 -1   = ebmax ! maximum E for the b
 -1   = eamax ! maximum E for the photons
 -1   = elmax ! maximum E for the charged leptons
#*********************************************************************
# Maximum and minimum absolute rapidity (for max, -1 means no cut)   *
#*********************************************************************
   5  = etaj    ! max rap for the jets 
  -1  = etab    ! max rap for the b
 2.5  = etaa    ! max rap for the photons 
 2.5  = etal    ! max rap for the charged leptons 
 0.6  = etaonium ! max rap for the quarkonium states
   0  = etajmin ! min rap for the jets
   0  = etabmin ! min rap for the b
   0  = etaamin ! min rap for the photons
   0  = etalmin ! main rap for the charged leptons
#*********************************************************************
# Minimum and maximum DeltaR distance                                *
#*********************************************************************
 0.4 = drjj    ! min distance between jets 
 0   = drbb    ! min distance between b's 
 0.4 = drll    ! min distance between leptons 
 0.4 = draa    ! min distance between gammas 
 0   = drbj    ! min distance between b and jet 
 0.4 = draj    ! min distance between gamma and jet 
 0.4 = drjl    ! min distance between jet and lepton 
 0   = drab    ! min distance between gamma and b 
 0   = drbl    ! min distance between b and lepton 
 0.4 = dral    ! min distance between gamma and lepton 
 -1  = drjjmax ! max distance between jets
 -1  = drbbmax ! max distance between b's
 -1  = drllmax ! max distance between leptons
 -1  = draamax ! max distance between gammas
 -1  = drbjmax ! max distance between b and jet
 -1  = drajmax ! max distance between gamma and jet
 -1  = drjlmax ! max distance between jet and lepton
 -1  = drabmax ! max distance between gamma and b
 -1  = drblmax ! max distance between b and lepton
 -1  = dralmax ! maxdistance between gamma and lepton
#*********************************************************************
# Minimum and maximum invariant mass for pairs                       *
# WARNING: for four lepton final state mmll cut require to have      *
#          different lepton masses for each flavor!                  *           
#*********************************************************************
 0   = mmjj    ! min invariant mass of a jet pair 
 0   = mmbb    ! min invariant mass of a b pair 
 0   = mmaa    ! min invariant mass of gamma gamma pair
 0   = mmll    ! min invariant mass of l+l- (same flavour) lepton pair
 -1  = mmjjmax ! max invariant mass of a jet pair
 -1  = mmbbmax ! max invariant mass of a b pair
 -1  = mmaamax ! max invariant mass of gamma gamma pair
 -1  = mmllmax ! max invariant mass of l+l- (same flavour) lepton pair
#*********************************************************************
# Minimum and maximum invariant mass for all letpons                 *
#*********************************************************************
 0   = mmnl    ! min invariant mass for all letpons (l+- and vl) 
 -1  = mmnlmax ! max invariant mass for all letpons (l+- and vl) 
#*********************************************************************
# Minimum and maximum pt for 4-momenta sum of leptons                *
#*********************************************************************
 0   = ptllmin  ! Minimum pt for 4-momenta sum of leptons(l and vl)
 -1  = ptllmax  ! Maximum pt for 4-momenta sum of leptons(l and vl)
#*********************************************************************
# Inclusive cuts                                                     *
#*********************************************************************
 0  = xptj ! minimum pt for at least one jet  
 0  = xptb ! minimum pt for at least one b 
 0  = xpta ! minimum pt for at least one photon 
 0  = xptl ! minimum pt for at least one charged lepton 
#*********************************************************************
# Control the pt's of the jets sorted by pt                          *
#*********************************************************************
 0   = ptj1min ! minimum pt for the leading jet in pt
 0   = ptj2min ! minimum pt for the second jet in pt
 0   = ptj3min ! minimum pt for the third jet in pt
 0   = ptj4min ! minimum pt for the fourth jet in pt
 -1  = ptj1max ! maximum pt for the leading jet in pt 
 -1  = ptj2max ! maximum pt for the second jet in pt
 -1  = ptj3max ! maximum pt for the third jet in pt
 -1  = ptj4max ! maximum pt for the fourth jet in pt
 0   = cutuse  ! reject event if fails any (0) / all (1) jet pt cuts
#*********************************************************************
# Control the pt's of leptons sorted by pt                           *
#*********************************************************************
 0   = ptl1min ! minimum pt for the leading lepton in pt
 0   = ptl2min ! minimum pt for the second lepton in pt
 0   = ptl3min ! minimum pt for the third lepton in pt
 0   = ptl4min ! minimum pt for the fourth lepton in pt
 -1  = ptl1max ! maximum pt for the leading lepton in pt 
 -1  = ptl2max ! maximum pt for the second lepton in pt
 -1  = ptl3max ! maximum pt for the third lepton in pt
 -1  = ptl4max ! maximum pt for the fourth lepton in pt
#*********************************************************************
# Control the Ht(k)=Sum of k leading jets                            *
#*********************************************************************
 0   = htjmin ! minimum jet HT=Sum(jet pt)
 -1  = htjmax ! maximum jet HT=Sum(jet pt)
 0   = ihtmin  !inclusive Ht for all partons (including b)
 -1  = ihtmax  !inclusive Ht for all partons (including b)
 0   = ht2min ! minimum Ht for the two leading jets
 0   = ht3min ! minimum Ht for the three leading jets
 0   = ht4min ! minimum Ht for the four leading jets
 -1  = ht2max ! maximum Ht for the two leading jets
 -1  = ht3max ! maximum Ht for the three leading jets
 -1  = ht4max ! maximum Ht for the four leading jets
#***********************************************************************
# Photon-isolation cuts, according to hep-ph/9801442                   *
# When ptgmin=0, all the other parameters are ignored                  *
# When ptgmin>0, pta and draj are not going to be used                 *
#***********************************************************************
   0 = ptgmin ! Min photon transverse momentum
 0.4 = R0gamma ! Radius of isolation code
 1.0 = xn ! n parameter of eq.(3.4) in hep-ph/9801442
 1.0 = epsgamma ! epsilon_gamma parameter of eq.(3.4) in hep-ph/9801442
 .true. = isoEM ! isolate photons from EM energy (photons and leptons)
#*********************************************************************
# WBF cuts                                                           *
#*********************************************************************
 0   = xetamin ! minimum rapidity for two jets in the WBF case  
 0   = deltaeta ! minimum rapidity for two jets in the WBF case 
#*********************************************************************
# KT DURHAM CUT                                                      *
#*********************************************************************
 -1    =  ktdurham        
 0.4  =  dparameter 
#*********************************************************************
# maximal pdg code for quark to be considered as a light jet         *
# (otherwise b cuts are applied)                                     *
#*********************************************************************
 4 = maxjetflavor    ! Maximum jet pdg code
#*********************************************************************
# Jet measure cuts                                                   *
#*********************************************************************
 0   = xqcut   ! minimum kt jet measure between partons
#*********************************************************************
#
#*********************************************************************
# Store info for systematics studies                                 *
# WARNING: If use_syst is T, matched Pythia output is                *
#          meaningful ONLY if plotted taking matchscale              *
#          reweighting into account!                                 *
#*********************************************************************
   F  = use_syst      ! Enable systematics studies
#
#**************************************
# Parameter of the systematics study
#  will be used by SysCalc (if installed)
#**************************************                                  
#
0.5 1 2 = sys_scalefact  # factorization/renormalization scale factor
0.5 1 2 = sys_alpsfact  # \alpha_s emission scale factors
30 50 = sys_matchscale # variation of merging scale
# PDF sets and number of members (0 or none for all members).
CT10nlo.LHgrid = sys_pdf # matching scales
# MSTW2008nlo68cl.LHgrid 1  = sys_pdf
</MGRunCard>
<slha>
######################################################################
## PARAM_CARD AUTOMATICALY GENERATED BY MG5 FOLLOWING UFO MODEL   ####
######################################################################
##                                                                  ##
##  Width set on Auto will be computed following the information    ##
##        present in the decay.py files of the model.               ##
##        See  arXiv:1402.1178 for more details.                    ##
##                                                                  ##
######################################################################

###################################
## INFORMATION FOR CKMBLOCK
###################################
Block ckmblock 
    1 2.277360e-01 # cabi 

###################################
## INFORMATION FOR FRBLOCK
###################################
Block frblock 
    1 6.000000e-01 # gz 

###################################
## INFORMATION FOR MASS
###################################
Block mass 
    1 5.040000e-03 # MD 
    2 2.550000e-03 # MU 
    3 1.010000e-01 # MS 
    4 1.270000e+00 # MC 
    5 4.700000e+00 # MB 
    6 1.720000e+02 # MT 
   11 5.110000e-04 # Me 
   13 1.056600e-01 # MM 
   15 1.777000e+00 # MTA 
   23 9.118760e+01 # MZ 
   25 1.200000e+02 # MH 
  10030 1.000000e+03 # MZph 
  10031 3.000000e+02 # MZpl 
## Dependent parameters, given by model restrictions.
## Those values should be edited following the 
## analytical expression. MG5 ignores those values 
## but they are important for interfacing the output of MG5
## to external program such as Pythia.
  12 0.000000 # ve : 0.0 
  14 0.000000 # vm : 0.0 
  16 0.000000 # vt : 0.0 
  21 0.000000 # g : 0.0 
  22 0.000000 # a : 0.0 
  24 79.824360 # w+ : cmath.sqrt(MZ__exp__2/2. + cmath.sqrt(MZ__exp__4/4. - (aEW*cmath.pi*MZ__exp__2)/(Gf*sqrt__2))) 

###################################
## INFORMATION FOR SMINPUTS
###################################
Block sminputs 
    1 1.279000e+02 # aEWM1 
    2 1.166370e-05 # Gf 
    3 1.184000e-01 # aS 

###################################
## INFORMATION FOR YUKAWA
###################################
Block yukawa 
    1 5.040000e-03 # ymdo 
    2 2.550000e-03 # ymup 
    3 1.010000e-01 # yms 
    4 1.270000e+00 # ymc 
    5 4.700000e+00 # ymb 
    6 1.720000e+02 # ymt 
   11 5.110000e-04 # yme 
   13 1.056600e-01 # ymm 
   15 1.777000e+00 # ymtau 

###################################
## INFORMATION FOR DECAY
###################################
DECAY   6 1.508336e+00 # WT 
DECAY  23 2.495200e+00 # WZ 
DECAY  24 2.085000e+00 # WW 
DECAY  25 5.753088e-03 # WH 
## Dependent parameters, given by model restrictions.
## Those values should be edited following the 
## analytical expression. MG5 ignores those values 
## but they are important for interfacing the output of MG5
## to external program such as Pythia.
DECAY  1 0.000000 # d : 0.0 
DECAY  2 0.000000 # u : 0.0 
DECAY  3 0.000000 # s : 0.0 
DECAY  4 0.000000 # c : 0.0 
DECAY  5 0.000000 # b : 0.0 
DECAY  11 0.000000 # e- : 0.0 
DECAY  12 0.000000 # ve : 0.0 
DECAY  13 0.000000 # mu- : 0.0 
DECAY  14 0.000000 # vm : 0.0 
DECAY  15 0.000000 # ta- : 0.0 
DECAY  16 0.000000 # vt : 0.0 
DECAY  21 0.000000 # g : 0.0 
DECAY  22 0.000000 # a : 0.0 
DECAY  10030 0.308725 # zph : (gz__exp__2*MZph*(5 + cmath.sqrt(1 - (4*MT__exp__2)/MZph__exp__2)))/(144.*cmath.pi) 
DECAY  10031 0.132629 # zpl : (5*gz__exp__2*MZpl)/(144.*cmath.pi) 
#===========================================================
# QUANTUM NUMBERS OF NEW STATE(S) (NON SM PDG CODE)
#===========================================================

Block QNUMBERS 10030  # zph 
        1 0  # 3 times electric charge
        2 3  # number of spin states (2S+1)
        3 1  # colour rep (1: singlet, 3: triplet, 8: octet)
        4 0  # Particle/Antiparticle distinction (0=own anti)
Block QNUMBERS 10031  # zpl 
        1 0  # 3 times electric charge
        2 3  # number of spin states (2S+1)
        3 1  # colour rep (1: singlet, 3: triplet, 8: octet)
        4 0  # Particle/Antiparticle distinction (0=own anti)
</slha>
## END BANNER##
<MGGenerationInfo>
#  Number of Events        :         4049
#  Integrated weight (pb)  :  0.69441E+00
#  Max wgt                 :  0.22848E-03
#  Average wgt             :  0.17150E-03
</MGGenerationInfo>
</header>
<init>
     2212     2212  0.40000000000E+04  0.40000000000E+04 0 0  247000  247000 2   1
  0.69458646150E+00  0.16118094844E-02  0.22848430000E-03   0
</init>
<event>
 5   0  0.2204862E-03  0.1000205E+04  0.7818609E-02  0.9308320E-01
        2   -1    0    0  501    0  0.00000000000E+00  0.00000000000E+00  0.99823637262E+03  0.99823637262E+03  0.25500000920E-02 0.  1.
       -2   -1    0    0    0  501  0.00000000000E+00  0.00000000000E+00 -0.25054435834E+03  0.25054435835E+03  0.25500000920E-02 0. -1.
    10030    2    1    2    0    0  0.00000000000E+00  0.00000000000E+00  0.74769201428E+03  0.12487807310E+04  0.10002049619E+04 0.  0.
        1    1    3    3  502    0  0.33208908485E+03 -0.26996677231E+03  0.69686733034E+03  0.81779538673E+03  0.50400001928E-02 0.  1.
       -1    1    3    3    0  502 -0.33208908485E+03  0.26996677231E+03  0.50824683939E+02  0.43098534424E+03  0.50400001928E-02 0. -1.
</event>
<event>
 5   0  0.2204862E-03  0.9931687E+03  0.7818609E-02  0.9316069E-01
        2   -1    0    0  501    0  0.00000000000E+00  0.00000000000E+00  0.15424411045E+04  0.15424411045E+04  0.25500000920E-02 0.  1.
       -2   -1    0    0    0  501  0.00000000000E+00  0.00000000000E+00 -0.15987384820E+03  0.15987384822E+03  0.25500000920E-02 0. -1.
    10030    2    1    2    0    0  0.00000000000E+00  0.00000000000E+00  0.13825672563E+04  0.17023149527E+04  0.99316865642E+03 0.  0.
        1    1    3    3  502    0  0.22681833338E+03  0.22547694121E+03  0.13424088248E+04  0.13799811087E+04  0.50400001928E-02 0. -1.
       -1    1    3    3    0  502 -0.22681833338E+03 -0.22547694121E+03  0.40158431502E+02  0.32233384405E+03  0.50400001928E-02 0.  1.
</event>
<event>
 5   0  0.2277570E-03  0.1010412E+04  0.7818609E-02  0.9297199E-01
        2   -1    0    0  501    0  0.00000000000E+00  0.00000000000E+00  0.25457081459E+03  0.25457081460E+03  0.25500000920E-02 0.  1.
       -2   -1    0    0    0  501  0.00000000000E+00  0.00000000000E+00 -0.10026008775E+04  0.10026008775E+04  0.25500000920E-02 0. -1.
    10030    2    1    2    0    0  0.00000000000E+00  0.00000000000E+00 -0.74803006291E+03  0.12571716921E+04  0.10104116431E+04 0.  0.
        3    1    3    3  502    0 -0.98889424278E+02  0.48580385813E+03 -0.25307348875E+03  0.55662438656E+03  0.10100000352E+00 0. -1.
       -3    1    3    3    0  502  0.98889424278E+02 -0.48580385813E+03 -0.49495657416E+03  0.70054730555E+03  0.10100000352E+00 0.  1.
</event>
<event>
 5   0  0.2204862E-03  0.9999147E+03  0.7818609E-02  0.9308638E-01
        2   -1    0    0  501    0  0.00000000000E+00  0.00000000000E+00  0.11732932761E+04  0.11732932761E+04  0.25500000920E-02 0. -1.
       -2   -1    0    0    0  501  0.00000000000E+00  0.00000000000E+00 -0.21303911615E+03  0.21303911616E+03  0.25500000920E-02 0.  1.
    10030    2    1    2    0    0  0.00000000000E+00  0.00000000000E+00  0.96025415995E+03  0.13863323923E+04  0.99991472143E+03 0.  0.
        1    1    3    3  502    0 -0.32460455886E+03 -0.35923777242E+03  0.65294727881E+03  0.81287148166E+03  0.50400001928E-02 0. -1.
       -1    1    3    3    0  502  0.32460455886E+03  0.35923777242E+03  0.30730688114E+03  0.57346091060E+03  0.50400001928E-02 0.  1.
</event>
<event>
 5   0  0.2277570E-03  0.1000170E+04  0.7818609E-02  0.9308358E-01
        2   -1    0    0  501    0  0.00000000000E+00  0.00000000000E+00  0.20611407912E+04  0.20611407912E+04  0.25500000920E-02 0. -1.
       -2   -1    0    0    0  501  0.00000000000E+00  0.00000000000E+00 -0.12133333552E+03  0.12133333555E+03  0.25500000920E-02 0.  1.
    10030    2    1    2    0    0  0.00000000000E+00  0.00000000000E+00  0.19398074557E+04  0.21824741267E+04  0.10001701599E+04 0.  0.
        3    1    3    3  502    0  0.28409233080E+03  0.21743878430E+03  0.17323824112E+04  0.17689366597E+04  0.10100000352E+00 0. -1.
       -3    1    3    3    0  502 -0.28409233080E+03 -0.21743878430E+03  0.20742504446E+03  0.41353746699E+03  0.10100000352E+00 0.  1.
</event>
<event>
 5   0  0.1353789E-03  0.9889737E+03  0.7818609E-02  0.9320722E-01
        1   -1    0    0  501    0  0.00000000000E+00  0.00000000000E+00  0.69676545269E+03  0.69676545271E+03  0.50400001928E-02 0. -1.
       -1   -1    0    0    0  501  0.00000000000E+00  0.00000000000E+00 -0.35093192137E+03  0.35093192141E+03  0.50400001928E-02 0.  1.
    10030    2    1    2    0    0  0.00000000000E+00  0.00000000000E+00  0.34583353132E+03  0.10476973741E+04  0.98897368840E+03 0.  0.
        1    1    3    3  502    0 -0.44851703638E+03 -0.13348563011E+03  0.36438289864E+01  0.46797352798E+03  0.50400001928E-02 0.  1.
       -1    1    3    3    0  502  0.44851703638E+03  0.13348563011E+03  0.34218970233E+03  0.57972384614E+03  0.50400001928E-02 0. -1.
</event>
<event>
 5   0  0.1293716E-03  0.9952127E+03  0.7818609E-02  0.9313811E-01
       -1   -1    0    0    0  501  0.00000000000E+00  0.00000000000E+00  0.13664774105E+04  0.13664774105E+04  0.50400001928E-02 0.  1.
        1   -1    0    0  501    0  0.00000000000E+00  0.00000000000E+00 -0.18120467888E+03  0.18120467895E+03  0.50400001928E-02 0. -1.
    10030    2    1    2    0    0  0.00000000000E+00  0.00000000000E+00  0.11852727316E+04  0.15476820894E+04  0.99521274193E+03 0.  0.
        3    1    3    3  502    0 -0.26259094751E+03  0.42247083328E+03  0.57197718949E+03  0.75801947612E+03  0.10100000352E+00 0.  1.
       -3    1    3    3    0  502  0.26259094751E+03 -0.42247083328E+03  0.61329554209E+03  0.78966261329E+03  0.10100000352E+00 0. -1.
</event>
<event>
 5   0  0.2204862E-03  0.1053619E+04  0.7818609E-02  0.9251615E-01
       -2   -1    0    0    0  501  0.00000000000E+00  0.00000000000E+00  0.37021753176E+03  0.37021753177E+03  0.25500000920E-02 0. -1.
        2   -1    0    0  501    0  0.00000000000E+00  0.00000000000E+00 -0.74963606530E+03  0.74963606531E+03  0.25500000920E-02 0.  1.
    10030    2    1    2    0    0  0.00000000000E+00  0.00000000000E+00 -0.37941853354E+03  0.11198535971E+04  0.10536193123E+04 0.  0.
        1    1    3    3  502    0  0.44452029692E+03 -0.12545047531E+03 -0.45899849853E+03  0.65116490831E+03  0.50400001928E-02 0.  1.
       -1    1    3    3    0  502 -0.44452029692E+03  0.12545047531E+03  0.79579964990E+02  0.46868868877E+03  0.50400001928E-02 0. -1.
</event>
<event>
 5   0  0.1249195E-03  0.1008273E+04  0.7818609E-02  0.9299517E-01
       -1   -1    0    0    0  501  0.00000000000E+00  0.00000000000E+00  0.10610001852E+03  0.10610001864E+03  0.50400001928E-02 0.  1.
        1   -1    0    0  501    0  0.00000000000E+00  0.00000000000E+00 -0.23954156238E+04  0.23954156238E+04  0.50400001928E-02 0. -1.
    10030    2    1    2    0    0  0.00000000000E+00  0.00000000000E+00 -0.22893156052E+04  0.25015156424E+04  0.10082730626E+04 0.  0.
        2    1    3    3  502    0  0.12161925415E+03 -0.46984576266E+03 -0.14830866861E+04  0.15604782607E+04  0.25500000920E-02 0. -1.
       -2    1    3    3    0  502 -0.12161925415E+03  0.46984576266E+03 -0.80622891910E+03  0.94103738166E+03  0.25500000920E-02 0.  1.
</event>
<event>
 5   0  0.2204862E-03  0.9973446E+03  0.7818609E-02  0.9311462E-01
        2   -1    0    0  501    0  0.00000000000E+00  0.00000000000E+00  0.67663745094E+03  0.67663745094E+03  0.25500000920E-02 0.  1.
       -2   -1    0    0    0  501  0.00000000000E+00  0.00000000000E+00 -0.36751446767E+03  0.36751446768E+03  0.25500000920E-02 0. -1.
    10030    2    1    2    0    0  0.00000000000E+00  0.00000000000E+00  0.30912298327E+03  0.10441519186E+04  0.99734457956E+03 0.  0.
        1    1    3    3  502    0  0.38237899345E+02 -0.34817598095E+03 -0.21704096126E+03  0.41206240977E+03  0.50400001928E-02 0. -1.
       -1    1    3    3    0  502 -0.38237899345E+02  0.34817598095E+03  0.52616394453E+03  0.63208950885E+03  0.50400001928E-02 0.  1.
</event>
<event>
 5   0  0.8680125E-04  0.1007256E+04  0.7818609E-02  0.9300623E-01
        4   -1    0    0  501    0  0.00000000000E+00  0.00000000000E+00  0.32742395610E+03  0.32742641910E+03  0.12699999809E+01 0.  1.
       -4   -1    0    0    0  501  0.00000000000E+00  0.00000000000E+00 -0.77465026882E+03  0.77465130986E+03  0.12699999809E+01 0. -1.
    10030    2    1    2    0    0  0.00000000000E+00  0.00000000000E+00 -0.44722631272E+03  0.11020777290E+04  0.10072556507E+04 0.  0.
        1    1    3    3  502    0 -0.19796364284E+03  0.89520498566E+02  0.27351317855E+03  0.34930356771E+03  0.50400001928E-02 0.  1.
       -1    1    3    3    0  502  0.19796364284E+03 -0.89520498566E+02 -0.72073949127E+03  0.75277416125E+03  0.50400001928E-02 0. -1.
</event>
<event>
 5   0  0.2264577E-03  0.1000047E+04  0.7818609E-02  0.9308494E-01
       -2   -1    0    0    0  501  0.00000000000E+00  0.00000000000E+00  0.13670349046E+03  0.13670349048E+03  0.25500000920E-02 0.  1.
        2   -1    0    0  501    0  0.00000000000E+00  0.00000000000E+00 -0.18289462483E+04  0.18289462483E+04  0.25500000920E-02 0. -1.
    10030    2    1    2    0    0  0.00000000000E+00  0.00000000000E+00 -0.16922427578E+04  0.19656497388E+04  0.10000466710E+04 0.  0.
        5    1    3    3  502    0  0.34689810313E+03  0.56646050425E+01 -0.13843624458E+03  0.37357337368E+03  0.46999998093E+01 0.  1.
       -5    1    3    3    0  502 -0.34689810313E+03 -0.56646050425E+01 -0.15538065132E+04  0.15920763651E+04  0.46999998093E+01 0. -1.
</event>
<event>
 5   0  0.1285769E-03  0.9958739E+03  0.7818609E-02  0.9313082E-01
       -1   -1    0    0    0  501  0.00000000000E+00  0.00000000000E+00  0.21411910390E+03  0.21411910396E+03  0.50400001928E-02 0.  1.
        1   -1    0    0  501    0  0.00000000000E+00  0.00000000000E+00 -0.11579592575E+04  0.11579592575E+04  0.50400001928E-02 0. -1.
    10030    2    1    2    0    0  0.00000000000E+00  0.00000000000E+00 -0.94384015356E+03  0.13720783614E+04  0.99587388481E+03 0.  0.
        5    1    3    3  502    0 -0.40791360697E+03  0.23033684115E+03 -0.70439301484E+03  0.84595518823E+03  0.46999998093E+01 0.  1.
       -5    1    3    3    0  502  0.40791360697E+03 -0.23033684115E+03 -0.23944713872E+03  0.52612317320E+03  0.46999998093E+01 0. -1.
</event>
<event>
 5   0  0.8680125E-04  0.1001738E+04  0.7818609E-02  0.9306640E-01
        3   -1    0    0  501    0  0.00000000000E+00  0.00000000000E+00  0.23505694137E+04  0.23505694159E+04  0.10100000352E+00 0.  1.
       -3   -1    0    0    0  501  0.00000000000E+00  0.00000000000E+00 -0.10672726002E+03  0.10672730781E+03  0.10100000352E+00 0. -1.
    10030    2    1    2    0    0  0.00000000000E+00  0.00000000000E+00  0.22438421537E+04  0.24572967237E+04  0.10017382780E+04 0.  0.
        1    1    3    3  502    0 -0.96634924826E+02  0.31028027000E+03  0.18700425624E+03  0.37494365780E+03  0.50400001928E-02 0. -1.
       -1    1    3    3    0  502  0.96634924826E+02 -0.31028027000E+03  0.20568378974E+04  0.20823530659E+04  0.50400001928E-02 0.  1.
</event>
<event>
 5   0  0.1353789E-03  0.9995893E+03  0.7818609E-02  0.9308995E-01
       -1   -1    0    0    0  501  0.00000000000E+00  0.00000000000E+00  0.25346947786E+03  0.25346947791E+03  0.50400001928E-02 0. -1.
        1   -1    0    0  501    0  0.00000000000E+00  0.00000000000E+00 -0.98550214169E+03  0.98550214170E+03  0.50400001928E-02 0.  1.
    10030    2    1    2    0    0  0.00000000000E+00  0.00000000000E+00 -0.73203266382E+03  0.12389716196E+04  0.99958934233E+03 0.  0.
        1    1    3    3  502    0 -0.38874297494E+03 -0.25345713076E+03 -0.13601636394E+03  0.48359287524E+03  0.50400001928E-02 0. -1.
       -1    1    3    3    0  502  0.38874297494E+03  0.25345713076E+03 -0.59601629988E+03  0.75537874437E+03  0.50400001928E-02 0.  1.
</event>
<event>
 5   0  0.1293716E-03  0.9973754E+03  0.7818609E-02  0.9311428E-01
       -1   -1    0    0    0  501  0.00000000000E+00  0.00000000000E+00  0.26321747761E+03  0.26321747766E+03  0.50400001928E-02 0.  1.
        1   -1    0    0  501    0  0.00000000000E+00  0.00000000000E+00 -0.94480595906E+03  0.94480595907E+03  0.50400001928E-02 0. -1.
    10030    2    1    2    0    0  0.00000000000E+00  0.00000000000E+00 -0.68158848144E+03  0.12080234367E+04  0.99737543867E+03 0.  0.
        3    1    3    3  502    0 -0.47654729615E+03  0.12570604718E+03 -0.24863061482E+03  0.55201134825E+03  0.10100000352E+00 0.  1.
       -3    1    3    3    0  502  0.47654729615E+03 -0.12570604718E+03 -0.43295786662E+03  0.65601208848E+03  0.10100000352E+00 0. -1.
</event>
<event>
 5   0  0.1293716E-03  0.9976033E+03  0.7818609E-02  0.9311177E-01
        1   -1    0    0  501    0  0.00000000000E+00  0.00000000000E+00  0.48807650156E+03  0.48807650158E+03  0.50400001928E-02 0. -1.
       -1   -1    0    0    0  501  0.00000000000E+00  0.00000000000E+00 -0.50976245635E+03  0.50976245638E+03  0.50400001928E-02 0.  1.
    10030    2    1    2    0    0  0.00000000000E+00  0.00000000000E+00 -0.21685954793E+02  0.99783895796E+03  0.99760328056E+03 0.  0.
        3    1    3    3  502    0 -0.33939068441E+03  0.34186677528E+03  0.11858673237E+03  0.49610659338E+03  0.10100000352E+00 0. -1.
       -3    1    3    3    0  502  0.33939068441E+03 -0.34186677528E+03 -0.14027268716E+03  0.50173236458E+03  0.10100000352E+00 0.  1.
</event>
<event>
 5   0  0.2204862E-03  0.1002382E+04  0.7818609E-02  0.9305936E-01
        2   -1    0    0  501    0  0.00000000000E+00  0.00000000000E+00  0.72961886214E+03  0.72961886214E+03  0.25500000920E-02 0. -1.
       -2   -1    0    0    0  501  0.00000000000E+00  0.00000000000E+00 -0.34427929088E+03  0.34427929089E+03  0.25500000920E-02 0.  1.
    10030    2    1    2    0    0  0.00000000000E+00  0.00000000000E+00  0.38533957126E+03  0.10738981530E+04  0.10023824908E+04 0.  0.
        1    1    3    3  502    0  0.71350662888E+02 -0.11933500368E+03 -0.32320391275E+03  0.35184162551E+03  0.50400001928E-02 0.  1.
       -1    1    3    3    0  502 -0.71350662888E+02  0.11933500368E+03  0.70854348401E+03  0.72205652753E+03  0.50400001928E-02 0. -1.
</event>
<event>
 5   0  0.1293575E-03  0.9758659E+03  0.7818609E-02  0.9335418E-01
       -1   -1    0    0    0  501  0.00000000000E+00  0.00000000000E+00  0.16117833881E+03  0.16117833889E+03  0.50400001928E-02 0.  1.
        1   -1    0    0  501    0  0.00000000000E+00  0.00000000000E+00 -0.14771127913E+04  0.14771127913E+04  0.50400001928E-02 0. -1.
    10030    2    1    2    0    0  0.00000000000E+00  0.00000000000E+00 -0.13159344525E+04  0.16382911302E+04  0.97586594574E+03 0.  0.
        4    1    3    3  502    0 -0.47415082289E+03  0.34004361580E+02 -0.84264882937E+03  0.96748848158E+03  0.12699999809E+01 0. -1.
       -4    1    3    3    0  502  0.47415082289E+03 -0.34004361580E+02 -0.47328562313E+03  0.67080264864E+03  0.12699999809E+01 0.  1.
</event>
<event>
 5   0  0.1353789E-03  0.1011394E+04  0.7818609E-02  0.9296136E-01
        1   -1    0    0  501    0  0.00000000000E+00  0.00000000000E+00  0.10564360486E+04  0.10564360487E+04  0.50400001928E-02 0. -1.
       -1   -1    0    0    0  501  0.00000000000E+00  0.00000000000E+00 -0.24206791442E+03  0.24206791448E+03  0.50400001928E-02 0.  1.
    10030    2    1    2    0    0  0.00000000000E+00  0.00000000000E+00  0.81436813422E+03  0.12985039631E+04  0.10113936347E+04 0.  0.
        1    1    3    3  502    0  0.19476125012E+03  0.17049574566E+03 -0.15056883518E+03  0.29945236348E+03  0.50400001928E-02 0.  1.
       -1    1    3    3    0  502 -0.19476125012E+03 -0.17049574566E+03  0.96493696940E+03  0.99905159966E+03  0.50400001928E-02 0. -1.
</event>
<event>
 5   0  0.2284843E-03  0.1001798E+04  0.7818609E-02  0.9306575E-01
       -2   -1    0    0    0  501  0.00000000000E+00  0.00000000000E+00  0.45828597898E+03  0.45828597898E+03  0.25500000920E-02 0. -1.
        2   -1    0    0  501    0  0.00000000000E+00  0.00000000000E+00 -0.54747460098E+03  0.54747460098E+03  0.25500000920E-02 0.  1.
    10030    2    1    2    0    0  0.00000000000E+00  0.00000000000E+00 -0.89188622002E+02  0.10057605800E+04  0.10017982501E+04 0.  0.
        2    1    3    3  502    0 -0.42569725540E+03  0.21168905175E+03  0.11373017667E+03  0.48884042486E+03  0.25500000920E-02 0.  1.
       -2    1    3    3    0  502  0.42569725540E+03 -0.21168905175E+03 -0.20291879867E+03  0.51692015510E+03  0.25500000920E-02 0. -1.
</event>
<event>
 5   0  0.1293716E-03  0.9980388E+03  0.7818609E-02  0.9310698E-01
       -1   -1    0    0    0  501  0.00000000000E+00  0.00000000000E+00  0.39002993215E+03  0.39002993218E+03  0.50400001928E-02 0. -1.
        1   -1    0    0  501    0  0.00000000000E+00  0.00000000000E+00 -0.63846471803E+03  0.63846471805E+03  0.50400001928E-02 0.  1.
    10030    2    1    2    0    0  0.00000000000E+00  0.00000000000E+00 -0.24843478588E+03  0.10284946502E+04  0.99803877817E+03 0.  0.
        3    1    3    3  502    0  0.47018657138E+03  0.54691833963E+02 -0.28700538764E+03  0.55356906646E+03  0.10100000352E+00 0.  1.
       -3    1    3    3    0  502 -0.47018657138E+03 -0.54691833963E+02  0.38570601756E+02  0.47492558378E+03  0.10100000352E+00 0. -1.
</event>
<event>
 5   0  0.8680125E-04  0.9980296E+03  0.7818609E-02  0.9310709E-01
        3   -1    0    0  501    0  0.00000000000E+00  0.00000000000E+00  0.53168751838E+03  0.53168752798E+03  0.10100000352E+00 0.  1.
       -3   -1    0    0    0  501  0.00000000000E+00  0.00000000000E+00 -0.46834982537E+03  0.46834983626E+03  0.10100000352E+00 0. -1.
    10030    2    1    2    0    0  0.00000000000E+00  0.00000000000E+00  0.63337693010E+02  0.10000373642E+04  0.99802959201E+03 0.  0.
        1    1    3    3  502    0  0.78953587153E+02 -0.14539089954E+03  0.50340633479E+03  0.52989632998E+03  0.50400001928E-02 0.  1.
       -1    1    3    3    0  502 -0.78953587153E+02  0.14539089954E+03 -0.44006864178E+03  0.47014103426E+03  0.50400001928E-02 0. -1.
</event>
<event>
 5   0  0.2277570E-03  0.9976150E+03  0.7818609E-02  0.9311165E-01
       -2   -1    0    0    0  501  0.00000000000E+00  0.00000000000E+00  0.41274141379E+03  0.41274141380E+03  0.25500000920E-02 0. -1.
        2   -1    0    0  501    0  0.00000000000E+00  0.00000000000E+00 -0.60282030980E+03  0.60282030980E+03  0.25500000920E-02 0.  1.
    10030    2    1    2    0    0  0.00000000000E+00  0.00000000000E+00 -0.19007889601E+03  0.10155617236E+04  0.99761496968E+03 0.  0.
        3    1    3    3  502    0 -0.25705956168E+03 -0.35680366241E+03 -0.33468992212E+03  0.55263534626E+03  0.10100000352E+00 0.  1.
       -3    1    3    3    0  502  0.25705956168E+03  0.35680366241E+03  0.14461102611E+03  0.46292637734E+03  0.10100000352E+00 0. -1.
</event>
<event>
 5   0  0.1353789E-03  0.9922060E+03  0.7818609E-02  0.9317135E-01
       -1   -1    0    0    0  501  0.00000000000E+00  0.00000000000E+00  0.23583103608E+03  0.23583103614E+03  0.50400001928E-02 0.  1.
        1   -1    0    0  501    0  0.00000000000E+00  0.00000000000E+00 -0.10436208164E+04  0.10436208164E+04  0.50400001928E-02 0. -1.
    10030    2    1    2    0    0  0.00000000000E+00  0.00000000000E+00 -0.80778978027E+03  0.12794518525E+04  0.99220598354E+03 0.  0.
        1    1    3    3  502    0  0.11902811893E+03 -0.35564421512E+03  0.14881122177E+02  0.37532912046E+03  0.50400001928E-02 0.  1.
       -1    1    3    3    0  502 -0.11902811893E+03  0.35564421512E+03 -0.82267090245E+03  0.90412273205E+03  0.50400001928E-02 0. -1.
</event>
<event>
 5   0  0.2284843E-03  0.9951031E+03  0.7818609E-02  0.9313932E-01
       -2   -1    0    0    0  501  0.00000000000E+00  0.00000000000E+00  0.12939402927E+03  0.12939402930E+03  0.25500000920E-02 0.  1.
        2   -1    0    0  501    0  0.00000000000E+00  0.00000000000E+00 -0.19132070062E+04  0.19132070062E+04  0.25500000920E-02 0. -1.
    10030    2    1    2    0    0  0.00000000000E+00  0.00000000000E+00 -0.17838129769E+04  0.20426010355E+04  0.99510313714E+03 0.  0.
        2    1    3    3  502    0  0.41313725162E+03  0.14861005769E+03 -0.13723772852E+04  0.14408978974E+04  0.25500000920E-02 0. -1.
       -2    1    3    3    0  502 -0.41313725162E+03 -0.14861005769E+03 -0.41143569178E+03  0.60170313810E+03  0.25500000920E-02 0.  1.
</event>
<event>
 5   0  0.1249195E-03  0.1000437E+04  0.7818609E-02  0.9308066E-01
        1   -1    0    0  501    0  0.00000000000E+00  0.00000000000E+00  0.43619443920E+03  0.43619443923E+03  0.50400001928E-02 0. -1.
       -1   -1    0    0    0  501  0.00000000000E+00  0.00000000000E+00 -0.57363965973E+03  0.57363965976E+03  0.50400001928E-02 0.  1.
    10030    2    1    2    0    0  0.00000000000E+00  0.00000000000E+00 -0.13744522053E+03  0.10098340990E+04  0.10004367640E+04 0.  0.
        2    1    3    3  502    0  0.23570415412E+03  0.42031624486E+03  0.66687541644E+02  0.48648681604E+03  0.25500000920E-02 0. -1.
       -2    1    3    3    0  502 -0.23570415412E+03 -0.42031624486E+03 -0.20413276218E+03  0.52334728295E+03  0.25500000920E-02 0.  1.
</event>
<event>
 5   0  0.2277570E-03  0.9968380E+03  0.7818609E-02  0.9312020E-01
       -2   -1    0    0    0  501  0.00000000000E+00  0.00000000000E+00  0.37774288988E+03  0.37774288988E+03  0.25500000920E-02 0.  1.
        2   -1    0    0  501    0  0.00000000000E+00  0.00000000000E+00 -0.65764711983E+03  0.65764711984E+03  0.25500000920E-02 0. -1.
    10030    2    1    2    0    0  0.00000000000E+00  0.00000000000E+00 -0.27990422996E+03  0.10353900097E+04  0.99683804817E+03 0.  0.
        3    1    3    3  502    0 -0.37199874592E+03  0.12568577092E+03 -0.45881247786E+03  0.60389475906E+03  0.10100000352E+00 0. -1.
       -3    1    3    3    0  502  0.37199874592E+03 -0.12568577092E+03  0.17890824790E+03  0.43149525067E+03  0.10100000352E+00 0.  1.
</event>
<event>
 5   0  0.2264577E-03  0.1000872E+04  0.7818609E-02  0.9307589E-01
        2   -1    0    0  501    0  0.00000000000E+00  0.00000000000E+00  0.91087983173E+03  0.91087983174E+03  0.25500000920E-02 0.  1.
       -2   -1    0    0    0  501  0.00000000000E+00  0.00000000000E+00 -0.27493889904E+03  0.27493889905E+03  0.25500000920E-02 0. -1.
    10030    2    1    2    0    0  0.00000000000E+00  0.00000000000E+00  0.63594093270E+03  0.11858187308E+04  0.10008722158E+04 0.  0.
        5    1    3    3  502    0  0.41752005555E+03 -0.16942805856E+03  0.60064319655E+02  0.45459726826E+03  0.46999998093E+01 0. -1.
       -5    1    3    3    0  502 -0.41752005555E+03  0.16942805856E+03  0.57587661304E+03  0.73122146253E+03  0.46999998093E+01 0.  1.
</event>
<event>
 5   0  0.1249195E-03  0.9996668E+03  0.7818609E-02  0.9308910E-01
       -1   -1    0    0    0  501  0.00000000000E+00  0.00000000000E+00  0.28212027626E+03  0.28212027630E+03  0.50400001928E-02 0. -1.
        1   -1    0    0  501    0  0.00000000000E+00  0.00000000000E+00 -0.88555639679E+03  0.88555639681E+03  0.50400001928E-02 0.  1.
    10030    2    1    2    0    0  0.00000000000E+00  0.00000000000E+00 -0.60343612054E+03  0.11676766731E+04  0.99966677516E+03 0.  0.
        2    1    3    3  502    0  0.23076662577E+03  0.15693971651E+03 -0.78607839316E+03  0.83414779889E+03  0.25500000920E-02 0.  1.
       -2    1    3    3    0  502 -0.23076662577E+03 -0.15693971651E+03  0.18264227262E+03  0.33352887423E+03  0.25500000920E-02 0. -1.
</event>
<event>
 5   0  0.2277570E-03  0.9969235E+03  0.7818609E-02  0.9311925E-01
       -2   -1    0    0    0  501  0.00000000000E+00  0.00000000000E+00  0.19916506711E+03  0.19916506713E+03  0.25500000920E-02 0. -1.
        2   -1    0    0  501    0  0.00000000000E+00  0.00000000000E+00 -0.12475286246E+04  0.12475286246E+04  0.25500000920E-02 0.  1.
    10030    2    1    2    0    0  0.00000000000E+00  0.00000000000E+00 -0.10483635575E+04  0.14466936918E+04  0.99692351214E+03 0.  0.
        3    1    3    3  502    0 -0.38075957506E+03  0.16539510295E+03 -0.12378118601E+03  0.43319185852E+03  0.10100000352E+00 0. -1.
       -3    1    3    3    0  502  0.38075957506E+03 -0.16539510295E+03 -0.92458237152E+03  0.10135018333E+04  0.10100000352E+00 0.  1.
</event>
<event>
 5   0  0.2204862E-03  0.1004191E+04  0.7818609E-02  0.9303960E-01
       -2   -1    0    0    0  501  0.00000000000E+00  0.00000000000E+00  0.13534080988E+03  0.13534080990E+03  0.25500000920E-02 0. -1.
        2   -1    0    0  501    0  0.00000000000E+00  0.00000000000E+00 -0.18627050907E+04  0.18627050907E+04  0.25500000920E-02 0.  1.
    10030    2    1    2    0    0  0.00000000000E+00  0.00000000000E+00 -0.17273642808E+04  0.19980459006E+04  0.10041912479E+04 0.  0.
        1    1    3    3  502    0 -0.52955027901E+02 -0.18296534560E+03  0.60663362604E+02  0.19990146637E+03  0.50400001928E-02 0. -1.
       -1    1    3    3    0  502  0.52955027901E+02  0.18296534560E+03 -0.17880276434E+04  0.17981444342E+04  0.50400001928E-02 0.  1.
</event>
<event>
 5   0  0.1293716E-03  0.1012502E+04  0.7818609E-02  0.9294938E-01
        1   -1    0    0  501    0  0.00000000000E+00  0.00000000000E+00  0.12452121131E+04  0.12452121131E+04  0.50400001928E-02 0. -1.
       -1   -1    0    0    0  501  0.00000000000E+00  0.00000000000E+00 -0.20582049494E+03  0.20582049501E+03  0.50400001928E-02 0.  1.
    10030    2    1    2    0    0  0.00000000000E+00  0.00000000000E+00  0.10393916181E+04  0.14510326081E+04  0.10125021945E+04 0.  0.
        3    1    3    3  502    0  0.46365475908E+03 -0.65956755910E+02  0.79522744256E+03  0.92288283377E+03  0.10100000352E+00 0.  1.
       -3    1    3    3    0  502 -0.46365475908E+03  0.65956755910E+02  0.24416417555E+03  0.52814977430E+03  0.10100000352E+00 0. -1.
</event>
<event>
 5   0  0.2277570E-03  0.1033159E+04  0.7818609E-02  0.9272906E-01
        2   -1    0    0  501    0  0.00000000000E+00  0.00000000000E+00  0.40143036684E+03  0.40143036685E+03  0.25500000920E-02 0.  1.
       -2   -1    0    0    0  501  0.00000000000E+00  0.00000000000E+00 -0.66475902842E+03  0.66475902842E+03  0.25500000920E-02 0. -1.
    10030    2    1    2    0    0  0.00000000000E+00  0.00000000000E+00 -0.26332866158E+03  0.10661893953E+04  0.10331591565E+04 0.  0.
        3    1    3    3  502    0  0.18507544820E+03 -0.15255215878E+02  0.36579323909E+03  0.41023206493E+03  0.10100000352E+00 0.  1.
       -3    1    3    3    0  502 -0.18507544820E+03  0.15255215878E+02 -0.62912190066E+03  0.65595733034E+03  0.10100000352E+00 0. -1.
</event>
<event>
 5   0  0.1293575E-03  0.9984305E+03  0.7818609E-02  0.9310268E-01
       -1   -1    0    0    0  501  0.00000000000E+00  0.00000000000E+00  0.10851162389E+04  0.10851162389E+04  0.50400001928E-02 0. -1.
        1   -1    0    0  501    0  0.00000000000E+00  0.00000000000E+00 -0.22966742174E+03  0.22966742179E+03  0.50400001928E-02 0.  1.
    10030    2    1    2    0    0  0.00000000000E+00  0.00000000000E+00  0.85544881719E+03  0.13147836607E+04  0.99843046613E+03 0.  0.
        4    1    3    3  502    0  0.35458274230E+03  0.30860472980E+03  0.64905104031E+03  0.80139544934E+03  0.12699999809E+01 0. -1.
       -4    1    3    3    0  502 -0.35458274230E+03 -0.30860472980E+03  0.20639777688E+03  0.51338821139E+03  0.12699999809E+01 0.  1.
</event>
<event>
 5   0  0.1353789E-03  0.1047361E+04  0.7818609E-02  0.9258073E-01
       -1   -1    0    0    0  501  0.00000000000E+00  0.00000000000E+00  0.43586223281E+03  0.43586223283E+03  0.50400001928E-02 0. -1.
        1   -1    0    0  501    0  0.00000000000E+00  0.00000000000E+00 -0.62919229337E+03  0.62919229340E+03  0.50400001928E-02 0.  1.
    10030    2    1    2    0    0  0.00000000000E+00  0.00000000000E+00 -0.19333006057E+03  0.10650545262E+04  0.10473607934E+04 0.  0.
        1    1    3    3  502    0  0.32455027217E+03  0.39161336874E+03  0.30130018303E+02  0.50951126363E+03  0.50400001928E-02 0. -1.
       -1    1    3    3    0  502 -0.32455027217E+03 -0.39161336874E+03 -0.22346007887E+03  0.55554326260E+03  0.50400001928E-02 0.  1.
</event>
<event>
 5   0  0.1293716E-03  0.1002503E+04  0.7818609E-02  0.9305804E-01
        1   -1    0    0  501    0  0.00000000000E+00  0.00000000000E+00  0.11926672164E+04  0.11926672164E+04  0.50400001928E-02 0. -1.
       -1   -1    0    0    0  501  0.00000000000E+00  0.00000000000E+00 -0.21066487658E+03  0.21066487664E+03  0.50400001928E-02 0.  1.
    10030    2    1    2    0    0  0.00000000000E+00  0.00000000000E+00  0.98200233977E+03  0.14033320930E+04  0.10025030513E+04 0.  0.
        3    1    3    3  502    0 -0.19417361066E+03  0.44838577406E+03  0.33449631267E+03  0.59214946326E+03  0.10100000352E+00 0.  1.
       -3    1    3    3    0  502  0.19417361066E+03 -0.44838577406E+03  0.64750602711E+03  0.81118262974E+03  0.10100000352E+00 0. -1.
</event>
<event>
 5   0  0.2255142E-03  0.9996407E+03  0.7818609E-02  0.9308939E-01
       -2   -1    0    0    0  501  0.00000000000E+00  0.00000000000E+00  0.44093505672E+03  0.44093505673E+03  0.25500000920E-02 0. -1.
        2   -1    0    0  501    0  0.00000000000E+00  0.00000000000E+00 -0.56656954506E+03  0.56656954506E+03  0.25500000920E-02 0.  1.
    10030    2    1    2    0    0  0.00000000000E+00  0.00000000000E+00 -0.12563448834E+03  0.10075046018E+04  0.99964068443E+03 0.  0.
        4    1    3    3  502    0  0.10396570541E+03  0.40388469881E+03  0.21482588643E+03  0.46913057054E+03  0.12699999809E+01 0. -1.
       -4    1    3    3    0  502 -0.10396570541E+03 -0.40388469881E+03 -0.34046037477E+03  0.53837403125E+03  0.12699999809E+01 0.  1.
</event>
<event>
 5   0  0.2255142E-03  0.1001596E+04  0.7818609E-02  0.9306796E-01
       -2   -1    0    0    0  501  0.00000000000E+00  0.00000000000E+00  0.28459091872E+03  0.28459091873E+03  0.25500000920E-02 0.  1.
        2   -1    0    0  501    0  0.00000000000E+00  0.00000000000E+00 -0.88126026236E+03  0.88126026237E+03  0.25500000920E-02 0. -1.
    10030    2    1    2    0    0  0.00000000000E+00  0.00000000000E+00 -0.59666934365E+03  0.11658511811E+04  0.10015960617E+04 0.  0.
        4    1    3    3  502    0  0.28061601191E+03  0.28260132629E+03 -0.65175227254E+03  0.76380068959E+03  0.12699999809E+01 0.  1.
       -4    1    3    3    0  502 -0.28061601191E+03 -0.28260132629E+03  0.55082928898E+02  0.40205049150E+03  0.12699999809E+01 0. -1.
</event>
<event>
 5   0  0.8680125E-04  0.9882758E+03  0.7818609E-02  0.9321498E-01
        4   -1    0    0  501    0  0.00000000000E+00  0.00000000000E+00  0.10049449915E+04  0.10049457939E+04  0.12699999809E+01 0. -1.
       -4   -1    0    0    0  501  0.00000000000E+00  0.00000000000E+00 -0.24296821850E+03  0.24297153763E+03  0.12699999809E+01 0.  1.
    10030    2    1    2    0    0  0.00000000000E+00  0.00000000000E+00  0.76197677296E+03  0.12479173316E+04  0.98827580356E+03 0.  0.
        5    1    3    3  502    0  0.46980137153E+03  0.12997959915E+03  0.48312182157E+03  0.68632121442E+03  0.46999998093E+01 0. -1.
       -5    1    3    3    0  502 -0.46980137153E+03 -0.12997959915E+03  0.27885495138E+03  0.56159611715E+03  0.46999998093E+01 0.  1.
</event>
<event>
 5   0  0.1293716E-03  0.1008273E+04  0.7818609E-02  0.9299518E-01
        1   -1    0    0  501    0  0.00000000000E+00  0.00000000000E+00  0.49523001953E+03  0.49523001955E+03  0.50400001928E-02 0. -1.
       -1   -1    0    0    0  501  0.00000000000E+00  0.00000000000E+00 -0.51320300189E+03  0.51320300191E+03  0.50400001928E-02 0.  1.
    10030    2    1    2    0    0  0.00000000000E+00  0.00000000000E+00 -0.17972982360E+02  0.10084330215E+04  0.10082728454E+04 0.  0.
        3    1    3    3  502    0 -0.30574371478E+02  0.14631603148E+03  0.47255686794E+03  0.49563411595E+03  0.10100000352E+00 0. -1.
       -3    1    3    3    0  502  0.30574371478E+02 -0.14631603148E+03 -0.49052985030E+03  0.51279890551E+03  0.10100000352E+00 0.  1.
</event>
<event>
 5   0  0.1285769E-03  0.9893281E+03  0.7818609E-02  0.9320328E-01
        1   -1    0    0  501    0  0.00000000000E+00  0.00000000000E+00  0.42588262718E+03  0.42588262721E+03  0.50400001928E-02 0. -1.
       -1   -1    0    0    0  501  0.00000000000E+00  0.00000000000E+00 -0.57455384553E+03  0.57455384555E+03  0.50400001928E-02 0.  1.
    10030    2    1    2    0    0  0.00000000000E+00  0.00000000000E+00 -0.14867121834E+03  0.10004364728E+04  0.98932805725E+03 0.  0.
        5    1    3    3  502    0 -0.34207672655E+03 -0.35644465464E+03 -0.49542310446E+02  0.49653379461E+03  0.46999998093E+01 0. -1.
       -5    1    3    3    0  502  0.34207672655E+03  0.35644465464E+03 -0.99128907898E+02  0.50390267815E+03  0.46999998093E+01 0.  1.
</event>
<event>
 5   0  0.2284843E-03  0.9965593E+03  0.7818609E-02  0.9312327E-01
        2   -1    0    0  501    0  0.00000000000E+00  0.00000000000E+00  0.54970860088E+03  0.54970860088E+03  0.25500000920E-02 0. -1.
       -2   -1    0    0    0  501  0.00000000000E+00  0.00000000000E+00 -0.45166224419E+03  0.45166224420E+03  0.25500000920E-02 0.  1.
    10030    2    1    2    0    0  0.00000000000E+00  0.00000000000E+00  0.98046356686E+02  0.10013708451E+04  0.99655932152E+03 0.  0.
        2    1    3    3  502    0  0.95083484870E+02  0.24796353551E+03 -0.37462341789E+03  0.45920528010E+03  0.25500000920E-02 0.  1.
       -2    1    3    3    0  502 -0.95083484870E+02 -0.24796353551E+03  0.47266977458E+03  0.54216556497E+03  0.25500000920E-02 0. -1.
</event>
<event>
 5   0  0.2277570E-03  0.1006403E+04  0.7818609E-02  0.9301550E-01
        2   -1    0    0  501    0  0.00000000000E+00  0.00000000000E+00  0.64184196939E+03  0.64184196939E+03  0.25500000920E-02 0. -1.
       -2   -1    0    0    0  501  0.00000000000E+00  0.00000000000E+00 -0.39450798830E+03  0.39450798831E+03  0.25500000920E-02 0.  1.
    10030    2    1    2    0    0  0.00000000000E+00  0.00000000000E+00  0.24733398109E+03  0.10363499577E+04  0.10064030687E+04 0.  0.
        3    1    3    3  502    0 -0.12330840723E+03  0.19620566388E+03  0.58362371997E+03  0.62794767500E+03  0.10100000352E+00 0. -1.
       -3    1    3    3    0  502  0.12330840723E+03 -0.19620566388E+03 -0.33628973888E+03  0.40840228269E+03  0.10100000352E+00 0.  1.
</event>
<event>
 5   0  0.2204862E-03  0.9989887E+03  0.7818609E-02  0.9309655E-01
        2   -1    0    0  501    0  0.00000000000E+00  0.00000000000E+00  0.55171860173E+03  0.55171860174E+03  0.25500000920E-02 0. -1.
       -2   -1    0    0    0  501  0.00000000000E+00  0.00000000000E+00 -0.45221351541E+03  0.45221351542E+03  0.25500000920E-02 0.  1.
    10030    2    1    2    0    0  0.00000000000E+00  0.00000000000E+00  0.99505086320E+02  0.10039321172E+04  0.99898870547E+03 0.  0.
        1    1    3    3  502    0 -0.15160837615E+03 -0.57259169814E+02  0.52456370671E+03  0.54902713473E+03  0.50400001928E-02 0. -1.
       -1    1    3    3    0  502  0.15160837615E+03  0.57259169814E+02 -0.42505862039E+03  0.45490498243E+03  0.50400001928E-02 0.  1.
</event>
<event>
 5   0  0.2284843E-03  0.9976444E+03  0.7818609E-02  0.9311132E-01
        2   -1    0    0  501    0  0.00000000000E+00  0.00000000000E+00  0.79082610477E+03  0.79082610477E+03  0.25500000920E-02 0. -1.
       -2   -1    0    0    0  501  0.00000000000E+00  0.00000000000E+00 -0.31463752426E+03  0.31463752427E+03  0.25500000920E-02 0.  1.
    10030    2    1    2    0    0  0.00000000000E+00  0.00000000000E+00  0.47618858051E+03  0.11054636290E+04  0.99764436094E+03 0.  0.
        2    1    3    3  502    0  0.20652224274E+03 -0.42012509566E+03  0.42895027291E+03  0.63494477664E+03  0.25500000920E-02 0. -1.
       -2    1    3    3    0  502 -0.20652224274E+03  0.42012509566E+03  0.47238307599E+02  0.47051885239E+03  0.25500000920E-02 0.  1.
</event>
<event>
 5   0  0.2277570E-03  0.1000809E+04  0.7818609E-02  0.9307658E-01
       -2   -1    0    0    0  501  0.00000000000E+00  0.00000000000E+00  0.65792147041E+03  0.65792147041E+03  0.25500000920E-02 0. -1.
        2   -1    0    0  501    0  0.00000000000E+00  0.00000000000E+00 -0.38059948748E+03  0.38059948749E+03  0.25500000920E-02 0.  1.
    10030    2    1    2    0    0  0.00000000000E+00  0.00000000000E+00  0.27732198293E+03  0.10385209579E+04  0.10008088218E+04 0.  0.
        3    1    3    3  502    0 -0.46812121284E+03  0.94406472408E+02  0.29380919104E+03  0.56069055894E+03  0.10100000352E+00 0. -1.
       -3    1    3    3    0  502  0.46812121284E+03 -0.94406472408E+02 -0.16487208114E+02  0.47783039896E+03  0.10100000352E+00 0.  1.
</event>
<event>
 5   0  0.1293716E-03  0.9997046E+03  0.7818609E-02  0.9308869E-01
       -1   -1    0    0    0  501  0.00000000000E+00  0.00000000000E+00  0.52875727365E+03  0.52875727367E+03  0.50400001928E-02 0. -1.
        1   -1    0    0  501    0  0.00000000000E+00  0.00000000000E+00 -0.47252743023E+03  0.47252743026E+03  0.50400001928E-02 0.  1.
    10030    2    1    2    0    0  0.00000000000E+00  0.00000000000E+00  0.56229843416E+02  0.10012847039E+04  0.99970458788E+03 0.  0.
        3    1    3    3  502    0 -0.22626743013E+03 -0.43349699947E+03 -0.75662104831E+02  0.49481447311E+03  0.10100000352E+00 0.  1.
       -3    1    3    3    0  502  0.22626743013E+03  0.43349699947E+03  0.13189194825E+03  0.50647023082E+03  0.10100000352E+00 0. -1.
</event>
<event>
 5   0  0.2264577E-03  0.9698925E+03  0.7818609E-02  0.9342197E-01
       -2   -1    0    0    0  501  0.00000000000E+00  0.00000000000E+00  0.30520361196E+03  0.30520361197E+03  0.25500000920E-02 0. -1.
        2   -1    0    0  501    0  0.00000000000E+00  0.00000000000E+00 -0.77054417506E+03  0.77054417507E+03  0.25500000920E-02 0.  1.
    10030    2    1    2    0    0  0.00000000000E+00  0.00000000000E+00 -0.46534056310E+03  0.10757477870E+04  0.96989250005E+03 0.  0.
        5    1    3    3  502    0  0.16891105361E+03 -0.38183171428E+03  0.40872766531E+02  0.41954627290E+03  0.46999998093E+01 0. -1.
       -5    1    3    3    0  502 -0.16891105361E+03  0.38183171428E+03 -0.50621332963E+03  0.65620151414E+03  0.46999998093E+01 0.  1.
</event>
<event>
 5   0  0.1285769E-03  0.9987766E+03  0.7818609E-02  0.9309888E-01
       -1   -1    0    0    0  501  0.00000000000E+00  0.00000000000E+00  0.16107315750E+03  0.16107315757E+03  0.50400001928E-02 0. -1.
        1   -1    0    0  501    0  0.00000000000E+00  0.00000000000E+00 -0.15482944610E+04  0.15482944610E+04  0.50400001928E-02 0.  1.
    10030    2    1    2    0    0  0.00000000000E+00  0.00000000000E+00 -0.13872213035E+04  0.17093676186E+04  0.99877660694E+03 0.  0.
        5    1    3    3  502    0  0.37030246306E+03 -0.29704275149E+03 -0.42842647299E+03  0.63947606923E+03  0.46999998093E+01 0. -1.
       -5    1    3    3    0  502 -0.37030246306E+03  0.29704275149E+03 -0.95879483053E+03  0.10698915494E+04  0.46999998093E+01 0.  1.
</event>
<event>
 5   0  0.1293716E-03  0.1002654E+04  0.7818609E-02  0.9305639E-01
       -1   -1    0    0    0  501  0.00000000000E+00  0.00000000000E+00  0.11083680424E+03  0.11083680435E+03  0.50400001928E-02 0. -1.
        1   -1    0    0  501    0  0.00000000000E+00  0.00000000000E+00 -0.22675571441E+04  0.22675571441E+04  0.50400001928E-02 0.  1.
    10030    2    1    2    0    0  0.00000000000E+00  0.00000000000E+00 -0.21567203399E+04  0.23783939485E+04  0.10026540528E+04 0.  0.
        3    1    3    3  502    0  0.24604184649E+03 -0.43097925334E+03 -0.90980643462E+03  0.10363529639E+04  0.10100000352E+00 0. -1.
       -3    1    3    3    0  502 -0.24604184649E+03  0.43097925334E+03 -0.12469139053E+04  0.13420409846E+04  0.10100000352E+00 0.  1.
</event>
<event>
 5   0  0.2277570E-03  0.9978384E+03  0.7818609E-02  0.9310919E-01
        2   -1    0    0  501    0  0.00000000000E+00  0.00000000000E+00  0.11480908178E+04  0.11480908178E+04  0.25500000920E-02 0.  1.
       -2   -1    0    0    0  501  0.00000000000E+00  0.00000000000E+00 -0.21681245294E+03  0.21681245295E+03  0.25500000920E-02 0. -1.
    10030    2    1    2    0    0  0.00000000000E+00  0.00000000000E+00  0.93127836489E+03  0.13649032708E+04  0.99783843666E+03 0.  0.
        3    1    3    3  502    0 -0.15066700560E+02  0.44782232055E+03  0.76578562944E+03  0.88724262562E+03  0.10100000352E+00 0.  1.
       -3    1    3    3    0  502  0.15066700560E+02 -0.44782232055E+03  0.16549273545E+03  0.47766064517E+03  0.10100000352E+00 0. -1.
</event>
<event>
 5   0  0.1353789E-03  0.9893800E+03  0.7818609E-02  0.9320270E-01
        1   -1    0    0  501    0  0.00000000000E+00  0.00000000000E+00  0.13970544926E+04  0.13970544927E+04  0.50400001928E-02 0. -1.
       -1   -1    0    0    0  501  0.00000000000E+00  0.00000000000E+00 -0.17516724492E+03  0.17516724500E+03  0.50400001928E-02 0.  1.
    10030    2    1    2    0    0  0.00000000000E+00  0.00000000000E+00  0.12218872477E+04  0.15722217376E+04  0.98937998069E+03 0.  0.
        1    1    3    3  502    0  0.65056180055E+02 -0.95686120236E+02  0.13752486235E+04  0.13801075743E+04  0.50400001928E-02 0. -1.
       -1    1    3    3    0  502 -0.65056180055E+02  0.95686120236E+02 -0.15336137576E+03  0.19211416337E+03  0.50400001928E-02 0.  1.
</event>
<event>
 5   0  0.1293716E-03  0.1000244E+04  0.7818609E-02  0.9308277E-01
       -1   -1    0    0    0  501  0.00000000000E+00  0.00000000000E+00  0.31889063255E+03  0.31889063259E+03  0.50400001928E-02 0.  1.
        1   -1    0    0  501    0  0.00000000000E+00  0.00000000000E+00 -0.78435072758E+03  0.78435072759E+03  0.50400001928E-02 0. -1.
    10030    2    1    2    0    0  0.00000000000E+00  0.00000000000E+00 -0.46546009502E+03  0.11032413602E+04  0.10002441696E+04 0.  0.
        3    1    3    3  502    0  0.15688807520E+03  0.47267150317E+03 -0.18230755706E+03  0.53034731413E+03  0.10100000352E+00 0.  1.
       -3    1    3    3    0  502 -0.15688807520E+03 -0.47267150317E+03 -0.28315253797E+03  0.57289404605E+03  0.10100000352E+00 0. -1.
</event>
<event>
 5   0  0.1249195E-03  0.9998571E+03  0.7818609E-02  0.9308702E-01
        1   -1    0    0  501    0  0.00000000000E+00  0.00000000000E+00  0.57298001929E+03  0.57298001931E+03  0.50400001928E-02 0.  1.
       -1   -1    0    0    0  501  0.00000000000E+00  0.00000000000E+00 -0.43619070291E+03  0.43619070294E+03  0.50400001928E-02 0. -1.
    10030    2    1    2    0    0  0.00000000000E+00  0.00000000000E+00  0.13678931638E+03  0.10091707223E+04  0.99985710458E+03 0.  0.
        2    1    3    3  502    0 -0.43122495652E+02  0.49487144585E+03  0.11556156682E+02  0.49688111486E+03  0.25500000920E-02 0. -1.
       -2    1    3    3    0  502  0.43122495652E+02 -0.49487144585E+03  0.12523315969E+03  0.51228960739E+03  0.25500000920E-02 0.  1.
</event>
<event>
 5   0  0.1285769E-03  0.1009403E+04  0.7818609E-02  0.9298291E-01
       -1   -1    0    0    0  501  0.00000000000E+00  0.00000000000E+00  0.11385971530E+04  0.11385971530E+04  0.50400001928E-02 0.  1.
        1   -1    0    0  501    0  0.00000000000E+00  0.00000000000E+00 -0.22371704699E+03  0.22371704705E+03  0.50400001928E-02 0. -1.
    10030    2    1    2    0    0  0.00000000000E+00  0.00000000000E+00  0.91488010599E+03  0.13623142000E+04  0.10094029777E+04 0.  0.
        5    1    3    3  502    0  0.31477271230E+03 -0.11814787787E+03 -0.50529201074E+02  0.34002363390E+03  0.46999998093E+01 0. -1.
       -5    1    3    3    0  502 -0.31477271230E+03  0.11814787787E+03  0.96540930706E+03  0.10222905661E+04  0.46999998093E+01 0.  1.
</event>
<event>
 5   0  0.2255142E-03  0.1002695E+04  0.7818609E-02  0.9305594E-01
        2   -1    0    0  501    0  0.00000000000E+00  0.00000000000E+00  0.90338131809E+03  0.90338131809E+03  0.25500000920E-02 0. -1.
       -2   -1    0    0    0  501  0.00000000000E+00  0.00000000000E+00 -0.27823187574E+03  0.27823187575E+03  0.25500000920E-02 0.  1.
    10030    2    1    2    0    0  0.00000000000E+00  0.00000000000E+00  0.62514944235E+03  0.11816131938E+04  0.10026953249E+04 0.  0.
        4    1    3    3  502    0 -0.33177534281E+03 -0.15175351360E+03 -0.92649726155E+02  0.37641677918E+03  0.12699999809E+01 0.  1.
       -4    1    3    3    0  502  0.33177534281E+03  0.15175351360E+03  0.71779916850E+03  0.80519641466E+03  0.12699999809E+01 0. -1.
</event>
<event>
 5   0  0.2204862E-03  0.9981611E+03  0.7818609E-02  0.9310564E-01
        2   -1    0    0  501    0  0.00000000000E+00  0.00000000000E+00  0.12197702368E+04  0.12197702368E+04  0.25500000920E-02 0.  1.
       -2   -1    0    0    0  501  0.00000000000E+00  0.00000000000E+00 -0.20420352651E+03  0.20420352652E+03  0.25500000920E-02 0. -1.
    10030    2    1    2    0    0  0.00000000000E+00  0.00000000000E+00  0.10155667103E+04  0.14239737633E+04  0.99816107696E+03 0.  0.
        1    1    3    3  502    0  0.27274658475E+03  0.13340900979E+03 -0.57287299043E+02  0.30898300607E+03  0.50400001928E-02 0. -1.
       -1    1    3    3    0  502 -0.27274658475E+03 -0.13340900979E+03  0.10728540093E+04  0.11149907572E+04  0.50400001928E-02 0.  1.
</event>
<event>
 5   0  0.1293575E-03  0.1005197E+04  0.7818609E-02  0.9302863E-01
       -1   -1    0    0    0  501  0.00000000000E+00  0.00000000000E+00  0.34337680807E+03  0.34337680811E+03  0.50400001928E-02 0. -1.
        1   -1    0    0  501    0  0.00000000000E+00  0.00000000000E+00 -0.73565002915E+03  0.73565002917E+03  0.50400001928E-02 0.  1.
    10030    2    1    2    0    0  0.00000000000E+00  0.00000000000E+00 -0.39227322108E+03  0.10790268373E+04  0.10051968143E+04 0.  0.
        4    1    3    3  502    0  0.34145714775E+03 -0.16119579429E+03  0.15992876885E+03  0.41006815512E+03  0.12699999809E+01 0. -1.
       -4    1    3    3    0  502 -0.34145714775E+03  0.16119579429E+03 -0.55220198993E+03  0.66895868215E+03  0.12699999809E+01 0.  1.
</event>
<event>
 5   0  0.2284843E-03  0.9987863E+03  0.7818609E-02  0.9309877E-01
        2   -1    0    0  501    0  0.00000000000E+00  0.00000000000E+00  0.13612011545E+04  0.13612011545E+04  0.25500000920E-02 0. -1.
       -2   -1    0    0    0  501  0.00000000000E+00  0.00000000000E+00 -0.18321578859E+03  0.18321578861E+03  0.25500000920E-02 0.  1.
    10030    2    1    2    0    0  0.00000000000E+00  0.00000000000E+00  0.11779853659E+04  0.15444169431E+04  0.99878634945E+03 0.  0.
        2    1    3    3  502    0  0.19214107131E+03 -0.33091038510E+03  0.10851907318E+04  0.11506775389E+04  0.25500000920E-02 0. -1.
       -2    1    3    3    0  502 -0.19214107131E+03  0.33091038510E+03  0.92794634089E+02  0.39373940414E+03  0.25500000920E-02 0.  1.
</event>
<event>
 5   0  0.1285769E-03  0.1001479E+04  0.7818609E-02  0.9306924E-01
        1   -1    0    0  501    0  0.00000000000E+00  0.00000000000E+00  0.68990045202E+03  0.68990045203E+03  0.50400001928E-02 0. -1.
       -1   -1    0    0    0  501  0.00000000000E+00  0.00000000000E+00 -0.36344370137E+03  0.36344370141E+03  0.50400001928E-02 0.  1.
    10030    2    1    2    0    0  0.00000000000E+00  0.00000000000E+00  0.32645675064E+03  0.10533441534E+04  0.10014788543E+04 0.  0.
        5    1    3    3  502    0 -0.27459442186E+03  0.78111917946E+01  0.60354332618E+03  0.66313629655E+03  0.46999998093E+01 0. -1.
       -5    1    3    3    0  502  0.27459442186E+03 -0.78111917946E+01 -0.27708657554E+03  0.39020785688E+03  0.46999998093E+01 0.  1.
</event>
<event>
 5   0  0.2284843E-03  0.9998698E+03  0.7818609E-02  0.9308688E-01
        2   -1    0    0  501    0  0.00000000000E+00  0.00000000000E+00  0.13960134694E+04  0.13960134694E+04  0.25500000920E-02 0.  1.
       -2   -1    0    0    0  501  0.00000000000E+00  0.00000000000E+00 -0.17903475465E+03  0.17903475466E+03  0.25500000920E-02 0. -1.
    10030    2    1    2    0    0  0.00000000000E+00  0.00000000000E+00  0.12169787148E+04  0.15750482241E+04  0.99986984952E+03 0.  0.
        2    1    3    3  502    0 -0.25434177772E+03  0.28162869728E+03  0.11211864138E+04  0.11836652557E+04  0.25500000920E-02 0.  1.
       -2    1    3    3    0  502  0.25434177772E+03 -0.28162869728E+03  0.95792300989E+02  0.39138296841E+03  0.25500000920E-02 0. -1.
</event>
<event>
 5   0  0.1293575E-03  0.9955115E+03  0.7818609E-02  0.9313481E-01
        1   -1    0    0  501    0  0.00000000000E+00  0.00000000000E+00  0.57669477949E+03  0.57669477951E+03  0.50400001928E-02 0.  1.
       -1   -1    0    0    0  501  0.00000000000E+00  0.00000000000E+00 -0.42962203012E+03  0.42962203015E+03  0.50400001928E-02 0. -1.
    10030    2    1    2    0    0  0.00000000000E+00  0.00000000000E+00  0.14707274937E+03  0.10063168097E+04  0.99551149054E+03 0.  0.
        4    1    3    3  502    0  0.35804331660E+03 -0.20254810559E+03 -0.20975250243E+03  0.46175586279E+03  0.12699999809E+01 0. -1.
       -4    1    3    3    0  502 -0.35804331660E+03  0.20254810559E+03  0.35682525179E+03  0.54456094687E+03  0.12699999809E+01 0.  1.
</event>
<event>
 5   0  0.1249195E-03  0.1007722E+04  0.7818609E-02  0.9300115E-01
        1   -1    0    0  501    0  0.00000000000E+00  0.00000000000E+00  0.79571863289E+03  0.79571863290E+03  0.50400001928E-02 0. -1.
       -1   -1    0    0    0  501  0.00000000000E+00  0.00000000000E+00 -0.31905265382E+03  0.31905265386E+03  0.50400001928E-02 0.  1.
    10030    2    1    2    0    0  0.00000000000E+00  0.00000000000E+00  0.47666597907E+03  0.11147712868E+04  0.10077224649E+04 0.  0.
        2    1    3    3  502    0 -0.40001284008E+03  0.30635413419E+03  0.23434231379E+03  0.55567926703E+03  0.25500000920E-02 0. -1.
       -2    1    3    3    0  502  0.40001284008E+03 -0.30635413419E+03  0.24232366528E+03  0.55909201973E+03  0.25500000920E-02 0.  1.
</event>
<event>
 5   0  0.1249195E-03  0.9886542E+03  0.7818609E-02  0.9321077E-01
        1   -1    0    0  501    0  0.00000000000E+00  0.00000000000E+00  0.34872833031E+03  0.34872833035E+03  0.50400001928E-02 0. -1.
       -1   -1    0    0    0  501  0.00000000000E+00  0.00000000000E+00 -0.70071526635E+03  0.70071526637E+03  0.50400001928E-02 0.  1.
    10030    2    1    2    0    0  0.00000000000E+00  0.00000000000E+00 -0.35198693604E+03  0.10494435967E+04  0.98865416579E+03 0.  0.
        2    1    3    3  502    0  0.34862411972E+03  0.33939499930E+03 -0.26872347556E+03  0.55582375689E+03  0.25500000920E-02 0.  1.
       -2    1    3    3    0  502 -0.34862411972E+03 -0.33939499930E+03 -0.83263460481E+02  0.49361983982E+03  0.25500000920E-02 0. -1.
</event>
<event>
 5   0  0.2255142E-03  0.9999687E+03  0.7818609E-02  0.9308579E-01
       -2   -1    0    0    0  501  0.00000000000E+00  0.00000000000E+00  0.15642032888E+03  0.15642032890E+03  0.25500000920E-02 0. -1.
        2   -1    0    0  501    0  0.00000000000E+00  0.00000000000E+00 -0.15981575970E+04  0.15981575970E+04  0.25500000920E-02 0.  1.
    10030    2    1    2    0    0  0.00000000000E+00  0.00000000000E+00 -0.14417372682E+04  0.17545779259E+04  0.99996867341E+03 0.  0.
        4    1    3    3  502    0  0.23512333292E+03  0.19419151131E+03 -0.14160873101E+04  0.14485503814E+04  0.12699999809E+01 0.  1.
       -4    1    3    3    0  502 -0.23512333292E+03 -0.19419151131E+03 -0.25649958033E+02  0.30602754451E+03  0.12699999809E+01 0. -1.
</event>
<event>
 5   0  0.1285769E-03  0.1001882E+04  0.7818609E-02  0.9306483E-01
        1   -1    0    0  501    0  0.00000000000E+00  0.00000000000E+00  0.51304036154E+03  0.51304036156E+03  0.50400001928E-02 0.  1.
       -1   -1    0    0    0  501  0.00000000000E+00  0.00000000000E+00 -0.48912746821E+03  0.48912746823E+03  0.50400001928E-02 0. -1.
    10030    2    1    2    0    0  0.00000000000E+00  0.00000000000E+00  0.23912893327E+02  0.10021678298E+04  0.10018824944E+04 0.  0.
        5    1    3    3  502    0  0.39823914683E+03 -0.23251604318E+03 -0.18370579236E+03  0.49641518566E+03  0.46999998093E+01 0. -1.
       -5    1    3    3    0  502 -0.39823914683E+03  0.23251604318E+03  0.20761868569E+03  0.50575264414E+03  0.46999998093E+01 0.  1.
</event>
<event>
 5   0  0.2264577E-03  0.9970635E+03  0.7818609E-02  0.9311771E-01
        2   -1    0    0  501    0  0.00000000000E+00  0.00000000000E+00  0.10086861210E+04  0.10086861210E+04  0.25500000920E-02 0.  1.
       -2   -1    0    0    0  501  0.00000000000E+00  0.00000000000E+00 -0.24639372041E+03  0.24639372043E+03  0.25500000920E-02 0. -1.
    10030    2    1    2    0    0  0.00000000000E+00  0.00000000000E+00  0.76229240054E+03  0.12550798414E+04  0.99706354077E+03 0.  0.
        5    1    3    3  502    0 -0.39215304348E+03  0.30715015697E+03  0.35639571396E+03  0.61250732515E+03  0.46999998093E+01 0.  1.
       -5    1    3    3    0  502  0.39215304348E+03 -0.30715015697E+03  0.40589668658E+03  0.64257251623E+03  0.46999998093E+01 0. -1.
</event>
<event>
 5   0  0.2264577E-03  0.1004334E+04  0.7818609E-02  0.9303804E-01
        2   -1    0    0  501    0  0.00000000000E+00  0.00000000000E+00  0.13705804772E+04  0.13705804772E+04  0.25500000920E-02 0. -1.
       -2   -1    0    0    0  501  0.00000000000E+00  0.00000000000E+00 -0.18398906121E+03  0.18398906122E+03  0.25500000920E-02 0.  1.
    10030    2    1    2    0    0  0.00000000000E+00  0.00000000000E+00  0.11865914159E+04  0.15545695384E+04  0.10043342378E+04 0.  0.
        5    1    3    3  502    0  0.21031423960E+03  0.36915839994E+03  0.10075898861E+04  0.10935124472E+04  0.46999998093E+01 0. -1.
       -5    1    3    3    0  502 -0.21031423960E+03 -0.36915839994E+03  0.17900152983E+03  0.46105709116E+03  0.46999998093E+01 0.  1.
</event>
<event>
 5   0  0.2255142E-03  0.9979914E+03  0.7818609E-02  0.9310751E-01
        2   -1    0    0  501    0  0.00000000000E+00  0.00000000000E+00  0.91415237051E+03  0.91415237051E+03  0.25500000920E-02 0. -1.
       -2   -1    0    0    0  501  0.00000000000E+00  0.00000000000E+00 -0.27237987198E+03  0.27237987200E+03  0.25500000920E-02 0.  1.
    10030    2    1    2    0    0  0.00000000000E+00  0.00000000000E+00  0.64177249853E+03  0.11865322425E+04  0.99799139407E+03 0.  0.
        4    1    3    3  502    0  0.94358761951E+02  0.10481330687E+03  0.88996279033E+03  0.90106869124E+03  0.12699999809E+01 0. -1.
       -4    1    3    3    0  502 -0.94358761951E+02 -0.10481330687E+03 -0.24819029181E+03  0.28546355127E+03  0.12699999809E+01 0.  1.
</event>
<event>
 5   0  0.1293575E-03  0.1000788E+04  0.7818609E-02  0.9307680E-01
        1   -1    0    0  501    0  0.00000000000E+00  0.00000000000E+00  0.16371667479E+04  0.16371667479E+04  0.50400001928E-02 0.  1.
       -1   -1    0    0    0  501  0.00000000000E+00  0.00000000000E+00 -0.15294373011E+03  0.15294373019E+03  0.50400001928E-02 0. -1.
    10030    2    1    2    0    0  0.00000000000E+00  0.00000000000E+00  0.14842230178E+04  0.17901104781E+04  0.10007884678E+04 0.  0.
        4    1    3    3  502    0  0.41490980790E+03  0.17888371161E+03  0.35746508825E+03  0.57613577669E+03  0.12699999809E+01 0.  1.
       -4    1    3    3    0  502 -0.41490980790E+03 -0.17888371161E+03  0.11267579295E+04  0.12139747014E+04  0.12699999809E+01 0. -1.
</event>
<event>
 5   0  0.1249195E-03  0.9958438E+03  0.7818609E-02  0.9313115E-01
        1   -1    0    0  501    0  0.00000000000E+00  0.00000000000E+00  0.47376014278E+03  0.47376014281E+03  0.50400001928E-02 0.  1.
       -1   -1    0    0    0  501  0.00000000000E+00  0.00000000000E+00 -0.52331589776E+03  0.52331589778E+03  0.50400001928E-02 0. -1.
    10030    2    1    2    0    0  0.00000000000E+00  0.00000000000E+00 -0.49555754974E+02  0.99707604060E+03  0.99584379191E+03 0.  0.
        2    1    3    3  502    0  0.17215510669E+03 -0.42682869472E+03  0.16547329627E+03  0.48908233170E+03  0.25500000920E-02 0.  1.
       -2    1    3    3    0  502 -0.17215510669E+03  0.42682869472E+03 -0.21502905125E+03  0.50799370890E+03  0.25500000920E-02 0. -1.
</event>
<event>
 5   0  0.8680125E-04  0.1001534E+04  0.7818609E-02  0.9306864E-01
        3   -1    0    0  501    0  0.00000000000E+00  0.00000000000E+00  0.45133210797E+03  0.45133211927E+03  0.10100000352E+00 0.  1.
       -3   -1    0    0    0  501  0.00000000000E+00  0.00000000000E+00 -0.55561627651E+03  0.55561628569E+03  0.10100000352E+00 0. -1.
    10030    2    1    2    0    0  0.00000000000E+00  0.00000000000E+00 -0.10428416853E+03  0.10069484050E+04  0.10015337750E+04 0.  0.
        3    1    3    3  502    0 -0.19612176275E+03  0.38207113436E+03 -0.31107153636E+03  0.53029011726E+03  0.10100000352E+00 0.  1.
       -3    1    3    3    0  502  0.19612176275E+03 -0.38207113436E+03  0.20678736783E+03  0.47665828769E+03  0.10100000352E+00 0. -1.
</event>
<event>
 5   0  0.2284843E-03  0.1005292E+04  0.7818609E-02  0.9302759E-01
        2   -1    0    0  501    0  0.00000000000E+00  0.00000000000E+00  0.31211963671E+03  0.31211963672E+03  0.25500000920E-02 0.  1.
       -2   -1    0    0    0  501  0.00000000000E+00  0.00000000000E+00 -0.80947526608E+03  0.80947526608E+03  0.25500000920E-02 0. -1.
    10030    2    1    2    0    0  0.00000000000E+00  0.00000000000E+00 -0.49735562937E+03  0.11215949028E+04  0.10052922480E+04 0.  0.
        2    1    3    3  502    0  0.15035988402E+03 -0.32594705716E+03 -0.64124160421E+03  0.73487439319E+03  0.25500000920E-02 0. -1.
       -2    1    3    3    0  502 -0.15035988402E+03  0.32594705716E+03  0.14388597484E+03  0.38672050961E+03  0.25500000920E-02 0.  1.
</event>
<event>
 5   0  0.1249195E-03  0.9976283E+03  0.7818609E-02  0.9311150E-01
        1   -1    0    0  501    0  0.00000000000E+00  0.00000000000E+00  0.63332368223E+03  0.63332368225E+03  0.50400001928E-02 0.  1.
       -1   -1    0    0    0  501  0.00000000000E+00  0.00000000000E+00 -0.39287264788E+03  0.39287264791E+03  0.50400001928E-02 0. -1.
    10030    2    1    2    0    0  0.00000000000E+00  0.00000000000E+00  0.24045103435E+03  0.10261963302E+04  0.99762829156E+03 0.  0.
        2    1    3    3  502    0  0.18210020443E+02  0.49328370088E+03  0.46370188978E+02  0.49579290922E+03  0.25500000920E-02 0. -1.
       -2    1    3    3    0  502 -0.18210020443E+02 -0.49328370088E+03  0.19408084537E+03  0.53040342094E+03  0.25500000920E-02 0.  1.
</event>
<event>
 5   0  0.2277570E-03  0.9977661E+03  0.7818609E-02  0.9310998E-01
       -2   -1    0    0    0  501  0.00000000000E+00  0.00000000000E+00  0.13392502083E+03  0.13392502085E+03  0.25500000920E-02 0. -1.
        2   -1    0    0  501    0  0.00000000000E+00  0.00000000000E+00 -0.18583854250E+04  0.18583854251E+04  0.25500000920E-02 0.  1.
    10030    2    1    2    0    0  0.00000000000E+00  0.00000000000E+00 -0.17244604042E+04  0.19923104459E+04  0.99776611845E+03 0.  0.
        3    1    3    3  502    0  0.27448908280E+03  0.24878591388E+03 -0.19504088585E+03  0.41866411940E+03  0.10100000352E+00 0. -1.
       -3    1    3    3    0  502 -0.27448908280E+03 -0.24878591388E+03 -0.15294195184E+04  0.15736463265E+04  0.10100000352E+00 0.  1.
</event>
<event>
 5   0  0.2264577E-03  0.1000788E+04  0.7818609E-02  0.9307681E-01
        2   -1    0    0  501    0  0.00000000000E+00  0.00000000000E+00  0.11217507609E+04  0.11217507609E+04  0.25500000920E-02 0. -1.
       -2   -1    0    0    0  501  0.00000000000E+00  0.00000000000E+00 -0.22321710699E+03  0.22321710700E+03  0.25500000920E-02 0.  1.
    10030    2    1    2    0    0  0.00000000000E+00  0.00000000000E+00  0.89853365387E+03  0.13449678679E+04  0.10007876091E+04 0.  0.
        5    1    3    3  502    0 -0.47426727410E+03 -0.79959896648E+02  0.63474987539E+03  0.79639972794E+03  0.46999998093E+01 0. -1.
       -5    1    3    3    0  502  0.47426727410E+03  0.79959896648E+02  0.26378377849E+03  0.54856813993E+03  0.46999998093E+01 0.  1.
</event>
<event>
 5   0  0.1285769E-03  0.1001008E+04  0.7818609E-02  0.9307440E-01
       -1   -1    0    0    0  501  0.00000000000E+00  0.00000000000E+00  0.16430776730E+04  0.16430776730E+04  0.50400001928E-02 0. -1.
        1   -1    0    0  501    0  0.00000000000E+00  0.00000000000E+00 -0.15246046400E+03  0.15246046408E+03  0.50400001928E-02 0.  1.
    10030    2    1    2    0    0  0.00000000000E+00  0.00000000000E+00  0.14906172090E+04  0.17955381371E+04  0.10010082607E+04 0.  0.
        5    1    3    3  502    0  0.23781000577E+03  0.63938422061E+02  0.15268491100E+04  0.15465872156E+04  0.46999998093E+01 0. -1.
       -5    1    3    3    0  502 -0.23781000577E+03 -0.63938422061E+02 -0.36231901024E+02  0.24895092149E+03  0.46999998093E+01 0.  1.
</event>
<event>
 5   0  0.1293716E-03  0.1008703E+04  0.7818609E-02  0.9299051E-01
       -1   -1    0    0    0  501  0.00000000000E+00  0.00000000000E+00  0.18543119009E+03  0.18543119016E+03  0.50400001928E-02 0.  1.
        1   -1    0    0  501    0  0.00000000000E+00  0.00000000000E+00 -0.13717780530E+04  0.13717780531E+04  0.50400001928E-02 0. -1.
    10030    2    1    2    0    0  0.00000000000E+00  0.00000000000E+00 -0.11863468630E+04  0.15572092432E+04  0.10087030028E+04 0.  0.
        3    1    3    3  502    0 -0.36836765912E+03  0.24303270208E+03 -0.97009078677E+03  0.10657559624E+04  0.10100000352E+00 0. -1.
       -3    1    3    3    0  502  0.36836765912E+03 -0.24303270208E+03 -0.21625607618E+03  0.49145328084E+03  0.10100000352E+00 0.  1.
</event>
<event>
 5   0  0.2277570E-03  0.9987864E+03  0.7818609E-02  0.9309877E-01
        2   -1    0    0  501    0  0.00000000000E+00  0.00000000000E+00  0.26615293305E+03  0.26615293306E+03  0.25500000920E-02 0. -1.
       -2   -1    0    0    0  501  0.00000000000E+00  0.00000000000E+00 -0.93703098671E+03  0.93703098671E+03  0.25500000920E-02 0.  1.
    10030    2    1    2    0    0  0.00000000000E+00  0.00000000000E+00 -0.67087805366E+03  0.12031839198E+04  0.99878635449E+03 0.  0.
        3    1    3    3  502    0  0.27098038621E+02  0.45487123954E+03 -0.89291842336E+02  0.46434382904E+03  0.10100000352E+00 0. -1.
       -3    1    3    3    0  502 -0.27098038621E+02 -0.45487123954E+03 -0.58158621132E+03  0.73884009073E+03  0.10100000352E+00 0.  1.
</event>
<event>
 5   0  0.2204862E-03  0.9998546E+03  0.7818609E-02  0.9308704E-01
        2   -1    0    0  501    0  0.00000000000E+00  0.00000000000E+00  0.30560851096E+03  0.30560851097E+03  0.25500000920E-02 0. -1.
       -2   -1    0    0    0  501  0.00000000000E+00  0.00000000000E+00 -0.81780214689E+03  0.81780214689E+03  0.25500000920E-02 0.  1.
    10030    2    1    2    0    0  0.00000000000E+00  0.00000000000E+00 -0.51219363593E+03  0.11234106579E+04  0.99985458219E+03 0.  0.
        1    1    3    3  502    0  0.15113846699E+03 -0.17736195332E+03  0.24085732480E+03  0.33513034721E+03  0.50400001928E-02 0. -1.
       -1    1    3    3    0  502 -0.15113846699E+03  0.17736195332E+03 -0.75305096073E+03  0.78828031065E+03  0.50400001928E-02 0.  1.
</event>
<event>
 5   0  0.2204862E-03  0.9949569E+03  0.7818609E-02  0.9314093E-01
       -2   -1    0    0    0  501  0.00000000000E+00  0.00000000000E+00  0.10764256725E+03  0.10764256729E+03  0.25500000920E-02 0. -1.
        2   -1    0    0  501    0  0.00000000000E+00  0.00000000000E+00 -0.22991349143E+04  0.22991349143E+04  0.25500000920E-02 0.  1.
    10030    2    1    2    0    0  0.00000000000E+00  0.00000000000E+00 -0.21914923470E+04  0.24067774815E+04  0.99495685268E+03 0.  0.
        1    1    3    3  502    0  0.98111673873E+01  0.48986953199E+03 -0.88742792937E+03  0.10137044674E+04  0.50400001928E-02 0.  1.
       -1    1    3    3    0  502 -0.98111673873E+01 -0.48986953199E+03 -0.13040644176E+04  0.13930730141E+04  0.50400001928E-02 0. -1.
</event>
<event>
 5   0  0.2284843E-03  0.9915407E+03  0.7818609E-02  0.9317872E-01
        2   -1    0    0  501    0  0.00000000000E+00  0.00000000000E+00  0.53357998928E+03  0.53357998928E+03  0.25500000920E-02 0. -1.
       -2   -1    0    0    0  501  0.00000000000E+00  0.00000000000E+00 -0.46063994474E+03  0.46063994475E+03  0.25500000920E-02 0.  1.
    10030    2    1    2    0    0  0.00000000000E+00  0.00000000000E+00  0.72940044536E+02  0.99421993403E+03  0.99154073397E+03 0.  0.
        2    1    3    3  502    0 -0.47053921923E+03 -0.56370924907E+02 -0.10953737235E+03  0.48639826682E+03  0.25500000920E-02 0.  1.
       -2    1    3    3    0  502  0.47053921923E+03  0.56370924907E+02  0.18247741689E+03  0.50782166722E+03  0.25500000920E-02 0. -1.
</event>
<event>
 5   0  0.1353789E-03  0.9998243E+03  0.7818609E-02  0.9308738E-01
        1   -1    0    0  501    0  0.00000000000E+00  0.00000000000E+00  0.97055228736E+03  0.97055228737E+03  0.50400001928E-02 0. -1.
       -1   -1    0    0    0  501  0.00000000000E+00  0.00000000000E+00 -0.25749476889E+03  0.25749476893E+03  0.50400001928E-02 0.  1.
    10030    2    1    2    0    0  0.00000000000E+00  0.00000000000E+00  0.71305751847E+03  0.12280470563E+04  0.99982425848E+03 0.  0.
        1    1    3    3  502    0 -0.40870364326E+02 -0.18886532153E+03 -0.20976790167E+03  0.28520706329E+03  0.50400001928E-02 0.  1.
       -1    1    3    3    0  502  0.40870364326E+02  0.18886532153E+03  0.92282542014E+03  0.94283999302E+03  0.50400001928E-02 0. -1.
</event>
<event>
 5   0  0.2204862E-03  0.1066827E+04  0.7818609E-02  0.9238141E-01
        2   -1    0    0  501    0  0.00000000000E+00  0.00000000000E+00  0.73189119201E+03  0.73189119202E+03  0.25500000920E-02 0.  1.
       -2   -1    0    0    0  501  0.00000000000E+00  0.00000000000E+00 -0.38876011896E+03  0.38876011897E+03  0.25500000920E-02 0. -1.
    10030    2    1    2    0    0  0.00000000000E+00  0.00000000000E+00  0.34313107305E+03  0.11206513110E+04  0.10668272716E+04 0.  0.
        1    1    3    3  502    0  0.54408731607E+02  0.52828868932E+03  0.22388668943E+03  0.57634581552E+03  0.50400001928E-02 0. -1.
       -1    1    3    3    0  502 -0.54408731607E+02 -0.52828868932E+03  0.11924438362E+03  0.54430549546E+03  0.50400001928E-02 0.  1.
</event>
<event>
 5   0  0.2255142E-03  0.9981920E+03  0.7818609E-02  0.9310530E-01
        2   -1    0    0  501    0  0.00000000000E+00  0.00000000000E+00  0.84165133923E+03  0.84165133923E+03  0.25500000920E-02 0. -1.
       -2   -1    0    0    0  501  0.00000000000E+00  0.00000000000E+00 -0.29596199995E+03  0.29596199996E+03  0.25500000920E-02 0.  1.
    10030    2    1    2    0    0  0.00000000000E+00  0.00000000000E+00  0.54568933928E+03  0.11376133392E+04  0.99819199281E+03 0.  0.
        4    1    3    3  502    0  0.94552082352E+02  0.17176271585E+03  0.79591981220E+03  0.81971488164E+03  0.12699999809E+01 0. -1.
       -4    1    3    3    0  502 -0.94552082352E+02 -0.17176271585E+03 -0.25023047292E+03  0.31789845755E+03  0.12699999809E+01 0.  1.
</event>
<event>
 5   0  0.2277570E-03  0.9914532E+03  0.7818609E-02  0.9317969E-01
       -2   -1    0    0    0  501  0.00000000000E+00  0.00000000000E+00  0.39593249043E+03  0.39593249044E+03  0.25500000920E-02 0.  1.
        2   -1    0    0  501    0  0.00000000000E+00  0.00000000000E+00 -0.62067369380E+03  0.62067369381E+03  0.25500000920E-02 0. -1.
    10030    2    1    2    0    0  0.00000000000E+00  0.00000000000E+00 -0.22474120337E+03  0.10166061842E+04  0.99145323912E+03 0.  0.
        3    1    3    3  502    0  0.38373072967E+03 -0.24133841529E+03 -0.31808790916E+03  0.55378103231E+03  0.10100000352E+00 0. -1.
       -3    1    3    3    0  502 -0.38373072967E+03  0.24133841529E+03  0.93346705796E+02  0.46282515194E+03  0.10100000352E+00 0.  1.
</event>
<event>
 5   0  0.1293716E-03  0.1008778E+04  0.7818609E-02  0.9298970E-01
       -1   -1    0    0    0  501  0.00000000000E+00  0.00000000000E+00  0.33100424734E+03  0.33100424738E+03  0.50400001928E-02 0. -1.
        1   -1    0    0  501    0  0.00000000000E+00  0.00000000000E+00 -0.76859475881E+03  0.76859475883E+03  0.50400001928E-02 0.  1.
    10030    2    1    2    0    0  0.00000000000E+00  0.00000000000E+00 -0.43759051147E+03  0.10995990062E+04  0.10087777350E+04 0.  0.
        3    1    3    3  502    0 -0.36939596356E+03  0.34294651179E+03 -0.19862433199E+03  0.54177239068E+03  0.10100000352E+00 0.  1.
       -3    1    3    3    0  502  0.36939596356E+03 -0.34294651179E+03 -0.23896617948E+03  0.55782661552E+03  0.10100000352E+00 0. -1.
</event>
<event>
 5   0  0.8680125E-04  0.1000293E+04  0.7818609E-02  0.9308224E-01
       -4   -1    0    0    0  501  0.00000000000E+00  0.00000000000E+00  0.13000105269E+04  0.13000111472E+04  0.12699999809E+01 0.  1.
        4   -1    0    0  501    0  0.00000000000E+00  0.00000000000E+00 -0.19241597357E+03  0.19242016470E+03  0.12699999809E+01 0. -1.
    10030    2    1    2    0    0  0.00000000000E+00  0.00000000000E+00  0.11075945533E+04  0.14924313119E+04  0.10002927203E+04 0.  0.
        5    1    3    3  502    0  0.32432352158E+03  0.32251463346E+03  0.25197574941E+03  0.52222150831E+03  0.46999998093E+01 0. -1.
       -5    1    3    3    0  502 -0.32432352158E+03 -0.32251463346E+03  0.85561880388E+03  0.97020980360E+03  0.46999998093E+01 0.  1.
</event>
<event>
 5   0  0.2204862E-03  0.9933914E+03  0.7818609E-02  0.9315823E-01
        2   -1    0    0  501    0  0.00000000000E+00  0.00000000000E+00  0.80687305032E+03  0.80687305032E+03  0.25500000920E-02 0. -1.
       -2   -1    0    0    0  501  0.00000000000E+00  0.00000000000E+00 -0.30575639808E+03  0.30575639809E+03  0.25500000920E-02 0.  1.
    10030    2    1    2    0    0  0.00000000000E+00  0.00000000000E+00  0.50111665223E+03  0.11126294484E+04  0.99339135809E+03 0.  0.
        1    1    3    3  502    0  0.38641489204E+02  0.17052650301E+03 -0.27014681263E+03  0.32179458248E+03  0.50400001928E-02 0.  1.
       -1    1    3    3    0  502 -0.38641489204E+02 -0.17052650301E+03  0.77126346486E+03  0.79083486593E+03  0.50400001928E-02 0. -1.
</event>
<event>
 5   0  0.2255142E-03  0.9907093E+03  0.7818609E-02  0.9318794E-01
       -2   -1    0    0    0  501  0.00000000000E+00  0.00000000000E+00  0.15033613464E+03  0.15033613466E+03  0.25500000920E-02 0. -1.
        2   -1    0    0  501    0  0.00000000000E+00  0.00000000000E+00 -0.16321839020E+04  0.16321839020E+04  0.25500000920E-02 0.  1.
    10030    2    1    2    0    0  0.00000000000E+00  0.00000000000E+00 -0.14818477674E+04  0.17825200367E+04  0.99070927899E+03 0.  0.
        4    1    3    3  502    0  0.22546034537E+03 -0.95210480807E+02 -0.15158021120E+04  0.15354331827E+04  0.12699999809E+01 0.  1.
       -4    1    3    3    0  502 -0.22546034537E+03  0.95210480807E+02  0.33954344586E+02  0.24708685398E+03  0.12699999809E+01 0. -1.
</event>
<event>
 5   0  0.2277570E-03  0.1001219E+04  0.7818609E-02  0.9307209E-01
       -2   -1    0    0    0  501  0.00000000000E+00  0.00000000000E+00  0.15770728651E+03  0.15770728653E+03  0.25500000920E-02 0.  1.
        2   -1    0    0  501    0  0.00000000000E+00  0.00000000000E+00 -0.15890810612E+04  0.15890810612E+04  0.25500000920E-02 0. -1.
    10030    2    1    2    0    0  0.00000000000E+00  0.00000000000E+00 -0.14313737747E+04  0.17467883477E+04  0.10012185820E+04 0.  0.
        3    1    3    3  502    0  0.16231401624E+03  0.10950804940E+03 -0.15195045326E+04  0.15320678469E+04  0.10100000352E+00 0. -1.
       -3    1    3    3    0  502 -0.16231401624E+03 -0.10950804940E+03  0.88130757957E+02  0.21472050077E+03  0.10100000352E+00 0.  1.
</event>
<event>
 5   0  0.1353789E-03  0.9994498E+03  0.7818609E-02  0.9309148E-01
       -1   -1    0    0    0  501  0.00000000000E+00  0.00000000000E+00  0.36065578177E+03  0.36065578180E+03  0.50400001928E-02 0. -1.
        1   -1    0    0  501    0  0.00000000000E+00  0.00000000000E+00 -0.69241915695E+03  0.69241915697E+03  0.50400001928E-02 0.  1.
    10030    2    1    2    0    0  0.00000000000E+00  0.00000000000E+00 -0.33176337518E+03  0.10530749388E+04  0.99944979341E+03 0.  0.
        1    1    3    3  502    0 -0.34090208662E+03  0.35422172176E+03 -0.26034528984E+03  0.55629752003E+03  0.50400001928E-02 0.  1.
       -1    1    3    3    0  502  0.34090208662E+03 -0.35422172176E+03 -0.71418085349E+02  0.49677741874E+03  0.50400001928E-02 0. -1.
</event>
<event>
 5   0  0.2284843E-03  0.1013515E+04  0.7818609E-02  0.9293845E-01
       -2   -1    0    0    0  501  0.00000000000E+00  0.00000000000E+00  0.45910356928E+03  0.45910356929E+03  0.25500000920E-02 0.  1.
        2   -1    0    0  501    0  0.00000000000E+00  0.00000000000E+00 -0.55935778486E+03  0.55935778487E+03  0.25500000920E-02 0. -1.
    10030    2    1    2    0    0  0.00000000000E+00  0.00000000000E+00 -0.10025421558E+03  0.10184613542E+04  0.10135149837E+04 0.  0.
        2    1    3    3  502    0 -0.43869363981E+03 -0.93718121082E+02  0.18675191682E+03  0.48591303159E+03  0.25500000920E-02 0.  1.
       -2    1    3    3    0  502  0.43869363981E+03  0.93718121082E+02 -0.28700613240E+03  0.53254832257E+03  0.25500000920E-02 0. -1.
</event>
<event>
 5   0  0.1353789E-03  0.1005760E+04  0.7818609E-02  0.9302249E-01
        1   -1    0    0  501    0  0.00000000000E+00  0.00000000000E+00  0.10774950101E+04  0.10774950101E+04  0.50400001928E-02 0.  1.
       -1   -1    0    0    0  501  0.00000000000E+00  0.00000000000E+00 -0.23470039511E+03  0.23470039516E+03  0.50400001928E-02 0. -1.
    10030    2    1    2    0    0  0.00000000000E+00  0.00000000000E+00  0.84279461499E+03  0.13121954053E+04  0.10057604181E+04 0.  0.
        1    1    3    3  502    0  0.16098114152E+03 -0.46580653606E+03  0.55185125649E+03  0.73988544132E+03  0.50400001928E-02 0. -1.
       -1    1    3    3    0  502 -0.16098114152E+03  0.46580653606E+03  0.29094335850E+03  0.57230996396E+03  0.50400001928E-02 0.  1.
</event>
<event>
 5   0  0.1249195E-03  0.9990349E+03  0.7818609E-02  0.9309604E-01
       -1   -1    0    0    0  501  0.00000000000E+00  0.00000000000E+00  0.39032717276E+03  0.39032717279E+03  0.50400001928E-02 0. -1.
        1   -1    0    0  501    0  0.00000000000E+00  0.00000000000E+00 -0.63925269786E+03  0.63925269788E+03  0.50400001928E-02 0.  1.
    10030    2    1    2    0    0  0.00000000000E+00  0.00000000000E+00 -0.24892552511E+03  0.10295798707E+04  0.99903493085E+03 0.  0.
        2    1    3    3  502    0  0.17749483451E+03 -0.41440783321E+03  0.97241155983E+02  0.46118771766E+03  0.25500000920E-02 0. -1.
       -2    1    3    3    0  502 -0.17749483451E+03  0.41440783321E+03 -0.34616668109E+03  0.56839215301E+03  0.25500000920E-02 0.  1.
</event>
<event>
 5   0  0.2264577E-03  0.9972495E+03  0.7818609E-02  0.9311567E-01
        2   -1    0    0  501    0  0.00000000000E+00  0.00000000000E+00  0.60851448996E+03  0.60851448997E+03  0.25500000920E-02 0. -1.
       -2   -1    0    0    0  501  0.00000000000E+00  0.00000000000E+00 -0.40857968147E+03  0.40857968148E+03  0.25500000920E-02 0.  1.
    10030    2    1    2    0    0  0.00000000000E+00  0.00000000000E+00  0.19993480849E+03  0.10170941714E+04  0.99724953043E+03 0.  0.
        5    1    3    3  502    0  0.46248679552E+03  0.19329071424E+02  0.28895703533E+03  0.54569763359E+03  0.46999998093E+01 0. -1.
       -5    1    3    3    0  502 -0.46248679552E+03 -0.19329071424E+02 -0.89022226842E+02  0.47139653786E+03  0.46999998093E+01 0.  1.
</event>
<event>
 5   0  0.1353789E-03  0.9911705E+03  0.7818609E-02  0.9318282E-01
       -1   -1    0    0    0  501  0.00000000000E+00  0.00000000000E+00  0.44319832734E+03  0.44319832737E+03  0.50400001928E-02 0. -1.
        1   -1    0    0  501    0  0.00000000000E+00  0.00000000000E+00 -0.55416445431E+03  0.55416445433E+03  0.50400001928E-02 0.  1.
    10030    2    1    2    0    0  0.00000000000E+00  0.00000000000E+00 -0.11096612696E+03  0.99736278170E+03  0.99117053881E+03 0.  0.
        1    1    3    3  502    0 -0.17157675707E+03  0.13695461423E+03 -0.50256684692E+03  0.54842372813E+03  0.50400001928E-02 0.  1.
       -1    1    3    3    0  502  0.17157675707E+03 -0.13695461423E+03  0.39160071996E+03  0.44893905357E+03  0.50400001928E-02 0. -1.
</event>
<event>
 5   0  0.2255142E-03  0.1003128E+04  0.7818609E-02  0.9305121E-01
        2   -1    0    0  501    0  0.00000000000E+00  0.00000000000E+00  0.10747355429E+04  0.10747355429E+04  0.25500000920E-02 0.  1.
       -2   -1    0    0    0  501  0.00000000000E+00  0.00000000000E+00 -0.23407276586E+03  0.23407276587E+03  0.25500000920E-02 0. -1.
    10030    2    1    2    0    0  0.00000000000E+00  0.00000000000E+00  0.84066277705E+03  0.13088083088E+04  0.10031277508E+04 0.  0.
        4    1    3    3  502    0 -0.58745368695E+02  0.36397411070E+03  0.86400881819E+03  0.93938332027E+03  0.12699999809E+01 0.  1.
       -4    1    3    3    0  502  0.58745368695E+02 -0.36397411070E+03 -0.23346041133E+02  0.36942498851E+03  0.12699999809E+01 0. -1.
</event>
<event>
 5   0  0.1285769E-03  0.1000813E+04  0.7818609E-02  0.9307653E-01
        1   -1    0    0  501    0  0.00000000000E+00  0.00000000000E+00  0.40112088663E+03  0.40112088666E+03  0.50400001928E-02 0. -1.
       -1   -1    0    0    0  501  0.00000000000E+00  0.00000000000E+00 -0.62426769574E+03  0.62426769576E+03  0.50400001928E-02 0.  1.
    10030    2    1    2    0    0  0.00000000000E+00  0.00000000000E+00 -0.22314680911E+03  0.10253885824E+04  0.10008132926E+04 0.  0.
        5    1    3    3  502    0 -0.47555063103E+03 -0.15327087512E+03 -0.83620542087E+02  0.50661114169E+03  0.46999998093E+01 0.  1.
       -5    1    3    3    0  502  0.47555063103E+03  0.15327087512E+03 -0.13952626703E+03  0.51877744074E+03  0.46999998093E+01 0. -1.
</event>
<event>
 5   0  0.2277570E-03  0.1001922E+04  0.7818609E-02  0.9306440E-01
       -2   -1    0    0    0  501  0.00000000000E+00  0.00000000000E+00  0.20481851558E+03  0.20481851560E+03  0.25500000920E-02 0.  1.
        2   -1    0    0  501    0  0.00000000000E+00  0.00000000000E+00 -0.12252881107E+04  0.12252881107E+04  0.25500000920E-02 0. -1.
    10030    2    1    2    0    0  0.00000000000E+00  0.00000000000E+00 -0.10204695951E+04  0.14301066263E+04  0.10019215379E+04 0.  0.
        3    1    3    3  502    0 -0.83156950791E+02 -0.42794209746E+03 -0.86251377150E+03  0.96642616556E+03  0.10100000352E+00 0. -1.
       -3    1    3    3    0  502  0.83156950791E+02  0.42794209746E+03 -0.15795582360E+03  0.46368046072E+03  0.10100000352E+00 0.  1.
</event>
<event>
 5   0  0.2264577E-03  0.1008107E+04  0.7818609E-02  0.9299698E-01
        2   -1    0    0  501    0  0.00000000000E+00  0.00000000000E+00  0.10939717424E+04  0.10939717424E+04  0.25500000920E-02 0. -1.
       -2   -1    0    0    0  501  0.00000000000E+00  0.00000000000E+00 -0.23224520795E+03  0.23224520796E+03  0.25500000920E-02 0.  1.
    10030    2    1    2    0    0  0.00000000000E+00  0.00000000000E+00  0.86172653441E+03  0.13262169503E+04  0.10081065317E+04 0.  0.
        5    1    3    3  502    0  0.17334611528E+03 -0.10850928351E+03 -0.17518312318E+03  0.26932203203E+03  0.46999998093E+01 0.  1.
       -5    1    3    3    0  502 -0.17334611528E+03  0.10850928351E+03  0.10369096576E+04  0.10568949183E+04  0.46999998093E+01 0. -1.
</event>
<event>
 5   0  0.1293716E-03  0.9982489E+03  0.7818609E-02  0.9310467E-01
       -1   -1    0    0    0  501  0.00000000000E+00  0.00000000000E+00  0.22746660919E+03  0.22746660925E+03  0.50400001928E-02 0.  1.
        1   -1    0    0  501    0  0.00000000000E+00  0.00000000000E+00 -0.10952167522E+04  0.10952167522E+04  0.50400001928E-02 0. -1.
    10030    2    1    2    0    0  0.00000000000E+00  0.00000000000E+00 -0.86775014299E+03  0.13226833614E+04  0.99824894889E+03 0.  0.
        3    1    3    3  502    0  0.43547384431E+03 -0.18065079514E+03 -0.65100208291E+03  0.80378846783E+03  0.10100000352E+00 0. -1.
       -3    1    3    3    0  502 -0.43547384431E+03  0.18065079514E+03 -0.21674806009E+03  0.51889489361E+03  0.10100000352E+00 0.  1.
</event>
<event>
 5   0  0.2284843E-03  0.9932286E+03  0.7818609E-02  0.9316003E-01
       -2   -1    0    0    0  501  0.00000000000E+00  0.00000000000E+00  0.33575068944E+03  0.33575068945E+03  0.25500000920E-02 0.  1.
        2   -1    0    0  501    0  0.00000000000E+00  0.00000000000E+00 -0.73455022624E+03  0.73455022624E+03  0.25500000920E-02 0. -1.
    10030    2    1    2    0    0  0.00000000000E+00  0.00000000000E+00 -0.39879953679E+03  0.10703009157E+04  0.99322856362E+03 0.  0.
        2    1    3    3  502    0  0.17186523430E+03 -0.40349946116E+03  0.51651082304E+02  0.44160764059E+03  0.25500000920E-02 0.  1.
       -2    1    3    3    0  502 -0.17186523430E+03  0.40349946116E+03 -0.45045061910E+03  0.62869327511E+03  0.25500000920E-02 0. -1.
</event>
<event>
 5   0  0.2255142E-03  0.9973194E+03  0.7818609E-02  0.9311490E-01
        2   -1    0    0  501    0  0.00000000000E+00  0.00000000000E+00  0.13914117096E+04  0.13914117096E+04  0.25500000920E-02 0. -1.
       -2   -1    0    0    0  501  0.00000000000E+00  0.00000000000E+00 -0.17871165898E+03  0.17871165900E+03  0.25500000920E-02 0.  1.
    10030    2    1    2    0    0  0.00000000000E+00  0.00000000000E+00  0.12127000507E+04  0.15701233686E+04  0.99731939712E+03 0.  0.
        4    1    3    3  502    0  0.41406978765E+03 -0.27532083807E+03  0.54734827592E+03  0.73949110947E+03  0.12699999809E+01 0.  1.
       -4    1    3    3    0  502 -0.41406978765E+03  0.27532083807E+03  0.66535177473E+03  0.83063225916E+03  0.12699999809E+01 0. -1.
</event>
<event>
 5   0  0.2255142E-03  0.9997570E+03  0.7818609E-02  0.9308811E-01
        2   -1    0    0  501    0  0.00000000000E+00  0.00000000000E+00  0.46222308438E+03  0.46222308439E+03  0.25500000920E-02 0. -1.
       -2   -1    0    0    0  501  0.00000000000E+00  0.00000000000E+00 -0.54060158584E+03  0.54060158584E+03  0.25500000920E-02 0.  1.
    10030    2    1    2    0    0  0.00000000000E+00  0.00000000000E+00 -0.78378501453E+02  0.10028246702E+04  0.99975703535E+03 0.  0.
        4    1    3    3  502    0  0.39905277642E+03  0.14609880608E+03 -0.30322485823E+03  0.52204875927E+03  0.12699999809E+01 0.  1.
       -4    1    3    3    0  502 -0.39905277642E+03 -0.14609880608E+03  0.22484635677E+03  0.48077591096E+03  0.12699999809E+01 0. -1.
</event>
<event>
 5   0  0.1293575E-03  0.1000054E+04  0.7818609E-02  0.9308485E-01
       -1   -1    0    0    0  501  0.00000000000E+00  0.00000000000E+00  0.36561377821E+03  0.36561377824E+03  0.50400001928E-02 0. -1.
        1   -1    0    0  501    0  0.00000000000E+00  0.00000000000E+00 -0.68385606698E+03  0.68385606699E+03  0.50400001928E-02 0.  1.
    10030    2    1    2    0    0  0.00000000000E+00  0.00000000000E+00 -0.31824228877E+03  0.10494698452E+04  0.10000543994E+04 0.  0.
        4    1    3    3  502    0  0.76758065354E+02 -0.46891689646E+03 -0.32254248094E+03  0.57429097267E+03  0.12699999809E+01 0.  1.
       -4    1    3    3    0  502 -0.76758065354E+02  0.46891689646E+03  0.43001921757E+01  0.47517887257E+03  0.12699999809E+01 0. -1.
</event>
<event>
 5   0  0.1293716E-03  0.1000871E+04  0.7818609E-02  0.9307590E-01
       -1   -1    0    0    0  501  0.00000000000E+00  0.00000000000E+00  0.27807420001E+03  0.27807420006E+03  0.50400001928E-02 0. -1.
        1   -1    0    0  501    0  0.00000000000E+00  0.00000000000E+00 -0.90060739068E+03  0.90060739070E+03  0.50400001928E-02 0.  1.
    10030    2    1    2    0    0  0.00000000000E+00  0.00000000000E+00 -0.62253319067E+03  0.11786815908E+04  0.10008709801E+04 0.  0.
        3    1    3    3  502    0 -0.20255934105E+03  0.44331064658E+03 -0.44492432981E+03  0.65993354626E+03  0.10100000352E+00 0.  1.
       -3    1    3    3    0  502  0.20255934105E+03 -0.44331064658E+03 -0.17760886086E+03  0.51874804450E+03  0.10100000352E+00 0. -1.
</event>
<event>
 5   0  0.1353789E-03  0.1002151E+04  0.7818609E-02  0.9306189E-01
       -1   -1    0    0    0  501  0.00000000000E+00  0.00000000000E+00  0.29546461294E+03  0.29546461298E+03  0.50400001928E-02 0.  1.
        1   -1    0    0  501    0  0.00000000000E+00  0.00000000000E+00 -0.84976864127E+03  0.84976864129E+03  0.50400001928E-02 0. -1.
    10030    2    1    2    0    0  0.00000000000E+00  0.00000000000E+00 -0.55430402834E+03  0.11452332543E+04  0.10021508124E+04 0.  0.
        1    1    3    3  502    0  0.42356148795E+03 -0.26302873049E+03 -0.33415480779E+03  0.60020653339E+03  0.50400001928E-02 0. -1.
       -1    1    3    3    0  502 -0.42356148795E+03  0.26302873049E+03 -0.22014922055E+03  0.54502672088E+03  0.50400001928E-02 0.  1.
</event>
<event>
 5   0  0.1249195E-03  0.1001629E+04  0.7818609E-02  0.9306760E-01
       -1   -1    0    0    0  501  0.00000000000E+00  0.00000000000E+00  0.54948176408E+03  0.54948176411E+03  0.50400001928E-02 0.  1.
        1   -1    0    0  501    0  0.00000000000E+00  0.00000000000E+00 -0.45645776825E+03  0.45645776828E+03  0.50400001928E-02 0. -1.
    10030    2    1    2    0    0  0.00000000000E+00  0.00000000000E+00  0.93023995830E+02  0.10059395324E+04  0.10016291125E+04 0.  0.
        2    1    3    3  502    0 -0.36380751461E+03  0.25875781080E+03 -0.18140891881E+03  0.48189283888E+03  0.25500000920E-02 0. -1.
       -2    1    3    3    0  502  0.36380751461E+03 -0.25875781080E+03  0.27443291464E+03  0.52404669351E+03  0.25500000920E-02 0.  1.
</event>
<event>
 5   0  0.1353789E-03  0.9996954E+03  0.7818609E-02  0.9308879E-01
        1   -1    0    0  501    0  0.00000000000E+00  0.00000000000E+00  0.41647068720E+03  0.41647068723E+03  0.50400001928E-02 0. -1.
       -1   -1    0    0    0  501  0.00000000000E+00  0.00000000000E+00 -0.59991665021E+03  0.59991665024E+03  0.50400001928E-02 0.  1.
    10030    2    1    2    0    0  0.00000000000E+00  0.00000000000E+00 -0.18344596302E+03  0.10163873375E+04  0.99969535280E+03 0.  0.
        1    1    3    3  502    0 -0.18097801605E+03 -0.23024220350E+03 -0.50355832170E+03  0.58252510499E+03  0.50400001928E-02 0.  1.
       -1    1    3    3    0  502  0.18097801605E+03  0.23024220350E+03  0.32011235868E+03  0.43386223248E+03  0.50400001928E-02 0. -1.
</event>
<event>
 5   0  0.2284843E-03  0.9986186E+03  0.7818609E-02  0.9310061E-01
        2   -1    0    0  501    0  0.00000000000E+00  0.00000000000E+00  0.19663249665E+04  0.19663249665E+04  0.25500000920E-02 0.  1.
       -2   -1    0    0    0  501  0.00000000000E+00  0.00000000000E+00 -0.12678971187E+03  0.12678971189E+03  0.25500000920E-02 0. -1.
    10030    2    1    2    0    0  0.00000000000E+00  0.00000000000E+00  0.18395352546E+04  0.20931146784E+04  0.99861859779E+03 0.  0.
        2    1    3    3  502    0  0.24897724282E+03  0.12322941923E+03  0.17893835526E+04  0.18108198849E+04  0.25500000920E-02 0.  1.
       -2    1    3    3    0  502 -0.24897724282E+03 -0.12322941923E+03  0.50151702018E+02  0.28229479348E+03  0.25500000920E-02 0. -1.
</event>
<event>
 5   0  0.1293575E-03  0.9853641E+03  0.7818609E-02  0.9324744E-01
        1   -1    0    0  501    0  0.00000000000E+00  0.00000000000E+00  0.94528036862E+03  0.94528036863E+03  0.50400001928E-02 0. -1.
       -1   -1    0    0    0  501  0.00000000000E+00  0.00000000000E+00 -0.25678686822E+03  0.25678686827E+03  0.50400001928E-02 0.  1.
    10030    2    1    2    0    0  0.00000000000E+00  0.00000000000E+00  0.68849350040E+03  0.12020672369E+04  0.98536406568E+03 0.  0.
        4    1    3    3  502    0  0.69789040359E+02 -0.20629754783E+03  0.88337052098E+03  0.90982101461E+03  0.12699999809E+01 0. -1.
       -4    1    3    3    0  502 -0.69789040359E+02  0.20629754783E+03 -0.19487702058E+03  0.29224622229E+03  0.12699999809E+01 0.  1.
</event>
<event>
 5   0  0.2255142E-03  0.9962863E+03  0.7818609E-02  0.9312627E-01
        2   -1    0    0  501    0  0.00000000000E+00  0.00000000000E+00  0.14528428525E+04  0.14528428525E+04  0.25500000920E-02 0. -1.
       -2   -1    0    0    0  501  0.00000000000E+00  0.00000000000E+00 -0.17080072358E+03  0.17080072360E+03  0.25500000920E-02 0.  1.
    10030    2    1    2    0    0  0.00000000000E+00  0.00000000000E+00  0.12820421289E+04  0.16236435761E+04  0.99628632524E+03 0.  0.
        4    1    3    3  502    0 -0.61817391066E+02 -0.32624442771E+03  0.12461808366E+04  0.12896608495E+04  0.12699999809E+01 0. -1.
       -4    1    3    3    0  502  0.61817391066E+02  0.32624442771E+03  0.35861292322E+02  0.33398272655E+03  0.12699999809E+01 0.  1.
</event>
<event>
 5   0  0.1353789E-03  0.1005838E+04  0.7818609E-02  0.9302165E-01
       -1   -1    0    0    0  501  0.00000000000E+00  0.00000000000E+00  0.51972676279E+03  0.51972676281E+03  0.50400001928E-02 0.  1.
        1   -1    0    0  501    0  0.00000000000E+00  0.00000000000E+00 -0.48665471007E+03  0.48665471009E+03  0.50400001928E-02 0. -1.
    10030    2    1    2    0    0  0.00000000000E+00  0.00000000000E+00  0.33072052723E+02  0.10063814729E+04  0.10058379136E+04 0.  0.
        1    1    3    3  502    0 -0.28500953892E+03 -0.24357311676E+03  0.35193229797E+03  0.51421264363E+03  0.50400001928E-02 0.  1.
       -1    1    3    3    0  502  0.28500953892E+03  0.24357311676E+03 -0.31886024525E+03  0.49216882928E+03  0.50400001928E-02 0. -1.
</event>
<event>
 5   0  0.1293716E-03  0.9922913E+03  0.7818609E-02  0.9317040E-01
       -1   -1    0    0    0  501  0.00000000000E+00  0.00000000000E+00  0.33015079082E+03  0.33015079086E+03  0.50400001928E-02 0.  1.
        1   -1    0    0  501    0  0.00000000000E+00  0.00000000000E+00 -0.74560019751E+03  0.74560019753E+03  0.50400001928E-02 0. -1.
    10030    2    1    2    0    0  0.00000000000E+00  0.00000000000E+00 -0.41544940669E+03  0.10757509884E+04  0.99229127755E+03 0.  0.
        3    1    3    3  502    0 -0.10316286039E+03 -0.30944079000E+03 -0.61301920942E+03  0.69439811318E+03  0.10100000352E+00 0. -1.
       -3    1    3    3    0  502  0.10316286039E+03  0.30944079000E+03  0.19756980273E+03  0.38135287521E+03  0.10100000352E+00 0.  1.
</event>
<event>
 5   0  0.2284843E-03  0.1000004E+04  0.7818609E-02  0.9308541E-01
        2   -1    0    0  501    0  0.00000000000E+00  0.00000000000E+00  0.61015725841E+03  0.61015725841E+03  0.25500000920E-02 0. -1.
       -2   -1    0    0    0  501  0.00000000000E+00  0.00000000000E+00 -0.40973340971E+03  0.40973340972E+03  0.25500000920E-02 0.  1.
    10030    2    1    2    0    0  0.00000000000E+00  0.00000000000E+00  0.20042384870E+03  0.10198906681E+04  0.10000036279E+04 0.  0.
        2    1    3    3  502    0 -0.13924579873E+02  0.12000182422E+03  0.59504893391E+03  0.60718824552E+03  0.25500000920E-02 0. -1.
       -2    1    3    3    0  502  0.13924579873E+02 -0.12000182422E+03 -0.39462508522E+03  0.41270242261E+03  0.25500000920E-02 0.  1.
</event>
<event>
 5   0  0.2277570E-03  0.1004138E+04  0.7818609E-02  0.9304018E-01
       -2   -1    0    0    0  501  0.00000000000E+00  0.00000000000E+00  0.25108311528E+03  0.25108311529E+03  0.25500000920E-02 0.  1.
        2   -1    0    0  501    0  0.00000000000E+00  0.00000000000E+00 -0.10039429003E+04  0.10039429003E+04  0.25500000920E-02 0. -1.
    10030    2    1    2    0    0  0.00000000000E+00  0.00000000000E+00 -0.75285978503E+03  0.12550260156E+04  0.10041376618E+04 0.  0.
        3    1    3    3  502    0  0.32434189918E+03  0.56404151863E+02 -0.85021215409E+03  0.91172353983E+03  0.10100000352E+00 0. -1.
       -3    1    3    3    0  502 -0.32434189918E+03 -0.56404151863E+02  0.97352369057E+02  0.34330247578E+03  0.10100000352E+00 0.  1.
</event>
<event>
 5   0  0.2264577E-03  0.1014482E+04  0.7818609E-02  0.9292802E-01
       -2   -1    0    0    0  501  0.00000000000E+00  0.00000000000E+00  0.31380467446E+03  0.31380467447E+03  0.25500000920E-02 0.  1.
        2   -1    0    0  501    0  0.00000000000E+00  0.00000000000E+00 -0.81991597231E+03  0.81991597231E+03  0.25500000920E-02 0. -1.
    10030    2    1    2    0    0  0.00000000000E+00  0.00000000000E+00 -0.50611129785E+03  0.11337206468E+04  0.10144820645E+04 0.  0.
        5    1    3    3  502    0  0.34164966278E+03  0.33806846370E+03 -0.71971307454E+02  0.48602133422E+03  0.46999998093E+01 0.  1.
       -5    1    3    3    0  502 -0.34164966278E+03 -0.33806846370E+03 -0.43413999040E+03  0.64769931256E+03  0.46999998093E+01 0. -1.
</event>
<event>
 5   0  0.1293575E-03  0.9832789E+03  0.7818609E-02  0.9327077E-01
       -1   -1    0    0    0  501  0.00000000000E+00  0.00000000000E+00  0.40250910756E+03  0.40250910759E+03  0.50400001928E-02 0.  1.
        1   -1    0    0  501    0  0.00000000000E+00  0.00000000000E+00 -0.60050657623E+03  0.60050657625E+03  0.50400001928E-02 0. -1.
    10030    2    1    2    0    0  0.00000000000E+00  0.00000000000E+00 -0.19799746867E+03  0.10030156838E+04  0.98327893522E+03 0.  0.
        4    1    3    3  502    0  0.35365123282E+03  0.33683855465E+03 -0.41490288319E+02  0.49015555011E+03  0.12699999809E+01 0.  1.
       -4    1    3    3    0  502 -0.35365123282E+03 -0.33683855465E+03 -0.15650718036E+03  0.51286013374E+03  0.12699999809E+01 0. -1.
</event>
<event>
 5   0  0.1353789E-03  0.9962246E+03  0.7818609E-02  0.9312695E-01
       -1   -1    0    0    0  501  0.00000000000E+00  0.00000000000E+00  0.84932875476E+03  0.84932875478E+03  0.50400001928E-02 0.  1.
        1   -1    0    0  501    0  0.00000000000E+00  0.00000000000E+00 -0.29213172067E+03  0.29213172072E+03  0.50400001928E-02 0. -1.
    10030    2    1    2    0    0  0.00000000000E+00  0.00000000000E+00  0.55719703409E+03  0.11414604755E+04  0.99622461439E+03 0.  0.
        1    1    3    3  502    0 -0.11155218258E+02  0.41167817765E+03 -0.42451753490E+02  0.41401148806E+03  0.50400001928E-02 0. -1.
       -1    1    3    3    0  502  0.11155218258E+02 -0.41167817765E+03  0.59964878758E+03  0.72744898743E+03  0.50400001928E-02 0.  1.
</event>
<event>
 5   0  0.1293716E-03  0.9918006E+03  0.7818609E-02  0.9317584E-01
       -1   -1    0    0    0  501  0.00000000000E+00  0.00000000000E+00  0.46133182126E+03  0.46133182128E+03  0.50400001928E-02 0. -1.
        1   -1    0    0  501    0  0.00000000000E+00  0.00000000000E+00 -0.53305902472E+03  0.53305902474E+03  0.50400001928E-02 0.  1.
    10030    2    1    2    0    0  0.00000000000E+00  0.00000000000E+00 -0.71727203463E+02  0.99439084603E+03  0.99180056612E+03 0.  0.
        3    1    3    3  502    0 -0.35948591647E+03  0.27109181797E+03 -0.24424332175E+03  0.51222622769E+03  0.10100000352E+00 0.  1.
       -3    1    3    3    0  502  0.35948591647E+03 -0.27109181797E+03  0.17251611829E+03  0.48216461834E+03  0.10100000352E+00 0. -1.
</event>
<event>
 5   0  0.2277570E-03  0.9905361E+03  0.7818609E-02  0.9318986E-01
       -2   -1    0    0    0  501  0.00000000000E+00  0.00000000000E+00  0.42666089149E+03  0.42666089150E+03  0.25500000920E-02 0. -1.
        2   -1    0    0  501    0  0.00000000000E+00  0.00000000000E+00 -0.57490728903E+03  0.57490728904E+03  0.25500000920E-02 0.  1.
    10030    2    1    2    0    0  0.00000000000E+00  0.00000000000E+00 -0.14824639754E+03  0.10015681805E+04  0.99053613053E+03 0.  0.
        3    1    3    3  502    0 -0.41444569765E+03  0.15269418399E+03 -0.30069402789E+03  0.53431980941E+03  0.10100000352E+00 0.  1.
       -3    1    3    3    0  502  0.41444569765E+03 -0.15269418399E+03  0.15244763035E+03  0.46724837113E+03  0.10100000352E+00 0. -1.
</event>
<event>
 5   0  0.2284843E-03  0.9869527E+03  0.7818609E-02  0.9322972E-01
        2   -1    0    0  501    0  0.00000000000E+00  0.00000000000E+00  0.10968892855E+04  0.10968892855E+04  0.25500000920E-02 0.  1.
       -2   -1    0    0    0  501  0.00000000000E+00  0.00000000000E+00 -0.22200863169E+03  0.22200863171E+03  0.25500000920E-02 0. -1.
    10030    2    1    2    0    0  0.00000000000E+00  0.00000000000E+00  0.87488065378E+03  0.13188979172E+04  0.98695266229E+03 0.  0.
        2    1    3    3  502    0  0.12283768386E+03 -0.82061355137E+02 -0.19176663698E+03  0.24206942320E+03  0.25500000920E-02 0. -1.
       -2    1    3    3    0  502 -0.12283768386E+03  0.82061355137E+02  0.10666472908E+04  0.10768284940E+04  0.25500000920E-02 0.  1.
</event>
<event>
 5   0  0.8680125E-04  0.1001770E+04  0.7818609E-02  0.9306606E-01
        4   -1    0    0  501    0  0.00000000000E+00  0.00000000000E+00  0.89633813901E+03  0.89633903872E+03  0.12699999809E+01 0. -1.
       -4   -1    0    0    0  501  0.00000000000E+00  0.00000000000E+00 -0.27989836725E+03  0.27990124846E+03  0.12699999809E+01 0.  1.
    10030    2    1    2    0    0  0.00000000000E+00  0.00000000000E+00  0.61643977175E+03  0.11762402872E+04  0.10017700440E+04 0.  0.
        5    1    3    3  502    0  0.12886797175E+03  0.15832951661E+03  0.84524789665E+03  0.86956384859E+03  0.46999998093E+01 0. -1.
       -5    1    3    3    0  502 -0.12886797175E+03 -0.15832951661E+03 -0.22880812490E+03  0.30667643860E+03  0.46999998093E+01 0.  1.
</event>
<event>
 5   0  0.1249195E-03  0.1000052E+04  0.7818609E-02  0.9308487E-01
        1   -1    0    0  501    0  0.00000000000E+00  0.00000000000E+00  0.33373620449E+03  0.33373620453E+03  0.50400001928E-02 0. -1.
       -1   -1    0    0    0  501  0.00000000000E+00  0.00000000000E+00 -0.74917306918E+03  0.74917306920E+03  0.50400001928E-02 0.  1.
    10030    2    1    2    0    0  0.00000000000E+00  0.00000000000E+00 -0.41543686469E+03  0.10829092737E+04  0.10000523519E+04 0.  0.
        2    1    3    3  502    0 -0.16245203698E+03 -0.32438076855E+02  0.30315769575E+03  0.34546704857E+03  0.25500000920E-02 0. -1.
       -2    1    3    3    0  502  0.16245203698E+03  0.32438076855E+02 -0.71859456044E+03  0.73744222516E+03  0.25500000920E-02 0.  1.
</event>
<event>
 5   0  0.2204862E-03  0.1001340E+04  0.7818609E-02  0.9307076E-01
       -2   -1    0    0    0  501  0.00000000000E+00  0.00000000000E+00  0.10604290924E+03  0.10604290927E+03  0.25500000920E-02 0.  1.
        2   -1    0    0  501    0  0.00000000000E+00  0.00000000000E+00 -0.23638608918E+04  0.23638608918E+04  0.25500000920E-02 0. -1.
    10030    2    1    2    0    0  0.00000000000E+00  0.00000000000E+00 -0.22578179825E+04  0.24699038011E+04  0.10013404737E+04 0.  0.
        1    1    3    3  502    0 -0.22356321866E+03 -0.37455392873E+03 -0.52271023705E+03  0.68080625012E+03  0.50400001928E-02 0.  1.
       -1    1    3    3    0  502  0.22356321866E+03  0.37455392873E+03 -0.17351077455E+04  0.17890975509E+04  0.50400001928E-02 0. -1.
</event>
<event>
 5   0  0.1293716E-03  0.9982181E+03  0.7818609E-02  0.9310501E-01
        1   -1    0    0  501    0  0.00000000000E+00  0.00000000000E+00  0.17511741777E+03  0.17511741784E+03  0.50400001928E-02 0. -1.
       -1   -1    0    0    0  501  0.00000000000E+00  0.00000000000E+00 -0.14225302301E+04  0.14225302301E+04  0.50400001928E-02 0.  1.
    10030    2    1    2    0    0  0.00000000000E+00  0.00000000000E+00 -0.12474128124E+04  0.15976476480E+04  0.99821805366E+03 0.  0.
        3    1    3    3  502    0 -0.20766978796E+03  0.65355789304E+01  0.10261076827E+03  0.23172922688E+03  0.10100000352E+00 0. -1.
       -3    1    3    3    0  502  0.20766978796E+03 -0.65355789304E+01 -0.13500235806E+04  0.13659184211E+04  0.10100000352E+00 0.  1.
</event>
<event>
 5   0  0.2204862E-03  0.1003330E+04  0.7818609E-02  0.9304900E-01
       -2   -1    0    0    0  501  0.00000000000E+00  0.00000000000E+00  0.29431195586E+03  0.29431195587E+03  0.25500000920E-02 0.  1.
        2   -1    0    0  501    0  0.00000000000E+00  0.00000000000E+00 -0.85510606889E+03  0.85510606890E+03  0.25500000920E-02 0. -1.
    10030    2    1    2    0    0  0.00000000000E+00  0.00000000000E+00 -0.56079411304E+03  0.11494180248E+04  0.10033303337E+04 0.  0.
        1    1    3    3  502    0  0.37556263921E+03  0.23110593600E+03 -0.63831189464E+01  0.44101926699E+03  0.50400001928E-02 0. -1.
       -1    1    3    3    0  502 -0.37556263921E+03 -0.23110593600E+03 -0.55441099409E+03  0.70839875777E+03  0.50400001928E-02 0.  1.
</event>
<event>
 5   0  0.1249195E-03  0.9960738E+03  0.7818609E-02  0.9312861E-01
       -1   -1    0    0    0  501  0.00000000000E+00  0.00000000000E+00  0.16314811634E+03  0.16314811642E+03  0.50400001928E-02 0.  1.
        1   -1    0    0  501    0  0.00000000000E+00  0.00000000000E+00 -0.15203409549E+04  0.15203409549E+04  0.50400001928E-02 0. -1.
    10030    2    1    2    0    0  0.00000000000E+00  0.00000000000E+00 -0.13571928386E+04  0.16834890714E+04  0.99607381869E+03 0.  0.
        2    1    3    3  502    0 -0.39917307979E+03  0.25314901930E+02 -0.17705128834E+03  0.43740959135E+03  0.25500000920E-02 0.  1.
       -2    1    3    3    0  502  0.39917307979E+03 -0.25314901930E+02 -0.11801415502E+04  0.12460794800E+04  0.25500000920E-02 0. -1.
</event>
<event>
 5   0  0.1293575E-03  0.9859092E+03  0.7818609E-02  0.9324136E-01
       -1   -1    0    0    0  501  0.00000000000E+00  0.00000000000E+00  0.25915177129E+03  0.25915177134E+03  0.50400001928E-02 0. -1.
        1   -1    0    0  501    0  0.00000000000E+00  0.00000000000E+00 -0.93769081674E+03  0.93769081675E+03  0.50400001928E-02 0.  1.
    10030    2    1    2    0    0  0.00000000000E+00  0.00000000000E+00 -0.67853904544E+03  0.11968425881E+04  0.98590919687E+03 0.  0.
        4    1    3    3  502    0 -0.33599060908E+03 -0.35289799400E+03 -0.42991771537E+03  0.64981346435E+03  0.12699999809E+01 0. -1.
       -4    1    3    3    0  502  0.33599060908E+03  0.35289799400E+03 -0.24862133007E+03  0.54702912374E+03  0.12699999809E+01 0.  1.
</event>
<event>
 5   0  0.2255142E-03  0.9963054E+03  0.7818609E-02  0.9312606E-01
        2   -1    0    0  501    0  0.00000000000E+00  0.00000000000E+00  0.67438476358E+03  0.67438476359E+03  0.25500000920E-02 0. -1.
       -2   -1    0    0    0  501  0.00000000000E+00  0.00000000000E+00 -0.36797407171E+03  0.36797407172E+03  0.25500000920E-02 0.  1.
    10030    2    1    2    0    0  0.00000000000E+00  0.00000000000E+00  0.30641069187E+03  0.10423588353E+04  0.99630538965E+03 0.  0.
        4    1    3    3  502    0  0.10587544554E+03 -0.13989955966E+03 -0.33457867518E+03  0.37779094688E+03  0.12699999809E+01 0.  1.
       -4    1    3    3    0  502 -0.10587544554E+03  0.13989955966E+03  0.64098936705E+03  0.66456788843E+03  0.12699999809E+01 0. -1.
</event>
<event>
 5   0  0.2284843E-03  0.1000041E+04  0.7818609E-02  0.9308500E-01
       -2   -1    0    0    0  501  0.00000000000E+00  0.00000000000E+00  0.34602435934E+03  0.34602435935E+03  0.25500000920E-02 0.  1.
        2   -1    0    0  501    0  0.00000000000E+00  0.00000000000E+00 -0.72255121215E+03  0.72255121216E+03  0.25500000920E-02 0. -1.
    10030    2    1    2    0    0  0.00000000000E+00  0.00000000000E+00 -0.37652685281E+03  0.10685755715E+04  0.10000406397E+04 0.  0.
        2    1    3    3  502    0 -0.74013936772E+02 -0.47812412344E+03 -0.53359052867E+02  0.48675243069E+03  0.25500000920E-02 0.  1.
       -2    1    3    3    0  502  0.74013936772E+02  0.47812412344E+03 -0.32316779995E+03  0.58182314081E+03  0.25500000920E-02 0. -1.
</event>
<event>
 5   0  0.1285769E-03  0.9981537E+03  0.7818609E-02  0.9310572E-01
        1   -1    0    0  501    0  0.00000000000E+00  0.00000000000E+00  0.25155230701E+03  0.25155230706E+03  0.50400001928E-02 0. -1.
       -1   -1    0    0    0  501  0.00000000000E+00  0.00000000000E+00 -0.99016262345E+03  0.99016262346E+03  0.50400001928E-02 0.  1.
    10030    2    1    2    0    0  0.00000000000E+00  0.00000000000E+00 -0.73861031644E+03  0.12417149305E+04  0.99815368012E+03 0.  0.
        5    1    3    3  502    0  0.86949195651E+02  0.13964390004E+03 -0.95543806957E+03  0.96950738844E+03  0.46999998093E+01 0.  1.
       -5    1    3    3    0  502 -0.86949195651E+02 -0.13964390004E+03  0.21682775314E+03  0.27220754209E+03  0.46999998093E+01 0. -1.
</event>
<event>
 5   0  0.2264577E-03  0.1003921E+04  0.7818609E-02  0.9304254E-01
       -2   -1    0    0    0  501  0.00000000000E+00  0.00000000000E+00  0.14540494554E+03  0.14540494556E+03  0.25500000920E-02 0. -1.
        2   -1    0    0  501    0  0.00000000000E+00  0.00000000000E+00 -0.17328469420E+04  0.17328469420E+04  0.25500000920E-02 0.  1.
    10030    2    1    2    0    0  0.00000000000E+00  0.00000000000E+00 -0.15874419964E+04  0.18782518875E+04  0.10039213420E+04 0.  0.
        5    1    3    3  502    0  0.12631285086E+03 -0.42064083027E+03 -0.33908940245E+03  0.55488499460E+03  0.46999998093E+01 0. -1.
       -5    1    3    3    0  502 -0.12631285086E+03  0.42064083027E+03 -0.12483525940E+04  0.13233668929E+04  0.46999998093E+01 0.  1.
</event>
<event>
 5   0  0.2284843E-03  0.1002055E+04  0.7818609E-02  0.9306294E-01
       -2   -1    0    0    0  501  0.00000000000E+00  0.00000000000E+00  0.15534695486E+03  0.15534695488E+03  0.25500000920E-02 0. -1.
        2   -1    0    0  501    0  0.00000000000E+00  0.00000000000E+00 -0.16159220879E+04  0.16159220879E+04  0.25500000920E-02 0.  1.
    10030    2    1    2    0    0  0.00000000000E+00  0.00000000000E+00 -0.14605751330E+04  0.17712690427E+04  0.10020550397E+04 0.  0.
        2    1    3    3  502    0 -0.30981381576E+03  0.35454684925E+03 -0.10330672719E+04  0.11353043896E+04  0.25500000920E-02 0.  1.
       -2    1    3    3    0  502  0.30981381576E+03 -0.35454684925E+03 -0.42750786116E+03  0.63596465320E+03  0.25500000920E-02 0. -1.
</event>
<event>
 5   0  0.8680125E-04  0.9997147E+03  0.7818609E-02  0.9308858E-01
        4   -1    0    0  501    0  0.00000000000E+00  0.00000000000E+00  0.21206962013E+03  0.21207342286E+03  0.12699999809E+01 0.  1.
       -4   -1    0    0    0  501  0.00000000000E+00  0.00000000000E+00 -0.11781707748E+04  0.11781714593E+04  0.12699999809E+01 0. -1.
    10030    2    1    2    0    0  0.00000000000E+00  0.00000000000E+00 -0.96610115468E+03  0.13902448822E+04  0.99971465494E+03 0.  0.
        4    1    3    3  502    0  0.12598861943E+03 -0.44158765023E+03 -0.75762026911E+03  0.88592486708E+03  0.12699999809E+01 0. -1.
       -4    1    3    3    0  502 -0.12598861943E+03  0.44158765023E+03 -0.20848088558E+03  0.50432001508E+03  0.12699999809E+01 0.  1.
</event>
<event>
 5   0  0.1293716E-03  0.9986017E+03  0.7818609E-02  0.9310080E-01
        1   -1    0    0  501    0  0.00000000000E+00  0.00000000000E+00  0.55543075601E+03  0.55543075603E+03  0.50400001928E-02 0.  1.
       -1   -1    0    0    0  501  0.00000000000E+00  0.00000000000E+00 -0.44884326462E+03  0.44884326465E+03  0.50400001928E-02 0. -1.
    10030    2    1    2    0    0  0.00000000000E+00  0.00000000000E+00  0.10658749139E+03  0.10042740207E+04  0.99860173007E+03 0.  0.
        3    1    3    3  502    0  0.23061639480E+03 -0.37931930225E+03  0.28314017318E+03  0.52653150189E+03  0.10100000352E+00 0.  1.
       -3    1    3    3    0  502 -0.23061639480E+03  0.37931930225E+03 -0.17655268179E+03  0.47774251879E+03  0.10100000352E+00 0. -1.
</event>
<event>
 5   0  0.2204862E-03  0.9983839E+03  0.7818609E-02  0.9310319E-01
       -2   -1    0    0    0  501  0.00000000000E+00  0.00000000000E+00  0.36543557361E+03  0.36543557362E+03  0.25500000920E-02 0.  1.
        2   -1    0    0  501    0  0.00000000000E+00  0.00000000000E+00 -0.68190573496E+03  0.68190573497E+03  0.25500000920E-02 0. -1.
    10030    2    1    2    0    0  0.00000000000E+00  0.00000000000E+00 -0.31647016135E+03  0.10473413086E+04  0.99838392097E+03 0.  0.
        1    1    3    3  502    0 -0.30641140068E+03  0.10334143050E+02  0.25503459236E+03  0.39879491510E+03  0.50400001928E-02 0.  1.
       -1    1    3    3    0  502  0.30641140068E+03 -0.10334143050E+02 -0.57150475370E+03  0.64854639349E+03  0.50400001928E-02 0. -1.
</event>
<event>
 5   0  0.1293716E-03  0.9949798E+03  0.7818609E-02  0.9314068E-01
        1   -1    0    0  501    0  0.00000000000E+00  0.00000000000E+00  0.21822065658E+04  0.21822065658E+04  0.50400001928E-02 0. -1.
       -1   -1    0    0    0  501  0.00000000000E+00  0.00000000000E+00 -0.11341555911E+03  0.11341555922E+03  0.50400001928E-02 0.  1.
    10030    2    1    2    0    0  0.00000000000E+00  0.00000000000E+00  0.20687910067E+04  0.22956221250E+04  0.99497975434E+03 0.  0.
        3    1    3    3  502    0  0.15350696361E+03  0.41973519453E+03  0.15385825696E+04  0.16021792518E+04  0.10100000352E+00 0. -1.
       -3    1    3    3    0  502 -0.15350696361E+03 -0.41973519453E+03  0.53020843715E+03  0.69344287323E+03  0.10100000352E+00 0.  1.
</event>
<event>
 5   0  0.2284843E-03  0.9866152E+03  0.7818609E-02  0.9323348E-01
       -2   -1    0    0    0  501  0.00000000000E+00  0.00000000000E+00  0.40596912536E+03  0.40596912537E+03  0.25500000920E-02 0. -1.
        2   -1    0    0  501    0  0.00000000000E+00  0.00000000000E+00 -0.59943573785E+03  0.59943573785E+03  0.25500000920E-02 0.  1.
    10030    2    1    2    0    0  0.00000000000E+00  0.00000000000E+00 -0.19346661248E+03  0.10054048632E+04  0.98661522837E+03 0.  0.
        2    1    3    3  502    0  0.55759057074E+02  0.67813197969E+02 -0.59141063301E+03  0.59789149443E+03  0.25500000920E-02 0.  1.
       -2    1    3    3    0  502 -0.55759057074E+02 -0.67813197969E+02  0.39794402053E+03  0.40751336880E+03  0.25500000920E-02 0. -1.
</event>
<event>
 5   0  0.2277570E-03  0.9927103E+03  0.7818609E-02  0.9316576E-01
        2   -1    0    0  501    0  0.00000000000E+00  0.00000000000E+00  0.63703248977E+03  0.63703248978E+03  0.25500000920E-02 0.  1.
       -2   -1    0    0    0  501  0.00000000000E+00  0.00000000000E+00 -0.38674391115E+03  0.38674391115E+03  0.25500000920E-02 0. -1.
    10030    2    1    2    0    0  0.00000000000E+00  0.00000000000E+00  0.25028857863E+03  0.10237764009E+04  0.99271030342E+03 0.  0.
        3    1    3    3  502    0  0.21301319917E+03 -0.29420392993E+03  0.47401734717E+03  0.59717922856E+03  0.10100000352E+00 0.  1.
       -3    1    3    3    0  502 -0.21301319917E+03  0.29420392993E+03 -0.22372876854E+03  0.42659717237E+03  0.10100000352E+00 0. -1.
</event>
<event>
 5   0  0.2204862E-03  0.1001366E+04  0.7818609E-02  0.9307047E-01
        2   -1    0    0  501    0  0.00000000000E+00  0.00000000000E+00  0.12270075018E+04  0.12270075019E+04  0.25500000920E-02 0. -1.
       -2   -1    0    0    0  501  0.00000000000E+00  0.00000000000E+00 -0.20430491930E+03  0.20430491931E+03  0.25500000920E-02 0.  1.
    10030    2    1    2    0    0  0.00000000000E+00  0.00000000000E+00  0.10227025826E+04  0.14313124212E+04  0.10013664038E+04 0.  0.
        1    1    3    3  502    0  0.31078872126E+03  0.28123330549E+03  0.11990024204E+03  0.43595627011E+03  0.50400001928E-02 0.  1.
       -1    1    3    3    0  502 -0.31078872126E+03 -0.28123330549E+03  0.90280234052E+03  0.99535615106E+03  0.50400001928E-02 0. -1.
</event>
<event>
 5   0  0.2264577E-03  0.9978141E+03  0.7818609E-02  0.9310945E-01
        2   -1    0    0  501    0  0.00000000000E+00  0.00000000000E+00  0.67532515949E+03  0.67532515950E+03  0.25500000920E-02 0.  1.
       -2   -1    0    0    0  501  0.00000000000E+00  0.00000000000E+00 -0.36857542394E+03  0.36857542395E+03  0.25500000920E-02 0. -1.
    10030    2    1    2    0    0  0.00000000000E+00  0.00000000000E+00  0.30674973556E+03  0.10439005834E+04  0.99781412490E+03 0.  0.
        5    1    3    3  502    0  0.12565171243E+03  0.39444382164E+02  0.65678776833E+03  0.66987795511E+03  0.46999998093E+01 0.  1.
       -5    1    3    3    0  502 -0.12565171243E+03 -0.39444382164E+02 -0.35003803277E+03  0.37402262833E+03  0.46999998093E+01 0. -1.
</event>
<event>
 5   0  0.1293575E-03  0.9949971E+03  0.7818609E-02  0.9314049E-01
        1   -1    0    0  501    0  0.00000000000E+00  0.00000000000E+00  0.35825791896E+03  0.35825791899E+03  0.50400001928E-02 0. -1.
       -1   -1    0    0    0  501  0.00000000000E+00  0.00000000000E+00 -0.69085654688E+03  0.69085654690E+03  0.50400001928E-02 0.  1.
    10030    2    1    2    0    0  0.00000000000E+00  0.00000000000E+00 -0.33259862792E+03  0.10491144659E+04  0.99499714334E+03 0.  0.
        4    1    3    3  502    0 -0.30250857489E+03  0.24407837760E+03  0.16110095208E+03  0.42076219169E+03  0.12699999809E+01 0. -1.
       -4    1    3    3    0  502  0.30250857489E+03 -0.24407837760E+03 -0.49369958001E+03  0.62835227420E+03  0.12699999809E+01 0.  1.
</event>
<event>
 5   0  0.1285769E-03  0.1009496E+04  0.7818609E-02  0.9298190E-01
        1   -1    0    0  501    0  0.00000000000E+00  0.00000000000E+00  0.64462872381E+03  0.64462872383E+03  0.50400001928E-02 0. -1.
       -1   -1    0    0    0  501  0.00000000000E+00  0.00000000000E+00 -0.39522088801E+03  0.39522088805E+03  0.50400001928E-02 0.  1.
    10030    2    1    2    0    0  0.00000000000E+00  0.00000000000E+00  0.24940783580E+03  0.10398496119E+04  0.10094963827E+04 0.  0.
        5    1    3    3  502    0 -0.22585284337E+02  0.50373701844E+03  0.14744878016E+03  0.52538015910E+03  0.46999998093E+01 0.  1.
       -5    1    3    3    0  502  0.22585284337E+02 -0.50373701844E+03  0.10195905564E+03  0.51446945277E+03  0.46999998093E+01 0. -1.
</event>
<event>
 5   0  0.8680125E-04  0.1004181E+04  0.7818609E-02  0.9303971E-01
        3   -1    0    0  501    0  0.00000000000E+00  0.00000000000E+00  0.23116053515E+03  0.23116055721E+03  0.10100000352E+00 0.  1.
       -3   -1    0    0    0  501  0.00000000000E+00  0.00000000000E+00 -0.10905608993E+04  0.10905609040E+04  0.10100000352E+00 0. -1.
    10030    2    1    2    0    0  0.00000000000E+00  0.00000000000E+00 -0.85940036418E+03  0.13217214612E+04  0.10041805789E+04 0.  0.
        3    1    3    3  502    0  0.13873851699E+03  0.17903160208E+03 -0.10194983841E+04  0.10443551388E+04  0.10100000352E+00 0. -1.
       -3    1    3    3    0  502 -0.13873851699E+03 -0.17903160208E+03  0.16009801988E+03  0.27736632242E+03  0.10100000352E+00 0.  1.
</event>
<event>
 5   0  0.2255142E-03  0.1005748E+04  0.7818609E-02  0.9302263E-01
        2   -1    0    0  501    0  0.00000000000E+00  0.00000000000E+00  0.14317594243E+04  0.14317594243E+04  0.25500000920E-02 0.  1.
       -2   -1    0    0    0  501  0.00000000000E+00  0.00000000000E+00 -0.17662344287E+03  0.17662344288E+03  0.25500000920E-02 0. -1.
    10030    2    1    2    0    0  0.00000000000E+00  0.00000000000E+00  0.12551359814E+04  0.16083828672E+04  0.10057480378E+04 0.  0.
        4    1    3    3  502    0 -0.12093630316E+03 -0.19564290389E+03  0.13427101234E+04  0.13622678971E+04  0.12699999809E+01 0.  1.
       -4    1    3    3    0  502  0.12093630316E+03  0.19564290389E+03 -0.87574141910E+02  0.24611497008E+03  0.12699999809E+01 0. -1.
</event>
<event>
 5   0  0.1293575E-03  0.1009332E+04  0.7818609E-02  0.9298368E-01
        1   -1    0    0  501    0  0.00000000000E+00  0.00000000000E+00  0.10972337143E+04  0.10972337143E+04  0.50400001928E-02 0.  1.
       -1   -1    0    0    0  501  0.00000000000E+00  0.00000000000E+00 -0.23211826461E+03  0.23211826466E+03  0.50400001928E-02 0. -1.
    10030    2    1    2    0    0  0.00000000000E+00  0.00000000000E+00  0.86511544969E+03  0.13293519790E+04  0.10093324243E+04 0.  0.
        4    1    3    3  502    0  0.30329686129E+03 -0.36247197549E+03  0.66561216255E+03  0.81634311592E+03  0.12699999809E+01 0.  1.
       -4    1    3    3    0  502 -0.30329686129E+03  0.36247197549E+03  0.19950328714E+03  0.51300886305E+03  0.12699999809E+01 0. -1.
</event>
<event>
 5   0  0.8680125E-04  0.9970697E+03  0.7818609E-02  0.9311765E-01
       -3   -1    0    0    0  501  0.00000000000E+00  0.00000000000E+00  0.61994562519E+03  0.61994563342E+03  0.10100000352E+00 0. -1.
        3   -1    0    0  501    0  0.00000000000E+00  0.00000000000E+00 -0.40090123363E+03  0.40090124635E+03  0.10100000352E+00 0.  1.
    10030    2    1    2    0    0  0.00000000000E+00  0.00000000000E+00  0.21904439156E+03  0.10208468798E+04  0.99706965979E+03 0.  0.
        3    1    3    3  502    0 -0.35444013955E+03  0.69900159705E+01  0.46839527323E+03  0.58742728489E+03  0.10100000352E+00 0. -1.
       -3    1    3    3    0  502  0.35444013955E+03 -0.69900159705E+01 -0.24935088167E+03  0.43341959489E+03  0.10100000352E+00 0.  1.
</event>
<event>
 5   0  0.1353789E-03  0.1000852E+04  0.7818609E-02  0.9307611E-01
       -1   -1    0    0    0  501  0.00000000000E+00  0.00000000000E+00  0.13740631629E+03  0.13740631638E+03  0.50400001928E-02 0. -1.
        1   -1    0    0  501    0  0.00000000000E+00  0.00000000000E+00 -0.18225223775E+04  0.18225223775E+04  0.50400001928E-02 0.  1.
    10030    2    1    2    0    0  0.00000000000E+00  0.00000000000E+00 -0.16851160612E+04  0.19599286938E+04  0.10008518099E+04 0.  0.
        1    1    3    3  502    0  0.30999590338E+03  0.37379899414E+03 -0.60591669074E+03  0.77650382116E+03  0.50400001928E-02 0. -1.
       -1    1    3    3    0  502 -0.30999590338E+03 -0.37379899414E+03 -0.10791993704E+04  0.11834248727E+04  0.50400001928E-02 0.  1.
</event>
<event>
 5   0  0.2204862E-03  0.1002391E+04  0.7818609E-02  0.9305926E-01
        2   -1    0    0  501    0  0.00000000000E+00  0.00000000000E+00  0.87516923333E+03  0.87516923333E+03  0.25500000920E-02 0. -1.
       -2   -1    0    0    0  501  0.00000000000E+00  0.00000000000E+00 -0.28702667427E+03  0.28702667429E+03  0.25500000920E-02 0.  1.
    10030    2    1    2    0    0  0.00000000000E+00  0.00000000000E+00  0.58814255906E+03  0.11621959076E+04  0.10023909706E+04 0.  0.
        1    1    3    3  502    0  0.28965440742E+03 -0.34689027514E+03  0.54533308310E+03  0.70825186924E+03  0.50400001928E-02 0. -1.
       -1    1    3    3    0  502 -0.28965440742E+03  0.34689027514E+03  0.42809475958E+02  0.45394403838E+03  0.50400001928E-02 0.  1.
</event>
<event>
 5   0  0.1285769E-03  0.9997180E+03  0.7818609E-02  0.9308854E-01
        1   -1    0    0  501    0  0.00000000000E+00  0.00000000000E+00  0.58401408907E+03  0.58401408909E+03  0.50400001928E-02 0. -1.
       -1   -1    0    0    0  501  0.00000000000E+00  0.00000000000E+00 -0.42783047536E+03  0.42783047538E+03  0.50400001928E-02 0.  1.
    10030    2    1    2    0    0  0.00000000000E+00  0.00000000000E+00  0.15618361371E+03  0.10118445645E+04  0.99971801097E+03 0.  0.
        5    1    3    3  502    0  0.45999354552E+03 -0.12792384575E+03 -0.71615742027E+02  0.48281412234E+03  0.46999998093E+01 0. -1.
       -5    1    3    3    0  502 -0.45999354552E+03  0.12792384575E+03  0.22779935574E+03  0.52903044213E+03  0.46999998093E+01 0.  1.
</event>
<event>
 5   0  0.2255142E-03  0.9979126E+03  0.7818609E-02  0.9310837E-01
       -2   -1    0    0    0  501  0.00000000000E+00  0.00000000000E+00  0.37904797442E+03  0.37904797443E+03  0.25500000920E-02 0. -1.
        2   -1    0    0  501    0  0.00000000000E+00  0.00000000000E+00 -0.65679654281E+03  0.65679654282E+03  0.25500000920E-02 0.  1.
    10030    2    1    2    0    0  0.00000000000E+00  0.00000000000E+00 -0.27774856839E+03  0.10358445172E+04  0.99791261975E+03 0.  0.
        4    1    3    3  502    0  0.21405432230E+03 -0.83655626240E+02 -0.59858351735E+03  0.64118745843E+03  0.12699999809E+01 0.  1.
       -4    1    3    3    0  502 -0.21405432230E+03  0.83655626240E+02  0.32083494897E+03  0.39465705882E+03  0.12699999809E+01 0. -1.
</event>
<event>
 5   0  0.2204862E-03  0.9928477E+03  0.7818609E-02  0.9316424E-01
        2   -1    0    0  501    0  0.00000000000E+00  0.00000000000E+00  0.67846960208E+03  0.67846960208E+03  0.25500000920E-02 0. -1.
       -2   -1    0    0    0  501  0.00000000000E+00  0.00000000000E+00 -0.36322426191E+03  0.36322426192E+03  0.25500000920E-02 0.  1.
    10030    2    1    2    0    0  0.00000000000E+00  0.00000000000E+00  0.31524534017E+03  0.10416938640E+04  0.99284766294E+03 0.  0.
        1    1    3    3  502    0 -0.28041055442E+03  0.40946883462E+03  0.17011715538E+03  0.52462810841E+03  0.50400001928E-02 0. -1.
       -1    1    3    3    0  502  0.28041055442E+03 -0.40946883462E+03  0.14512818479E+03  0.51706575559E+03  0.50400001928E-02 0.  1.
</event>
<event>
 5   0  0.2277570E-03  0.1001799E+04  0.7818609E-02  0.9306574E-01
       -2   -1    0    0    0  501  0.00000000000E+00  0.00000000000E+00  0.34961838343E+03  0.34961838344E+03  0.25500000920E-02 0. -1.
        2   -1    0    0  501    0  0.00000000000E+00  0.00000000000E+00 -0.71764096560E+03  0.71764096561E+03  0.25500000920E-02 0.  1.
    10030    2    1    2    0    0  0.00000000000E+00  0.00000000000E+00 -0.36802258217E+03  0.10672593491E+04  0.10017993298E+04 0.  0.
        3    1    3    3  502    0  0.31432390138E+03  0.25217912693E+03 -0.50095136197E+03  0.64291998281E+03  0.10100000352E+00 0.  1.
       -3    1    3    3    0  502 -0.31432390138E+03 -0.25217912693E+03  0.13292877980E+03  0.42433936624E+03  0.10100000352E+00 0. -1.
</event>
<event>
 5   0  0.2284843E-03  0.1002599E+04  0.7818609E-02  0.9305699E-01
       -2   -1    0    0    0  501  0.00000000000E+00  0.00000000000E+00  0.20181620837E+03  0.20181620839E+03  0.25500000920E-02 0.  1.
        2   -1    0    0  501    0  0.00000000000E+00  0.00000000000E+00 -0.12451986896E+04  0.12451986896E+04  0.25500000920E-02 0. -1.
    10030    2    1    2    0    0  0.00000000000E+00  0.00000000000E+00 -0.10433824812E+04  0.14470148979E+04  0.10025991786E+04 0.  0.
        2    1    3    3  502    0 -0.23101723676E+02  0.29076614074E+03  0.66733257807E+02  0.29921892644E+03  0.25500000920E-02 0.  1.
       -2    1    3    3    0  502  0.23101723676E+02 -0.29076614074E+03 -0.11101157390E+04  0.11477959715E+04  0.25500000920E-02 0. -1.
</event>
<event>
 5   0  0.2204862E-03  0.1009148E+04  0.7818609E-02  0.9298568E-01
       -2   -1    0    0    0  501  0.00000000000E+00  0.00000000000E+00  0.13680293117E+03  0.13680293120E+03  0.25500000920E-02 0.  1.
        2   -1    0    0  501    0  0.00000000000E+00  0.00000000000E+00 -0.18610335261E+04  0.18610335261E+04  0.25500000920E-02 0. -1.
    10030    2    1    2    0    0  0.00000000000E+00  0.00000000000E+00 -0.17242305949E+04  0.19978364573E+04  0.10091478413E+04 0.  0.
        1    1    3    3  502    0 -0.23661245035E+03  0.40478576309E+03 -0.49302574553E+03  0.68037588982E+03  0.50400001928E-02 0.  1.
       -1    1    3    3    0  502  0.23661245035E+03 -0.40478576309E+03 -0.12312048494E+04  0.13174605674E+04  0.50400001928E-02 0. -1.
</event>
<event>
 5   0  0.2264577E-03  0.9909674E+03  0.7818609E-02  0.9318507E-01
        2   -1    0    0  501    0  0.00000000000E+00  0.00000000000E+00  0.64972231595E+03  0.64972231596E+03  0.25500000920E-02 0. -1.
       -2   -1    0    0    0  501  0.00000000000E+00  0.00000000000E+00 -0.37786005388E+03  0.37786005388E+03  0.25500000920E-02 0.  1.
    10030    2    1    2    0    0  0.00000000000E+00  0.00000000000E+00  0.27186226208E+03  0.10275823698E+04  0.99096742493E+03 0.  0.
        5    1    3    3  502    0  0.20740776183E+03 -0.19501891240E+03  0.55641563075E+03  0.62503663893E+03  0.46999998093E+01 0. -1.
       -5    1    3    3    0  502 -0.20740776183E+03  0.19501891240E+03 -0.28455336867E+03  0.40254573092E+03  0.46999998093E+01 0.  1.
</event>
<event>
 5   0  0.2284843E-03  0.1000097E+04  0.7818609E-02  0.9308439E-01
       -2   -1    0    0    0  501  0.00000000000E+00  0.00000000000E+00  0.12820682224E+03  0.12820682226E+03  0.25500000920E-02 0. -1.
        2   -1    0    0  501    0  0.00000000000E+00  0.00000000000E+00 -0.19503509598E+04  0.19503509598E+04  0.25500000920E-02 0.  1.
    10030    2    1    2    0    0  0.00000000000E+00  0.00000000000E+00 -0.18221441375E+04  0.20785577820E+04  0.10000965930E+04 0.  0.
        2    1    3    3  502    0  0.40808725950E+03  0.25538437933E+03 -0.62997932312E+03  0.79286211925E+03  0.25500000920E-02 0. -1.
       -2    1    3    3    0  502 -0.40808725950E+03 -0.25538437933E+03 -0.11921648144E+04  0.12856956628E+04  0.25500000920E-02 0.  1.
</event>
<event>
 5   0  0.1293716E-03  0.9985946E+03  0.7818609E-02  0.9310088E-01
       -1   -1    0    0    0  501  0.00000000000E+00  0.00000000000E+00  0.91253931597E+03  0.91253931599E+03  0.50400001928E-02 0. -1.
        1   -1    0    0  501    0  0.00000000000E+00  0.00000000000E+00 -0.27319127683E+03  0.27319127688E+03  0.50400001928E-02 0.  1.
    10030    2    1    2    0    0  0.00000000000E+00  0.00000000000E+00  0.63934803914E+03  0.11857305929E+04  0.99859457425E+03 0.  0.
        3    1    3    3  502    0 -0.14360854390E+03 -0.45948885139E+03  0.16239691952E+03  0.50806120508E+03  0.10100000352E+00 0. -1.
       -3    1    3    3    0  502  0.14360854390E+03  0.45948885139E+03  0.47695111962E+03  0.67766938779E+03  0.10100000352E+00 0.  1.
</event>
<event>
 5   0  0.1353789E-03  0.9934150E+03  0.7818609E-02  0.9315797E-01
        1   -1    0    0  501    0  0.00000000000E+00  0.00000000000E+00  0.46967778270E+03  0.46967778273E+03  0.50400001928E-02 0. -1.
       -1   -1    0    0    0  501  0.00000000000E+00  0.00000000000E+00 -0.52529274779E+03  0.52529274782E+03  0.50400001928E-02 0.  1.
    10030    2    1    2    0    0  0.00000000000E+00  0.00000000000E+00 -0.55614965090E+02  0.99497053055E+03  0.99341498495E+03 0.  0.
        1    1    3    3  502    0  0.34186584304E+02 -0.42181703674E+03 -0.28825312043E+03  0.51204315881E+03  0.50400001928E-02 0.  1.
       -1    1    3    3    0  502 -0.34186584304E+02  0.42181703674E+03  0.23263815534E+03  0.48292737174E+03  0.50400001928E-02 0. -1.
</event>
<event>
 5   0  0.2255142E-03  0.9982782E+03  0.7818609E-02  0.9310435E-01
        2   -1    0    0  501    0  0.00000000000E+00  0.00000000000E+00  0.18416326335E+04  0.18416326335E+04  0.25500000920E-02 0. -1.
       -2   -1    0    0    0  501  0.00000000000E+00  0.00000000000E+00 -0.13528205456E+03  0.13528205458E+03  0.25500000920E-02 0.  1.
    10030    2    1    2    0    0  0.00000000000E+00  0.00000000000E+00  0.17063505790E+04  0.19769146881E+04  0.99827821059E+03 0.  0.
        4    1    3    3  502    0  0.44059259181E+03 -0.18145039468E+03  0.55883115532E+03  0.73439767888E+03  0.12699999809E+01 0.  1.
       -4    1    3    3    0  502 -0.44059259181E+03  0.18145039468E+03  0.11475194237E+04  0.12425170092E+04  0.12699999809E+01 0. -1.
</event>
<event>
 5   0  0.2264577E-03  0.1000912E+04  0.7818609E-02  0.9307545E-01
       -2   -1    0    0    0  501  0.00000000000E+00  0.00000000000E+00  0.87464024923E+03  0.87464024923E+03  0.25500000920E-02 0.  1.
        2   -1    0    0  501    0  0.00000000000E+00  0.00000000000E+00 -0.28635359820E+03  0.28635359821E+03  0.25500000920E-02 0. -1.
    10030    2    1    2    0    0  0.00000000000E+00  0.00000000000E+00  0.58828665103E+03  0.11609938474E+04  0.10009123488E+04 0.  0.
        5    1    3    3  502    0  0.49540521144E+03 -0.20782873128E+02  0.21567780997E+03  0.54073769893E+03  0.46999998093E+01 0.  1.
       -5    1    3    3    0  502 -0.49540521144E+03  0.20782873128E+02  0.37260884106E+03  0.62025614851E+03  0.46999998093E+01 0. -1.
</event>
<event>
 5   0  0.2264577E-03  0.9352820E+03  0.7818609E-02  0.9382521E-01
        2   -1    0    0  501    0  0.00000000000E+00  0.00000000000E+00  0.32258859199E+03  0.32258859200E+03  0.25500000920E-02 0.  1.
       -2   -1    0    0    0  501  0.00000000000E+00  0.00000000000E+00 -0.67791636394E+03  0.67791636394E+03  0.25500000920E-02 0. -1.
    10030    2    1    2    0    0  0.00000000000E+00  0.00000000000E+00 -0.35532777195E+03  0.10005049559E+04  0.93528195821E+03 0.  0.
        5    1    3    3  502    0 -0.29768339992E+03  0.13847399596E+03  0.17853664604E+03  0.37374841554E+03  0.46999998093E+01 0.  1.
       -5    1    3    3    0  502  0.29768339992E+03 -0.13847399596E+03 -0.53386441798E+03  0.62675654040E+03  0.46999998093E+01 0. -1.
</event>
<event>
 5   0  0.1293575E-03  0.1000531E+04  0.7818609E-02  0.9307963E-01
       -1   -1    0    0    0  501  0.00000000000E+00  0.00000000000E+00  0.71459924222E+03  0.71459924224E+03  0.50400001928E-02 0.  1.
        1   -1    0    0  501    0  0.00000000000E+00  0.00000000000E+00 -0.35021787481E+03  0.35021787485E+03  0.50400001928E-02 0. -1.
    10030    2    1    2    0    0  0.00000000000E+00  0.00000000000E+00  0.36438136741E+03  0.10648171171E+04  0.10005307151E+04 0.  0.
        4    1    3    3  502    0  0.42333667352E+03  0.12564519169E+03 -0.67995004577E+02  0.44679479282E+03  0.12699999809E+01 0.  1.
       -4    1    3    3    0  502 -0.42333667352E+03 -0.12564519169E+03  0.43237637199E+03  0.61802232427E+03  0.12699999809E+01 0. -1.
</event>
<event>
 5   0  0.1285769E-03  0.1000780E+04  0.7818609E-02  0.9307689E-01
        1   -1    0    0  501    0  0.00000000000E+00  0.00000000000E+00  0.45397731154E+03  0.45397731156E+03  0.50400001928E-02 0.  1.
       -1   -1    0    0    0  501  0.00000000000E+00  0.00000000000E+00 -0.55154809686E+03  0.55154809688E+03  0.50400001928E-02 0. -1.
    10030    2    1    2    0    0  0.00000000000E+00  0.00000000000E+00 -0.97570785325E+02  0.10055254084E+04  0.10007803400E+04 0.  0.
        5    1    3    3  502    0  0.40385848390E+03  0.28779700968E+03 -0.11573041679E+03  0.50925868983E+03  0.46999998093E+01 0.  1.
       -5    1    3    3    0  502 -0.40385848390E+03 -0.28779700968E+03  0.18159631463E+02  0.49626671862E+03  0.46999998093E+01 0. -1.
</event>
<event>
 5   0  0.2204862E-03  0.9925655E+03  0.7818609E-02  0.9316737E-01
        2   -1    0    0  501    0  0.00000000000E+00  0.00000000000E+00  0.13311273980E+04  0.13311273980E+04  0.25500000920E-02 0.  1.
       -2   -1    0    0    0  501  0.00000000000E+00  0.00000000000E+00 -0.18502853770E+03  0.18502853772E+03  0.25500000920E-02 0. -1.
    10030    2    1    2    0    0  0.00000000000E+00  0.00000000000E+00  0.11460988603E+04  0.15161559357E+04  0.99256547584E+03 0.  0.
        1    1    3    3  502    0 -0.20032296390E+03  0.17165096842E+03  0.12151557231E+04  0.12434616103E+04  0.50400001928E-02 0.  1.
       -1    1    3    3    0  502  0.20032296390E+03 -0.17165096842E+03 -0.69056862760E+02  0.27269432548E+03  0.50400001928E-02 0. -1.
</event>
<event>
 5   0  0.2255142E-03  0.9965544E+03  0.7818609E-02  0.9312332E-01
       -2   -1    0    0    0  501  0.00000000000E+00  0.00000000000E+00  0.13179983029E+03  0.13179983031E+03  0.25500000920E-02 0. -1.
        2   -1    0    0  501    0  0.00000000000E+00  0.00000000000E+00 -0.18837669691E+04  0.18837669691E+04  0.25500000920E-02 0.  1.
    10030    2    1    2    0    0  0.00000000000E+00  0.00000000000E+00 -0.17519671388E+04  0.20155667994E+04  0.99655439764E+03 0.  0.
        4    1    3    3  502    0 -0.46286799006E+03 -0.41928741960E+02 -0.12393300496E+04  0.13236107360E+04  0.12699999809E+01 0. -1.
       -4    1    3    3    0  502  0.46286799006E+03  0.41928741960E+02 -0.51263708925E+03  0.69195606349E+03  0.12699999809E+01 0.  1.
</event>
<event>
 5   0  0.2284843E-03  0.9975136E+03  0.7818609E-02  0.9311276E-01
        2   -1    0    0  501    0  0.00000000000E+00  0.00000000000E+00  0.59791467846E+03  0.59791467846E+03  0.25500000920E-02 0. -1.
       -2   -1    0    0    0  501  0.00000000000E+00  0.00000000000E+00 -0.41604321687E+03  0.41604321688E+03  0.25500000920E-02 0.  1.
    10030    2    1    2    0    0  0.00000000000E+00  0.00000000000E+00  0.18187146158E+03  0.10139578953E+04  0.99751360141E+03 0.  0.
        2    1    3    3  502    0 -0.15451785410E+03 -0.39474743272E+03 -0.17618345687E+03  0.45906634962E+03  0.25500000920E-02 0.  1.
       -2    1    3    3    0  502  0.15451785410E+03  0.39474743272E+03  0.35805491846E+03  0.55489154572E+03  0.25500000920E-02 0. -1.
</event>
<event>
 5   0  0.2284843E-03  0.1009968E+04  0.7818609E-02  0.9297679E-01
       -2   -1    0    0    0  501  0.00000000000E+00  0.00000000000E+00  0.94882925558E+02  0.94882925592E+02  0.25500000920E-02 0. -1.
        2   -1    0    0  501    0  0.00000000000E+00  0.00000000000E+00 -0.26876146468E+04  0.26876146468E+04  0.25500000920E-02 0.  1.
    10030    2    1    2    0    0  0.00000000000E+00  0.00000000000E+00 -0.25927317213E+04  0.27824975724E+04  0.10099678025E+04 0.  0.
        2    1    3    3  502    0  0.86829277738E+02  0.33753254729E+02  0.71004108840E+02  0.11713321116E+03  0.25500000920E-02 0. -1.
       -2    1    3    3    0  502 -0.86829277738E+02 -0.33753254729E+02 -0.26637358301E+04  0.26653643613E+04  0.25500000920E-02 0.  1.
</event>
<event>
 5   0  0.8680125E-04  0.1007083E+04  0.7818609E-02  0.9300811E-01
        4   -1    0    0  501    0  0.00000000000E+00  0.00000000000E+00  0.77669279032E+03  0.77669382863E+03  0.12699999809E+01 0.  1.
       -4   -1    0    0    0  501  0.00000000000E+00  0.00000000000E+00 -0.32645077149E+03  0.32645324184E+03  0.12699999809E+01 0. -1.
    10030    2    1    2    0    0  0.00000000000E+00  0.00000000000E+00  0.45024201883E+03  0.11031470705E+04  0.10070827094E+04 0.  0.
        5    1    3    3  502    0  0.46045970162E+02  0.35469400904E+03 -0.16309152400E+03  0.39312721429E+03  0.46999998093E+01 0. -1.
       -5    1    3    3    0  502 -0.46045970162E+02 -0.35469400904E+03  0.61333354283E+03  0.71001985618E+03  0.46999998093E+01 0.  1.
</event>
<event>
 5   0  0.1293716E-03  0.1001399E+04  0.7818609E-02  0.9307011E-01
        1   -1    0    0  501    0  0.00000000000E+00  0.00000000000E+00  0.48804483800E+03  0.48804483802E+03  0.50400001928E-02 0. -1.
       -1   -1    0    0    0  501  0.00000000000E+00  0.00000000000E+00 -0.51368271060E+03  0.51368271063E+03  0.50400001928E-02 0.  1.
    10030    2    1    2    0    0  0.00000000000E+00  0.00000000000E+00 -0.25637872606E+02  0.10017275487E+04  0.10013994114E+04 0.  0.
        3    1    3    3  502    0  0.20378138945E+03  0.26535634573E+02  0.44391494104E+03  0.48917428353E+03  0.10100000352E+00 0. -1.
       -3    1    3    3    0  502 -0.20378138945E+03 -0.26535634573E+02 -0.46955281364E+03  0.51255326512E+03  0.10100000352E+00 0.  1.
</event>
<event>
 5   0  0.2264577E-03  0.1002826E+04  0.7818609E-02  0.9305450E-01
        2   -1    0    0  501    0  0.00000000000E+00  0.00000000000E+00  0.96028116645E+03  0.96028116645E+03  0.25500000920E-02 0. -1.
       -2   -1    0    0    0  501  0.00000000000E+00  0.00000000000E+00 -0.26181413559E+03  0.26181413561E+03  0.25500000920E-02 0.  1.
    10030    2    1    2    0    0  0.00000000000E+00  0.00000000000E+00  0.69846703086E+03  0.12220953021E+04  0.10028263729E+04 0.  0.
        5    1    3    3  502    0 -0.12088097195E+03 -0.37159460381E+03  0.73208844212E+03  0.82986163669E+03  0.46999998093E+01 0. -1.
       -5    1    3    3    0  502  0.12088097195E+03  0.37159460381E+03 -0.33621411268E+02  0.39223366537E+03  0.46999998093E+01 0.  1.
</event>
<event>
 5   0  0.2204862E-03  0.9992440E+03  0.7818609E-02  0.9309374E-01
        2   -1    0    0  501    0  0.00000000000E+00  0.00000000000E+00  0.79931415675E+03  0.79931415676E+03  0.25500000920E-02 0.  1.
       -2   -1    0    0    0  501  0.00000000000E+00  0.00000000000E+00 -0.31229540395E+03  0.31229540396E+03  0.25500000920E-02 0. -1.
    10030    2    1    2    0    0  0.00000000000E+00  0.00000000000E+00  0.48701875280E+03  0.11116095607E+04  0.99924398918E+03 0.  0.
        1    1    3    3  502    0  0.13378203516E+03  0.25983549949E+03  0.69430589443E+03  0.75330790172E+03  0.50400001928E-02 0.  1.
       -1    1    3    3    0  502 -0.13378203516E+03 -0.25983549949E+03 -0.20728714163E+03  0.35830165900E+03  0.50400001928E-02 0. -1.
</event>
<event>
 5   0  0.1293575E-03  0.9983420E+03  0.7818609E-02  0.9310365E-01
        1   -1    0    0  501    0  0.00000000000E+00  0.00000000000E+00  0.69507553392E+03  0.69507553394E+03  0.50400001928E-02 0. -1.
       -1   -1    0    0    0  501  0.00000000000E+00  0.00000000000E+00 -0.35848142091E+03  0.35848142095E+03  0.50400001928E-02 0.  1.
    10030    2    1    2    0    0  0.00000000000E+00  0.00000000000E+00  0.33659411301E+03  0.10535569549E+04  0.99834195559E+03 0.  0.
        4    1    3    3  502    0 -0.21642331435E+03  0.35504214611E+03  0.45975296639E+03  0.61989384536E+03  0.12699999809E+01 0. -1.
       -4    1    3    3    0  502  0.21642331435E+03 -0.35504214611E+03 -0.12315885338E+03  0.43366310953E+03  0.12699999809E+01 0.  1.
</event>
<event>
 5   0  0.1293716E-03  0.1001548E+04  0.7818609E-02  0.9306849E-01
        1   -1    0    0  501    0  0.00000000000E+00  0.00000000000E+00  0.85897301966E+03  0.85897301967E+03  0.50400001928E-02 0.  1.
       -1   -1    0    0    0  501  0.00000000000E+00  0.00000000000E+00 -0.29194698740E+03  0.29194698744E+03  0.50400001928E-02 0. -1.
    10030    2    1    2    0    0  0.00000000000E+00  0.00000000000E+00  0.56702603226E+03  0.11509200071E+04  0.10015479727E+04 0.  0.
        3    1    3    3  502    0 -0.34512072803E+03  0.17205977646E+03  0.65063024341E+03  0.75632837275E+03  0.10100000352E+00 0.  1.
       -3    1    3    3    0  502  0.34512072803E+03 -0.17205977646E+03 -0.83604211153E+02  0.39459163437E+03  0.10100000352E+00 0. -1.
</event>
<event>
 5   0  0.2264577E-03  0.9980270E+03  0.7818609E-02  0.9310711E-01
        2   -1    0    0  501    0  0.00000000000E+00  0.00000000000E+00  0.12291062385E+04  0.12291062385E+04  0.25500000920E-02 0.  1.
       -2   -1    0    0    0  501  0.00000000000E+00  0.00000000000E+00 -0.20259800620E+03  0.20259800621E+03  0.25500000920E-02 0. -1.
    10030    2    1    2    0    0  0.00000000000E+00  0.00000000000E+00  0.10265082323E+04  0.14317042447E+04  0.99802700030E+03 0.  0.
        5    1    3    3  502    0 -0.10164552659E+03 -0.26215198289E+03 -0.78109877342E+02  0.29185393289E+03  0.46999998093E+01 0. -1.
       -5    1    3    3    0  502  0.10164552659E+03  0.26215198289E+03  0.11046181096E+04  0.11398503118E+04  0.46999998093E+01 0.  1.
</event>
<event>
 5   0  0.8680125E-04  0.1000093E+04  0.7818609E-02  0.9308443E-01
        4   -1    0    0  501    0  0.00000000000E+00  0.00000000000E+00  0.50288811715E+03  0.50288972078E+03  0.12699999809E+01 0.  1.
       -4   -1    0    0    0  501  0.00000000000E+00  0.00000000000E+00 -0.49721758003E+03  0.49721920195E+03  0.12699999809E+01 0. -1.
    10030    2    1    2    0    0  0.00000000000E+00  0.00000000000E+00  0.56705371166E+01  0.10001089227E+04  0.10000928469E+04 0.  0.
        2    1    3    3  502    0 -0.15284149300E+03 -0.25706205291E+03 -0.39792671547E+03  0.49778217316E+03  0.25500000920E-02 0.  1.
       -2    1    3    3    0  502  0.15284149300E+03  0.25706205291E+03  0.40359725259E+03  0.50232674957E+03  0.25500000920E-02 0. -1.
</event>
<event>
 5   0  0.2284843E-03  0.9571092E+03  0.7818609E-02  0.9356879E-01
        2   -1    0    0  501    0  0.00000000000E+00  0.00000000000E+00  0.43368067468E+03  0.43368067469E+03  0.25500000920E-02 0. -1.
       -2   -1    0    0    0  501  0.00000000000E+00  0.00000000000E+00 -0.52807168655E+03  0.52807168656E+03  0.25500000920E-02 0.  1.
    10030    2    1    2    0    0  0.00000000000E+00  0.00000000000E+00 -0.94391011872E+02  0.96175236124E+03  0.95710915848E+03 0.  0.
        2    1    3    3  502    0  0.45469910019E+03  0.57388779105E+02  0.91203349059E+02  0.46729304998E+03  0.25500000920E-02 0.  1.
       -2    1    3    3    0  502 -0.45469910019E+03 -0.57388779105E+02 -0.18559436093E+03  0.49445931126E+03  0.25500000920E-02 0. -1.
</event>
<event>
 5   0  0.2255142E-03  0.1000663E+04  0.7818609E-02  0.9307818E-01
        2   -1    0    0  501    0  0.00000000000E+00  0.00000000000E+00  0.12164775843E+04  0.12164775843E+04  0.25500000920E-02 0. -1.
       -2   -1    0    0    0  501  0.00000000000E+00  0.00000000000E+00 -0.20578412618E+03  0.20578412619E+03  0.25500000920E-02 0.  1.
    10030    2    1    2    0    0  0.00000000000E+00  0.00000000000E+00  0.10106934581E+04  0.14222617105E+04  0.10006633334E+04 0.  0.
        4    1    3    3  502    0  0.17166983851E+03 -0.28273302001E+03 -0.28209779480E+02  0.33197273776E+03  0.12699999809E+01 0.  1.
       -4    1    3    3    0  502 -0.17166983851E+03  0.28273302001E+03  0.10389032376E+04  0.10902889727E+04  0.12699999809E+01 0. -1.
</event>
<event>
 5   0  0.1353789E-03  0.1000072E+04  0.7818609E-02  0.9308466E-01
        1   -1    0    0  501    0  0.00000000000E+00  0.00000000000E+00  0.50997499257E+03  0.50997499259E+03  0.50400001928E-02 0. -1.
       -1   -1    0    0    0  501  0.00000000000E+00  0.00000000000E+00 -0.49029025212E+03  0.49029025214E+03  0.50400001928E-02 0.  1.
    10030    2    1    2    0    0  0.00000000000E+00  0.00000000000E+00  0.19684740449E+02  0.10002652447E+04  0.10000715329E+04 0.  0.
        1    1    3    3  502    0 -0.24701903361E+03  0.22705347702E+03  0.38067567710E+03  0.50743044405E+03  0.50400001928E-02 0. -1.
       -1    1    3    3    0  502  0.24701903361E+03 -0.22705347702E+03 -0.36099093665E+03  0.49283480068E+03  0.50400001928E-02 0.  1.
</event>
<event>
 5   0  0.1353789E-03  0.1002028E+04  0.7818609E-02  0.9306323E-01
        1   -1    0    0  501    0  0.00000000000E+00  0.00000000000E+00  0.11862969789E+04  0.11862969789E+04  0.50400001928E-02 0.  1.
       -1   -1    0    0    0  501  0.00000000000E+00  0.00000000000E+00 -0.21159537872E+03  0.21159537878E+03  0.50400001928E-02 0. -1.
    10030    2    1    2    0    0  0.00000000000E+00  0.00000000000E+00  0.97470160020E+03  0.13978923577E+04  0.10020278611E+04 0.  0.
        1    1    3    3  502    0 -0.10997758379E+03  0.21874506003E+03  0.10971554621E+04  0.11241417074E+04  0.50400001928E-02 0.  1.
       -1    1    3    3    0  502  0.10997758379E+03 -0.21874506003E+03 -0.12245386192E+03  0.27375065032E+03  0.50400001928E-02 0. -1.
</event>
<event>
 5   0  0.1293716E-03  0.1007192E+04  0.7818609E-02  0.9300691E-01
       -1   -1    0    0    0  501  0.00000000000E+00  0.00000000000E+00  0.61347225734E+03  0.61347225736E+03  0.50400001928E-02 0. -1.
        1   -1    0    0  501    0  0.00000000000E+00  0.00000000000E+00 -0.41339942767E+03  0.41339942770E+03  0.50400001928E-02 0.  1.
    10030    2    1    2    0    0  0.00000000000E+00  0.00000000000E+00  0.20007282967E+03  0.10268716851E+04  0.10071922956E+04 0.  0.
        3    1    3    3  502    0  0.71269609476E+02 -0.43732887260E+03 -0.14395772399E+03  0.46589670157E+03  0.10100000352E+00 0.  1.
       -3    1    3    3    0  502 -0.71269609476E+02  0.43732887260E+03  0.34403055366E+03  0.56097498348E+03  0.10100000352E+00 0. -1.
</event>
<event>
 5   0  0.2204862E-03  0.9950478E+03  0.7818609E-02  0.9313993E-01
        2   -1    0    0  501    0  0.00000000000E+00  0.00000000000E+00  0.13702587573E+04  0.13702587573E+04  0.25500000920E-02 0.  1.
       -2   -1    0    0    0  501  0.00000000000E+00  0.00000000000E+00 -0.18064474857E+03  0.18064474859E+03  0.25500000920E-02 0. -1.
    10030    2    1    2    0    0  0.00000000000E+00  0.00000000000E+00  0.11896140088E+04  0.15509035059E+04  0.99504783545E+03 0.  0.
        1    1    3    3  502    0  0.96948050222E+02 -0.48789908806E+03  0.60922776361E+03  0.78651313565E+03  0.50400001928E-02 0.  1.
       -1    1    3    3    0  502 -0.96948050222E+02  0.48789908806E+03  0.58038624517E+03  0.76439037028E+03  0.50400001928E-02 0. -1.
</event>
<event>
 5   0  0.8680125E-04  0.9715380E+03  0.7818609E-02  0.9340324E-01
       -3   -1    0    0    0  501  0.00000000000E+00  0.00000000000E+00  0.41090482005E+03  0.41090483246E+03  0.10100000352E+00 0.  1.
        3   -1    0    0  501    0  0.00000000000E+00  0.00000000000E+00 -0.57427287396E+03  0.57427288284E+03  0.10100000352E+00 0. -1.
    10030    2    1    2    0    0  0.00000000000E+00  0.00000000000E+00 -0.16336805391E+03  0.98517771531E+03  0.97153796102E+03 0.  0.
        4    1    3    3  502    0 -0.38703503551E+02 -0.42109455325E+03  0.16073565826E+03  0.45238937731E+03  0.12699999809E+01 0.  1.
       -4    1    3    3    0  502  0.38703503551E+02  0.42109455325E+03 -0.32410371217E+03  0.53278833800E+03  0.12699999809E+01 0. -1.
</event>
<event>
 5   0  0.2255142E-03  0.9998893E+03  0.7818609E-02  0.9308666E-01
        2   -1    0    0  501    0  0.00000000000E+00  0.00000000000E+00  0.34500062907E+03  0.34500062908E+03  0.25500000920E-02 0. -1.
       -2   -1    0    0    0  501  0.00000000000E+00  0.00000000000E+00 -0.72447593067E+03  0.72447593067E+03  0.25500000920E-02 0.  1.
    10030    2    1    2    0    0  0.00000000000E+00  0.00000000000E+00 -0.37947530160E+03  0.10694765598E+04  0.99988929754E+03 0.  0.
        4    1    3    3  502    0  0.31485213176E+03  0.58953975982E+02  0.22081910468E+03  0.38906313890E+03  0.12699999809E+01 0. -1.
       -4    1    3    3    0  502 -0.31485213176E+03 -0.58953975982E+02 -0.60029440628E+03  0.68041342085E+03  0.12699999809E+01 0.  1.
</event>
<event>
 5   0  0.1293575E-03  0.9993337E+03  0.7818609E-02  0.9309276E-01
        1   -1    0    0  501    0  0.00000000000E+00  0.00000000000E+00  0.36645205493E+03  0.36645205497E+03  0.50400001928E-02 0. -1.
       -1   -1    0    0    0  501  0.00000000000E+00  0.00000000000E+00 -0.68130872191E+03  0.68130872193E+03  0.50400001928E-02 0.  1.
    10030    2    1    2    0    0  0.00000000000E+00  0.00000000000E+00 -0.31485666698E+03  0.10477607769E+04  0.99933374047E+03 0.  0.
        4    1    3    3  502    0  0.43497674453E+03  0.12926680927E+03 -0.37673106919E+03  0.58978181360E+03  0.12699999809E+01 0.  1.
       -4    1    3    3    0  502 -0.43497674453E+03 -0.12926680927E+03  0.61874402214E+02  0.45797896329E+03  0.12699999809E+01 0. -1.
</event>
<event>
 5   0  0.1285769E-03  0.9958725E+03  0.7818609E-02  0.9313083E-01
       -1   -1    0    0    0  501  0.00000000000E+00  0.00000000000E+00  0.95847817596E+03  0.95847817597E+03  0.50400001928E-02 0. -1.
        1   -1    0    0  501    0  0.00000000000E+00  0.00000000000E+00 -0.25868144951E+03  0.25868144956E+03  0.50400001928E-02 0.  1.
    10030    2    1    2    0    0  0.00000000000E+00  0.00000000000E+00  0.69979672645E+03  0.12171596255E+04  0.99587252983E+03 0.  0.
        5    1    3    3  502    0  0.38654116893E+03  0.17559334057E+03  0.31957634927E+02  0.42578219427E+03  0.46999998093E+01 0.  1.
       -5    1    3    3    0  502 -0.38654116893E+03 -0.17559334057E+03  0.66783909153E+03  0.79137743125E+03  0.46999998093E+01 0. -1.
</event>
<event>
 5   0  0.2204862E-03  0.9968246E+03  0.7818609E-02  0.9312034E-01
        2   -1    0    0  501    0  0.00000000000E+00  0.00000000000E+00  0.62779969439E+03  0.62779969440E+03  0.25500000920E-02 0.  1.
       -2   -1    0    0    0  501  0.00000000000E+00  0.00000000000E+00 -0.39569121677E+03  0.39569121678E+03  0.25500000920E-02 0. -1.
    10030    2    1    2    0    0  0.00000000000E+00  0.00000000000E+00  0.23210847762E+03  0.10234909112E+04  0.99682460838E+03 0.  0.
        1    1    3    3  502    0 -0.39853028575E+02  0.49157847078E+03  0.42176877739E+02  0.49499146039E+03  0.50400001928E-02 0.  1.
       -1    1    3    3    0  502  0.39853028575E+02 -0.49157847078E+03  0.18993159988E+03  0.52849945078E+03  0.50400001928E-02 0. -1.
</event>
<event>
 5   0  0.1293716E-03  0.1004105E+04  0.7818609E-02  0.9304054E-01
       -1   -1    0    0    0  501  0.00000000000E+00  0.00000000000E+00  0.48559871665E+03  0.48559871668E+03  0.50400001928E-02 0. -1.
        1   -1    0    0  501    0  0.00000000000E+00  0.00000000000E+00 -0.51906381381E+03  0.51906381384E+03  0.50400001928E-02 0.  1.
    10030    2    1    2    0    0  0.00000000000E+00  0.00000000000E+00 -0.33465097158E+02  0.10046625305E+04  0.10041050182E+04 0.  0.
        3    1    3    3  502    0 -0.26209431786E+03 -0.21145027690E+03 -0.38929941747E+03  0.51474138914E+03  0.10100000352E+00 0.  1.
       -3    1    3    3    0  502  0.26209431786E+03  0.21145027690E+03  0.35583432031E+03  0.48992114137E+03  0.10100000352E+00 0. -1.
</event>
<event>
 5   0  0.2284843E-03  0.9977421E+03  0.7818609E-02  0.9311025E-01
        2   -1    0    0  501    0  0.00000000000E+00  0.00000000000E+00  0.40199734683E+03  0.40199734684E+03  0.25500000920E-02 0. -1.
       -2   -1    0    0    0  501  0.00000000000E+00  0.00000000000E+00 -0.61908948334E+03  0.61908948335E+03  0.25500000920E-02 0.  1.
    10030    2    1    2    0    0  0.00000000000E+00  0.00000000000E+00 -0.21709213651E+03  0.10210868302E+04  0.99774211049E+03 0.  0.
        2    1    3    3  502    0  0.40049373759E+03 -0.76324904299E+02 -0.40276459594E+03  0.57309688938E+03  0.25500000920E-02 0.  1.
       -2    1    3    3    0  502 -0.40049373759E+03  0.76324904299E+02  0.18567245943E+03  0.44798994081E+03  0.25500000920E-02 0. -1.
</event>
<event>
 5   0  0.2284843E-03  0.1001275E+04  0.7818609E-02  0.9307148E-01
       -2   -1    0    0    0  501  0.00000000000E+00  0.00000000000E+00  0.34032767949E+03  0.34032767950E+03  0.25500000920E-02 0.  1.
        2   -1    0    0  501    0  0.00000000000E+00  0.00000000000E+00 -0.73646009798E+03  0.73646009798E+03  0.25500000920E-02 0. -1.
    10030    2    1    2    0    0  0.00000000000E+00  0.00000000000E+00 -0.39613241848E+03  0.10767877775E+04  0.10012747000E+04 0.  0.
        2    1    3    3  502    0 -0.38466720513E+03 -0.23670399438E+03  0.34184307027E+02  0.45295276411E+03  0.25500000920E-02 0.  1.
       -2    1    3    3    0  502  0.38466720513E+03  0.23670399438E+03 -0.43031672551E+03  0.62383501338E+03  0.25500000920E-02 0. -1.
</event>
<event>
 5   0  0.2255142E-03  0.1006370E+04  0.7818609E-02  0.9301586E-01
        2   -1    0    0  501    0  0.00000000000E+00  0.00000000000E+00  0.13546809647E+04  0.13546809647E+04  0.25500000920E-02 0. -1.
       -2   -1    0    0    0  501  0.00000000000E+00  0.00000000000E+00 -0.18690388961E+03  0.18690388962E+03  0.25500000920E-02 0.  1.
    10030    2    1    2    0    0  0.00000000000E+00  0.00000000000E+00  0.11677770751E+04  0.15415848543E+04  0.10063699946E+04 0.  0.
        4    1    3    3  502    0  0.29809771245E+03  0.89558845569E+01 -0.36928840080E+02  0.30051257239E+03  0.12699999809E+01 0.  1.
       -4    1    3    3    0  502 -0.29809771245E+03 -0.89558845569E+01  0.12047059152E+04  0.12410722819E+04  0.12699999809E+01 0. -1.
</event>
<event>
 5   0  0.2264577E-03  0.1031858E+04  0.7818609E-02  0.9274277E-01
        2   -1    0    0  501    0  0.00000000000E+00  0.00000000000E+00  0.78827785549E+03  0.78827785549E+03  0.25500000920E-02 0.  1.
       -2   -1    0    0    0  501  0.00000000000E+00  0.00000000000E+00 -0.33767653791E+03  0.33767653792E+03  0.25500000920E-02 0. -1.
    10030    2    1    2    0    0  0.00000000000E+00  0.00000000000E+00  0.45060131757E+03  0.11259543934E+04  0.10318583956E+04 0.  0.
        5    1    3    3  502    0 -0.25488969928E+03 -0.22884332768E+03  0.64625545507E+03  0.73144120107E+03  0.46999998093E+01 0.  1.
       -5    1    3    3    0  502  0.25488969928E+03  0.22884332768E+03 -0.19565413749E+03  0.39451319235E+03  0.46999998093E+01 0. -1.
</event>
<event>
 5   0  0.2204862E-03  0.1003444E+04  0.7818609E-02  0.9304776E-01
       -2   -1    0    0    0  501  0.00000000000E+00  0.00000000000E+00  0.28019317241E+03  0.28019317243E+03  0.25500000920E-02 0. -1.
        2   -1    0    0  501    0  0.00000000000E+00  0.00000000000E+00 -0.89839755437E+03  0.89839755437E+03  0.25500000920E-02 0.  1.
    10030    2    1    2    0    0  0.00000000000E+00  0.00000000000E+00 -0.61820438196E+03  0.11785907268E+04  0.10034437919E+04 0.  0.
        1    1    3    3  502    0 -0.91801024602E+02 -0.26491650480E+03 -0.79779891125E+03  0.84563070276E+03  0.50400001928E-02 0.  1.
       -1    1    3    3    0  502  0.91801024602E+02  0.26491650480E+03  0.17959452929E+03  0.33296002404E+03  0.50400001928E-02 0. -1.
</event>
<event>
 5   0  0.2264577E-03  0.1015388E+04  0.7818609E-02  0.9291827E-01
       -2   -1    0    0    0  501  0.00000000000E+00  0.00000000000E+00  0.63182719785E+03  0.63182719786E+03  0.25500000920E-02 0. -1.
        2   -1    0    0  501    0  0.00000000000E+00  0.00000000000E+00 -0.40794894644E+03  0.40794894645E+03  0.25500000920E-02 0.  1.
    10030    2    1    2    0    0  0.00000000000E+00  0.00000000000E+00  0.22387825141E+03  0.10397761443E+04  0.10153880829E+04 0.  0.
        5    1    3    3  502    0  0.44740006919E+03  0.19501213549E+02  0.35681453125E+03  0.57261314948E+03  0.46999998093E+01 0. -1.
       -5    1    3    3    0  502 -0.44740006919E+03 -0.19501213549E+02 -0.13293627984E+03  0.46716299483E+03  0.46999998093E+01 0.  1.
</event>
<event>
 5   0  0.1293575E-03  0.1000159E+04  0.7818609E-02  0.9308370E-01
        1   -1    0    0  501    0  0.00000000000E+00  0.00000000000E+00  0.78775670642E+03  0.78775670644E+03  0.50400001928E-02 0. -1.
       -1   -1    0    0    0  501  0.00000000000E+00  0.00000000000E+00 -0.31745783534E+03  0.31745783538E+03  0.50400001928E-02 0.  1.
    10030    2    1    2    0    0  0.00000000000E+00  0.00000000000E+00  0.47029887108E+03  0.11052145418E+04  0.10001590650E+04 0.  0.
        4    1    3    3  502    0  0.30460175420E+03  0.19064411572E+03 -0.14916029612E+03  0.38907301931E+03  0.12699999809E+01 0.  1.
       -4    1    3    3    0  502 -0.30460175420E+03 -0.19064411572E+03  0.61945916720E+03  0.71614152250E+03  0.12699999809E+01 0. -1.
</event>
<event>
 5   0  0.1285769E-03  0.9969139E+03  0.7818609E-02  0.9311936E-01
        1   -1    0    0  501    0  0.00000000000E+00  0.00000000000E+00  0.13503690314E+03  0.13503690324E+03  0.50400001928E-02 0.  1.
       -1   -1    0    0    0  501  0.00000000000E+00  0.00000000000E+00 -0.18399365817E+04  0.18399365817E+04  0.50400001928E-02 0. -1.
    10030    2    1    2    0    0  0.00000000000E+00  0.00000000000E+00 -0.17048996786E+04  0.19749734850E+04  0.99691391419E+03 0.  0.
        5    1    3    3  502    0 -0.19174885486E+03 -0.16546595651E+03 -0.19871738480E+01  0.25332320257E+03  0.46999998093E+01 0.  1.
       -5    1    3    3    0  502  0.19174885486E+03  0.16546595651E+03 -0.17029125047E+04  0.17216502824E+04  0.46999998093E+01 0. -1.
</event>
<event>
 5   0  0.2255142E-03  0.1002662E+04  0.7818609E-02  0.9305630E-01
       -2   -1    0    0    0  501  0.00000000000E+00  0.00000000000E+00  0.25664831619E+03  0.25664831620E+03  0.25500000920E-02 0.  1.
        2   -1    0    0  501    0  0.00000000000E+00  0.00000000000E+00 -0.97928890983E+03  0.97928890984E+03  0.25500000920E-02 0. -1.
    10030    2    1    2    0    0  0.00000000000E+00  0.00000000000E+00 -0.72264059365E+03  0.12359372260E+04  0.10026621560E+04 0.  0.
        4    1    3    3  502    0 -0.14367805871E+03  0.13751965233E+03 -0.92857794872E+03  0.94963869924E+03  0.12699999809E+01 0. -1.
       -4    1    3    3    0  502  0.14367805871E+03 -0.13751965233E+03  0.20593735507E+03  0.28629852680E+03  0.12699999809E+01 0.  1.
</event>
<event>
 5   0  0.2284843E-03  0.1003670E+04  0.7818609E-02  0.9304529E-01
        2   -1    0    0  501    0  0.00000000000E+00  0.00000000000E+00  0.74856966005E+03  0.74856966005E+03  0.25500000920E-02 0.  1.
       -2   -1    0    0    0  501  0.00000000000E+00  0.00000000000E+00 -0.33642593313E+03  0.33642593314E+03  0.25500000920E-02 0. -1.
    10030    2    1    2    0    0  0.00000000000E+00  0.00000000000E+00  0.41214372692E+03  0.10849955932E+04  0.10036697592E+04 0.  0.
        2    1    3    3  502    0  0.28529506942E+03  0.35011159754E+03  0.44258458734E+03  0.63233893153E+03  0.25500000920E-02 0.  1.
       -2    1    3    3    0  502 -0.28529506942E+03 -0.35011159754E+03 -0.30440860423E+02  0.45265666167E+03  0.25500000920E-02 0. -1.
</event>
<event>
 5   0  0.1285769E-03  0.9940840E+03  0.7818609E-02  0.9315057E-01
        1   -1    0    0  501    0  0.00000000000E+00  0.00000000000E+00  0.17944840248E+04  0.17944840248E+04  0.50400001928E-02 0.  1.
       -1   -1    0    0    0  501  0.00000000000E+00  0.00000000000E+00 -0.13767230391E+03  0.13767230400E+03  0.50400001928E-02 0. -1.
    10030    2    1    2    0    0  0.00000000000E+00  0.00000000000E+00  0.16568117209E+04  0.19321563288E+04  0.99408400071E+03 0.  0.
        5    1    3    3  502    0  0.27378313866E+03  0.40905063805E+03  0.69446238275E+03  0.85122248711E+03  0.46999998093E+01 0. -1.
       -5    1    3    3    0  502 -0.27378313866E+03 -0.40905063805E+03  0.96234933815E+03  0.10809338417E+04  0.46999998093E+01 0.  1.
</event>
<event>
 5   0  0.1249195E-03  0.1002184E+04  0.7818609E-02  0.9306152E-01
        1   -1    0    0  501    0  0.00000000000E+00  0.00000000000E+00  0.98902186737E+03  0.98902186739E+03  0.50400001928E-02 0. -1.
       -1   -1    0    0    0  501  0.00000000000E+00  0.00000000000E+00 -0.25388045748E+03  0.25388045753E+03  0.50400001928E-02 0.  1.
    10030    2    1    2    0    0  0.00000000000E+00  0.00000000000E+00  0.73514140989E+03  0.12429023249E+04  0.10021842629E+04 0.  0.
        2    1    3    3  502    0 -0.34794837743E+03 -0.35821526745E+03  0.41881145362E+03  0.65175860937E+03  0.25500000920E-02 0.  1.
       -2    1    3    3    0  502  0.34794837743E+03  0.35821526745E+03  0.31632995627E+03  0.59114371555E+03  0.25500000920E-02 0. -1.
</event>
<event>
 5   0  0.2264577E-03  0.9994058E+03  0.7818609E-02  0.9309197E-01
       -2   -1    0    0    0  501  0.00000000000E+00  0.00000000000E+00  0.57101451805E+03  0.57101451806E+03  0.25500000920E-02 0.  1.
        2   -1    0    0  501    0  0.00000000000E+00  0.00000000000E+00 -0.43729713392E+03  0.43729713392E+03  0.25500000920E-02 0. -1.
    10030    2    1    2    0    0  0.00000000000E+00  0.00000000000E+00  0.13371738413E+03  0.10083116520E+04  0.99940584784E+03 0.  0.
        5    1    3    3  502    0 -0.21912341763E+03 -0.41251676054E+03 -0.11219324781E+03  0.48041082912E+03  0.46999998093E+01 0. -1.
       -5    1    3    3    0  502  0.21912341763E+03  0.41251676054E+03  0.24591063194E+03  0.52790082286E+03  0.46999998093E+01 0.  1.
</event>
<event>
 5   0  0.1249195E-03  0.1000582E+04  0.7818609E-02  0.9307906E-01
       -1   -1    0    0    0  501  0.00000000000E+00  0.00000000000E+00  0.20674971616E+03  0.20674971622E+03  0.50400001928E-02 0. -1.
        1   -1    0    0  501    0  0.00000000000E+00  0.00000000000E+00 -0.12106002850E+04  0.12106002851E+04  0.50400001928E-02 0.  1.
    10030    2    1    2    0    0  0.00000000000E+00  0.00000000000E+00 -0.10038505689E+04  0.14173500013E+04  0.10005823612E+04 0.  0.
        2    1    3    3  502    0  0.13465398711E+03  0.46530125947E+03 -0.67915689733E+03  0.83420084482E+03  0.25500000920E-02 0.  1.
       -2    1    3    3    0  502 -0.13465398711E+03 -0.46530125947E+03 -0.32469367157E+03  0.58314915646E+03  0.25500000920E-02 0. -1.
</event>
<event>
 5   0  0.1293716E-03  0.1003140E+04  0.7818609E-02  0.9305108E-01
       -1   -1    0    0    0  501  0.00000000000E+00  0.00000000000E+00  0.64125483863E+03  0.64125483865E+03  0.50400001928E-02 0. -1.
        1   -1    0    0  501    0  0.00000000000E+00  0.00000000000E+00 -0.39231243492E+03  0.39231243495E+03  0.50400001928E-02 0.  1.
    10030    2    1    2    0    0  0.00000000000E+00  0.00000000000E+00  0.24894240371E+03  0.10335672736E+04  0.10031395659E+04 0.  0.
        3    1    3    3  502    0  0.24630796042E+03  0.38775200147E+03  0.33195727047E+03  0.56675820737E+03  0.10100000352E+00 0. -1.
       -3    1    3    3    0  502 -0.24630796042E+03 -0.38775200147E+03 -0.83014866753E+02  0.46680906623E+03  0.10100000352E+00 0.  1.
</event>
<event>
 5   0  0.1353789E-03  0.1000100E+04  0.7818609E-02  0.9308435E-01
        1   -1    0    0  501    0  0.00000000000E+00  0.00000000000E+00  0.10596209778E+04  0.10596209778E+04  0.50400001928E-02 0. -1.
       -1   -1    0    0    0  501  0.00000000000E+00  0.00000000000E+00 -0.23598080471E+03  0.23598080476E+03  0.50400001928E-02 0.  1.
    10030    2    1    2    0    0  0.00000000000E+00  0.00000000000E+00  0.82364017304E+03  0.12956017825E+04  0.10001004171E+04 0.  0.
        1    1    3    3  502    0  0.11356011092E+03  0.29811753066E+03 -0.87029461967E+02  0.33067217627E+03  0.50400001928E-02 0.  1.
       -1    1    3    3    0  502 -0.11356011092E+03 -0.29811753066E+03  0.91066963501E+03  0.96492960626E+03  0.50400001928E-02 0. -1.
</event>
<event>
 5   0  0.2204862E-03  0.9997874E+03  0.7818609E-02  0.9308778E-01
       -2   -1    0    0    0  501  0.00000000000E+00  0.00000000000E+00  0.13375217697E+03  0.13375217700E+03  0.25500000920E-02 0. -1.
        2   -1    0    0  501    0  0.00000000000E+00  0.00000000000E+00 -0.18683337186E+04  0.18683337186E+04  0.25500000920E-02 0.  1.
    10030    2    1    2    0    0  0.00000000000E+00  0.00000000000E+00 -0.17345815416E+04  0.20020858956E+04  0.99978738179E+03 0.  0.
        1    1    3    3  502    0 -0.48183455745E+03 -0.61478788432E+02 -0.11038035910E+04  0.12059546217E+04  0.50400001928E-02 0.  1.
       -1    1    3    3    0  502  0.48183455745E+03  0.61478788432E+02 -0.63077795064E+03  0.79613127386E+03  0.50400001928E-02 0. -1.
</event>
<event>
 5   0  0.8680125E-04  0.9953838E+03  0.7818609E-02  0.9313622E-01
       -3   -1    0    0    0  501  0.00000000000E+00  0.00000000000E+00  0.75068912122E+03  0.75068912801E+03  0.10100000352E+00 0. -1.
        3   -1    0    0  501    0  0.00000000000E+00  0.00000000000E+00 -0.32995975738E+03  0.32995977283E+03  0.10100000352E+00 0.  1.
    10030    2    1    2    0    0  0.00000000000E+00  0.00000000000E+00  0.42072936384E+03  0.10806489008E+04  0.99538376986E+03 0.  0.
        1    1    3    3  502    0  0.48926766737E+03  0.33910626619E+02  0.30225820972E+03  0.57610138543E+03  0.50400001928E-02 0. -1.
       -1    1    3    3    0  502 -0.48926766737E+03 -0.33910626619E+02  0.11847115412E+03  0.50454751541E+03  0.50400001928E-02 0.  1.
</event>
<event>
 5   0  0.2277570E-03  0.9971379E+03  0.7818609E-02  0.9311689E-01
        2   -1    0    0  501    0  0.00000000000E+00  0.00000000000E+00  0.24385355310E+04  0.24385355311E+04  0.25500000920E-02 0.  1.
       -2   -1    0    0    0  501  0.00000000000E+00  0.00000000000E+00 -0.10193454175E+03  0.10193454179E+03  0.25500000920E-02 0. -1.
    10030    2    1    2    0    0  0.00000000000E+00  0.00000000000E+00  0.23366009893E+04  0.25404700728E+04  0.99713790812E+03 0.  0.
        3    1    3    3  502    0  0.47301247843E+03 -0.17985887198E+02  0.76945818024E+03  0.90339924631E+03  0.10100000352E+00 0.  1.
       -3    1    3    3    0  502 -0.47301247843E+03  0.17985887198E+02  0.15671428091E+04  0.16370708265E+04  0.10100000352E+00 0. -1.
</event>
<event>
 5   0  0.2264577E-03  0.9912132E+03  0.7818609E-02  0.9318235E-01
        2   -1    0    0  501    0  0.00000000000E+00  0.00000000000E+00  0.39184813563E+03  0.39184813564E+03  0.25500000920E-02 0.  1.
       -2   -1    0    0    0  501  0.00000000000E+00  0.00000000000E+00 -0.62683955341E+03  0.62683955342E+03  0.25500000920E-02 0. -1.
    10030    2    1    2    0    0  0.00000000000E+00  0.00000000000E+00 -0.23499141778E+03  0.10186876891E+04  0.99121321693E+03 0.  0.
        5    1    3    3  502    0 -0.26698296899E+03 -0.23206932030E+03  0.23920942848E+03  0.42705891377E+03  0.46999998093E+01 0.  1.
       -5    1    3    3    0  502  0.26698296899E+03  0.23206932030E+03 -0.47420084626E+03  0.59162877529E+03  0.46999998093E+01 0. -1.
</event>
<event>
 5   0  0.2255142E-03  0.9961590E+03  0.7818609E-02  0.9312768E-01
        2   -1    0    0  501    0  0.00000000000E+00  0.00000000000E+00  0.41460839053E+03  0.41460839054E+03  0.25500000920E-02 0. -1.
       -2   -1    0    0    0  501  0.00000000000E+00  0.00000000000E+00 -0.59835541855E+03  0.59835541855E+03  0.25500000920E-02 0.  1.
    10030    2    1    2    0    0  0.00000000000E+00  0.00000000000E+00 -0.18374702802E+03  0.10129638091E+04  0.99615897738E+03 0.  0.
        4    1    3    3  502    0  0.36921221339E+03  0.22102315026E+03  0.16318178090E+03  0.46021603404E+03  0.12699999809E+01 0. -1.
       -4    1    3    3    0  502 -0.36921221339E+03 -0.22102315026E+03 -0.34692880892E+03  0.55274777505E+03  0.12699999809E+01 0.  1.
</event>
<event>
 5   0  0.2204862E-03  0.9975003E+03  0.7818609E-02  0.9311291E-01
       -2   -1    0    0    0  501  0.00000000000E+00  0.00000000000E+00  0.33122943481E+03  0.33122943482E+03  0.25500000920E-02 0.  1.
        2   -1    0    0  501    0  0.00000000000E+00  0.00000000000E+00 -0.75099525283E+03  0.75099525283E+03  0.25500000920E-02 0. -1.
    10030    2    1    2    0    0  0.00000000000E+00  0.00000000000E+00 -0.41976581802E+03  0.10822246877E+04  0.99750034215E+03 0.  0.
        1    1    3    3  502    0  0.36481581403E+03 -0.46303431588E+02  0.15565726783E+03  0.39932915120E+03  0.50400001928E-02 0.  1.
       -1    1    3    3    0  502 -0.36481581403E+03  0.46303431588E+02 -0.57542308585E+03  0.68289553645E+03  0.50400001928E-02 0. -1.
</event>
<event>
 5   0  0.1249195E-03  0.9989433E+03  0.7818609E-02  0.9309705E-01
       -1   -1    0    0    0  501  0.00000000000E+00  0.00000000000E+00  0.53699339150E+03  0.53699339153E+03  0.50400001928E-02 0. -1.
        1   -1    0    0  501    0  0.00000000000E+00  0.00000000000E+00 -0.46457170978E+03  0.46457170981E+03  0.50400001928E-02 0.  1.
    10030    2    1    2    0    0  0.00000000000E+00  0.00000000000E+00  0.72421681721E+02  0.10015651013E+04  0.99894331783E+03 0.  0.
        2    1    3    3  502    0  0.24688207825E+02  0.86904128957E+02 -0.45631167557E+03  0.46516898059E+03  0.25500000920E-02 0.  1.
       -2    1    3    3    0  502 -0.24688207825E+02 -0.86904128957E+02  0.52873335729E+03  0.53639612075E+03  0.25500000920E-02 0. -1.
</event>
<event>
 5   0  0.1293716E-03  0.9953623E+03  0.7818609E-02  0.9313646E-01
        1   -1    0    0  501    0  0.00000000000E+00  0.00000000000E+00  0.60254443597E+03  0.60254443599E+03  0.50400001928E-02 0.  1.
       -1   -1    0    0    0  501  0.00000000000E+00  0.00000000000E+00 -0.41106762723E+03  0.41106762727E+03  0.50400001928E-02 0. -1.
    10030    2    1    2    0    0  0.00000000000E+00  0.00000000000E+00  0.19147680873E+03  0.10136120633E+04  0.99536226897E+03 0.  0.
        3    1    3    3  502    0 -0.20857141744E+03 -0.32080855937E+03 -0.22831988828E+03  0.44558966496E+03  0.10100000352E+00 0. -1.
       -3    1    3    3    0  502  0.20857141744E+03  0.32080855937E+03  0.41979669701E+03  0.56802239829E+03  0.10100000352E+00 0.  1.
</event>
<event>
 5   0  0.8680125E-04  0.9993226E+03  0.7818609E-02  0.9309288E-01
        3   -1    0    0  501    0  0.00000000000E+00  0.00000000000E+00  0.19693355069E+03  0.19693357659E+03  0.10100000352E+00 0.  1.
       -3   -1    0    0    0  501  0.00000000000E+00  0.00000000000E+00 -0.12677442738E+04  0.12677442778E+04  0.10100000352E+00 0. -1.
    10030    2    1    2    0    0  0.00000000000E+00  0.00000000000E+00 -0.10708107231E+04  0.14646778544E+04  0.99932257679E+03 0.  0.
        5    1    3    3  502    0 -0.32853965647E+03 -0.29983133427E+03 -0.20181735588E+03  0.48845621095E+03  0.46999998093E+01 0.  1.
       -5    1    3    3    0  502  0.32853965647E+03  0.29983133427E+03 -0.86899336724E+03  0.97622164347E+03  0.46999998093E+01 0. -1.
</event>
<event>
 5   0  0.2277570E-03  0.9996716E+03  0.7818609E-02  0.9308905E-01
       -2   -1    0    0    0  501  0.00000000000E+00  0.00000000000E+00  0.19965273782E+03  0.19965273784E+03  0.25500000920E-02 0.  1.
        2   -1    0    0  501    0  0.00000000000E+00  0.00000000000E+00 -0.12513518668E+04  0.12513518668E+04  0.25500000920E-02 0. -1.
    10030    2    1    2    0    0  0.00000000000E+00  0.00000000000E+00 -0.10516991290E+04  0.14510046047E+04  0.99967159848E+03 0.  0.
        3    1    3    3  502    0 -0.18805329517E+03 -0.35538639354E+03 -0.94849350249E+02  0.41311008216E+03  0.10100000352E+00 0.  1.
       -3    1    3    3    0  502  0.18805329517E+03  0.35538639354E+03 -0.95684977876E+03  0.10378945225E+04  0.10100000352E+00 0. -1.
</event>
<event>
 5   0  0.2277570E-03  0.1000440E+04  0.7818609E-02  0.9308063E-01
        2   -1    0    0  501    0  0.00000000000E+00  0.00000000000E+00  0.16861166459E+04  0.16861166459E+04  0.25500000920E-02 0. -1.
       -2   -1    0    0    0  501  0.00000000000E+00  0.00000000000E+00 -0.14840006622E+03  0.14840006624E+03  0.25500000920E-02 0.  1.
    10030    2    1    2    0    0  0.00000000000E+00  0.00000000000E+00  0.15377165797E+04  0.18345167121E+04  0.10004395473E+04 0.  0.
        3    1    3    3  502    0 -0.20609546765E+03 -0.67511578472E+02 -0.57709378578E+02  0.22441822028E+03  0.10100000352E+00 0.  1.
       -3    1    3    3    0  502  0.20609546765E+03  0.67511578472E+02  0.15954259583E+04  0.16100984919E+04  0.10100000352E+00 0. -1.
</event>
<event>
 5   0  0.1249195E-03  0.9998924E+03  0.7818609E-02  0.9308663E-01
        1   -1    0    0  501    0  0.00000000000E+00  0.00000000000E+00  0.11073360419E+04  0.11073360419E+04  0.50400001928E-02 0. -1.
       -1   -1    0    0    0  501  0.00000000000E+00  0.00000000000E+00 -0.22571847167E+03  0.22571847173E+03  0.50400001928E-02 0.  1.
    10030    2    1    2    0    0  0.00000000000E+00  0.00000000000E+00  0.88161757023E+03  0.13330545136E+04  0.99989239231E+03 0.  0.
        2    1    3    3  502    0  0.38506384318E+03  0.12379321023E+02  0.86559249939E+03  0.94745859325E+03  0.25500000920E-02 0. -1.
       -2    1    3    3    0  502 -0.38506384318E+03 -0.12379321023E+02  0.16025070836E+02  0.38559592038E+03  0.25500000920E-02 0.  1.
</event>
<event>
 5   0  0.1353789E-03  0.9559371E+03  0.7818609E-02  0.9358238E-01
       -1   -1    0    0    0  501  0.00000000000E+00  0.00000000000E+00  0.20562039726E+03  0.20562039732E+03  0.50400001928E-02 0. -1.
        1   -1    0    0  501    0  0.00000000000E+00  0.00000000000E+00 -0.11110469908E+04  0.11110469908E+04  0.50400001928E-02 0.  1.
    10030    2    1    2    0    0  0.00000000000E+00  0.00000000000E+00 -0.90542659354E+03  0.13166673881E+04  0.95593707674E+03 0.  0.
        1    1    3    3  502    0 -0.26937194914E+03 -0.31994673599E+03 -0.13404984075E+03  0.43919986416E+03  0.50400001928E-02 0.  1.
       -1    1    3    3    0  502  0.26937194914E+03  0.31994673599E+03 -0.77137675279E+03  0.87746752397E+03  0.50400001928E-02 0. -1.
</event>
<event>
 5   0  0.2264577E-03  0.9994609E+03  0.7818609E-02  0.9309136E-01
       -2   -1    0    0    0  501  0.00000000000E+00  0.00000000000E+00  0.24537163894E+03  0.24537163895E+03  0.25500000920E-02 0. -1.
        2   -1    0    0  501    0  0.00000000000E+00  0.00000000000E+00 -0.10177644633E+04  0.10177644634E+04  0.25500000920E-02 0.  1.
    10030    2    1    2    0    0  0.00000000000E+00  0.00000000000E+00 -0.77239282441E+03  0.12631361023E+04  0.99946092357E+03 0.  0.
        5    1    3    3  502    0 -0.32365218153E+03  0.75367673748E+02  0.85458857789E+02  0.34315641802E+03  0.46999998093E+01 0. -1.
       -5    1    3    3    0  502  0.32365218153E+03 -0.75367673748E+02 -0.85785168220E+03  0.91997968429E+03  0.46999998093E+01 0.  1.
</event>
<event>
 5   0  0.1293575E-03  0.1000836E+04  0.7818609E-02  0.9307628E-01
        1   -1    0    0  501    0  0.00000000000E+00  0.00000000000E+00  0.16287811099E+04  0.16287811099E+04  0.50400001928E-02 0. -1.
       -1   -1    0    0    0  501  0.00000000000E+00  0.00000000000E+00 -0.15374580834E+03  0.15374580843E+03  0.50400001928E-02 0.  1.
    10030    2    1    2    0    0  0.00000000000E+00  0.00000000000E+00  0.14750353015E+04  0.17825269183E+04  0.10008361873E+04 0.  0.
        4    1    3    3  502    0 -0.19199444608E+03 -0.58064845076E+02 -0.79012378180E+02  0.21558748193E+03  0.12699999809E+01 0.  1.
       -4    1    3    3    0  502  0.19199444608E+03  0.58064845076E+02  0.15540476797E+04  0.15669394364E+04  0.12699999809E+01 0. -1.
</event>
<event>
 5   0  0.1353789E-03  0.9977687E+03  0.7818609E-02  0.9310995E-01
        1   -1    0    0  501    0  0.00000000000E+00  0.00000000000E+00  0.26086296611E+04  0.26086296611E+04  0.50400001928E-02 0.  1.
       -1   -1    0    0    0  501  0.00000000000E+00  0.00000000000E+00 -0.95408552773E+02  0.95408552906E+02  0.50400001928E-02 0. -1.
    10030    2    1    2    0    0  0.00000000000E+00  0.00000000000E+00  0.25132211084E+04  0.27040382140E+04  0.99776867234E+03 0.  0.
        1    1    3    3  502    0 -0.11544262104E+03  0.21671831813E+02 -0.57400550900E+02  0.13073442667E+03  0.50400001928E-02 0. -1.
       -1    1    3    3    0  502  0.11544262104E+03 -0.21671831813E+02  0.25706216593E+04  0.25733037874E+04  0.50400001928E-02 0.  1.
</event>
<event>
 5   0  0.2255142E-03  0.1011023E+04  0.7818609E-02  0.9296537E-01
        2   -1    0    0  501    0  0.00000000000E+00  0.00000000000E+00  0.74349204220E+03  0.74349204220E+03  0.25500000920E-02 0.  1.
       -2   -1    0    0    0  501  0.00000000000E+00  0.00000000000E+00 -0.34370499974E+03  0.34370499975E+03  0.25500000920E-02 0. -1.
    10030    2    1    2    0    0  0.00000000000E+00  0.00000000000E+00  0.39978704246E+03  0.10871970420E+04  0.10110231099E+04 0.  0.
        4    1    3    3  502    0  0.41725678980E+01 -0.27872476458E+03  0.65337160747E+03  0.71035271173E+03  0.12699999809E+01 0.  1.
       -4    1    3    3    0  502 -0.41725678980E+01  0.27872476458E+03 -0.25358456501E+03  0.37684433023E+03  0.12699999809E+01 0. -1.
</event>
<event>
 5   0  0.1353789E-03  0.1000058E+04  0.7818609E-02  0.9308482E-01
        1   -1    0    0  501    0  0.00000000000E+00  0.00000000000E+00  0.28154777195E+03  0.28154777199E+03  0.50400001928E-02 0. -1.
       -1   -1    0    0    0  501  0.00000000000E+00  0.00000000000E+00 -0.88805124003E+03  0.88805124004E+03  0.50400001928E-02 0.  1.
    10030    2    1    2    0    0  0.00000000000E+00  0.00000000000E+00 -0.60650346808E+03  0.11695990120E+04  0.10000576944E+04 0.  0.
        1    1    3    3  502    0  0.39701554344E+03  0.25070259416E+03 -0.50431497391E+03  0.68906220719E+03  0.50400001928E-02 0.  1.
       -1    1    3    3    0  502 -0.39701554344E+03 -0.25070259416E+03 -0.10218849417E+03  0.48053680485E+03  0.50400001928E-02 0. -1.
</event>
<event>
 5   0  0.1353789E-03  0.9989494E+03  0.7818609E-02  0.9309698E-01
        1   -1    0    0  501    0  0.00000000000E+00  0.00000000000E+00  0.41456216371E+03  0.41456216374E+03  0.50400001928E-02 0.  1.
       -1   -1    0    0    0  501  0.00000000000E+00  0.00000000000E+00 -0.60177945847E+03  0.60177945849E+03  0.50400001928E-02 0. -1.
    10030    2    1    2    0    0  0.00000000000E+00  0.00000000000E+00 -0.18721729476E+03  0.10163416222E+04  0.99894943697E+03 0.  0.
        1    1    3    3  502    0 -0.31908138295E+03  0.27278242781E+03  0.18175423103E+03  0.45744702686E+03  0.50400001928E-02 0.  1.
       -1    1    3    3    0  502  0.31908138295E+03 -0.27278242781E+03 -0.36897152579E+03  0.55889459537E+03  0.50400001928E-02 0. -1.
</event>
<event>
 5   0  0.1353789E-03  0.9994270E+03  0.7818609E-02  0.9309174E-01
        1   -1    0    0  501    0  0.00000000000E+00  0.00000000000E+00  0.23843822858E+03  0.23843822863E+03  0.50400001928E-02 0.  1.
       -1   -1    0    0    0  501  0.00000000000E+00  0.00000000000E+00 -0.10472883211E+04  0.10472883211E+04  0.50400001928E-02 0. -1.
    10030    2    1    2    0    0  0.00000000000E+00  0.00000000000E+00 -0.80885009252E+03  0.12857265497E+04  0.99942698010E+03 0.  0.
        1    1    3    3  502    0  0.53508218753E+01 -0.44341699052E+03 -0.70077645855E+03  0.82929783773E+03  0.50400001928E-02 0. -1.
       -1    1    3    3    0  502 -0.53508218753E+01  0.44341699052E+03 -0.10807363397E+03  0.45642871202E+03  0.50400001928E-02 0.  1.
</event>
<event>
 5   0  0.1285769E-03  0.9987090E+03  0.7818609E-02  0.9309962E-01
        1   -1    0    0  501    0  0.00000000000E+00  0.00000000000E+00  0.14596233455E+04  0.14596233455E+04  0.50400001928E-02 0. -1.
       -1   -1    0    0    0  501  0.00000000000E+00  0.00000000000E+00 -0.17083512418E+03  0.17083512426E+03  0.50400001928E-02 0.  1.
    10030    2    1    2    0    0  0.00000000000E+00  0.00000000000E+00  0.12887882213E+04  0.16304584697E+04  0.99870903782E+03 0.  0.
        5    1    3    3  502    0  0.26763728433E+03 -0.46136447395E+01  0.13325586458E+04  0.13591856518E+04  0.46999998093E+01 0. -1.
       -5    1    3    3    0  502 -0.26763728433E+03  0.46136447395E+01 -0.43770424493E+02  0.27127281792E+03  0.46999998093E+01 0.  1.
</event>
<event>
 5   0  0.1285769E-03  0.1004350E+04  0.7818609E-02  0.9303787E-01
       -1   -1    0    0    0  501  0.00000000000E+00  0.00000000000E+00  0.66463910858E+03  0.66463910860E+03  0.50400001928E-02 0.  1.
        1   -1    0    0  501    0  0.00000000000E+00  0.00000000000E+00 -0.37942327059E+03  0.37942327063E+03  0.50400001928E-02 0. -1.
    10030    2    1    2    0    0  0.00000000000E+00  0.00000000000E+00  0.28521583798E+03  0.10440623792E+04  0.10043496291E+04 0.  0.
        5    1    3    3  502    0 -0.38752664021E+03  0.19205693590E+03  0.40783282734E+03  0.59448504485E+03  0.46999998093E+01 0. -1.
       -5    1    3    3    0  502  0.38752664021E+03 -0.19205693590E+03 -0.12261698936E+03  0.44957733437E+03  0.46999998093E+01 0.  1.
</event>
<event>
 5   0  0.1249195E-03  0.9979613E+03  0.7818609E-02  0.9310784E-01
       -1   -1    0    0    0  501  0.00000000000E+00  0.00000000000E+00  0.13552197135E+03  0.13552197145E+03  0.50400001928E-02 0. -1.
        1   -1    0    0  501    0  0.00000000000E+00  0.00000000000E+00 -0.18372051615E+04  0.18372051615E+04  0.50400001928E-02 0.  1.
    10030    2    1    2    0    0  0.00000000000E+00  0.00000000000E+00 -0.17016831901E+04  0.19727271329E+04  0.99796125248E+03 0.  0.
        2    1    3    3  502    0 -0.19111174471E+03  0.10845617733E+03  0.34726287424E+02  0.22246877626E+03  0.25500000920E-02 0. -1.
       -2    1    3    3    0  502  0.19111174471E+03 -0.10845617733E+03 -0.17364094775E+04  0.17502583567E+04  0.25500000920E-02 0.  1.
</event>
<event>
 5   0  0.1249195E-03  0.1000847E+04  0.7818609E-02  0.9307617E-01
       -1   -1    0    0    0  501  0.00000000000E+00  0.00000000000E+00  0.28395246165E+03  0.28395246169E+03  0.50400001928E-02 0.  1.
        1   -1    0    0  501    0  0.00000000000E+00  0.00000000000E+00 -0.88192048175E+03  0.88192048176E+03  0.50400001928E-02 0. -1.
    10030    2    1    2    0    0  0.00000000000E+00  0.00000000000E+00 -0.59796802010E+03  0.11658729435E+04  0.10008466252E+04 0.  0.
        2    1    3    3  502    0  0.20458099598E+03 -0.84010743526E+02  0.22393505697E+03  0.31473496578E+03  0.25500000920E-02 0.  1.
       -2    1    3    3    0  502 -0.20458099598E+03  0.84010743526E+02 -0.82190307706E+03  0.85113797767E+03  0.25500000920E-02 0. -1.
</event>
<event>
 5   0  0.1249195E-03  0.9963536E+03  0.7818609E-02  0.9312553E-01
       -1   -1    0    0    0  501  0.00000000000E+00  0.00000000000E+00  0.24852663342E+03  0.24852663348E+03  0.50400001928E-02 0. -1.
        1   -1    0    0  501    0  0.00000000000E+00  0.00000000000E+00 -0.99860579976E+03  0.99860579977E+03  0.50400001928E-02 0.  1.
    10030    2    1    2    0    0  0.00000000000E+00  0.00000000000E+00 -0.75007916633E+03  0.12471324332E+04  0.99635362713E+03 0.  0.
        2    1    3    3  502    0 -0.15640956884E+03 -0.40141497641E+03 -0.61909722800E+02  0.43523643034E+03  0.25500000920E-02 0. -1.
       -2    1    3    3    0  502  0.15640956884E+03  0.40141497641E+03 -0.68816944353E+03  0.81189600290E+03  0.25500000920E-02 0.  1.
</event>
<event>
 5   0  0.2264577E-03  0.1011862E+04  0.7818609E-02  0.9295630E-01
        2   -1    0    0  501    0  0.00000000000E+00  0.00000000000E+00  0.72254524811E+03  0.72254524811E+03  0.25500000920E-02 0.  1.
       -2   -1    0    0    0  501  0.00000000000E+00  0.00000000000E+00 -0.35425610735E+03  0.35425610736E+03  0.25500000920E-02 0. -1.
    10030    2    1    2    0    0  0.00000000000E+00  0.00000000000E+00  0.36828914076E+03  0.10768013555E+04  0.10118617830E+04 0.  0.
        5    1    3    3  502    0 -0.21816944452E+03  0.17461140566E+03 -0.26465227229E+03  0.38490253927E+03  0.46999998093E+01 0. -1.
       -5    1    3    3    0  502  0.21816944452E+03 -0.17461140566E+03  0.63294141305E+03  0.69189881620E+03  0.46999998093E+01 0.  1.
</event>
<event>
 5   0  0.1353789E-03  0.9962651E+03  0.7818609E-02  0.9312651E-01
        1   -1    0    0  501    0  0.00000000000E+00  0.00000000000E+00  0.21482944236E+04  0.21482944236E+04  0.50400001928E-02 0. -1.
       -1   -1    0    0    0  501  0.00000000000E+00  0.00000000000E+00 -0.11550373424E+03  0.11550373435E+03  0.50400001928E-02 0.  1.
    10030    2    1    2    0    0  0.00000000000E+00  0.00000000000E+00  0.20327906894E+04  0.22637981580E+04  0.99626508182E+03 0.  0.
        1    1    3    3  502    0  0.26122846488E+03  0.40670200509E+03  0.12899127350E+04  0.13775056064E+04  0.50400001928E-02 0. -1.
       -1    1    3    3    0  502 -0.26122846488E+03 -0.40670200509E+03  0.74287795442E+03  0.88629255159E+03  0.50400001928E-02 0.  1.
</event>
<event>
 5   0  0.8680125E-04  0.9959087E+03  0.7818609E-02  0.9313043E-01
       -3   -1    0    0    0  501  0.00000000000E+00  0.00000000000E+00  0.33610484867E+03  0.33610486385E+03  0.10100000352E+00 0.  1.
        3   -1    0    0  501    0  0.00000000000E+00  0.00000000000E+00 -0.73774156616E+03  0.73774157307E+03  0.10100000352E+00 0. -1.
    10030    2    1    2    0    0  0.00000000000E+00  0.00000000000E+00 -0.40163671749E+03  0.10738464369E+04  0.99590868922E+03 0.  0.
        2    1    3    3  502    0  0.10915242070E+03  0.45534775683E+03 -0.18141293861E+02  0.46859890860E+03  0.25500000920E-02 0.  1.
       -2    1    3    3    0  502 -0.10915242070E+03 -0.45534775683E+03 -0.38349542363E+03  0.60524752832E+03  0.25500000920E-02 0. -1.
</event>
<event>
 5   0  0.2264577E-03  0.1000536E+04  0.7818609E-02  0.9307957E-01
       -2   -1    0    0    0  501  0.00000000000E+00  0.00000000000E+00  0.15107201577E+03  0.15107201579E+03  0.25500000920E-02 0. -1.
        2   -1    0    0  501    0  0.00000000000E+00  0.00000000000E+00 -0.16566133110E+04  0.16566133110E+04  0.25500000920E-02 0.  1.
    10030    2    1    2    0    0  0.00000000000E+00  0.00000000000E+00 -0.15055412952E+04  0.18076853267E+04  0.10005356810E+04 0.  0.
        5    1    3    3  502    0  0.72959953671E+02 -0.48902007746E+03 -0.61538844667E+03  0.78942309396E+03  0.46999998093E+01 0. -1.
       -5    1    3    3    0  502 -0.72959953671E+02  0.48902007746E+03 -0.89015284852E+03  0.10182622328E+04  0.46999998093E+01 0.  1.
</event>
<event>
 5   0  0.1293575E-03  0.9997523E+03  0.7818609E-02  0.9308817E-01
       -1   -1    0    0    0  501  0.00000000000E+00  0.00000000000E+00  0.93211317166E+03  0.93211317167E+03  0.50400001928E-02 0. -1.
        1   -1    0    0  501    0  0.00000000000E+00  0.00000000000E+00 -0.26807491925E+03  0.26807491930E+03  0.50400001928E-02 0.  1.
    10030    2    1    2    0    0  0.00000000000E+00  0.00000000000E+00  0.66403825241E+03  0.12001880910E+04  0.99975229584E+03 0.  0.
        4    1    3    3  502    0  0.26994791188E+02  0.43573142844E+03  0.62431688361E+03  0.76181610678E+03  0.12699999809E+01 0. -1.
       -4    1    3    3    0  502 -0.26994791188E+02 -0.43573142844E+03  0.39721368798E+02  0.43837198419E+03  0.12699999809E+01 0.  1.
</event>
<event>
 5   0  0.2255142E-03  0.1017073E+04  0.7818609E-02  0.9290015E-01
       -2   -1    0    0    0  501  0.00000000000E+00  0.00000000000E+00  0.11315775063E+04  0.11315775063E+04  0.25500000920E-02 0.  1.
        2   -1    0    0  501    0  0.00000000000E+00  0.00000000000E+00 -0.22853875913E+03  0.22853875914E+03  0.25500000920E-02 0. -1.
    10030    2    1    2    0    0  0.00000000000E+00  0.00000000000E+00  0.90303874717E+03  0.13601162654E+04  0.10170728964E+04 0.  0.
        4    1    3    3  502    0  0.34106359482E+02  0.19791229057E+03  0.10762979632E+04  0.10948750783E+04  0.12699999809E+01 0.  1.
       -4    1    3    3    0  502 -0.34106359482E+02 -0.19791229057E+03 -0.17325921605E+03  0.26524118715E+03  0.12699999809E+01 0. -1.
</event>
<event>
 5   0  0.2204862E-03  0.9934486E+03  0.7818609E-02  0.9315760E-01
       -2   -1    0    0    0  501  0.00000000000E+00  0.00000000000E+00  0.18260577945E+03  0.18260577947E+03  0.25500000920E-02 0.  1.
        2   -1    0    0  501    0  0.00000000000E+00  0.00000000000E+00 -0.13511897176E+04  0.13511897176E+04  0.25500000920E-02 0. -1.
    10030    2    1    2    0    0  0.00000000000E+00  0.00000000000E+00 -0.11685839381E+04  0.15337954971E+04  0.99344864304E+03 0.  0.
        1    1    3    3  502    0 -0.10599559701E+03  0.25814332140E+03  0.50144319027E+02  0.28352688361E+03  0.50400001928E-02 0.  1.
       -1    1    3    3    0  502  0.10599559701E+03 -0.25814332140E+03 -0.12187282572E+04  0.12502686135E+04  0.50400001928E-02 0. -1.
</event>
<event>
 5   0  0.1293716E-03  0.1001790E+04  0.7818609E-02  0.9306583E-01
       -1   -1    0    0    0  501  0.00000000000E+00  0.00000000000E+00  0.22428341236E+03  0.22428341242E+03  0.50400001928E-02 0.  1.
        1   -1    0    0  501    0  0.00000000000E+00  0.00000000000E+00 -0.11186559674E+04  0.11186559674E+04  0.50400001928E-02 0. -1.
    10030    2    1    2    0    0  0.00000000000E+00  0.00000000000E+00 -0.89437255504E+03  0.13429393798E+04  0.10017903527E+04 0.  0.
        3    1    3    3  502    0 -0.17543291545E+03  0.14344506821E+03  0.15163547040E+03  0.27266558547E+03  0.10100000352E+00 0.  1.
       -3    1    3    3    0  502  0.17543291545E+03 -0.14344506821E+03 -0.10460080254E+04  0.10702737944E+04  0.10100000352E+00 0. -1.
</event>
<event>
 5   0  0.2277570E-03  0.1000177E+04  0.7818609E-02  0.9308350E-01
       -2   -1    0    0    0  501  0.00000000000E+00  0.00000000000E+00  0.14168067768E+03  0.14168067770E+03  0.25500000920E-02 0. -1.
        2   -1    0    0  501    0  0.00000000000E+00  0.00000000000E+00 -0.17651573016E+04  0.17651573016E+04  0.25500000920E-02 0.  1.
    10030    2    1    2    0    0  0.00000000000E+00  0.00000000000E+00 -0.16234766239E+04  0.19068379793E+04  0.10001773497E+04 0.  0.
        3    1    3    3  502    0 -0.74866789510E+02  0.45126127990E+03 -0.11970536484E+04  0.12814754099E+04  0.10100000352E+00 0.  1.
       -3    1    3    3    0  502  0.74866789510E+02 -0.45126127990E+03 -0.42642297549E+03  0.62536256934E+03  0.10100000352E+00 0. -1.
</event>
<event>
 5   0  0.1293575E-03  0.9884464E+03  0.7818609E-02  0.9321308E-01
       -1   -1    0    0    0  501  0.00000000000E+00  0.00000000000E+00  0.25830452006E+03  0.25830452011E+03  0.50400001928E-02 0.  1.
        1   -1    0    0  501    0  0.00000000000E+00  0.00000000000E+00 -0.94561484123E+03  0.94561484125E+03  0.50400001928E-02 0. -1.
    10030    2    1    2    0    0  0.00000000000E+00  0.00000000000E+00 -0.68731032117E+03  0.12039193614E+04  0.98844643308E+03 0.  0.
        4    1    3    3  502    0 -0.42240391434E+03  0.22716645373E+03 -0.48892489238E+03  0.68489329669E+03  0.12699999809E+01 0. -1.
       -4    1    3    3    0  502  0.42240391434E+03 -0.22716645373E+03 -0.19838542879E+03  0.51902606467E+03  0.12699999809E+01 0.  1.
</event>
<event>
 5   0  0.2284843E-03  0.9994956E+03  0.7818609E-02  0.9309098E-01
       -2   -1    0    0    0  501  0.00000000000E+00  0.00000000000E+00  0.32950841705E+03  0.32950841706E+03  0.25500000920E-02 0.  1.
        2   -1    0    0  501    0  0.00000000000E+00  0.00000000000E+00 -0.75794081249E+03  0.75794081250E+03  0.25500000920E-02 0. -1.
    10030    2    1    2    0    0  0.00000000000E+00  0.00000000000E+00 -0.42843239544E+03  0.10874492296E+04  0.99949562750E+03 0.  0.
        2    1    3    3  502    0  0.33000896315E+03 -0.32392187246E+03 -0.42040999290E+03  0.62496068465E+03  0.25500000920E-02 0.  1.
       -2    1    3    3    0  502 -0.33000896315E+03  0.32392187246E+03 -0.80224025422E+01  0.46248854490E+03  0.25500000920E-02 0. -1.
</event>
<event>
 5   0  0.1293575E-03  0.9914670E+03  0.7818609E-02  0.9317953E-01
        1   -1    0    0  501    0  0.00000000000E+00  0.00000000000E+00  0.28762718697E+03  0.28762718702E+03  0.50400001928E-02 0.  1.
       -1   -1    0    0    0  501  0.00000000000E+00  0.00000000000E+00 -0.85441052910E+03  0.85441052911E+03  0.50400001928E-02 0. -1.
    10030    2    1    2    0    0  0.00000000000E+00  0.00000000000E+00 -0.56678334213E+03  0.11420377161E+04  0.99146698793E+03 0.  0.
        4    1    3    3  502    0  0.44002210678E+03  0.18930863252E+03 -0.43041999361E+03  0.64398773016E+03  0.12699999809E+01 0. -1.
       -4    1    3    3    0  502 -0.44002210678E+03 -0.18930863252E+03 -0.13636334852E+03  0.49804998597E+03  0.12699999809E+01 0.  1.
</event>
<event>
 5   0  0.1293575E-03  0.1006093E+04  0.7818609E-02  0.9301888E-01
        1   -1    0    0  501    0  0.00000000000E+00  0.00000000000E+00  0.14812438132E+04  0.14812438132E+04  0.50400001928E-02 0. -1.
       -1   -1    0    0    0  501  0.00000000000E+00  0.00000000000E+00 -0.17083995988E+03  0.17083995995E+03  0.50400001928E-02 0.  1.
    10030    2    1    2    0    0  0.00000000000E+00  0.00000000000E+00  0.13104038533E+04  0.16520837731E+04  0.10060927068E+04 0.  0.
        4    1    3    3  502    0  0.24465796075E+03 -0.13295353562E+03  0.13431524370E+04  0.13717121572E+04  0.12699999809E+01 0. -1.
       -4    1    3    3    0  502 -0.24465796075E+03  0.13295353562E+03 -0.32748583668E+02  0.28037161594E+03  0.12699999809E+01 0.  1.
</event>
<event>
 5   0  0.1249195E-03  0.9989481E+03  0.7818609E-02  0.9309699E-01
       -1   -1    0    0    0  501  0.00000000000E+00  0.00000000000E+00  0.20625695451E+03  0.20625695457E+03  0.50400001928E-02 0. -1.
        1   -1    0    0  501    0  0.00000000000E+00  0.00000000000E+00 -0.12095317656E+04  0.12095317656E+04  0.50400001928E-02 0.  1.
    10030    2    1    2    0    0  0.00000000000E+00  0.00000000000E+00 -0.10032748111E+04  0.14157887201E+04  0.99894812358E+03 0.  0.
        2    1    3    3  502    0  0.61085066737E+02 -0.71289500417E+02 -0.11969148722E+04  0.12005910168E+04  0.25500000920E-02 0.  1.
       -2    1    3    3    0  502 -0.61085066737E+02  0.71289500417E+02  0.19364006115E+03  0.21519770337E+03  0.25500000920E-02 0. -1.
</event>
<event>
 5   0  0.2284843E-03  0.1002376E+04  0.7818609E-02  0.9305943E-01
       -2   -1    0    0    0  501  0.00000000000E+00  0.00000000000E+00  0.29038666339E+03  0.29038666340E+03  0.25500000920E-02 0. -1.
        2   -1    0    0  501    0  0.00000000000E+00  0.00000000000E+00 -0.86501654056E+03  0.86501654056E+03  0.25500000920E-02 0.  1.
    10030    2    1    2    0    0  0.00000000000E+00  0.00000000000E+00 -0.57462987717E+03  0.11554032040E+04  0.10023757120E+04 0.  0.
        2    1    3    3  502    0  0.28497743111E+03  0.40865625278E+03 -0.22442127710E+03  0.54642197869E+03  0.25500000920E-02 0. -1.
       -2    1    3    3    0  502 -0.28497743111E+03 -0.40865625278E+03 -0.35020860007E+03  0.60898122528E+03  0.25500000920E-02 0.  1.
</event>
<event>
 5   0  0.2204862E-03  0.1001048E+04  0.7818609E-02  0.9307396E-01
        2   -1    0    0  501    0  0.00000000000E+00  0.00000000000E+00  0.82700241600E+03  0.82700241600E+03  0.25500000920E-02 0. -1.
       -2   -1    0    0    0  501  0.00000000000E+00  0.00000000000E+00 -0.30293041650E+03  0.30293041652E+03  0.25500000920E-02 0.  1.
    10030    2    1    2    0    0  0.00000000000E+00  0.00000000000E+00  0.52407199949E+03  0.11299328325E+04  0.10010478237E+04 0.  0.
        1    1    3    3  502    0 -0.32393945764E+03  0.37951788368E+03  0.21754562956E+03  0.54433142222E+03  0.50400001928E-02 0.  1.
       -1    1    3    3    0  502  0.32393945764E+03 -0.37951788368E+03  0.30652636993E+03  0.58560141030E+03  0.50400001928E-02 0. -1.
</event>
<event>
 5   0  0.8680125E-04  0.1002179E+04  0.7818609E-02  0.9306159E-01
        4   -1    0    0  501    0  0.00000000000E+00  0.00000000000E+00  0.40986427062E+03  0.40986623822E+03  0.12699999809E+01 0. -1.
       -4   -1    0    0    0  501  0.00000000000E+00  0.00000000000E+00 -0.61261460416E+03  0.61261592057E+03  0.12699999809E+01 0.  1.
    10030    2    1    2    0    0  0.00000000000E+00  0.00000000000E+00 -0.20275033354E+03  0.10224821588E+04  0.10021786604E+04 0.  0.
        4    1    3    3  502    0  0.50622425667E+02 -0.34861427644E+03 -0.46495752737E+03  0.58333665998E+03  0.12699999809E+01 0.  1.
       -4    1    3    3    0  502 -0.50622425667E+02  0.34861427644E+03  0.26220719383E+03  0.43914549880E+03  0.12699999809E+01 0. -1.
</event>
<event>
 5   0  0.2204862E-03  0.9934546E+03  0.7818609E-02  0.9315753E-01
       -2   -1    0    0    0  501  0.00000000000E+00  0.00000000000E+00  0.22090792008E+03  0.22090792009E+03  0.25500000920E-02 0. -1.
        2   -1    0    0  501    0  0.00000000000E+00  0.00000000000E+00 -0.11169269465E+04  0.11169269465E+04  0.25500000920E-02 0.  1.
    10030    2    1    2    0    0  0.00000000000E+00  0.00000000000E+00 -0.89601902641E+03  0.13378348666E+04  0.99345459612E+03 0.  0.
        1    1    3    3  502    0  0.43722348922E+03 -0.22272952686E+03 -0.34400156795E+03  0.59925779130E+03  0.50400001928E-02 0. -1.
       -1    1    3    3    0  502 -0.43722348922E+03  0.22272952686E+03 -0.55201745846E+03  0.73857707528E+03  0.50400001928E-02 0.  1.
</event>
<event>
 5   0  0.1353789E-03  0.9979792E+03  0.7818609E-02  0.9310764E-01
       -1   -1    0    0    0  501  0.00000000000E+00  0.00000000000E+00  0.20943814543E+03  0.20943814550E+03  0.50400001928E-02 0. -1.
        1   -1    0    0  501    0  0.00000000000E+00  0.00000000000E+00 -0.11888504562E+04  0.11888504562E+04  0.50400001928E-02 0.  1.
    10030    2    1    2    0    0  0.00000000000E+00  0.00000000000E+00 -0.97941231077E+03  0.13982886017E+04  0.99797922783E+03 0.  0.
        1    1    3    3  502    0  0.49152881180E+03  0.78438850088E+02 -0.44041920989E+03  0.66462192749E+03  0.50400001928E-02 0.  1.
       -1    1    3    3    0  502 -0.49152881180E+03 -0.78438850088E+02 -0.53899310088E+03  0.73366667422E+03  0.50400001928E-02 0. -1.
</event>
<event>
 5   0  0.2264577E-03  0.9954077E+03  0.7818609E-02  0.9313596E-01
       -2   -1    0    0    0  501  0.00000000000E+00  0.00000000000E+00  0.16537914484E+03  0.16537914486E+03  0.25500000920E-02 0. -1.
        2   -1    0    0  501    0  0.00000000000E+00  0.00000000000E+00 -0.14978256949E+04  0.14978256949E+04  0.25500000920E-02 0.  1.
    10030    2    1    2    0    0  0.00000000000E+00  0.00000000000E+00 -0.13324465500E+04  0.16632048397E+04  0.99540772058E+03 0.  0.
        5    1    3    3  502    0 -0.28820598937E+03  0.16864655268E+02  0.11131643649E+02  0.28895174752E+03  0.46999998093E+01 0. -1.
       -5    1    3    3    0  502  0.28820598937E+03 -0.16864655268E+02 -0.13435781937E+04  0.13742530922E+04  0.46999998093E+01 0.  1.
</event>
<event>
 5   0  0.8680125E-04  0.1002864E+04  0.7818609E-02  0.9305409E-01
        3   -1    0    0  501    0  0.00000000000E+00  0.00000000000E+00  0.61654500492E+03  0.61654501320E+03  0.10100000352E+00 0.  1.
       -3   -1    0    0    0  501  0.00000000000E+00  0.00000000000E+00 -0.40781151452E+03  0.40781152702E+03  0.10100000352E+00 0. -1.
    10030    2    1    2    0    0  0.00000000000E+00  0.00000000000E+00  0.20873349041E+03  0.10243565402E+04  0.10028642239E+04 0.  0.
        4    1    3    3  502    0  0.46126012077E+03 -0.66443684186E+02  0.29341947759E+03  0.55070161150E+03  0.12699999809E+01 0.  1.
       -4    1    3    3    0  502 -0.46126012077E+03  0.66443684186E+02 -0.84685987179E+02  0.47365492872E+03  0.12699999809E+01 0. -1.
</event>
<event>
 5   0  0.2255142E-03  0.9985824E+03  0.7818609E-02  0.9310101E-01
       -2   -1    0    0    0  501  0.00000000000E+00  0.00000000000E+00  0.32273030308E+03  0.32273030309E+03  0.25500000920E-02 0.  1.
        2   -1    0    0  501    0  0.00000000000E+00  0.00000000000E+00 -0.77244586105E+03  0.77244586106E+03  0.25500000920E-02 0. -1.
    10030    2    1    2    0    0  0.00000000000E+00  0.00000000000E+00 -0.44971555797E+03  0.10951761641E+04  0.99858236887E+03 0.  0.
        4    1    3    3  502    0  0.29121177193E+03  0.25343367326E+03 -0.57212018428E+03  0.69018551203E+03  0.12699999809E+01 0. -1.
       -4    1    3    3    0  502 -0.29121177193E+03 -0.25343367326E+03  0.12240462631E+03  0.40499065211E+03  0.12699999809E+01 0.  1.
</event>
<event>
 5   0  0.2255142E-03  0.9914807E+03  0.7818609E-02  0.9317938E-01
       -2   -1    0    0    0  501  0.00000000000E+00  0.00000000000E+00  0.16345549324E+03  0.16345549326E+03  0.25500000920E-02 0. -1.
        2   -1    0    0  501    0  0.00000000000E+00  0.00000000000E+00 -0.15035192305E+04  0.15035192305E+04  0.25500000920E-02 0.  1.
    10030    2    1    2    0    0  0.00000000000E+00  0.00000000000E+00 -0.13400637373E+04  0.16669747238E+04  0.99148066535E+03 0.  0.
        4    1    3    3  502    0 -0.46399173097E+03 -0.16059614278E+03 -0.78501862223E+03  0.92592402368E+03  0.12699999809E+01 0.  1.
       -4    1    3    3    0  502  0.46399173097E+03  0.16059614278E+03 -0.55504511504E+03  0.74105070009E+03  0.12699999809E+01 0. -1.
</event>
<event>
 5   0  0.1249195E-03  0.9637015E+03  0.7818609E-02  0.9349277E-01
        1   -1    0    0  501    0  0.00000000000E+00  0.00000000000E+00  0.96245054287E+03  0.96245054288E+03  0.50400001928E-02 0. -1.
       -1   -1    0    0    0  501  0.00000000000E+00  0.00000000000E+00 -0.24123854002E+03  0.24123854007E+03  0.50400001928E-02 0.  1.
    10030    2    1    2    0    0  0.00000000000E+00  0.00000000000E+00  0.72121200285E+03  0.12036890830E+04  0.96370153854E+03 0.  0.
        2    1    3    3  502    0  0.13739138039E+03 -0.34232684158E+03  0.74783676547E+03  0.83386083111E+03  0.25500000920E-02 0. -1.
       -2    1    3    3    0  502 -0.13739138039E+03  0.34232684158E+03 -0.26624762619E+02  0.36982825185E+03  0.25500000920E-02 0.  1.
</event>
<event>
 5   0  0.1353789E-03  0.9996518E+03  0.7818609E-02  0.9308927E-01
       -1   -1    0    0    0  501  0.00000000000E+00  0.00000000000E+00  0.21552177155E+03  0.21552177161E+03  0.50400001928E-02 0. -1.
        1   -1    0    0  501    0  0.00000000000E+00  0.00000000000E+00 -0.11591679606E+04  0.11591679606E+04  0.50400001928E-02 0.  1.
    10030    2    1    2    0    0  0.00000000000E+00  0.00000000000E+00 -0.94364618907E+03  0.13746897322E+04  0.99965180428E+03 0.  0.
        1    1    3    3  502    0 -0.41640578683E+03 -0.21672562126E+03 -0.23578167742E+03  0.52531587987E+03  0.50400001928E-02 0. -1.
       -1    1    3    3    0  502  0.41640578683E+03  0.21672562126E+03 -0.70786451165E+03  0.84937385237E+03  0.50400001928E-02 0.  1.
</event>
<event>
 5   0  0.1285769E-03  0.1004410E+04  0.7818609E-02  0.9303721E-01
        1   -1    0    0  501    0  0.00000000000E+00  0.00000000000E+00  0.81779117228E+03  0.81779117229E+03  0.50400001928E-02 0. -1.
       -1   -1    0    0    0  501  0.00000000000E+00  0.00000000000E+00 -0.30840358136E+03  0.30840358140E+03  0.50400001928E-02 0.  1.
    10030    2    1    2    0    0  0.00000000000E+00  0.00000000000E+00  0.50938759092E+03  0.11261947537E+04  0.10044097299E+04 0.  0.
        5    1    3    3  502    0 -0.92883536529E+02 -0.57603195283E+02  0.80426908565E+03  0.81167501600E+03  0.46999998093E+01 0. -1.
       -5    1    3    3    0  502  0.92883536529E+02  0.57603195283E+02 -0.29488149473E+03  0.31451973769E+03  0.46999998093E+01 0.  1.
</event>
<event>
 5   0  0.2255142E-03  0.9769235E+03  0.7818609E-02  0.9334223E-01
        2   -1    0    0  501    0  0.00000000000E+00  0.00000000000E+00  0.10299513816E+04  0.10299513816E+04  0.25500000920E-02 0. -1.
       -2   -1    0    0    0  501  0.00000000000E+00  0.00000000000E+00 -0.23165643572E+03  0.23165643573E+03  0.25500000920E-02 0.  1.
    10030    2    1    2    0    0  0.00000000000E+00  0.00000000000E+00  0.79829494591E+03  0.12616078174E+04  0.97692346894E+03 0.  0.
        4    1    3    3  502    0 -0.34075633141E+03 -0.34806375433E+03  0.44624405953E+03  0.66060474419E+03  0.12699999809E+01 0.  1.
       -4    1    3    3    0  502  0.34075633141E+03  0.34806375433E+03  0.35205088638E+03  0.60100307318E+03  0.12699999809E+01 0. -1.
</event>
<event>
 5   0  0.2264577E-03  0.1000882E+04  0.7818609E-02  0.9307578E-01
       -2   -1    0    0    0  501  0.00000000000E+00  0.00000000000E+00  0.37157940029E+03  0.37157940030E+03  0.25500000920E-02 0.  1.
        2   -1    0    0  501    0  0.00000000000E+00  0.00000000000E+00 -0.67399100248E+03  0.67399100249E+03  0.25500000920E-02 0. -1.
    10030    2    1    2    0    0  0.00000000000E+00  0.00000000000E+00 -0.30241160219E+03  0.10455704028E+04  0.10008819561E+04 0.  0.
        5    1    3    3  502    0  0.17671956033E+03  0.39503845715E+02 -0.63854184195E+03  0.66373799857E+03  0.46999998093E+01 0. -1.
       -5    1    3    3    0  502 -0.17671956033E+03 -0.39503845715E+02  0.33613023976E+03  0.38183240421E+03  0.46999998093E+01 0.  1.
</event>
<event>
 5   0  0.2204862E-03  0.1002977E+04  0.7818609E-02  0.9305286E-01
        2   -1    0    0  501    0  0.00000000000E+00  0.00000000000E+00  0.76647908739E+03  0.76647908739E+03  0.25500000920E-02 0. -1.
       -2   -1    0    0    0  501  0.00000000000E+00  0.00000000000E+00 -0.32811166079E+03  0.32811166080E+03  0.25500000920E-02 0.  1.
    10030    2    1    2    0    0  0.00000000000E+00  0.00000000000E+00  0.43836742660E+03  0.10945907482E+04  0.10029770213E+04 0.  0.
        1    1    3    3  502    0 -0.44148862464E+03  0.11566418623E+03 -0.76482516017E+01  0.45645252266E+03  0.50400001928E-02 0.  1.
       -1    1    3    3    0  502  0.44148862464E+03 -0.11566418623E+03  0.44601567820E+03  0.63813822554E+03  0.50400001928E-02 0. -1.
</event>
<event>
 5   0  0.2204862E-03  0.1007180E+04  0.7818609E-02  0.9300705E-01
        2   -1    0    0  501    0  0.00000000000E+00  0.00000000000E+00  0.37474917887E+03  0.37474917888E+03  0.25500000920E-02 0.  1.
       -2   -1    0    0    0  501  0.00000000000E+00  0.00000000000E+00 -0.67672731441E+03  0.67672731441E+03  0.25500000920E-02 0. -1.
    10030    2    1    2    0    0  0.00000000000E+00  0.00000000000E+00 -0.30197813554E+03  0.10514764933E+04  0.10071802329E+04 0.  0.
        1    1    3    3  502    0 -0.32461290395E+03 -0.18934532809E+03 -0.50096055711E+03  0.62624809020E+03  0.50400001928E-02 0. -1.
       -1    1    3    3    0  502  0.32461290395E+03  0.18934532809E+03  0.19898242157E+03  0.42522840309E+03  0.50400001928E-02 0.  1.
</event>
<event>
 5   0  0.1285769E-03  0.1000078E+04  0.7818609E-02  0.9308459E-01
        1   -1    0    0  501    0  0.00000000000E+00  0.00000000000E+00  0.74114792241E+03  0.74114792243E+03  0.50400001928E-02 0. -1.
       -1   -1    0    0    0  501  0.00000000000E+00  0.00000000000E+00 -0.33736724658E+03  0.33736724662E+03  0.50400001928E-02 0.  1.
    10030    2    1    2    0    0  0.00000000000E+00  0.00000000000E+00  0.40378067583E+03  0.10785151691E+04  0.10000780648E+04 0.  0.
        5    1    3    3  502    0 -0.38726480663E+03 -0.22263271560E+03  0.44418377500E+03  0.62996878691E+03  0.46999998093E+01 0. -1.
       -5    1    3    3    0  502  0.38726480663E+03  0.22263271560E+03 -0.40403099171E+02  0.44854638214E+03  0.46999998093E+01 0.  1.
</event>
<event>
 5   0  0.1285769E-03  0.1000958E+04  0.7818609E-02  0.9307495E-01
       -1   -1    0    0    0  501  0.00000000000E+00  0.00000000000E+00  0.21418266851E+03  0.21418266857E+03  0.50400001928E-02 0.  1.
        1   -1    0    0  501    0  0.00000000000E+00  0.00000000000E+00 -0.11694648110E+04  0.11694648110E+04  0.50400001928E-02 0. -1.
    10030    2    1    2    0    0  0.00000000000E+00  0.00000000000E+00 -0.95528214249E+03  0.13836474796E+04  0.10009577294E+04 0.  0.
        5    1    3    3  502    0  0.29108281394E+03  0.30493845263E+03 -0.85045950771E+03  0.94922080082E+03  0.46999998093E+01 0. -1.
       -5    1    3    3    0  502 -0.29108281394E+03 -0.30493845263E+03 -0.10482263478E+03  0.43442667877E+03  0.46999998093E+01 0.  1.
</event>
<event>
 5   0  0.2255142E-03  0.1003313E+04  0.7818609E-02  0.9304919E-01
       -2   -1    0    0    0  501  0.00000000000E+00  0.00000000000E+00  0.78871941083E+03  0.78871941084E+03  0.25500000920E-02 0.  1.
        2   -1    0    0  501    0  0.00000000000E+00  0.00000000000E+00 -0.31907298892E+03  0.31907298893E+03  0.25500000920E-02 0. -1.
    10030    2    1    2    0    0  0.00000000000E+00  0.00000000000E+00  0.46964642191E+03  0.11077923998E+04  0.10033126329E+04 0.  0.
        4    1    3    3  502    0  0.31970925824E+03  0.94667442580E+02 -0.17901604811E+03  0.37844985515E+03  0.12699999809E+01 0. -1.
       -4    1    3    3    0  502 -0.31970925824E+03 -0.94667442580E+02  0.64866247001E+03  0.72934254462E+03  0.12699999809E+01 0.  1.
</event>
<event>
 5   0  0.1293575E-03  0.9955831E+03  0.7818609E-02  0.9313402E-01
        1   -1    0    0  501    0  0.00000000000E+00  0.00000000000E+00  0.49011992580E+03  0.49011992583E+03  0.50400001928E-02 0.  1.
       -1   -1    0    0    0  501  0.00000000000E+00  0.00000000000E+00 -0.50558328988E+03  0.50558328990E+03  0.50400001928E-02 0. -1.
    10030    2    1    2    0    0  0.00000000000E+00  0.00000000000E+00 -0.15463364074E+02  0.99570321573E+03  0.99558313475E+03 0.  0.
        4    1    3    3  502    0  0.31192664983E+03  0.36215588740E+03 -0.14681574132E+03  0.50001159632E+03  0.12699999809E+01 0. -1.
       -4    1    3    3    0  502 -0.31192664983E+03 -0.36215588740E+03  0.13135237724E+03  0.49569161942E+03  0.12699999809E+01 0.  1.
</event>
<event>
 5   0  0.2255142E-03  0.9981863E+03  0.7818609E-02  0.9310536E-01
       -2   -1    0    0    0  501  0.00000000000E+00  0.00000000000E+00  0.96778669373E+03  0.96778669373E+03  0.25500000920E-02 0.  1.
        2   -1    0    0  501    0  0.00000000000E+00  0.00000000000E+00 -0.25738519378E+03  0.25738519379E+03  0.25500000920E-02 0. -1.
    10030    2    1    2    0    0  0.00000000000E+00  0.00000000000E+00  0.71040149995E+03  0.12251718875E+04  0.99818628665E+03 0.  0.
        4    1    3    3  502    0 -0.99317641718E+02  0.38995034372E+03  0.71757864129E+03  0.82270649922E+03  0.12699999809E+01 0.  1.
       -4    1    3    3    0  502  0.99317641718E+02 -0.38995034372E+03 -0.71771413418E+01  0.40246538830E+03  0.12699999809E+01 0. -1.
</event>
<event>
 5   0  0.1293716E-03  0.1005717E+04  0.7818609E-02  0.9302297E-01
       -1   -1    0    0    0  501  0.00000000000E+00  0.00000000000E+00  0.41113705743E+03  0.41113705746E+03  0.50400001928E-02 0. -1.
        1   -1    0    0  501    0  0.00000000000E+00  0.00000000000E+00 -0.61504234917E+03  0.61504234919E+03  0.50400001928E-02 0.  1.
    10030    2    1    2    0    0  0.00000000000E+00  0.00000000000E+00 -0.20390529173E+03  0.10261794067E+04  0.10057170609E+04 0.  0.
        3    1    3    3  502    0 -0.48474909786E+03 -0.10084415288E+03 -0.19157748748E+03  0.53089846012E+03  0.10100000352E+00 0.  1.
       -3    1    3    3    0  502  0.48474909786E+03  0.10084415288E+03 -0.12327804254E+02  0.49528094654E+03  0.10100000352E+00 0. -1.
</event>
<event>
 5   0  0.1293575E-03  0.9697591E+03  0.7818609E-02  0.9342349E-01
       -1   -1    0    0    0  501  0.00000000000E+00  0.00000000000E+00  0.61776224738E+03  0.61776224740E+03  0.50400001928E-02 0. -1.
        1   -1    0    0  501    0  0.00000000000E+00  0.00000000000E+00 -0.38058035696E+03  0.38058035699E+03  0.50400001928E-02 0.  1.
    10030    2    1    2    0    0  0.00000000000E+00  0.00000000000E+00  0.23718189042E+03  0.99834260439E+03  0.96975909720E+03 0.  0.
        4    1    3    3  502    0  0.23576256763E+03  0.41123195952E+03  0.22363194740E+03  0.52412648628E+03  0.12699999809E+01 0. -1.
       -4    1    3    3    0  502 -0.23576256763E+03 -0.41123195952E+03  0.13549943019E+02  0.47421611811E+03  0.12699999809E+01 0.  1.
</event>
<event>
 5   0  0.1249195E-03  0.1002206E+04  0.7818609E-02  0.9306129E-01
       -1   -1    0    0    0  501  0.00000000000E+00  0.00000000000E+00  0.99456646412E+03  0.99456646414E+03  0.50400001928E-02 0.  1.
        1   -1    0    0  501    0  0.00000000000E+00  0.00000000000E+00 -0.25247585505E+03  0.25247585511E+03  0.50400001928E-02 0. -1.
    10030    2    1    2    0    0  0.00000000000E+00  0.00000000000E+00  0.74209060907E+03  0.12470423192E+04  0.10022056046E+04 0.  0.
        2    1    3    3  502    0 -0.11928357440E+03  0.53713308420E+02  0.97294388304E+03  0.98169928704E+03  0.25500000920E-02 0.  1.
       -2    1    3    3    0  502  0.11928357440E+03 -0.53713308420E+02 -0.23085327398E+03  0.26534303220E+03  0.25500000920E-02 0. -1.
</event>
<event>
 5   0  0.2204862E-03  0.9968909E+03  0.7818609E-02  0.9311961E-01
        2   -1    0    0  501    0  0.00000000000E+00  0.00000000000E+00  0.12660211427E+04  0.12660211427E+04  0.25500000920E-02 0.  1.
       -2   -1    0    0    0  501  0.00000000000E+00  0.00000000000E+00 -0.19624304922E+03  0.19624304924E+03  0.25500000920E-02 0. -1.
    10030    2    1    2    0    0  0.00000000000E+00  0.00000000000E+00  0.10697780935E+04  0.14622641920E+04  0.99689086552E+03 0.  0.
        1    1    3    3  502    0  0.42958555968E+03  0.15973232665E+02  0.16482758694E+03  0.46039877355E+03  0.50400001928E-02 0. -1.
       -1    1    3    3    0  502 -0.42958555968E+03 -0.15973232665E+02  0.90495050657E+03  0.10018654184E+04  0.50400001928E-02 0.  1.
</event>
<event>
 5   0  0.1353789E-03  0.9971917E+03  0.7818609E-02  0.9311630E-01
        1   -1    0    0  501    0  0.00000000000E+00  0.00000000000E+00  0.65827336790E+03  0.65827336792E+03  0.50400001928E-02 0.  1.
       -1   -1    0    0    0  501  0.00000000000E+00  0.00000000000E+00 -0.37765135444E+03  0.37765135448E+03  0.50400001928E-02 0. -1.
    10030    2    1    2    0    0  0.00000000000E+00  0.00000000000E+00  0.28062201346E+03  0.10359247224E+04  0.99719171479E+03 0.  0.
        1    1    3    3  502    0 -0.33449715749E+03  0.32912864398E+03 -0.34707885260E+02  0.47055143181E+03  0.50400001928E-02 0.  1.
       -1    1    3    3    0  502  0.33449715749E+03 -0.32912864398E+03  0.31532989872E+03  0.56537329059E+03  0.50400001928E-02 0. -1.
</event>
<event>
 5   0  0.2204862E-03  0.9933819E+03  0.7818609E-02  0.9315833E-01
       -2   -1    0    0    0  501  0.00000000000E+00  0.00000000000E+00  0.38843797200E+03  0.38843797200E+03  0.25500000920E-02 0.  1.
        2   -1    0    0  501    0  0.00000000000E+00  0.00000000000E+00 -0.63511277185E+03  0.63511277185E+03  0.25500000920E-02 0. -1.
    10030    2    1    2    0    0  0.00000000000E+00  0.00000000000E+00 -0.24667479985E+03  0.10235507439E+04  0.99338193479E+03 0.  0.
        1    1    3    3  502    0  0.83497119063E+02 -0.45288573238E+02  0.37899201677E+03  0.39071443864E+03  0.50400001928E-02 0.  1.
       -1    1    3    3    0  502 -0.83497119063E+02  0.45288573238E+02 -0.62566681662E+03  0.63283630522E+03  0.50400001928E-02 0. -1.
</event>
<event>
 5   0  0.2284843E-03  0.9993733E+03  0.7818609E-02  0.9309232E-01
        2   -1    0    0  501    0  0.00000000000E+00  0.00000000000E+00  0.13167271450E+04  0.13167271450E+04  0.25500000920E-02 0.  1.
       -2   -1    0    0    0  501  0.00000000000E+00  0.00000000000E+00 -0.18962677659E+03  0.18962677661E+03  0.25500000920E-02 0. -1.
    10030    2    1    2    0    0  0.00000000000E+00  0.00000000000E+00  0.11271003684E+04  0.15063539216E+04  0.99937325193E+03 0.  0.
        2    1    3    3  502    0  0.12852184628E+03 -0.24317570752E+03 -0.65256130130E+02  0.28268472231E+03  0.25500000920E-02 0. -1.
       -2    1    3    3    0  502 -0.12852184628E+03  0.24317570752E+03  0.11923564985E+04  0.12236691993E+04  0.25500000920E-02 0.  1.
</event>
<event>
 5   0  0.2255142E-03  0.9998983E+03  0.7818609E-02  0.9308656E-01
       -2   -1    0    0    0  501  0.00000000000E+00  0.00000000000E+00  0.73021278120E+03  0.73021278121E+03  0.25500000920E-02 0.  1.
        2   -1    0    0  501    0  0.00000000000E+00  0.00000000000E+00 -0.34229630693E+03  0.34229630694E+03  0.25500000920E-02 0. -1.
    10030    2    1    2    0    0  0.00000000000E+00  0.00000000000E+00  0.38791647427E+03  0.10725090881E+04  0.99989827140E+03 0.  0.
        4    1    3    3  502    0 -0.12541436505E+03  0.45715366778E+03  0.23586462424E+02  0.47463267169E+03  0.12699999809E+01 0. -1.
       -4    1    3    3    0  502  0.12541436505E+03 -0.45715366778E+03  0.36433001184E+03  0.59787641646E+03  0.12699999809E+01 0.  1.
</event>
<event>
 5   0  0.1249195E-03  0.1001465E+04  0.7818609E-02  0.9306939E-01
       -1   -1    0    0    0  501  0.00000000000E+00  0.00000000000E+00  0.13912253570E+03  0.13912253579E+03  0.50400001928E-02 0. -1.
        1   -1    0    0  501    0  0.00000000000E+00  0.00000000000E+00 -0.18022461566E+04  0.18022461566E+04  0.50400001928E-02 0.  1.
    10030    2    1    2    0    0  0.00000000000E+00  0.00000000000E+00 -0.16631236209E+04  0.19413686924E+04  0.10014650375E+04 0.  0.
        2    1    3    3  502    0  0.34263243347E+03  0.35696875109E+03 -0.98058136062E+03  0.10983457919E+04  0.25500000920E-02 0.  1.
       -2    1    3    3    0  502 -0.34263243347E+03 -0.35696875109E+03 -0.68254226026E+03  0.84302290050E+03  0.25500000920E-02 0. -1.
</event>
<event>
 5   0  0.1353789E-03  0.1002550E+04  0.7818609E-02  0.9305752E-01
        1   -1    0    0  501    0  0.00000000000E+00  0.00000000000E+00  0.38835099637E+03  0.38835099640E+03  0.50400001928E-02 0. -1.
       -1   -1    0    0    0  501  0.00000000000E+00  0.00000000000E+00 -0.64703477409E+03  0.64703477411E+03  0.50400001928E-02 0.  1.
    10030    2    1    2    0    0  0.00000000000E+00  0.00000000000E+00 -0.25868377772E+03  0.10353857705E+04  0.10025499473E+04 0.  0.
        1    1    3    3  502    0 -0.18912621260E+03  0.20769422346E+03  0.29943192538E+03  0.41056679446E+03  0.50400001928E-02 0. -1.
       -1    1    3    3    0  502  0.18912621260E+03 -0.20769422346E+03 -0.55811570310E+03  0.62481897605E+03  0.50400001928E-02 0.  1.
</event>
<event>
 5   0  0.2255142E-03  0.1000929E+04  0.7818609E-02  0.9307527E-01
        2   -1    0    0  501    0  0.00000000000E+00  0.00000000000E+00  0.10560998709E+04  0.10560998709E+04  0.25500000920E-02 0. -1.
       -2   -1    0    0    0  501  0.00000000000E+00  0.00000000000E+00 -0.23715997015E+03  0.23715997016E+03  0.25500000920E-02 0.  1.
    10030    2    1    2    0    0  0.00000000000E+00  0.00000000000E+00  0.81893990071E+03  0.12932598410E+04  0.10009287964E+04 0.  0.
        4    1    3    3  502    0  0.29945845719E+03 -0.47431126715E+02  0.92392707738E+03  0.97240317594E+03  0.12699999809E+01 0. -1.
       -4    1    3    3    0  502 -0.29945845719E+03  0.47431126715E+02 -0.10498717667E+03  0.32085666508E+03  0.12699999809E+01 0.  1.
</event>
<event>
 5   0  0.2264577E-03  0.9998597E+03  0.7818609E-02  0.9308699E-01
       -2   -1    0    0    0  501  0.00000000000E+00  0.00000000000E+00  0.17174946454E+03  0.17174946455E+03  0.25500000920E-02 0. -1.
        2   -1    0    0  501    0  0.00000000000E+00  0.00000000000E+00 -0.14552002415E+04  0.14552002415E+04  0.25500000920E-02 0.  1.
    10030    2    1    2    0    0  0.00000000000E+00  0.00000000000E+00 -0.12834507770E+04  0.16269497061E+04  0.99985971474E+03 0.  0.
        5    1    3    3  502    0 -0.68624421044E+02 -0.39526127344E+03 -0.11270692020E+04  0.11963477176E+04  0.46999998093E+01 0.  1.
       -5    1    3    3    0  502  0.68624421044E+02  0.39526127344E+03 -0.15638157500E+03  0.43060198844E+03  0.46999998093E+01 0. -1.
</event>
<event>
 5   0  0.1249195E-03  0.1000952E+04  0.7818609E-02  0.9307502E-01
       -1   -1    0    0    0  501  0.00000000000E+00  0.00000000000E+00  0.24076621584E+03  0.24076621589E+03  0.50400001928E-02 0. -1.
        1   -1    0    0  501    0  0.00000000000E+00  0.00000000000E+00 -0.10403286459E+04  0.10403286459E+04  0.50400001928E-02 0.  1.
    10030    2    1    2    0    0  0.00000000000E+00  0.00000000000E+00 -0.79956243003E+03  0.12810948618E+04  0.10009515300E+04 0.  0.
        2    1    3    3  502    0  0.13881300769E+02 -0.44512147287E+03 -0.10750321460E+03  0.45812962934E+03  0.25500000920E-02 0. -1.
       -2    1    3    3    0  502 -0.13881300769E+02  0.44512147287E+03 -0.69205921543E+03  0.82296523243E+03  0.25500000920E-02 0.  1.
</event>
<event>
 5   0  0.8680125E-04  0.1001711E+04  0.7818609E-02  0.9306670E-01
        3   -1    0    0  501    0  0.00000000000E+00  0.00000000000E+00  0.20168368335E+03  0.20168370864E+03  0.10100000352E+00 0.  1.
       -3   -1    0    0    0  501  0.00000000000E+00  0.00000000000E+00 -0.12438109272E+04  0.12438109313E+04  0.10100000352E+00 0. -1.
    10030    2    1    2    0    0  0.00000000000E+00  0.00000000000E+00 -0.10421272439E+04  0.14454946400E+04  0.10017113166E+04 0.  0.
        1    1    3    3  502    0 -0.10249161633E+02  0.33673225996E+03 -0.10558845122E+04  0.11083256576E+04  0.50400001928E-02 0. -1.
       -1    1    3    3    0  502  0.10249161633E+02 -0.33673225996E+03  0.13757268301E+02  0.33716898236E+03  0.50400001928E-02 0.  1.
</event>
<event>
 5   0  0.1293716E-03  0.9977940E+03  0.7818609E-02  0.9310968E-01
       -1   -1    0    0    0  501  0.00000000000E+00  0.00000000000E+00  0.18634324043E+03  0.18634324050E+03  0.50400001928E-02 0. -1.
        1   -1    0    0  501    0  0.00000000000E+00  0.00000000000E+00 -0.13356977000E+04  0.13356977000E+04  0.50400001928E-02 0.  1.
    10030    2    1    2    0    0  0.00000000000E+00  0.00000000000E+00 -0.11493544596E+04  0.15220409405E+04  0.99779404230E+03 0.  0.
        3    1    3    3  502    0  0.16675038986E+03  0.46534521437E+03 -0.67753039170E+03  0.83868903828E+03  0.10100000352E+00 0.  1.
       -3    1    3    3    0  502 -0.16675038986E+03 -0.46534521437E+03 -0.47182406785E+03  0.68335190221E+03  0.10100000352E+00 0. -1.
</event>
<event>
 5   0  0.2284843E-03  0.1000528E+04  0.7818609E-02  0.9307966E-01
       -2   -1    0    0    0  501  0.00000000000E+00  0.00000000000E+00  0.56792737451E+03  0.56792737452E+03  0.25500000920E-02 0.  1.
        2   -1    0    0  501    0  0.00000000000E+00  0.00000000000E+00 -0.44066187377E+03  0.44066187378E+03  0.25500000920E-02 0. -1.
    10030    2    1    2    0    0  0.00000000000E+00  0.00000000000E+00  0.12726550074E+03  0.10085892483E+04  0.10005277428E+04 0.  0.
        2    1    3    3  502    0 -0.83499658580E+01 -0.48822278589E+03  0.17328755970E+03  0.51813105384E+03  0.25500000920E-02 0.  1.
       -2    1    3    3    0  502  0.83499658580E+01  0.48822278589E+03 -0.46022058953E+02  0.49045819446E+03  0.25500000920E-02 0. -1.
</event>
<event>
 5   0  0.2255142E-03  0.9897108E+03  0.7818609E-02  0.9319902E-01
        2   -1    0    0  501    0  0.00000000000E+00  0.00000000000E+00  0.63301125228E+03  0.63301125228E+03  0.25500000920E-02 0. -1.
       -2   -1    0    0    0  501  0.00000000000E+00  0.00000000000E+00 -0.38685229292E+03  0.38685229293E+03  0.25500000920E-02 0.  1.
    10030    2    1    2    0    0  0.00000000000E+00  0.00000000000E+00  0.24615895936E+03  0.10198635452E+04  0.98971077471E+03 0.  0.
        4    1    3    3  502    0 -0.99245173072E+02  0.45611928384E+03 -0.46198983873E+02  0.46907394351E+03  0.12699999809E+01 0.  1.
       -4    1    3    3    0  502  0.99245173072E+02 -0.45611928384E+03  0.29235794323E+03  0.55078960170E+03  0.12699999809E+01 0. -1.
</event>
<event>
 5   0  0.1353789E-03  0.9967736E+03  0.7818609E-02  0.9312091E-01
        1   -1    0    0  501    0  0.00000000000E+00  0.00000000000E+00  0.47276334433E+03  0.47276334436E+03  0.50400001928E-02 0. -1.
       -1   -1    0    0    0  501  0.00000000000E+00  0.00000000000E+00 -0.52539904666E+03  0.52539904669E+03  0.50400001928E-02 0.  1.
    10030    2    1    2    0    0  0.00000000000E+00  0.00000000000E+00 -0.52635702335E+02  0.99816239104E+03  0.99677361609E+03 0.  0.
        1    1    3    3  502    0  0.46313612149E+03 -0.61950683857E+02  0.14729167628E+03  0.48992631302E+03  0.50400001928E-02 0. -1.
       -1    1    3    3    0  502 -0.46313612149E+03  0.61950683857E+02 -0.19992737861E+03  0.50823607803E+03  0.50400001928E-02 0.  1.
</event>
<event>
 5   0  0.1353789E-03  0.1000943E+04  0.7818609E-02  0.9307511E-01
        1   -1    0    0  501    0  0.00000000000E+00  0.00000000000E+00  0.10671308060E+04  0.10671308060E+04  0.50400001928E-02 0.  1.
       -1   -1    0    0    0  501  0.00000000000E+00  0.00000000000E+00 -0.23471506049E+03  0.23471506055E+03  0.50400001928E-02 0. -1.
    10030    2    1    2    0    0  0.00000000000E+00  0.00000000000E+00  0.83241574547E+03  0.13018458665E+04  0.10009428989E+04 0.  0.
        1    1    3    3  502    0  0.14038447164E+03  0.19923610358E+03  0.98472716523E+03  0.10144409371E+04  0.50400001928E-02 0.  1.
       -1    1    3    3    0  502 -0.14038447164E+03 -0.19923610358E+03 -0.15231141977E+03  0.28740492944E+03  0.50400001928E-02 0. -1.
</event>
<event>
 5   0  0.2277570E-03  0.1008076E+04  0.7818609E-02  0.9299731E-01
       -2   -1    0    0    0  501  0.00000000000E+00  0.00000000000E+00  0.25559387648E+03  0.25559387649E+03  0.25500000920E-02 0.  1.
        2   -1    0    0  501    0  0.00000000000E+00  0.00000000000E+00 -0.99397681975E+03  0.99397681975E+03  0.25500000920E-02 0. -1.
    10030    2    1    2    0    0  0.00000000000E+00  0.00000000000E+00 -0.73838294327E+03  0.12495706962E+04  0.10080761648E+04 0.  0.
        3    1    3    3  502    0 -0.11396353112E+03 -0.30747463522E+03  0.10529615624E+03  0.34440619689E+03  0.10100000352E+00 0.  1.
       -3    1    3    3    0  502  0.11396353112E+03  0.30747463522E+03 -0.84367909952E+03  0.90516449936E+03  0.10100000352E+00 0. -1.
</event>
<event>
 5   0  0.1293575E-03  0.1003953E+04  0.7818609E-02  0.9304220E-01
        1   -1    0    0  501    0  0.00000000000E+00  0.00000000000E+00  0.14517744404E+04  0.14517744404E+04  0.50400001928E-02 0.  1.
       -1   -1    0    0    0  501  0.00000000000E+00  0.00000000000E+00 -0.17356716362E+03  0.17356716369E+03  0.50400001928E-02 0. -1.
    10030    2    1    2    0    0  0.00000000000E+00  0.00000000000E+00  0.12782072768E+04  0.16253416041E+04  0.10039529310E+04 0.  0.
        4    1    3    3  502    0  0.45561057997E+03  0.12785607239E+03  0.91024904248E+03  0.10259059938E+04  0.12699999809E+01 0. -1.
       -4    1    3    3    0  502 -0.45561057997E+03 -0.12785607239E+03  0.36795823429E+03  0.59943561031E+03  0.12699999809E+01 0.  1.
</event>
<event>
 5   0  0.1353789E-03  0.1001848E+04  0.7818609E-02  0.9306520E-01
       -1   -1    0    0    0  501  0.00000000000E+00  0.00000000000E+00  0.57245035982E+03  0.57245035985E+03  0.50400001928E-02 0.  1.
        1   -1    0    0  501    0  0.00000000000E+00  0.00000000000E+00 -0.43833457272E+03  0.43833457275E+03  0.50400001928E-02 0. -1.
    10030    2    1    2    0    0  0.00000000000E+00  0.00000000000E+00  0.13411578710E+03  0.10107849326E+04  0.10018478605E+04 0.  0.
        1    1    3    3  502    0  0.35524872240E+03  0.28292689547E+03 -0.14619341255E+03  0.47709726141E+03  0.50400001928E-02 0.  1.
       -1    1    3    3    0  502 -0.35524872240E+03 -0.28292689547E+03  0.28030919965E+03  0.53368767119E+03  0.50400001928E-02 0. -1.
</event>
<event>
 5   0  0.8680125E-04  0.9987997E+03  0.7818609E-02  0.9309862E-01
        3   -1    0    0  501    0  0.00000000000E+00  0.00000000000E+00  0.46016778238E+03  0.46016779346E+03  0.10100000352E+00 0. -1.
       -3   -1    0    0    0  501  0.00000000000E+00  0.00000000000E+00 -0.54197669040E+03  0.54197669981E+03  0.10100000352E+00 0.  1.
    10030    2    1    2    0    0  0.00000000000E+00  0.00000000000E+00 -0.81808908018E+02  0.10021444933E+04  0.99879972365E+03 0.  0.
        3    1    3    3  502    0  0.56471561739E+02 -0.47688711717E+03  0.96630665889E+02  0.48984472601E+03  0.10100000352E+00 0. -1.
       -3    1    3    3    0  502 -0.56471561739E+02  0.47688711717E+03 -0.17843957391E+03  0.51229976727E+03  0.10100000352E+00 0.  1.
</event>
<event>
 5   0  0.1353789E-03  0.1003046E+04  0.7818609E-02  0.9305210E-01
       -1   -1    0    0    0  501  0.00000000000E+00  0.00000000000E+00  0.11265687239E+04  0.11265687239E+04  0.50400001928E-02 0. -1.
        1   -1    0    0  501    0  0.00000000000E+00  0.00000000000E+00 -0.22326666411E+03  0.22326666416E+03  0.50400001928E-02 0.  1.
    10030    2    1    2    0    0  0.00000000000E+00  0.00000000000E+00  0.90330205979E+03  0.13498353881E+04  0.10030458433E+04 0.  0.
        1    1    3    3  502    0 -0.47401167980E+03 -0.16133811546E+02  0.67104268313E+03  0.82173332357E+03  0.50400001928E-02 0. -1.
       -1    1    3    3    0  502  0.47401167980E+03  0.16133811546E+02  0.23225937666E+03  0.52810206450E+03  0.50400001928E-02 0.  1.
</event>
<event>
 5   0  0.1293716E-03  0.1001065E+04  0.7818609E-02  0.9307378E-01
        1   -1    0    0  501    0  0.00000000000E+00  0.00000000000E+00  0.10928286758E+04  0.10928286758E+04  0.50400001928E-02 0.  1.
       -1   -1    0    0    0  501  0.00000000000E+00  0.00000000000E+00 -0.22925151186E+03  0.22925151192E+03  0.50400001928E-02 0. -1.
    10030    2    1    2    0    0  0.00000000000E+00  0.00000000000E+00  0.86357716393E+03  0.13220801877E+04  0.10010646856E+04 0.  0.
        3    1    3    3  502    0 -0.57779713810E+02 -0.20590023849E+03 -0.16587913369E+03  0.27064608021E+03  0.10100000352E+00 0. -1.
       -3    1    3    3    0  502  0.57779713810E+02  0.20590023849E+03  0.10294562976E+04  0.10514341075E+04  0.10100000352E+00 0.  1.
</event>
<event>
 5   0  0.8680125E-04  0.1009532E+04  0.7818609E-02  0.9298152E-01
        4   -1    0    0  501    0  0.00000000000E+00  0.00000000000E+00  0.21436331690E+03  0.21436707894E+03  0.12699999809E+01 0. -1.
       -4   -1    0    0    0  501  0.00000000000E+00  0.00000000000E+00 -0.11885679960E+04  0.11885686745E+04  0.12699999809E+01 0.  1.
    10030    2    1    2    0    0  0.00000000000E+00  0.00000000000E+00 -0.97420467908E+03  0.14029357534E+04  0.10095315604E+04 0.  0.
        2    1    3    3  502    0 -0.15499628034E+03 -0.47183659728E+03 -0.61244336083E+03  0.78850522616E+03  0.25500000920E-02 0.  1.
       -2    1    3    3    0  502  0.15499628034E+03  0.47183659728E+03 -0.36176131825E+03  0.61443052727E+03  0.25500000920E-02 0. -1.
</event>
<event>
 5   0  0.1293575E-03  0.1006961E+04  0.7818609E-02  0.9300942E-01
        1   -1    0    0  501    0  0.00000000000E+00  0.00000000000E+00  0.58702754915E+03  0.58702754917E+03  0.50400001928E-02 0. -1.
       -1   -1    0    0    0  501  0.00000000000E+00  0.00000000000E+00 -0.43182444694E+03  0.43182444697E+03  0.50400001928E-02 0.  1.
    10030    2    1    2    0    0  0.00000000000E+00  0.00000000000E+00  0.15520310221E+03  0.10188519961E+04  0.10069614626E+04 0.  0.
        4    1    3    3  502    0 -0.14073683233E+03  0.18441661869E+03  0.52972806519E+03  0.57829904130E+03  0.12699999809E+01 0. -1.
       -4    1    3    3    0  502  0.14073683233E+03 -0.18441661869E+03 -0.37452496298E+03  0.44055295484E+03  0.12699999809E+01 0.  1.
</event>
<event>
 5   0  0.1353789E-03  0.9947236E+03  0.7818609E-02  0.9314351E-01
       -1   -1    0    0    0  501  0.00000000000E+00  0.00000000000E+00  0.18263033692E+03  0.18263033699E+03  0.50400001928E-02 0. -1.
        1   -1    0    0  501    0  0.00000000000E+00  0.00000000000E+00 -0.13544779894E+04  0.13544779894E+04  0.50400001928E-02 0.  1.
    10030    2    1    2    0    0  0.00000000000E+00  0.00000000000E+00 -0.11718476524E+04  0.15371083264E+04  0.99472362314E+03 0.  0.
        1    1    3    3  502    0  0.42730847090E+03  0.19470549387E+01 -0.97919961399E+03  0.10683764338E+04  0.50400001928E-02 0.  1.
       -1    1    3    3    0  502 -0.42730847090E+03 -0.19470549387E+01 -0.19264803846E+03  0.46873189252E+03  0.50400001928E-02 0. -1.
</event>
<event>
 5   0  0.1353789E-03  0.9981755E+03  0.7818609E-02  0.9310548E-01
        1   -1    0    0  501    0  0.00000000000E+00  0.00000000000E+00  0.23904654738E+04  0.23904654738E+04  0.50400001928E-02 0.  1.
       -1   -1    0    0    0  501  0.00000000000E+00  0.00000000000E+00 -0.10420086169E+03  0.10420086182E+03  0.50400001928E-02 0. -1.
    10030    2    1    2    0    0  0.00000000000E+00  0.00000000000E+00  0.22862646121E+04  0.24946663356E+04  0.99817546027E+03 0.  0.
        1    1    3    3  502    0  0.32924100907E+03  0.64863765157E+02  0.20664319112E+04  0.20935013241E+04  0.50400001928E-02 0.  1.
       -1    1    3    3    0  502 -0.32924100907E+03 -0.64863765157E+02  0.21983270085E+03  0.40116501153E+03  0.50400001928E-02 0. -1.
</event>
<event>
 5   0  0.2264577E-03  0.9991587E+03  0.7818609E-02  0.9309468E-01
        2   -1    0    0  501    0  0.00000000000E+00  0.00000000000E+00  0.36116009296E+03  0.36116009297E+03  0.25500000920E-02 0. -1.
       -2   -1    0    0    0  501  0.00000000000E+00  0.00000000000E+00 -0.69104958521E+03  0.69104958521E+03  0.25500000920E-02 0.  1.
    10030    2    1    2    0    0  0.00000000000E+00  0.00000000000E+00 -0.32988949225E+03  0.10522096782E+04  0.99915871099E+03 0.  0.
        5    1    3    3  502    0  0.47248478260E+03 -0.55073113888E+02 -0.42569664211E+01  0.47572589736E+03  0.46999998093E+01 0.  1.
       -5    1    3    3    0  502 -0.47248478260E+03  0.55073113888E+02 -0.32563252583E+03  0.57648378081E+03  0.46999998093E+01 0. -1.
</event>
<event>
 5   0  0.2255142E-03  0.9956449E+03  0.7818609E-02  0.9313334E-01
       -2   -1    0    0    0  501  0.00000000000E+00  0.00000000000E+00  0.21710077878E+03  0.21710077880E+03  0.25500000920E-02 0. -1.
        2   -1    0    0  501    0  0.00000000000E+00  0.00000000000E+00 -0.11415306471E+04  0.11415306471E+04  0.25500000920E-02 0.  1.
    10030    2    1    2    0    0  0.00000000000E+00  0.00000000000E+00 -0.92442986827E+03  0.13586314259E+04  0.99564490155E+03 0.  0.
        4    1    3    3  502    0  0.38757795572E+03  0.10549437487E+03 -0.60928357764E+02  0.40627529161E+03  0.12699999809E+01 0. -1.
       -4    1    3    3    0  502 -0.38757795572E+03 -0.10549437487E+03 -0.86350151050E+03  0.95235613424E+03  0.12699999809E+01 0.  1.
</event>
<event>
 5   0  0.1285769E-03  0.9968167E+03  0.7818609E-02  0.9312043E-01
        1   -1    0    0  501    0  0.00000000000E+00  0.00000000000E+00  0.11503778968E+04  0.11503778968E+04  0.50400001928E-02 0.  1.
       -1   -1    0    0    0  501  0.00000000000E+00  0.00000000000E+00 -0.21593848925E+03  0.21593848931E+03  0.50400001928E-02 0. -1.
    10030    2    1    2    0    0  0.00000000000E+00  0.00000000000E+00  0.93443940751E+03  0.13663163861E+04  0.99681666346E+03 0.  0.
        5    1    3    3  502    0  0.12574129317E+03 -0.68922678525E+02 -0.18702335455E+03  0.23571388073E+03  0.46999998093E+01 0. -1.
       -5    1    3    3    0  502 -0.12574129317E+03  0.68922678525E+02  0.11214627621E+04  0.11306025053E+04  0.46999998093E+01 0.  1.
</event>
<event>
 5   0  0.2255142E-03  0.1001899E+04  0.7818609E-02  0.9306464E-01
        2   -1    0    0  501    0  0.00000000000E+00  0.00000000000E+00  0.13244859506E+04  0.13244859506E+04  0.25500000920E-02 0. -1.
       -2   -1    0    0    0  501  0.00000000000E+00  0.00000000000E+00 -0.18947013606E+03  0.18947013608E+03  0.25500000920E-02 0.  1.
    10030    2    1    2    0    0  0.00000000000E+00  0.00000000000E+00  0.11350158145E+04  0.15139560867E+04  0.10018992630E+04 0.  0.
        4    1    3    3  502    0 -0.47262228259E+03  0.60523218456E+02  0.80118475341E+03  0.93216602811E+03  0.12699999809E+01 0. -1.
       -4    1    3    3    0  502  0.47262228259E+03 -0.60523218456E+02  0.33383106113E+03  0.58179005857E+03  0.12699999809E+01 0.  1.
</event>
<event>
 5   0  0.1293716E-03  0.1001396E+04  0.7818609E-02  0.9307015E-01
       -1   -1    0    0    0  501  0.00000000000E+00  0.00000000000E+00  0.74557304135E+03  0.74557304137E+03  0.50400001928E-02 0.  1.
        1   -1    0    0  501    0  0.00000000000E+00  0.00000000000E+00 -0.33624961971E+03  0.33624961975E+03  0.50400001928E-02 0. -1.
    10030    2    1    2    0    0  0.00000000000E+00  0.00000000000E+00  0.40932342165E+03  0.10818226611E+04  0.10013963284E+04 0.  0.
        3    1    3    3  502    0 -0.38408618703E+03 -0.91762897984E+02  0.53720904366E+03  0.66673547626E+03  0.10100000352E+00 0.  1.
       -3    1    3    3    0  502  0.38408618703E+03  0.91762897984E+02 -0.12788562202E+03  0.41508718486E+03  0.10100000352E+00 0. -1.
</event>
<event>
 5   0  0.2284843E-03  0.1006354E+04  0.7818609E-02  0.9301604E-01
       -2   -1    0    0    0  501  0.00000000000E+00  0.00000000000E+00  0.28760306290E+03  0.28760306292E+03  0.25500000920E-02 0. -1.
        2   -1    0    0  501    0  0.00000000000E+00  0.00000000000E+00 -0.88033440081E+03  0.88033440081E+03  0.25500000920E-02 0.  1.
    10030    2    1    2    0    0  0.00000000000E+00  0.00000000000E+00 -0.59273133790E+03  0.11679374637E+04  0.10063535563E+04 0.  0.
        2    1    3    3  502    0 -0.19930401181E+03  0.26335695936E+03  0.14420226836E+03  0.36037934371E+03  0.25500000920E-02 0. -1.
       -2    1    3    3    0  502  0.19930401181E+03 -0.26335695936E+03 -0.73693360626E+03  0.80755812002E+03  0.25500000920E-02 0.  1.
</event>
<event>
 5   0  0.2204862E-03  0.9567666E+03  0.7818609E-02  0.9357276E-01
        2   -1    0    0  501    0  0.00000000000E+00  0.00000000000E+00  0.11039111648E+04  0.11039111648E+04  0.25500000920E-02 0. -1.
       -2   -1    0    0    0  501  0.00000000000E+00  0.00000000000E+00 -0.20730886643E+03  0.20730886644E+03  0.25500000920E-02 0.  1.
    10030    2    1    2    0    0  0.00000000000E+00  0.00000000000E+00  0.89660229836E+03  0.13112200312E+04  0.95676658014E+03 0.  0.
        1    1    3    3  502    0 -0.83865493621E+02  0.33744576110E+03 -0.19718361425E+01  0.34771676817E+03  0.50400001928E-02 0.  1.
       -1    1    3    3    0  502  0.83865493621E+02 -0.33744576110E+03  0.89857413450E+03  0.96350326306E+03  0.50400001928E-02 0. -1.
</event>
<event>
 5   0  0.1293575E-03  0.1002979E+04  0.7818609E-02  0.9305283E-01
       -1   -1    0    0    0  501  0.00000000000E+00  0.00000000000E+00  0.31015822731E+03  0.31015822735E+03  0.50400001928E-02 0.  1.
        1   -1    0    0  501    0  0.00000000000E+00  0.00000000000E+00 -0.81085024583E+03  0.81085024585E+03  0.50400001928E-02 0. -1.
    10030    2    1    2    0    0  0.00000000000E+00  0.00000000000E+00 -0.50069201853E+03  0.11210084732E+04  0.10029793116E+04 0.  0.
        4    1    3    3  502    0 -0.47802962101E+03 -0.84769913847E+02 -0.39080047706E+03  0.62323742076E+03  0.12699999809E+01 0.  1.
       -4    1    3    3    0  502  0.47802962101E+03  0.84769913847E+02 -0.10989154146E+03  0.49777105244E+03  0.12699999809E+01 0. -1.
</event>
<event>
 5   0  0.2204862E-03  0.1012707E+04  0.7818609E-02  0.9294717E-01
       -2   -1    0    0    0  501  0.00000000000E+00  0.00000000000E+00  0.14207785034E+03  0.14207785036E+03  0.25500000920E-02 0.  1.
        2   -1    0    0  501    0  0.00000000000E+00  0.00000000000E+00 -0.18046001916E+04  0.18046001916E+04  0.25500000920E-02 0. -1.
    10030    2    1    2    0    0  0.00000000000E+00  0.00000000000E+00 -0.16625223413E+04  0.19466780420E+04  0.10127067018E+04 0.  0.
        1    1    3    3  502    0  0.29727543393E+03 -0.34223894747E+03 -0.12649135719E+04  0.13436913802E+04  0.50400001928E-02 0. -1.
       -1    1    3    3    0  502 -0.29727543393E+03  0.34223894747E+03 -0.39760876937E+03  0.60298666179E+03  0.50400001928E-02 0.  1.
</event>
<event>
 5   0  0.1249195E-03  0.9985258E+03  0.7818609E-02  0.9310163E-01
       -1   -1    0    0    0  501  0.00000000000E+00  0.00000000000E+00  0.21894253551E+03  0.21894253557E+03  0.50400001928E-02 0.  1.
        1   -1    0    0  501    0  0.00000000000E+00  0.00000000000E+00 -0.11384879772E+04  0.11384879772E+04  0.50400001928E-02 0. -1.
    10030    2    1    2    0    0  0.00000000000E+00  0.00000000000E+00 -0.91954544172E+03  0.13574305128E+04  0.99852580224E+03 0.  0.
        2    1    3    3  502    0 -0.34587379486E+03 -0.20671598959E+03 -0.86052532672E+03  0.95019157029E+03  0.25500000920E-02 0. -1.
       -2    1    3    3    0  502  0.34587379486E+03  0.20671598959E+03 -0.59020114995E+02  0.40723894252E+03  0.25500000920E-02 0.  1.
</event>
<event>
 5   0  0.2255142E-03  0.9979260E+03  0.7818609E-02  0.9310822E-01
       -2   -1    0    0    0  501  0.00000000000E+00  0.00000000000E+00  0.14884539451E+03  0.14884539454E+03  0.25500000920E-02 0. -1.
        2   -1    0    0  501    0  0.00000000000E+00  0.00000000000E+00 -0.16726354286E+04  0.16726354286E+04  0.25500000920E-02 0.  1.
    10030    2    1    2    0    0  0.00000000000E+00  0.00000000000E+00 -0.15237900341E+04  0.18214808232E+04  0.99792600982E+03 0.  0.
        4    1    3    3  502    0  0.35186545513E+03  0.28182719785E+02 -0.14055671431E+04  0.14492150188E+04  0.12699999809E+01 0.  1.
       -4    1    3    3    0  502 -0.35186545513E+03 -0.28182719785E+02 -0.11822289104E+03  0.37226580433E+03  0.12699999809E+01 0. -1.
</event>
<event>
 5   0  0.2277570E-03  0.1008539E+04  0.7818609E-02  0.9299228E-01
        2   -1    0    0  501    0  0.00000000000E+00  0.00000000000E+00  0.92297664079E+03  0.92297664079E+03  0.25500000920E-02 0.  1.
       -2   -1    0    0    0  501  0.00000000000E+00  0.00000000000E+00 -0.27550851007E+03  0.27550851008E+03  0.25500000920E-02 0. -1.
    10030    2    1    2    0    0  0.00000000000E+00  0.00000000000E+00  0.64746813072E+03  0.11984851509E+04  0.10085393778E+04 0.  0.
        3    1    3    3  502    0 -0.21224624625E+03 -0.36538262618E+03 -0.32962740029E+01  0.42256811071E+03  0.10100000352E+00 0. -1.
       -3    1    3    3    0  502  0.21224624625E+03  0.36538262618E+03  0.65076440472E+03  0.77591704017E+03  0.10100000352E+00 0.  1.
</event>
<event>
 5   0  0.1249195E-03  0.9713755E+03  0.7818609E-02  0.9340509E-01
       -1   -1    0    0    0  501  0.00000000000E+00  0.00000000000E+00  0.35898467038E+03  0.35898467042E+03  0.50400001928E-02 0.  1.
        1   -1    0    0  501    0  0.00000000000E+00  0.00000000000E+00 -0.65711044093E+03  0.65711044094E+03  0.50400001928E-02 0. -1.
    10030    2    1    2    0    0  0.00000000000E+00  0.00000000000E+00 -0.29812577054E+03  0.10160951114E+04  0.97137546823E+03 0.  0.
        2    1    3    3  502    0  0.88332493705E+02  0.23134523275E+02 -0.64805096765E+03  0.65445236059E+03  0.25500000920E-02 0. -1.
       -2    1    3    3    0  502 -0.88332493705E+02 -0.23134523275E+02  0.34992519710E+03  0.36164275077E+03  0.25500000920E-02 0.  1.
</event>
<event>
 5   0  0.1293575E-03  0.9988408E+03  0.7818609E-02  0.9309817E-01
        1   -1    0    0  501    0  0.00000000000E+00  0.00000000000E+00  0.11750733677E+04  0.11750733677E+04  0.50400001928E-02 0. -1.
       -1   -1    0    0    0  501  0.00000000000E+00  0.00000000000E+00 -0.21225969692E+03  0.21225969698E+03  0.50400001928E-02 0.  1.
    10030    2    1    2    0    0  0.00000000000E+00  0.00000000000E+00  0.96281367078E+03  0.13873330647E+04  0.99884076195E+03 0.  0.
        4    1    3    3  502    0 -0.36489185638E+03  0.33987591013E+03  0.44318179444E+03  0.66713822928E+03  0.12699999809E+01 0. -1.
       -4    1    3    3    0  502  0.36489185638E+03 -0.33987591013E+03  0.51963187634E+03  0.72019483541E+03  0.12699999809E+01 0.  1.
</event>
<event>
 5   0  0.1293716E-03  0.1000209E+04  0.7818609E-02  0.9308316E-01
       -1   -1    0    0    0  501  0.00000000000E+00  0.00000000000E+00  0.20272612523E+03  0.20272612529E+03  0.50400001928E-02 0.  1.
        1   -1    0    0  501    0  0.00000000000E+00  0.00000000000E+00 -0.12337061095E+04  0.12337061095E+04  0.50400001928E-02 0. -1.
    10030    2    1    2    0    0  0.00000000000E+00  0.00000000000E+00 -0.10309799843E+04  0.14364322348E+04  0.10002088968E+04 0.  0.
        3    1    3    3  502    0  0.25897393127E+03  0.60590111937E+01 -0.11298462118E+04  0.11591620600E+04  0.10100000352E+00 0. -1.
       -3    1    3    3    0  502 -0.25897393127E+03 -0.60590111937E+01  0.98866227565E+02  0.27727017482E+03  0.10100000352E+00 0.  1.
</event>
<event>
 5   0  0.1293716E-03  0.9984746E+03  0.7818609E-02  0.9310219E-01
       -1   -1    0    0    0  501  0.00000000000E+00  0.00000000000E+00  0.54262690718E+03  0.54262690720E+03  0.50400001928E-02 0.  1.
        1   -1    0    0  501    0  0.00000000000E+00  0.00000000000E+00 -0.45931718222E+03  0.45931718224E+03  0.50400001928E-02 0. -1.
    10030    2    1    2    0    0  0.00000000000E+00  0.00000000000E+00  0.83309724962E+02  0.10019440894E+04  0.99847456057E+03 0.  0.
        3    1    3    3  502    0  0.14835519254E+03  0.26431535984E+03  0.43972711626E+03  0.53407098740E+03  0.10100000352E+00 0.  1.
       -3    1    3    3    0  502 -0.14835519254E+03 -0.26431535984E+03 -0.35641739130E+03  0.46787310205E+03  0.10100000352E+00 0. -1.
</event>
<event>
 5   0  0.2277570E-03  0.1002987E+04  0.7818609E-02  0.9305275E-01
        2   -1    0    0  501    0  0.00000000000E+00  0.00000000000E+00  0.60077953838E+03  0.60077953839E+03  0.25500000920E-02 0.  1.
       -2   -1    0    0    0  501  0.00000000000E+00  0.00000000000E+00 -0.41861540811E+03  0.41861540812E+03  0.25500000920E-02 0. -1.
    10030    2    1    2    0    0  0.00000000000E+00  0.00000000000E+00  0.18216413027E+03  0.10193949465E+04  0.10029866832E+04 0.  0.
        3    1    3    3  502    0  0.16888775722E+03  0.78991687632E+02  0.56424381639E+03  0.59425066747E+03  0.10100000352E+00 0.  1.
       -3    1    3    3    0  502 -0.16888775722E+03 -0.78991687632E+02 -0.38207968612E+03  0.42514427904E+03  0.10100000352E+00 0. -1.
</event>
<event>
 5   0  0.2264577E-03  0.9975086E+03  0.7818609E-02  0.9311282E-01
        2   -1    0    0  501    0  0.00000000000E+00  0.00000000000E+00  0.79828347486E+03  0.79828347486E+03  0.25500000920E-02 0.  1.
       -2   -1    0    0    0  501  0.00000000000E+00  0.00000000000E+00 -0.31161343933E+03  0.31161343934E+03  0.25500000920E-02 0. -1.
    10030    2    1    2    0    0  0.00000000000E+00  0.00000000000E+00  0.48667003552E+03  0.11098969142E+04  0.99750861484E+03 0.  0.
        5    1    3    3  502    0  0.20746028403E+03  0.38221107517E+03 -0.28321914027E+02  0.43583172928E+03  0.46999998093E+01 0. -1.
       -5    1    3    3    0  502 -0.20746028403E+03 -0.38221107517E+03  0.51499194955E+03  0.67406518493E+03  0.46999998093E+01 0.  1.
</event>
<event>
 5   0  0.2284843E-03  0.1006776E+04  0.7818609E-02  0.9301144E-01
        2   -1    0    0  501    0  0.00000000000E+00  0.00000000000E+00  0.23610541381E+03  0.23610541382E+03  0.25500000920E-02 0.  1.
       -2   -1    0    0    0  501  0.00000000000E+00  0.00000000000E+00 -0.10732474127E+04  0.10732474127E+04  0.25500000920E-02 0. -1.
    10030    2    1    2    0    0  0.00000000000E+00  0.00000000000E+00 -0.83714199892E+03  0.13093528266E+04  0.10067760913E+04 0.  0.
        2    1    3    3  502    0  0.10443484504E+03 -0.29027276674E+03  0.98767185528E+02  0.32391337255E+03  0.25500000920E-02 0.  1.
       -2    1    3    3    0  502 -0.10443484504E+03  0.29027276674E+03 -0.93590918445E+03  0.98543945401E+03  0.25500000920E-02 0. -1.
</event>
<event>
 5   0  0.1353789E-03  0.1001297E+04  0.7818609E-02  0.9307124E-01
        1   -1    0    0  501    0  0.00000000000E+00  0.00000000000E+00  0.70341153629E+03  0.70341153630E+03  0.50400001928E-02 0.  1.
       -1   -1    0    0    0  501  0.00000000000E+00  0.00000000000E+00 -0.35633303877E+03  0.35633303880E+03  0.50400001928E-02 0. -1.
    10030    2    1    2    0    0  0.00000000000E+00  0.00000000000E+00  0.34707849752E+03  0.10597445751E+04  0.10012966998E+04 0.  0.
        1    1    3    3  502    0 -0.14402628232E+03 -0.29378248345E+03 -0.22752244199E+03  0.39851998596E+03  0.50400001928E-02 0. -1.
       -1    1    3    3    0  502  0.14402628232E+03  0.29378248345E+03  0.57460093951E+03  0.66122458914E+03  0.50400001928E-02 0.  1.
</event>
<event>
 5   0  0.2284843E-03  0.1003563E+04  0.7818609E-02  0.9304645E-01
        2   -1    0    0  501    0  0.00000000000E+00  0.00000000000E+00  0.29158780072E+04  0.29158780072E+04  0.25500000920E-02 0. -1.
       -2   -1    0    0    0  501  0.00000000000E+00  0.00000000000E+00 -0.86349556046E+02  0.86349556084E+02  0.25500000920E-02 0.  1.
    10030    2    1    2    0    0  0.00000000000E+00  0.00000000000E+00  0.28295284512E+04  0.30022275633E+04  0.10035631948E+04 0.  0.
        2    1    3    3  502    0 -0.12767230211E+03  0.44191972281E+03  0.20145084328E+04  0.20663585081E+04  0.25500000920E-02 0. -1.
       -2    1    3    3    0  502  0.12767230211E+03 -0.44191972281E+03  0.81502001832E+03  0.93586905516E+03  0.25500000920E-02 0.  1.
</event>
<event>
 5   0  0.1353789E-03  0.9872151E+03  0.7818609E-02  0.9322679E-01
        1   -1    0    0  501    0  0.00000000000E+00  0.00000000000E+00  0.61787559714E+03  0.61787559716E+03  0.50400001928E-02 0. -1.
       -1   -1    0    0    0  501  0.00000000000E+00  0.00000000000E+00 -0.39433246211E+03  0.39433246214E+03  0.50400001928E-02 0.  1.
    10030    2    1    2    0    0  0.00000000000E+00  0.00000000000E+00  0.22354313503E+03  0.10122080593E+04  0.98721508400E+03 0.  0.
        1    1    3    3  502    0 -0.34784246024E+02  0.49054495721E+03  0.15532166346E+03  0.51572193862E+03  0.50400001928E-02 0. -1.
       -1    1    3    3    0  502  0.34784246024E+02 -0.49054495721E+03  0.68221471576E+02  0.49648612067E+03  0.50400001928E-02 0.  1.
</event>
<event>
 5   0  0.1285769E-03  0.1003635E+04  0.7818609E-02  0.9304567E-01
        1   -1    0    0  501    0  0.00000000000E+00  0.00000000000E+00  0.14200894298E+04  0.14200894298E+04  0.50400001928E-02 0. -1.
       -1   -1    0    0    0  501  0.00000000000E+00  0.00000000000E+00 -0.17732731798E+03  0.17732731805E+03  0.50400001928E-02 0.  1.
    10030    2    1    2    0    0  0.00000000000E+00  0.00000000000E+00  0.12427621118E+04  0.15974167478E+04  0.10036346944E+04 0.  0.
        5    1    3    3  502    0  0.17674525047E+03  0.28053013825E+02  0.13675367269E+04  0.13792043520E+04  0.46999998093E+01 0. -1.
       -5    1    3    3    0  502 -0.17674525047E+03 -0.28053013825E+02 -0.12477461507E+03  0.21821239587E+03  0.46999998093E+01 0.  1.
</event>
<event>
 5   0  0.2255142E-03  0.9970939E+03  0.7818609E-02  0.9311738E-01
       -2   -1    0    0    0  501  0.00000000000E+00  0.00000000000E+00  0.68003159958E+03  0.68003159959E+03  0.25500000920E-02 0. -1.
        2   -1    0    0  501    0  0.00000000000E+00  0.00000000000E+00 -0.36549630910E+03  0.36549630911E+03  0.25500000920E-02 0.  1.
    10030    2    1    2    0    0  0.00000000000E+00  0.00000000000E+00  0.31453529048E+03  0.10455279087E+04  0.99709385662E+03 0.  0.
        4    1    3    3  502    0 -0.33408162451E+03  0.13571186550E+03 -0.20372131210E+03  0.41416449410E+03  0.12699999809E+01 0.  1.
       -4    1    3    3    0  502  0.33408162451E+03 -0.13571186550E+03  0.51825660258E+03  0.63136341459E+03  0.12699999809E+01 0. -1.
</event>
<event>
 5   0  0.1353789E-03  0.1036225E+04  0.7818609E-02  0.9269683E-01
        1   -1    0    0  501    0  0.00000000000E+00  0.00000000000E+00  0.27563829188E+03  0.27563829193E+03  0.50400001928E-02 0. -1.
       -1   -1    0    0    0  501  0.00000000000E+00  0.00000000000E+00 -0.97388703121E+03  0.97388703122E+03  0.50400001928E-02 0.  1.
    10030    2    1    2    0    0  0.00000000000E+00  0.00000000000E+00 -0.69824873933E+03  0.12495253231E+04  0.10362249906E+04 0.  0.
        1    1    3    3  502    0 -0.31543723155E+03 -0.14147210684E+03 -0.81446996965E+03  0.88480299251E+03  0.50400001928E-02 0.  1.
       -1    1    3    3    0  502  0.31543723155E+03  0.14147210684E+03  0.11622123032E+03  0.36472233064E+03  0.50400001928E-02 0. -1.
</event>
<event>
 5   0  0.8680125E-04  0.1001225E+04  0.7818609E-02  0.9307203E-01
       -3   -1    0    0    0  501  0.00000000000E+00  0.00000000000E+00  0.89178124198E+03  0.89178124770E+03  0.10100000352E+00 0. -1.
        3   -1    0    0  501    0  0.00000000000E+00  0.00000000000E+00 -0.28102477184E+03  0.28102478999E+03  0.10100000352E+00 0.  1.
    10030    2    1    2    0    0  0.00000000000E+00  0.00000000000E+00  0.61075647014E+03  0.11728060377E+04  0.10012245184E+04 0.  0.
        2    1    3    3  502    0 -0.48730350047E+03  0.40829950881E+02  0.17986726313E+03  0.52104128321E+03  0.25500000920E-02 0.  1.
       -2    1    3    3    0  502  0.48730350047E+03 -0.40829950881E+02  0.43088920702E+03  0.65176475448E+03  0.25500000920E-02 0. -1.
</event>
<event>
 5   0  0.1353789E-03  0.1000120E+04  0.7818609E-02  0.9308413E-01
       -1   -1    0    0    0  501  0.00000000000E+00  0.00000000000E+00  0.35855906391E+03  0.35855906395E+03  0.50400001928E-02 0. -1.
        1   -1    0    0  501    0  0.00000000000E+00  0.00000000000E+00 -0.69740219360E+03  0.69740219361E+03  0.50400001928E-02 0.  1.
    10030    2    1    2    0    0  0.00000000000E+00  0.00000000000E+00 -0.33884312968E+03  0.10559612576E+04  0.10001197483E+04 0.  0.
        1    1    3    3  502    0  0.32164849959E+03  0.38277166935E+03 -0.17932446045E+03  0.53115832883E+03  0.50400001928E-02 0. -1.
       -1    1    3    3    0  502 -0.32164849959E+03 -0.38277166935E+03 -0.15951866923E+03  0.52480292873E+03  0.50400001928E-02 0.  1.
</event>
<event>
 5   0  0.1249195E-03  0.9996073E+03  0.7818609E-02  0.9308976E-01
        1   -1    0    0  501    0  0.00000000000E+00  0.00000000000E+00  0.13319536697E+04  0.13319536697E+04  0.50400001928E-02 0.  1.
       -1   -1    0    0    0  501  0.00000000000E+00  0.00000000000E+00 -0.18754684607E+03  0.18754684614E+03  0.50400001928E-02 0. -1.
    10030    2    1    2    0    0  0.00000000000E+00  0.00000000000E+00  0.11444068236E+04  0.15195005158E+04  0.99960734274E+03 0.  0.
        2    1    3    3  502    0  0.14251522305E+03  0.47522149967E+03  0.66413660178E+03  0.82898943805E+03  0.25500000920E-02 0. -1.
       -2    1    3    3    0  502 -0.14251522305E+03 -0.47522149967E+03  0.48027022183E+03  0.69051107778E+03  0.25500000920E-02 0.  1.
</event>
<event>
 5   0  0.1293575E-03  0.1001664E+04  0.7818609E-02  0.9306721E-01
        1   -1    0    0  501    0  0.00000000000E+00  0.00000000000E+00  0.24841371819E+04  0.24841371819E+04  0.50400001928E-02 0. -1.
       -1   -1    0    0    0  501  0.00000000000E+00  0.00000000000E+00 -0.10097380106E+03  0.10097380119E+03  0.50400001928E-02 0.  1.
    10030    2    1    2    0    0  0.00000000000E+00  0.00000000000E+00  0.23831633809E+04  0.25851109831E+04  0.10016641629E+04 0.  0.
        4    1    3    3  502    0 -0.19426728225E+03 -0.28514990092E+03  0.21284602947E+04  0.21562455987E+04  0.12699999809E+01 0. -1.
       -4    1    3    3    0  502  0.19426728225E+03  0.28514990092E+03  0.25470308617E+03  0.42886538442E+03  0.12699999809E+01 0.  1.
</event>
<event>
 5   0  0.1285769E-03  0.1002189E+04  0.7818609E-02  0.9306147E-01
       -1   -1    0    0    0  501  0.00000000000E+00  0.00000000000E+00  0.21936583532E+03  0.21936583538E+03  0.50400001928E-02 0.  1.
        1   -1    0    0  501    0  0.00000000000E+00  0.00000000000E+00 -0.11446432407E+04  0.11446432407E+04  0.50400001928E-02 0. -1.
    10030    2    1    2    0    0  0.00000000000E+00  0.00000000000E+00 -0.92527740538E+03  0.13640090761E+04  0.10021888459E+04 0.  0.
        5    1    3    3  502    0  0.35472775654E+03  0.19841983397E+03 -0.63805081221E+02  0.41145521039E+03  0.46999998093E+01 0.  1.
       -5    1    3    3    0  502 -0.35472775654E+03 -0.19841983397E+03 -0.86147232416E+03  0.95255386570E+03  0.46999998093E+01 0. -1.
</event>
<event>
 5   0  0.2204862E-03  0.1001029E+04  0.7818609E-02  0.9307417E-01
       -2   -1    0    0    0  501  0.00000000000E+00  0.00000000000E+00  0.22646104724E+03  0.22646104725E+03  0.25500000920E-02 0. -1.
        2   -1    0    0  501    0  0.00000000000E+00  0.00000000000E+00 -0.11062157801E+04  0.11062157801E+04  0.25500000920E-02 0.  1.
    10030    2    1    2    0    0  0.00000000000E+00  0.00000000000E+00 -0.87975473288E+03  0.13326768274E+04  0.10010290386E+04 0.  0.
        1    1    3    3  502    0  0.83576139988E+02 -0.12911451466E+03  0.19422068843E+03  0.24774423285E+03  0.50400001928E-02 0. -1.
       -1    1    3    3    0  502 -0.83576139988E+02  0.12911451466E+03 -0.10739754213E+04  0.10849325945E+04  0.50400001928E-02 0.  1.
</event>
<event>
 5   0  0.1249195E-03  0.9910195E+03  0.7818609E-02  0.9318450E-01
        1   -1    0    0  501    0  0.00000000000E+00  0.00000000000E+00  0.22030477658E+03  0.22030477664E+03  0.50400001928E-02 0.  1.
       -1   -1    0    0    0  501  0.00000000000E+00  0.00000000000E+00 -0.11145011512E+04  0.11145011512E+04  0.50400001928E-02 0. -1.
    10030    2    1    2    0    0  0.00000000000E+00  0.00000000000E+00 -0.89419637465E+03  0.13348059279E+04  0.99101952992E+03 0.  0.
        2    1    3    3  502    0 -0.43352352533E+03 -0.19310679932E+03 -0.25520820083E+03  0.53885444114E+03  0.25500000920E-02 0.  1.
       -2    1    3    3    0  502  0.43352352533E+03  0.19310679932E+03 -0.63898817381E+03  0.79595148674E+03  0.25500000920E-02 0. -1.
</event>
<event>
 5   0  0.2277570E-03  0.1007131E+04  0.7818609E-02  0.9300758E-01
       -2   -1    0    0    0  501  0.00000000000E+00  0.00000000000E+00  0.58644287850E+03  0.58644287850E+03  0.25500000920E-02 0. -1.
        2   -1    0    0  501    0  0.00000000000E+00  0.00000000000E+00 -0.43240069072E+03  0.43240069073E+03  0.25500000920E-02 0.  1.
    10030    2    1    2    0    0  0.00000000000E+00  0.00000000000E+00  0.15404218778E+03  0.10188435692E+04  0.10071311846E+04 0.  0.
        3    1    3    3  502    0  0.15151941100E+03 -0.36106681332E+03  0.39732751749E+03  0.55784992780E+03  0.10100000352E+00 0. -1.
       -3    1    3    3    0  502 -0.15151941100E+03  0.36106681332E+03 -0.24328532971E+03  0.46099364143E+03  0.10100000352E+00 0.  1.
</event>
<event>
 5   0  0.1293575E-03  0.1000612E+04  0.7818609E-02  0.9307874E-01
       -1   -1    0    0    0  501  0.00000000000E+00  0.00000000000E+00  0.45715089133E+03  0.45715089135E+03  0.50400001928E-02 0. -1.
        1   -1    0    0  501    0  0.00000000000E+00  0.00000000000E+00 -0.54753442432E+03  0.54753442434E+03  0.50400001928E-02 0.  1.
    10030    2    1    2    0    0  0.00000000000E+00  0.00000000000E+00 -0.90383532990E+02  0.10046853157E+04  0.10006115133E+04 0.  0.
        4    1    3    3  502    0  0.26881906818E+03 -0.63933115691E+02 -0.46396667127E+03  0.54001649943E+03  0.12699999809E+01 0.  1.
       -4    1    3    3    0  502 -0.26881906818E+03  0.63933115691E+02  0.37358313828E+03  0.46466881627E+03  0.12699999809E+01 0. -1.
</event>
<event>
 5   0  0.2204862E-03  0.1006686E+04  0.7818609E-02  0.9301242E-01
       -2   -1    0    0    0  501  0.00000000000E+00  0.00000000000E+00  0.32131291236E+03  0.32131291237E+03  0.25500000920E-02 0. -1.
        2   -1    0    0  501    0  0.00000000000E+00  0.00000000000E+00 -0.78849601718E+03  0.78849601718E+03  0.25500000920E-02 0.  1.
    10030    2    1    2    0    0  0.00000000000E+00  0.00000000000E+00 -0.46718310482E+03  0.11098089296E+04  0.10066855550E+04 0.  0.
        1    1    3    3  502    0 -0.53081293323E+02 -0.45868810759E+03 -0.45446903076E+03  0.64788463764E+03  0.50400001928E-02 0.  1.
       -1    1    3    3    0  502  0.53081293323E+02  0.45868810759E+03 -0.12714074056E+02  0.46192429191E+03  0.50400001928E-02 0. -1.
</event>
<event>
 5   0  0.1293716E-03  0.1001929E+04  0.7818609E-02  0.9306432E-01
        1   -1    0    0  501    0  0.00000000000E+00  0.00000000000E+00  0.40139132686E+03  0.40139132689E+03  0.50400001928E-02 0.  1.
       -1   -1    0    0    0  501  0.00000000000E+00  0.00000000000E+00 -0.62523855879E+03  0.62523855881E+03  0.50400001928E-02 0. -1.
    10030    2    1    2    0    0  0.00000000000E+00  0.00000000000E+00 -0.22384723193E+03  0.10266298857E+04  0.10019288093E+04 0.  0.
        3    1    3    3  502    0  0.61720317248E+02 -0.15085855949E+03 -0.59730840616E+03  0.61914864516E+03  0.10100000352E+00 0. -1.
       -3    1    3    3    0  502 -0.61720317248E+02  0.15085855949E+03  0.37346117423E+03  0.40748124054E+03  0.10100000352E+00 0.  1.
</event>
<event>
 5   0  0.2255142E-03  0.9999765E+03  0.7818609E-02  0.9308571E-01
        2   -1    0    0  501    0  0.00000000000E+00  0.00000000000E+00  0.11271026281E+04  0.11271026281E+04  0.25500000920E-02 0.  1.
       -2   -1    0    0    0  501  0.00000000000E+00  0.00000000000E+00 -0.22179724636E+03  0.22179724638E+03  0.25500000920E-02 0. -1.
    10030    2    1    2    0    0  0.00000000000E+00  0.00000000000E+00  0.90530538175E+03  0.13488998745E+04  0.99997651832E+03 0.  0.
        4    1    3    3  502    0  0.16915355576E+03 -0.16363864340E+03 -0.14240215401E+03  0.27508274647E+03  0.12699999809E+01 0. -1.
       -4    1    3    3    0  502 -0.16915355576E+03  0.16363864340E+03  0.10477075358E+04  0.10738171280E+04  0.12699999809E+01 0.  1.
</event>
<event>
 5   0  0.8680125E-04  0.1015193E+04  0.7818609E-02  0.9292037E-01
       -3   -1    0    0    0  501  0.00000000000E+00  0.00000000000E+00  0.63092419344E+03  0.63092420152E+03  0.10100000352E+00 0.  1.
        3   -1    0    0  501    0  0.00000000000E+00  0.00000000000E+00 -0.40837585969E+03  0.40837587218E+03  0.10100000352E+00 0. -1.
    10030    2    1    2    0    0  0.00000000000E+00  0.00000000000E+00  0.22254833375E+03  0.10393000737E+04  0.10151930271E+04 0.  0.
        1    1    3    3  502    0  0.16685008459E+03 -0.26973737645E+03  0.51698911120E+03  0.60652695250E+03  0.50400001928E-02 0.  1.
       -1    1    3    3    0  502 -0.16685008459E+03  0.26973737645E+03 -0.29444077745E+03  0.43277312120E+03  0.50400001928E-02 0. -1.
</event>
<event>
 5   0  0.2255142E-03  0.1000671E+04  0.7818609E-02  0.9307809E-01
        2   -1    0    0  501    0  0.00000000000E+00  0.00000000000E+00  0.88251941611E+03  0.88251941612E+03  0.25500000920E-02 0.  1.
       -2   -1    0    0    0  501  0.00000000000E+00  0.00000000000E+00 -0.28366009645E+03  0.28366009646E+03  0.25500000920E-02 0. -1.
    10030    2    1    2    0    0  0.00000000000E+00  0.00000000000E+00  0.59885931967E+03  0.11661795126E+04  0.10006708604E+04 0.  0.
        4    1    3    3  502    0  0.29719717038E+03 -0.34280723734E+03  0.54524562744E+03  0.70932176563E+03  0.12699999809E+01 0.  1.
       -4    1    3    3    0  502 -0.29719717038E+03  0.34280723734E+03  0.53613692228E+02  0.45685774695E+03  0.12699999809E+01 0. -1.
</event>
<event>
 5   0  0.2264577E-03  0.9980928E+03  0.7818609E-02  0.9310639E-01
       -2   -1    0    0    0  501  0.00000000000E+00  0.00000000000E+00  0.18620867855E+03  0.18620867857E+03  0.25500000920E-02 0. -1.
        2   -1    0    0  501    0  0.00000000000E+00  0.00000000000E+00 -0.13374635834E+04  0.13374635834E+04  0.25500000920E-02 0.  1.
    10030    2    1    2    0    0  0.00000000000E+00  0.00000000000E+00 -0.11512549049E+04  0.15236722620E+04  0.99809283435E+03 0.  0.
        5    1    3    3  502    0  0.28329661197E+03 -0.94455288260E+02  0.34712980566E+02  0.30067566055E+03  0.46999998093E+01 0. -1.
       -5    1    3    3    0  502 -0.28329661197E+03  0.94455288260E+02 -0.11859678855E+04  0.12229966015E+04  0.46999998093E+01 0.  1.
</event>
<event>
 5   0  0.2284843E-03  0.9939866E+03  0.7818609E-02  0.9315165E-01
       -2   -1    0    0    0  501  0.00000000000E+00  0.00000000000E+00  0.12948833441E+03  0.12948833444E+03  0.25500000920E-02 0. -1.
        2   -1    0    0  501    0  0.00000000000E+00  0.00000000000E+00 -0.19075259403E+04  0.19075259403E+04  0.25500000920E-02 0.  1.
    10030    2    1    2    0    0  0.00000000000E+00  0.00000000000E+00 -0.17780376059E+04  0.20370142748E+04  0.99398663350E+03 0.  0.
        2    1    3    3  502    0 -0.17671649044E+03  0.25135220509E+03 -0.16895618450E+04  0.17172728022E+04  0.25500000920E-02 0.  1.
       -2    1    3    3    0  502  0.17671649044E+03 -0.25135220509E+03 -0.88475760864E+02  0.31974147255E+03  0.25500000920E-02 0. -1.
</event>
<event>
 5   0  0.2277570E-03  0.1006035E+04  0.7818609E-02  0.9301950E-01
       -2   -1    0    0    0  501  0.00000000000E+00  0.00000000000E+00  0.28873810310E+03  0.28873810311E+03  0.25500000920E-02 0.  1.
        2   -1    0    0  501    0  0.00000000000E+00  0.00000000000E+00 -0.87631953976E+03  0.87631953976E+03  0.25500000920E-02 0. -1.
    10030    2    1    2    0    0  0.00000000000E+00  0.00000000000E+00 -0.58758143666E+03  0.11650576429E+04  0.10060354698E+04 0.  0.
        3    1    3    3  502    0 -0.13352101487E+03 -0.22797853017E+03  0.20191759326E+03  0.33252488072E+03  0.10100000352E+00 0.  1.
       -3    1    3    3    0  502  0.13352101487E+03  0.22797853017E+03 -0.78949902991E+03  0.83253276216E+03  0.10100000352E+00 0. -1.
</event>
<event>
 5   0  0.2277570E-03  0.1001564E+04  0.7818609E-02  0.9306831E-01
        2   -1    0    0  501    0  0.00000000000E+00  0.00000000000E+00  0.98508259366E+03  0.98508259366E+03  0.25500000920E-02 0.  1.
       -2   -1    0    0    0  501  0.00000000000E+00  0.00000000000E+00 -0.25458029548E+03  0.25458029550E+03  0.25500000920E-02 0. -1.
    10030    2    1    2    0    0  0.00000000000E+00  0.00000000000E+00  0.73050229818E+03  0.12396628892E+04  0.10015640125E+04 0.  0.
        3    1    3    3  502    0 -0.31229799044E+03  0.29860497592E+00 -0.11928775148E+03  0.33430480381E+03  0.10100000352E+00 0. -1.
       -3    1    3    3    0  502  0.31229799044E+03 -0.29860497592E+00  0.84979004966E+03  0.90535808534E+03  0.10100000352E+00 0.  1.
</event>
<event>
 5   0  0.2284843E-03  0.1001953E+04  0.7818609E-02  0.9306405E-01
        2   -1    0    0  501    0  0.00000000000E+00  0.00000000000E+00  0.24057785050E+03  0.24057785052E+03  0.25500000920E-02 0. -1.
       -2   -1    0    0    0  501  0.00000000000E+00  0.00000000000E+00 -0.10432280796E+04  0.10432280796E+04  0.25500000920E-02 0.  1.
    10030    2    1    2    0    0  0.00000000000E+00  0.00000000000E+00 -0.80265022911E+03  0.12838059301E+04  0.10019532304E+04 0.  0.
        2    1    3    3  502    0 -0.19250515789E+02  0.49792037462E+03 -0.46768483736E+03  0.68339182679E+03  0.25500000920E-02 0. -1.
       -2    1    3    3    0  502  0.19250515789E+02 -0.49792037462E+03 -0.33496539175E+03  0.60041410335E+03  0.25500000920E-02 0.  1.
</event>
<event>
 5   0  0.8680125E-04  0.9986657E+03  0.7818609E-02  0.9310009E-01
       -3   -1    0    0    0  501  0.00000000000E+00  0.00000000000E+00  0.12236250622E+03  0.12236254791E+03  0.10100000352E+00 0. -1.
        3   -1    0    0  501    0  0.00000000000E+00  0.00000000000E+00 -0.20376606697E+04  0.20376606722E+04  0.10100000352E+00 0.  1.
    10030    2    1    2    0    0  0.00000000000E+00  0.00000000000E+00 -0.19152981635E+04  0.21600232201E+04  0.99866573806E+03 0.  0.
        4    1    3    3  502    0 -0.54032361691E+02 -0.48091487777E+03 -0.69157534358E+03  0.84408333980E+03  0.12699999809E+01 0.  1.
       -4    1    3    3    0  502  0.54032361691E+02  0.48091487777E+03 -0.12237228199E+04  0.13159398803E+04  0.12699999809E+01 0. -1.
</event>
<event>
 5   0  0.8680125E-04  0.1000956E+04  0.7818609E-02  0.9307497E-01
       -4   -1    0    0    0  501  0.00000000000E+00  0.00000000000E+00  0.32979209994E+03  0.32979454526E+03  0.12699999809E+01 0.  1.
        4   -1    0    0  501    0  0.00000000000E+00  0.00000000000E+00 -0.75949696863E+03  0.75949803045E+03  0.12699999809E+01 0. -1.
    10030    2    1    2    0    0  0.00000000000E+00  0.00000000000E+00 -0.42970486869E+03  0.10892925757E+04  0.10009555641E+04 0.  0.
        4    1    3    3  502    0  0.13414182524E+03  0.32183558976E+03  0.17586547227E+03  0.39051562498E+03  0.12699999809E+01 0.  1.
       -4    1    3    3    0  502 -0.13414182524E+03 -0.32183558976E+03 -0.60557034096E+03  0.69877695073E+03  0.12699999809E+01 0. -1.
</event>
<event>
 5   0  0.2277570E-03  0.1002361E+04  0.7818609E-02  0.9305959E-01
        2   -1    0    0  501    0  0.00000000000E+00  0.00000000000E+00  0.52123252956E+03  0.52123252957E+03  0.25500000920E-02 0. -1.
       -2   -1    0    0    0  501  0.00000000000E+00  0.00000000000E+00 -0.48190008658E+03  0.48190008659E+03  0.25500000920E-02 0.  1.
    10030    2    1    2    0    0  0.00000000000E+00  0.00000000000E+00  0.39332442982E+02  0.10031326162E+04  0.10023612146E+04 0.  0.
        3    1    3    3  502    0  0.35504159415E+02  0.46637590995E+03  0.19984631890E+03  0.50863110020E+03  0.10100000352E+00 0. -1.
       -3    1    3    3    0  502 -0.35504159415E+02 -0.46637590995E+03 -0.16051387591E+03  0.49450151595E+03  0.10100000352E+00 0.  1.
</event>
<event>
 5   0  0.1293575E-03  0.1003083E+04  0.7818609E-02  0.9305169E-01
        1   -1    0    0  501    0  0.00000000000E+00  0.00000000000E+00  0.60563563530E+03  0.60563563532E+03  0.50400001928E-02 0.  1.
       -1   -1    0    0    0  501  0.00000000000E+00  0.00000000000E+00 -0.41533891833E+03  0.41533891836E+03  0.50400001928E-02 0. -1.
    10030    2    1    2    0    0  0.00000000000E+00  0.00000000000E+00  0.19029671697E+03  0.10209745537E+04  0.10030833459E+04 0.  0.
        4    1    3    3  502    0 -0.24279437287E+03 -0.91700489790E+02 -0.34167339756E+03  0.42906923779E+03  0.12699999809E+01 0. -1.
       -4    1    3    3    0  502  0.24279437287E+03  0.91700489790E+02  0.53197011453E+03  0.59190531589E+03  0.12699999809E+01 0.  1.
</event>
<event>
 5   0  0.2204862E-03  0.9951111E+03  0.7818609E-02  0.9313923E-01
       -2   -1    0    0    0  501  0.00000000000E+00  0.00000000000E+00  0.19656595195E+03  0.19656595196E+03  0.25500000920E-02 0. -1.
        2   -1    0    0  501    0  0.00000000000E+00  0.00000000000E+00 -0.12594322846E+04  0.12594322846E+04  0.25500000920E-02 0.  1.
    10030    2    1    2    0    0  0.00000000000E+00  0.00000000000E+00 -0.10628663327E+04  0.14559982366E+04  0.99511106104E+03 0.  0.
        1    1    3    3  502    0  0.24966842901E+03 -0.11302701008E+03 -0.11390412028E+04  0.11715478186E+04  0.50400001928E-02 0.  1.
       -1    1    3    3    0  502 -0.24966842901E+03  0.11302701008E+03  0.76174870133E+02  0.28445041803E+03  0.50400001928E-02 0. -1.
</event>
<event>
 5   0  0.2284843E-03  0.1006305E+04  0.7818609E-02  0.9301657E-01
        2   -1    0    0  501    0  0.00000000000E+00  0.00000000000E+00  0.83230437469E+03  0.83230437469E+03  0.25500000920E-02 0. -1.
       -2   -1    0    0    0  501  0.00000000000E+00  0.00000000000E+00 -0.30417023186E+03  0.30417023188E+03  0.25500000920E-02 0.  1.
    10030    2    1    2    0    0  0.00000000000E+00  0.00000000000E+00  0.52813414282E+03  0.11364746066E+04  0.10063045556E+04 0.  0.
        2    1    3    3  502    0 -0.23256262287E+03 -0.33259274889E+03  0.59996016614E+03  0.72433107840E+03  0.25500000920E-02 0. -1.
       -2    1    3    3    0  502  0.23256262287E+03  0.33259274889E+03 -0.71826023321E+02  0.41214352816E+03  0.25500000920E-02 0.  1.
</event>
<event>
 5   0  0.1249195E-03  0.1002465E+04  0.7818609E-02  0.9305845E-01
        1   -1    0    0  501    0  0.00000000000E+00  0.00000000000E+00  0.58057195914E+03  0.58057195916E+03  0.50400001928E-02 0. -1.
       -1   -1    0    0    0  501  0.00000000000E+00  0.00000000000E+00 -0.43273541354E+03  0.43273541357E+03  0.50400001928E-02 0.  1.
    10030    2    1    2    0    0  0.00000000000E+00  0.00000000000E+00  0.14783654559E+03  0.10133073727E+04  0.10024650555E+04 0.  0.
        2    1    3    3  502    0  0.27946037628E+03  0.17668906670E+03 -0.30687480622E+03  0.45109785513E+03  0.25500000920E-02 0.  1.
       -2    1    3    3    0  502 -0.27946037628E+03 -0.17668906670E+03  0.45471135182E+03  0.56220951760E+03  0.25500000920E-02 0. -1.
</event>
<event>
 5   0  0.2264577E-03  0.9978989E+03  0.7818609E-02  0.9310852E-01
       -2   -1    0    0    0  501  0.00000000000E+00  0.00000000000E+00  0.18241216780E+03  0.18241216782E+03  0.25500000920E-02 0. -1.
        2   -1    0    0  501    0  0.00000000000E+00  0.00000000000E+00 -0.13647695448E+04  0.13647695448E+04  0.25500000920E-02 0.  1.
    10030    2    1    2    0    0  0.00000000000E+00  0.00000000000E+00 -0.11823573770E+04  0.15471817126E+04  0.99789893522E+03 0.  0.
        5    1    3    3  502    0  0.25514607451E+03 -0.13215215521E+02  0.73260651966E+02  0.26582583468E+03  0.46999998093E+01 0. -1.
       -5    1    3    3    0  502 -0.25514607451E+03  0.13215215521E+02 -0.12556180290E+04  0.12813558779E+04  0.46999998093E+01 0.  1.
</event>
<event>
 5   0  0.1293716E-03  0.9993208E+03  0.7818609E-02  0.9309290E-01
        1   -1    0    0  501    0  0.00000000000E+00  0.00000000000E+00  0.51141466426E+03  0.51141466429E+03  0.50400001928E-02 0. -1.
       -1   -1    0    0    0  501  0.00000000000E+00  0.00000000000E+00 -0.48817627692E+03  0.48817627695E+03  0.50400001928E-02 0.  1.
    10030    2    1    2    0    0  0.00000000000E+00  0.00000000000E+00  0.23238387339E+02  0.99959094124E+03  0.99932078291E+03 0.  0.
        3    1    3    3  502    0  0.47008250099E+03 -0.10128896308E+03  0.14738902625E+03  0.50295183372E+03  0.10100000352E+00 0. -1.
       -3    1    3    3    0  502 -0.47008250099E+03  0.10128896308E+03 -0.12415063891E+03  0.49663910752E+03  0.10100000352E+00 0.  1.
</event>
<event>
 5   0  0.1293716E-03  0.9992236E+03  0.7818609E-02  0.9309397E-01
        1   -1    0    0  501    0  0.00000000000E+00  0.00000000000E+00  0.10315326650E+04  0.10315326650E+04  0.50400001928E-02 0. -1.
       -1   -1    0    0    0  501  0.00000000000E+00  0.00000000000E+00 -0.24198163992E+03  0.24198163997E+03  0.50400001928E-02 0.  1.
    10030    2    1    2    0    0  0.00000000000E+00  0.00000000000E+00  0.78955102504E+03  0.12735143049E+04  0.99922363049E+03 0.  0.
        3    1    3    3  502    0 -0.16925386352E+03  0.34959468627E+03 -0.57283369947E+01  0.38845352236E+03  0.10100000352E+00 0.  1.
       -3    1    3    3    0  502  0.16925386352E+03 -0.34959468627E+03  0.79527936203E+03  0.88506078258E+03  0.10100000352E+00 0. -1.
</event>
<event>
 5   0  0.1293575E-03  0.9999591E+03  0.7818609E-02  0.9308590E-01
        1   -1    0    0  501    0  0.00000000000E+00  0.00000000000E+00  0.65419134161E+03  0.65419134163E+03  0.50400001928E-02 0. -1.
       -1   -1    0    0    0  501  0.00000000000E+00  0.00000000000E+00 -0.38211993992E+03  0.38211993995E+03  0.50400001928E-02 0.  1.
    10030    2    1    2    0    0  0.00000000000E+00  0.00000000000E+00  0.27207140169E+03  0.10363112816E+04  0.99995911152E+03 0.  0.
        4    1    3    3  502    0 -0.42383200648E+03 -0.24529477271E+03  0.31498239333E+02  0.49071055340E+03  0.12699999809E+01 0.  1.
       -4    1    3    3    0  502  0.42383200648E+03  0.24529477271E+03  0.24057316236E+03  0.54560072818E+03  0.12699999809E+01 0. -1.
</event>
<event>
 5   0  0.2255142E-03  0.9850503E+03  0.7818609E-02  0.9325095E-01
        2   -1    0    0  501    0  0.00000000000E+00  0.00000000000E+00  0.14860061692E+04  0.14860061692E+04  0.25500000920E-02 0.  1.
       -2   -1    0    0    0  501  0.00000000000E+00  0.00000000000E+00 -0.16324361278E+03  0.16324361280E+03  0.25500000920E-02 0. -1.
    10030    2    1    2    0    0  0.00000000000E+00  0.00000000000E+00  0.13227625564E+04  0.16492497820E+04  0.98505028440E+03 0.  0.
        4    1    3    3  502    0 -0.44949520478E+03 -0.13344361257E+03  0.40897969379E+03  0.62218899033E+03  0.12699999809E+01 0. -1.
       -4    1    3    3    0  502  0.44949520478E+03  0.13344361257E+03  0.91378286266E+03  0.10270607917E+04  0.12699999809E+01 0.  1.
</event>
<event>
 5   0  0.2284843E-03  0.9941057E+03  0.7818609E-02  0.9315033E-01
       -2   -1    0    0    0  501  0.00000000000E+00  0.00000000000E+00  0.16326415535E+03  0.16326415537E+03  0.25500000920E-02 0.  1.
        2   -1    0    0  501    0  0.00000000000E+00  0.00000000000E+00 -0.15132626358E+04  0.15132626358E+04  0.25500000920E-02 0. -1.
    10030    2    1    2    0    0  0.00000000000E+00  0.00000000000E+00 -0.13499984804E+04  0.16765267911E+04  0.99410572087E+03 0.  0.
        2    1    3    3  502    0  0.37911001730E+03  0.21873777346E+03 -0.10722721177E+04  0.11581615229E+04  0.25500000920E-02 0. -1.
       -2    1    3    3    0  502 -0.37911001730E+03 -0.21873777346E+03 -0.27772636275E+03  0.51836526825E+03  0.25500000920E-02 0.  1.
</event>
<event>
 5   0  0.2255142E-03  0.9998785E+03  0.7818609E-02  0.9308678E-01
        2   -1    0    0  501    0  0.00000000000E+00  0.00000000000E+00  0.58932605851E+03  0.58932605851E+03  0.25500000920E-02 0.  1.
       -2   -1    0    0    0  501  0.00000000000E+00  0.00000000000E+00 -0.42411028037E+03  0.42411028038E+03  0.25500000920E-02 0. -1.
    10030    2    1    2    0    0  0.00000000000E+00  0.00000000000E+00  0.16521577813E+03  0.10134363389E+04  0.99987847244E+03 0.  0.
        4    1    3    3  502    0 -0.13853110914E+03 -0.31616797024E+03  0.44915307060E+03  0.56647431304E+03  0.12699999809E+01 0.  1.
       -4    1    3    3    0  502  0.13853110914E+03  0.31616797024E+03 -0.28393729247E+03  0.44696202586E+03  0.12699999809E+01 0. -1.
</event>
<event>
 5   0  0.2204862E-03  0.1001882E+04  0.7818609E-02  0.9306483E-01
        2   -1    0    0  501    0  0.00000000000E+00  0.00000000000E+00  0.10085253149E+04  0.10085253149E+04  0.25500000920E-02 0. -1.
       -2   -1    0    0    0  501  0.00000000000E+00  0.00000000000E+00 -0.24882064207E+03  0.24882064209E+03  0.25500000920E-02 0.  1.
    10030    2    1    2    0    0  0.00000000000E+00  0.00000000000E+00  0.75970467284E+03  0.12573459570E+04  0.10018820617E+04 0.  0.
        1    1    3    3  502    0 -0.11559240950E+03 -0.46034095402E+03  0.58091047636E+03  0.75015490444E+03  0.50400001928E-02 0. -1.
       -1    1    3    3    0  502  0.11559240950E+03  0.46034095402E+03  0.17879419648E+03  0.50719105257E+03  0.50400001928E-02 0.  1.
</event>
<event>
 5   0  0.2277570E-03  0.9916029E+03  0.7818609E-02  0.9317803E-01
       -2   -1    0    0    0  501  0.00000000000E+00  0.00000000000E+00  0.30781865173E+03  0.30781865174E+03  0.25500000920E-02 0. -1.
        2   -1    0    0  501    0  0.00000000000E+00  0.00000000000E+00 -0.79858413196E+03  0.79858413197E+03  0.25500000920E-02 0.  1.
    10030    2    1    2    0    0  0.00000000000E+00  0.00000000000E+00 -0.49076548023E+03  0.11064027837E+04  0.99160292618E+03 0.  0.
        3    1    3    3  502    0 -0.46324848958E+02 -0.49187731150E+03 -0.19897682598E+03  0.53261718774E+03  0.10100000352E+00 0.  1.
       -3    1    3    3    0  502  0.46324848958E+02  0.49187731150E+03 -0.29178865425E+03  0.57378559597E+03  0.10100000352E+00 0. -1.
</event>
<event>
 5   0  0.1353789E-03  0.9898586E+03  0.7818609E-02  0.9319738E-01
        1   -1    0    0  501    0  0.00000000000E+00  0.00000000000E+00  0.23663626368E+04  0.23663626368E+04  0.50400001928E-02 0.  1.
       -1   -1    0    0    0  501  0.00000000000E+00  0.00000000000E+00 -0.10351540918E+03  0.10351540930E+03  0.50400001928E-02 0. -1.
    10030    2    1    2    0    0  0.00000000000E+00  0.00000000000E+00  0.22628472276E+04  0.24698780461E+04  0.98985856922E+03 0.  0.
        1    1    3    3  502    0  0.13988401611E+03 -0.41137155088E+03  0.17227393205E+04  0.17766892968E+04  0.50400001928E-02 0.  1.
       -1    1    3    3    0  502 -0.13988401611E+03  0.41137155088E+03  0.54010790711E+03  0.69318874932E+03  0.50400001928E-02 0. -1.
</event>
<event>
 5   0  0.2284843E-03  0.1000060E+04  0.7818609E-02  0.9308479E-01
       -2   -1    0    0    0  501  0.00000000000E+00  0.00000000000E+00  0.24902823331E+03  0.24902823333E+03  0.25500000920E-02 0. -1.
        2   -1    0    0  501    0  0.00000000000E+00  0.00000000000E+00 -0.10040221689E+04  0.10040221689E+04  0.25500000920E-02 0.  1.
    10030    2    1    2    0    0  0.00000000000E+00  0.00000000000E+00 -0.75499393560E+03  0.12530504022E+04  0.10000597321E+04 0.  0.
        2    1    3    3  502    0 -0.33146269667E+03  0.48317572229E+02  0.87672229179E+02  0.34624922649E+03  0.25500000920E-02 0. -1.
       -2    1    3    3    0  502  0.33146269667E+03 -0.48317572229E+02 -0.84266616477E+03  0.90680117575E+03  0.25500000920E-02 0.  1.
</event>
<event>
 5   0  0.1249195E-03  0.1001684E+04  0.7818609E-02  0.9306700E-01
       -1   -1    0    0    0  501  0.00000000000E+00  0.00000000000E+00  0.55762268350E+03  0.55762268352E+03  0.50400001928E-02 0.  1.
        1   -1    0    0  501    0  0.00000000000E+00  0.00000000000E+00 -0.44984309219E+03  0.44984309222E+03  0.50400001928E-02 0. -1.
    10030    2    1    2    0    0  0.00000000000E+00  0.00000000000E+00  0.10777959131E+03  0.10074657757E+04  0.10016840066E+04 0.  0.
        2    1    3    3  502    0  0.90909925135E+02 -0.46324430568E+02 -0.43927927019E+03  0.45097321936E+03  0.25500000920E-02 0. -1.
       -2    1    3    3    0  502 -0.90909925135E+02  0.46324430568E+02  0.54705886150E+03  0.55649255638E+03  0.25500000920E-02 0.  1.
</event>
<event>
 5   0  0.2255142E-03  0.9964011E+03  0.7818609E-02  0.9312501E-01
        2   -1    0    0  501    0  0.00000000000E+00  0.00000000000E+00  0.61636005446E+03  0.61636005447E+03  0.25500000920E-02 0.  1.
       -2   -1    0    0    0  501  0.00000000000E+00  0.00000000000E+00 -0.40269283119E+03  0.40269283120E+03  0.25500000920E-02 0. -1.
    10030    2    1    2    0    0  0.00000000000E+00  0.00000000000E+00  0.21366722328E+03  0.10190528857E+04  0.99640107461E+03 0.  0.
        4    1    3    3  502    0 -0.28059783875E+03 -0.15931402600E+02  0.52754053838E+03  0.59773705694E+03  0.12699999809E+01 0.  1.
       -4    1    3    3    0  502  0.28059783875E+03  0.15931402600E+02 -0.31387331511E+03  0.42131582873E+03  0.12699999809E+01 0. -1.
</event>
<event>
 5   0  0.2255142E-03  0.9990516E+03  0.7818609E-02  0.9309586E-01
       -2   -1    0    0    0  501  0.00000000000E+00  0.00000000000E+00  0.40588713576E+03  0.40588713577E+03  0.25500000920E-02 0.  1.
        2   -1    0    0  501    0  0.00000000000E+00  0.00000000000E+00 -0.61476701800E+03  0.61476701801E+03  0.25500000920E-02 0. -1.
    10030    2    1    2    0    0  0.00000000000E+00  0.00000000000E+00 -0.20887988224E+03  0.10206541538E+04  0.99905159848E+03 0.  0.
        4    1    3    3  502    0 -0.14984486277E+03 -0.98235318140E+01  0.38228001374E+03  0.41071840291E+03  0.12699999809E+01 0.  1.
       -4    1    3    3    0  502  0.14984486277E+03  0.98235318140E+01 -0.59115989598E+03  0.60993575088E+03  0.12699999809E+01 0. -1.
</event>
<event>
 5   0  0.1353789E-03  0.9999743E+03  0.7818609E-02  0.9308573E-01
        1   -1    0    0  501    0  0.00000000000E+00  0.00000000000E+00  0.37623215120E+03  0.37623215124E+03  0.50400001928E-02 0.  1.
       -1   -1    0    0    0  501  0.00000000000E+00  0.00000000000E+00 -0.66444913040E+03  0.66444913042E+03  0.50400001928E-02 0. -1.
    10030    2    1    2    0    0  0.00000000000E+00  0.00000000000E+00 -0.28821697919E+03  0.10406812817E+04  0.99997425111E+03 0.  0.
        1    1    3    3  502    0  0.22136928215E+03 -0.29312178926E+03  0.20890850115E+03  0.42257248407E+03  0.50400001928E-02 0.  1.
       -1    1    3    3    0  502 -0.22136928215E+03  0.29312178926E+03 -0.49712548034E+03  0.61810879758E+03  0.50400001928E-02 0. -1.
</event>
<event>
 5   0  0.1293716E-03  0.9984094E+03  0.7818609E-02  0.9310291E-01
        1   -1    0    0  501    0  0.00000000000E+00  0.00000000000E+00  0.63253873435E+03  0.63253873437E+03  0.50400001928E-02 0.  1.
       -1   -1    0    0    0  501  0.00000000000E+00  0.00000000000E+00 -0.39397637536E+03  0.39397637539E+03  0.50400001928E-02 0. -1.
    10030    2    1    2    0    0  0.00000000000E+00  0.00000000000E+00  0.23856235899E+03  0.10265151098E+04  0.99840937067E+03 0.  0.
        3    1    3    3  502    0 -0.38426906120E+03 -0.29076257088E+03  0.25333451620E+03  0.54441158265E+03  0.10100000352E+00 0.  1.
       -3    1    3    3    0  502  0.38426906120E+03  0.29076257088E+03 -0.14772157207E+02  0.48210352711E+03  0.10100000352E+00 0. -1.
</event>
<event>
 5   0  0.2277570E-03  0.9988688E+03  0.7818609E-02  0.9309786E-01
        2   -1    0    0  501    0  0.00000000000E+00  0.00000000000E+00  0.76473541307E+03  0.76473541307E+03  0.25500000920E-02 0.  1.
       -2   -1    0    0    0  501  0.00000000000E+00  0.00000000000E+00 -0.32617128309E+03  0.32617128310E+03  0.25500000920E-02 0. -1.
    10030    2    1    2    0    0  0.00000000000E+00  0.00000000000E+00  0.43856412998E+03  0.10909066962E+04  0.99886882204E+03 0.  0.
        3    1    3    3  502    0  0.38391795112E+03 -0.41701292149E+02 -0.12660595974E+03  0.40640013559E+03  0.10100000352E+00 0. -1.
       -3    1    3    3    0  502 -0.38391795112E+03  0.41701292149E+02  0.56517008972E+03  0.68450656058E+03  0.10100000352E+00 0.  1.
</event>
<event>
 5   0  0.1285769E-03  0.1002527E+04  0.7818609E-02  0.9305777E-01
        1   -1    0    0  501    0  0.00000000000E+00  0.00000000000E+00  0.65508166259E+03  0.65508166261E+03  0.50400001928E-02 0.  1.
       -1   -1    0    0    0  501  0.00000000000E+00  0.00000000000E+00 -0.38356321592E+03  0.38356321595E+03  0.50400001928E-02 0. -1.
    10030    2    1    2    0    0  0.00000000000E+00  0.00000000000E+00  0.27151844667E+03  0.10386448786E+04  0.10025272649E+04 0.  0.
        5    1    3    3  502    0 -0.16237029975E+03 -0.37579205159E+03 -0.16390035053E+03  0.44098661565E+03  0.46999998093E+01 0. -1.
       -5    1    3    3    0  502  0.16237029975E+03  0.37579205159E+03  0.43541879719E+03  0.59765826291E+03  0.46999998093E+01 0.  1.
</event>
<event>
 5   0  0.1293575E-03  0.9980889E+03  0.7818609E-02  0.9310643E-01
       -1   -1    0    0    0  501  0.00000000000E+00  0.00000000000E+00  0.23496709974E+03  0.23496709980E+03  0.50400001928E-02 0.  1.
        1   -1    0    0  501    0  0.00000000000E+00  0.00000000000E+00 -0.10599158624E+04  0.10599158624E+04  0.50400001928E-02 0. -1.
    10030    2    1    2    0    0  0.00000000000E+00  0.00000000000E+00 -0.82494876265E+03  0.12948829622E+04  0.99808888623E+03 0.  0.
        4    1    3    3  502    0  0.14782304628E+03  0.35938042373E+03 -0.62573964956E+01  0.38864728210E+03  0.12699999809E+01 0.  1.
       -4    1    3    3    0  502 -0.14782304628E+03 -0.35938042373E+03 -0.81869136615E+03  0.90623568010E+03  0.12699999809E+01 0. -1.
</event>
<event>
 5   0  0.2255142E-03  0.1013495E+04  0.7818609E-02  0.9293867E-01
        2   -1    0    0  501    0  0.00000000000E+00  0.00000000000E+00  0.48357461433E+03  0.48357461434E+03  0.25500000920E-02 0.  1.
       -2   -1    0    0    0  501  0.00000000000E+00  0.00000000000E+00 -0.53103040522E+03  0.53103040522E+03  0.25500000920E-02 0. -1.
    10030    2    1    2    0    0  0.00000000000E+00  0.00000000000E+00 -0.47455790888E+02  0.10146050196E+04  0.10134945948E+04 0.  0.
        4    1    3    3  502    0 -0.47781247849E+03  0.15587914622E+03  0.41058832239E+02  0.50427226122E+03  0.12699999809E+01 0.  1.
       -4    1    3    3    0  502  0.47781247849E+03 -0.15587914622E+03 -0.88514623126E+02  0.51033275834E+03  0.12699999809E+01 0. -1.
</event>
<event>
 5   0  0.2204862E-03  0.1009131E+04  0.7818609E-02  0.9298587E-01
       -2   -1    0    0    0  501  0.00000000000E+00  0.00000000000E+00  0.12853714860E+04  0.12853714860E+04  0.25500000920E-02 0.  1.
        2   -1    0    0  501    0  0.00000000000E+00  0.00000000000E+00 -0.19806433705E+03  0.19806433706E+03  0.25500000920E-02 0. -1.
    10030    2    1    2    0    0  0.00000000000E+00  0.00000000000E+00  0.10873071489E+04  0.14834358230E+04  0.10091308166E+04 0.  0.
        1    1    3    3  502    0 -0.38006804212E+03 -0.11329681832E+03  0.85116911422E+02  0.40562639747E+03  0.50400001928E-02 0. -1.
       -1    1    3    3    0  502  0.38006804212E+03  0.11329681832E+03  0.10021902375E+04  0.10778094256E+04  0.50400001928E-02 0.  1.
</event>
<event>
 5   0  0.1249195E-03  0.9998557E+03  0.7818609E-02  0.9308703E-01
       -1   -1    0    0    0  501  0.00000000000E+00  0.00000000000E+00  0.15319116433E+03  0.15319116441E+03  0.50400001928E-02 0.  1.
        1   -1    0    0  501    0  0.00000000000E+00  0.00000000000E+00 -0.16314770217E+04  0.16314770218E+04  0.50400001928E-02 0. -1.
    10030    2    1    2    0    0  0.00000000000E+00  0.00000000000E+00 -0.14782858574E+04  0.17846681862E+04  0.99985571882E+03 0.  0.
        2    1    3    3  502    0 -0.21516385336E+03  0.25524297943E+03 -0.74912129305E+02  0.34213489951E+03  0.25500000920E-02 0.  1.
       -2    1    3    3    0  502  0.21516385336E+03 -0.25524297943E+03 -0.14033737281E+04  0.14425332867E+04  0.25500000920E-02 0. -1.
</event>
<event>
 5   0  0.2284843E-03  0.1014243E+04  0.7818609E-02  0.9293059E-01
        2   -1    0    0  501    0  0.00000000000E+00  0.00000000000E+00  0.16285689675E+04  0.16285689675E+04  0.25500000920E-02 0.  1.
       -2   -1    0    0    0  501  0.00000000000E+00  0.00000000000E+00 -0.15791311000E+03  0.15791311002E+03  0.25500000920E-02 0. -1.
    10030    2    1    2    0    0  0.00000000000E+00  0.00000000000E+00  0.14706558575E+04  0.17864820775E+04  0.10142433446E+04 0.  0.
        2    1    3    3  502    0 -0.15144199128E+03 -0.11638357819E+02  0.15875628040E+04  0.15948121471E+04  0.25500000920E-02 0.  1.
       -2    1    3    3    0  502  0.15144199128E+03  0.11638357819E+02 -0.11690694643E+03  0.19166993042E+03  0.25500000920E-02 0. -1.
</event>
<event>
 5   0  0.8680125E-04  0.9972426E+03  0.7818609E-02  0.9311574E-01
        3   -1    0    0  501    0  0.00000000000E+00  0.00000000000E+00  0.12293427487E+04  0.12293427528E+04  0.10100000352E+00 0. -1.
       -3   -1    0    0    0  501  0.00000000000E+00  0.00000000000E+00 -0.20224073255E+03  0.20224075777E+03  0.10100000352E+00 0.  1.
    10030    2    1    2    0    0  0.00000000000E+00  0.00000000000E+00  0.10271020161E+04  0.14315835106E+04  0.99724259651E+03 0.  0.
        5    1    3    3  502    0 -0.48041814534E+03 -0.63971960708E+02  0.68162042903E+03  0.83637462025E+03  0.46999998093E+01 0. -1.
       -5    1    3    3    0  502  0.48041814534E+03  0.63971960708E+02  0.34548158708E+03  0.59520889034E+03  0.46999998093E+01 0.  1.
</event>
<event>
 5   0  0.2204862E-03  0.9989122E+03  0.7818609E-02  0.9309739E-01
        2   -1    0    0  501    0  0.00000000000E+00  0.00000000000E+00  0.16066113451E+04  0.16066113451E+04  0.25500000920E-02 0.  1.
       -2   -1    0    0    0  501  0.00000000000E+00  0.00000000000E+00 -0.15526864869E+03  0.15526864871E+03  0.25500000920E-02 0. -1.
    10030    2    1    2    0    0  0.00000000000E+00  0.00000000000E+00  0.14513426964E+04  0.17618799938E+04  0.99891215339E+03 0.  0.
        1    1    3    3  502    0 -0.42190512221E+03 -0.15985278079E+03  0.34779201451E+03  0.56966317158E+03  0.50400001928E-02 0.  1.
       -1    1    3    3    0  502  0.42190512221E+03  0.15985278079E+03  0.11035506819E+04  0.11922168222E+04  0.50400001928E-02 0. -1.
</event>
<event>
 5   0  0.2277570E-03  0.1003749E+04  0.7818609E-02  0.9304442E-01
       -2   -1    0    0    0  501  0.00000000000E+00  0.00000000000E+00  0.34401016267E+03  0.34401016268E+03  0.25500000920E-02 0.  1.
        2   -1    0    0  501    0  0.00000000000E+00  0.00000000000E+00 -0.73218238106E+03  0.73218238107E+03  0.25500000920E-02 0. -1.
    10030    2    1    2    0    0  0.00000000000E+00  0.00000000000E+00 -0.38817221840E+03  0.10761925437E+04  0.10037493313E+04 0.  0.
        3    1    3    3  502    0  0.90997199197E+02  0.23685775076E+03 -0.65834562305E+03  0.70555017819E+03  0.10100000352E+00 0. -1.
       -3    1    3    3    0  502 -0.90997199197E+02 -0.23685775076E+03  0.27017340465E+03  0.37064236555E+03  0.10100000352E+00 0.  1.
</event>
<event>
 5   0  0.2284843E-03  0.9962223E+03  0.7818609E-02  0.9312698E-01
        2   -1    0    0  501    0  0.00000000000E+00  0.00000000000E+00  0.90883591587E+03  0.90883591588E+03  0.25500000920E-02 0.  1.
       -2   -1    0    0    0  501  0.00000000000E+00  0.00000000000E+00 -0.27300276046E+03  0.27300276047E+03  0.25500000920E-02 0. -1.
    10030    2    1    2    0    0  0.00000000000E+00  0.00000000000E+00  0.63583315541E+03  0.11818386764E+04  0.99622229216E+03 0.  0.
        2    1    3    3  502    0  0.11685063427E+03 -0.77281146659E+02 -0.24914979626E+03  0.28583573489E+03  0.25500000920E-02 0. -1.
       -2    1    3    3    0  502 -0.11685063427E+03  0.77281146659E+02  0.88498295167E+03  0.89600294146E+03  0.25500000920E-02 0.  1.
</event>
<event>
 5   0  0.1285769E-03  0.1003152E+04  0.7818609E-02  0.9305094E-01
        1   -1    0    0  501    0  0.00000000000E+00  0.00000000000E+00  0.81937419861E+03  0.81937419862E+03  0.50400001928E-02 0. -1.
       -1   -1    0    0    0  501  0.00000000000E+00  0.00000000000E+00 -0.30703735236E+03  0.30703735240E+03  0.50400001928E-02 0.  1.
    10030    2    1    2    0    0  0.00000000000E+00  0.00000000000E+00  0.51233684624E+03  0.11264115510E+04  0.10031520016E+04 0.  0.
        5    1    3    3  502    0  0.64000130956E+02  0.23407156319E+03  0.74904524236E+03  0.78738578763E+03  0.46999998093E+01 0. -1.
       -5    1    3    3    0  502 -0.64000130956E+02 -0.23407156319E+03 -0.23670839612E+03  0.33902576340E+03  0.46999998093E+01 0.  1.
</event>
<event>
 5   0  0.2255142E-03  0.9777482E+03  0.7818609E-02  0.9333293E-01
        2   -1    0    0  501    0  0.00000000000E+00  0.00000000000E+00  0.15953029218E+04  0.15953029218E+04  0.25500000920E-02 0.  1.
       -2   -1    0    0    0  501  0.00000000000E+00  0.00000000000E+00 -0.14981347360E+03  0.14981347362E+03  0.25500000920E-02 0. -1.
    10030    2    1    2    0    0  0.00000000000E+00  0.00000000000E+00  0.14454894482E+04  0.17451163954E+04  0.97774817245E+03 0.  0.
        4    1    3    3  502    0  0.23133254686E+03 -0.40857865575E+03  0.47968626755E+03  0.67123154973E+03  0.12699999809E+01 0. -1.
       -4    1    3    3    0  502 -0.23133254686E+03  0.40857865575E+03  0.96580318065E+03  0.10738848457E+04  0.12699999809E+01 0.  1.
</event>
<event>
 5   0  0.1293716E-03  0.1006388E+04  0.7818609E-02  0.9301566E-01
        1   -1    0    0  501    0  0.00000000000E+00  0.00000000000E+00  0.13917346973E+04  0.13917346973E+04  0.50400001928E-02 0.  1.
       -1   -1    0    0    0  501  0.00000000000E+00  0.00000000000E+00 -0.18193425949E+03  0.18193425956E+03  0.50400001928E-02 0. -1.
    10030    2    1    2    0    0  0.00000000000E+00  0.00000000000E+00  0.12098004378E+04  0.15736689568E+04  0.10063880397E+04 0.  0.
        3    1    3    3  502    0 -0.31415896559E+03 -0.39067217991E+03  0.67276472080E+03  0.83900714394E+03  0.10100000352E+00 0.  1.
       -3    1    3    3    0  502  0.31415896559E+03  0.39067217991E+03  0.53703571696E+03  0.73466181289E+03  0.10100000352E+00 0. -1.
</event>
<event>
 5   0  0.1353789E-03  0.1004071E+04  0.7818609E-02  0.9304091E-01
       -1   -1    0    0    0  501  0.00000000000E+00  0.00000000000E+00  0.25610941950E+03  0.25610941955E+03  0.50400001928E-02 0.  1.
        1   -1    0    0  501    0  0.00000000000E+00  0.00000000000E+00 -0.98410891926E+03  0.98410891927E+03  0.50400001928E-02 0. -1.
    10030    2    1    2    0    0  0.00000000000E+00  0.00000000000E+00 -0.72799949976E+03  0.12402183388E+04  0.10040708423E+04 0.  0.
        1    1    3    3  502    0 -0.15186500721E+03 -0.90381236528E+02 -0.94441793933E+03  0.96081059136E+03  0.50400001928E-02 0. -1.
       -1    1    3    3    0  502  0.15186500721E+03  0.90381236528E+02  0.21641843957E+03  0.27940774746E+03  0.50400001928E-02 0.  1.
</event>
<event>
 5   0  0.2277570E-03  0.9991961E+03  0.7818609E-02  0.9309427E-01
       -2   -1    0    0    0  501  0.00000000000E+00  0.00000000000E+00  0.19234084078E+03  0.19234084080E+03  0.25500000920E-02 0.  1.
        2   -1    0    0  501    0  0.00000000000E+00  0.00000000000E+00 -0.12976868909E+04  0.12976868909E+04  0.25500000920E-02 0. -1.
    10030    2    1    2    0    0  0.00000000000E+00  0.00000000000E+00 -0.11053460501E+04  0.14900277317E+04  0.99919605219E+03 0.  0.
        3    1    3    3  502    0 -0.42366457273E+03  0.77975773217E+02 -0.93000429503E+03  0.10249292124E+04  0.10100000352E+00 0. -1.
       -3    1    3    3    0  502  0.42366457273E+03 -0.77975773217E+02 -0.17534175506E+03  0.46509851931E+03  0.10100000352E+00 0.  1.
</event>
<event>
 5   0  0.8680125E-04  0.1002428E+04  0.7818609E-02  0.9305885E-01
       -3   -1    0    0    0  501  0.00000000000E+00  0.00000000000E+00  0.28405661580E+03  0.28405663376E+03  0.10100000352E+00 0. -1.
        3   -1    0    0  501    0  0.00000000000E+00  0.00000000000E+00 -0.88438572759E+03  0.88438573336E+03  0.10100000352E+00 0.  1.
    10030    2    1    2    0    0  0.00000000000E+00  0.00000000000E+00 -0.60032911179E+03  0.11684423671E+04  0.10024283131E+04 0.  0.
        2    1    3    3  502    0 -0.10211509873E+03  0.46404101076E+03 -0.48613017210E+03  0.67976767891E+03  0.25500000920E-02 0.  1.
       -2    1    3    3    0  502  0.10211509873E+03 -0.46404101076E+03 -0.11419893969E+03  0.48867468820E+03  0.25500000920E-02 0. -1.
</event>
<event>
 5   0  0.1293716E-03  0.9895264E+03  0.7818609E-02  0.9320107E-01
       -1   -1    0    0    0  501  0.00000000000E+00  0.00000000000E+00  0.74022770440E+03  0.74022770442E+03  0.50400001928E-02 0.  1.
        1   -1    0    0  501    0  0.00000000000E+00  0.00000000000E+00 -0.33069637358E+03  0.33069637362E+03  0.50400001928E-02 0. -1.
    10030    2    1    2    0    0  0.00000000000E+00  0.00000000000E+00  0.40953133082E+03  0.10709240780E+04  0.98952638672E+03 0.  0.
        3    1    3    3  502    0  0.29285811843E+03 -0.49340198764E+02 -0.22350043235E+03  0.37168909885E+03  0.10100000352E+00 0. -1.
       -3    1    3    3    0  502 -0.29285811843E+03  0.49340198764E+02  0.63303176316E+03  0.69923497919E+03  0.10100000352E+00 0.  1.
</event>
<event>
 5   0  0.1293575E-03  0.9989665E+03  0.7818609E-02  0.9309679E-01
       -1   -1    0    0    0  501  0.00000000000E+00  0.00000000000E+00  0.44703971322E+03  0.44703971325E+03  0.50400001928E-02 0. -1.
        1   -1    0    0  501    0  0.00000000000E+00  0.00000000000E+00 -0.55807910683E+03  0.55807910685E+03  0.50400001928E-02 0.  1.
    10030    2    1    2    0    0  0.00000000000E+00  0.00000000000E+00 -0.11103939361E+03  0.10051188201E+04  0.99896651375E+03 0.  0.
        4    1    3    3  502    0  0.23406049467E+03 -0.16905093472E+03  0.35456788817E+03  0.45725543618E+03  0.12699999809E+01 0. -1.
       -4    1    3    3    0  502 -0.23406049467E+03  0.16905093472E+03 -0.46560728178E+03  0.54786338392E+03  0.12699999809E+01 0.  1.
</event>
<event>
 5   0  0.1285769E-03  0.9991928E+03  0.7818609E-02  0.9309431E-01
       -1   -1    0    0    0  501  0.00000000000E+00  0.00000000000E+00  0.34324382440E+03  0.34324382444E+03  0.50400001928E-02 0.  1.
        1   -1    0    0  501    0  0.00000000000E+00  0.00000000000E+00 -0.72716990782E+03  0.72716990784E+03  0.50400001928E-02 0. -1.
    10030    2    1    2    0    0  0.00000000000E+00  0.00000000000E+00 -0.38392608342E+03  0.10704137323E+04  0.99919283460E+03 0.  0.
        5    1    3    3  502    0  0.25869061093E+03  0.34434169753E+03  0.79225868601E+02  0.43793933952E+03  0.46999998093E+01 0.  1.
       -5    1    3    3    0  502 -0.25869061093E+03 -0.34434169753E+03 -0.46315195202E+03  0.63247439276E+03  0.46999998093E+01 0. -1.
</event>
<event>
 5   0  0.1293575E-03  0.9415319E+03  0.7818609E-02  0.9375104E-01
        1   -1    0    0  501    0  0.00000000000E+00  0.00000000000E+00  0.83645071571E+03  0.83645071573E+03  0.50400001928E-02 0. -1.
       -1   -1    0    0    0  501  0.00000000000E+00  0.00000000000E+00 -0.26495356416E+03  0.26495356420E+03  0.50400001928E-02 0.  1.
    10030    2    1    2    0    0  0.00000000000E+00  0.00000000000E+00  0.57149715156E+03  0.11014042799E+04  0.94153193977E+03 0.  0.
        4    1    3    3  502    0  0.43548515077E+03  0.59507970670E+02  0.48299254122E+03  0.65304817808E+03  0.12699999809E+01 0. -1.
       -4    1    3    3    0  502 -0.43548515077E+03 -0.59507970670E+02  0.88504610331E+02  0.44835610185E+03  0.12699999809E+01 0.  1.
</event>
<event>
 5   0  0.2277570E-03  0.1002309E+04  0.7818609E-02  0.9306016E-01
        2   -1    0    0  501    0  0.00000000000E+00  0.00000000000E+00  0.12650419556E+04  0.12650419557E+04  0.25500000920E-02 0.  1.
       -2   -1    0    0    0  501  0.00000000000E+00  0.00000000000E+00 -0.19853546815E+03  0.19853546817E+03  0.25500000920E-02 0. -1.
    10030    2    1    2    0    0  0.00000000000E+00  0.00000000000E+00  0.10665064875E+04  0.14635774238E+04  0.10023087287E+04 0.  0.
        3    1    3    3  502    0  0.33028138052E+03  0.20544033917E+03  0.99469726500E+03  0.10680422194E+04  0.10100000352E+00 0.  1.
       -3    1    3    3    0  502 -0.33028138052E+03 -0.20544033917E+03  0.71809222501E+02  0.39553520439E+03  0.10100000352E+00 0. -1.
</event>
<event>
 5   0  0.1293575E-03  0.1003109E+04  0.7818609E-02  0.9305141E-01
        1   -1    0    0  501    0  0.00000000000E+00  0.00000000000E+00  0.94794216123E+03  0.94794216124E+03  0.50400001928E-02 0.  1.
       -1   -1    0    0    0  501  0.00000000000E+00  0.00000000000E+00 -0.26537160098E+03  0.26537160102E+03  0.50400001928E-02 0. -1.
    10030    2    1    2    0    0  0.00000000000E+00  0.00000000000E+00  0.68257056025E+03  0.12133137623E+04  0.10031090250E+04 0.  0.
        4    1    3    3  502    0  0.32067661894E+03 -0.32496010354E+03  0.59246133029E+03  0.74796029548E+03  0.12699999809E+01 0.  1.
       -4    1    3    3    0  502 -0.32067661894E+03  0.32496010354E+03  0.90109229964E+02  0.46535346679E+03  0.12699999809E+01 0. -1.
</event>
<event>
 5   0  0.2277570E-03  0.9822542E+03  0.7818609E-02  0.9328225E-01
        2   -1    0    0  501    0  0.00000000000E+00  0.00000000000E+00  0.23988076277E+03  0.23988076278E+03  0.25500000920E-02 0. -1.
       -2   -1    0    0    0  501  0.00000000000E+00  0.00000000000E+00 -0.10055239327E+04  0.10055239327E+04  0.25500000920E-02 0.  1.
    10030    2    1    2    0    0  0.00000000000E+00  0.00000000000E+00 -0.76564316994E+03  0.12454046955E+04  0.98225423994E+03 0.  0.
        3    1    3    3  502    0 -0.48564197853E+03 -0.45237809209E+02 -0.45578117431E+03  0.66755604989E+03  0.10100000352E+00 0.  1.
       -3    1    3    3    0  502  0.48564197853E+03  0.45237809209E+02 -0.30986199562E+03  0.57784864560E+03  0.10100000352E+00 0. -1.
</event>
<event>
 5   0  0.2255142E-03  0.9982421E+03  0.7818609E-02  0.9310475E-01
        2   -1    0    0  501    0  0.00000000000E+00  0.00000000000E+00  0.14962902455E+04  0.14962902455E+04  0.25500000920E-02 0.  1.
       -2   -1    0    0    0  501  0.00000000000E+00  0.00000000000E+00 -0.16649297980E+03  0.16649297982E+03  0.25500000920E-02 0. -1.
    10030    2    1    2    0    0  0.00000000000E+00  0.00000000000E+00  0.13297972657E+04  0.16627832253E+04  0.99824209815E+03 0.  0.
        4    1    3    3  502    0 -0.48974282246E+02 -0.56381219834E+02 -0.15713100850E+03  0.17398013968E+03  0.12699999809E+01 0. -1.
       -4    1    3    3    0  502  0.48974282246E+02  0.56381219834E+02  0.14869282742E+04  0.14888030856E+04  0.12699999809E+01 0.  1.
</event>
<event>
 5   0  0.1293575E-03  0.1000213E+04  0.7818609E-02  0.9308312E-01
        1   -1    0    0  501    0  0.00000000000E+00  0.00000000000E+00  0.94080021352E+03  0.94080021354E+03  0.50400001928E-02 0.  1.
       -1   -1    0    0    0  501  0.00000000000E+00  0.00000000000E+00 -0.26584419948E+03  0.26584419953E+03  0.50400001928E-02 0. -1.
    10030    2    1    2    0    0  0.00000000000E+00  0.00000000000E+00  0.67495601404E+03  0.12066444131E+04  0.10002125368E+04 0.  0.
        4    1    3    3  502    0  0.37324295373E+03  0.18859428592E+03  0.65964103595E+01  0.41823824875E+03  0.12699999809E+01 0. -1.
       -4    1    3    3    0  502 -0.37324295373E+03 -0.18859428592E+03  0.66835960368E+03  0.78840616431E+03  0.12699999809E+01 0.  1.
</event>
<event>
 5   0  0.1353789E-03  0.9992516E+03  0.7818609E-02  0.9309366E-01
       -1   -1    0    0    0  501  0.00000000000E+00  0.00000000000E+00  0.39327502495E+03  0.39327502498E+03  0.50400001928E-02 0. -1.
        1   -1    0    0  501    0  0.00000000000E+00  0.00000000000E+00 -0.63473629955E+03  0.63473629957E+03  0.50400001928E-02 0.  1.
    10030    2    1    2    0    0  0.00000000000E+00  0.00000000000E+00 -0.24146127461E+03  0.10280113246E+04  0.99925158808E+03 0.  0.
        1    1    3    3  502    0  0.42309325787E+03  0.26473565741E+03 -0.96978020660E+02  0.50842660205E+03  0.50400001928E-02 0. -1.
       -1    1    3    3    0  502 -0.42309325787E+03 -0.26473565741E+03 -0.14448325395E+03  0.51958472250E+03  0.50400001928E-02 0.  1.
</event>
<event>
 5   0  0.2284843E-03  0.9929341E+03  0.7818609E-02  0.9316329E-01
       -2   -1    0    0    0  501  0.00000000000E+00  0.00000000000E+00  0.25793553670E+03  0.25793553671E+03  0.25500000920E-02 0.  1.
        2   -1    0    0  501    0  0.00000000000E+00  0.00000000000E+00 -0.95558570403E+03  0.95558570403E+03  0.25500000920E-02 0. -1.
    10030    2    1    2    0    0  0.00000000000E+00  0.00000000000E+00 -0.69765016733E+03  0.12135212407E+04  0.99293405911E+03 0.  0.
        2    1    3    3  502    0 -0.83846910849E+02 -0.43729520455E+03 -0.61720504370E+03  0.76105155302E+03  0.25500000920E-02 0. -1.
       -2    1    3    3    0  502  0.83846910849E+02  0.43729520455E+03 -0.80445123635E+02  0.45246968772E+03  0.25500000920E-02 0.  1.
</event>
<event>
 5   0  0.2277570E-03  0.9968174E+03  0.7818609E-02  0.9312042E-01
        2   -1    0    0  501    0  0.00000000000E+00  0.00000000000E+00  0.60081698407E+03  0.60081698408E+03  0.25500000920E-02 0. -1.
       -2   -1    0    0    0  501  0.00000000000E+00  0.00000000000E+00 -0.41345576338E+03  0.41345576339E+03  0.25500000920E-02 0.  1.
    10030    2    1    2    0    0  0.00000000000E+00  0.00000000000E+00  0.18736122069E+03  0.10142727475E+04  0.99681742522E+03 0.  0.
        3    1    3    3  502    0  0.12563827513E+03  0.77533712392E+02  0.57805732016E+03  0.59661271218E+03  0.10100000352E+00 0. -1.
       -3    1    3    3    0  502 -0.12563827513E+03 -0.77533712392E+02 -0.39069609947E+03  0.41766003529E+03  0.10100000352E+00 0.  1.
</event>
<event>
 5   0  0.1293575E-03  0.1004684E+04  0.7818609E-02  0.9303422E-01
        1   -1    0    0  501    0  0.00000000000E+00  0.00000000000E+00  0.12970973604E+04  0.12970973604E+04  0.50400001928E-02 0.  1.
       -1   -1    0    0    0  501  0.00000000000E+00  0.00000000000E+00 -0.19454801945E+03  0.19454801952E+03  0.50400001928E-02 0. -1.
    10030    2    1    2    0    0  0.00000000000E+00  0.00000000000E+00  0.11025493410E+04  0.14916453800E+04  0.10046844730E+04 0.  0.
        4    1    3    3  502    0  0.45845375442E+02  0.73892987933E+02  0.12858351054E+04  0.12887728672E+04  0.12699999809E+01 0.  1.
       -4    1    3    3    0  502 -0.45845375442E+02 -0.73892987933E+02 -0.18328576438E+03  0.20287251278E+03  0.12699999809E+01 0. -1.
</event>
<event>
 5   0  0.1249195E-03  0.9380951E+03  0.7818609E-02  0.9379175E-01
        1   -1    0    0  501    0  0.00000000000E+00  0.00000000000E+00  0.54487805619E+03  0.54487805621E+03  0.50400001928E-02 0. -1.
       -1   -1    0    0    0  501  0.00000000000E+00  0.00000000000E+00 -0.40377031442E+03  0.40377031445E+03  0.50400001928E-02 0.  1.
    10030    2    1    2    0    0  0.00000000000E+00  0.00000000000E+00  0.14110774177E+03  0.94864837067E+03  0.93809505722E+03 0.  0.
        2    1    3    3  502    0 -0.10008228651E+03 -0.58971159559E+02 -0.38899379179E+03  0.40596826451E+03  0.25500000920E-02 0.  1.
       -2    1    3    3    0  502  0.10008228651E+03  0.58971159559E+02  0.53010153356E+03  0.54268010616E+03  0.25500000920E-02 0. -1.
</event>
<event>
 5   0  0.1353789E-03  0.1003511E+04  0.7818609E-02  0.9304702E-01
        1   -1    0    0  501    0  0.00000000000E+00  0.00000000000E+00  0.94470508889E+03  0.94470508890E+03  0.50400001928E-02 0. -1.
       -1   -1    0    0    0  501  0.00000000000E+00  0.00000000000E+00 -0.26649446389E+03  0.26649446393E+03  0.50400001928E-02 0.  1.
    10030    2    1    2    0    0  0.00000000000E+00  0.00000000000E+00  0.67821062500E+03  0.12111995528E+04  0.10035111882E+04 0.  0.
        1    1    3    3  502    0  0.21136952296E+03  0.43234115235E+03  0.16772215536E+03  0.50963385747E+03  0.50400001928E-02 0.  1.
       -1    1    3    3    0  502 -0.21136952296E+03 -0.43234115235E+03  0.51048846964E+03  0.70156569536E+03  0.50400001928E-02 0. -1.
</event>
<event>
 5   0  0.2284843E-03  0.9995648E+03  0.7818609E-02  0.9309022E-01
        2   -1    0    0  501    0  0.00000000000E+00  0.00000000000E+00  0.10883967058E+04  0.10883967058E+04  0.25500000920E-02 0.  1.
       -2   -1    0    0    0  501  0.00000000000E+00  0.00000000000E+00 -0.22949575573E+03  0.22949575574E+03  0.25500000920E-02 0. -1.
    10030    2    1    2    0    0  0.00000000000E+00  0.00000000000E+00  0.85890095007E+03  0.13178924615E+04  0.99956475436E+03 0.  0.
        2    1    3    3  502    0  0.22984604371E+01 -0.99483612146E+02 -0.21630217615E+03  0.23809431622E+03  0.25500000920E-02 0. -1.
       -2    1    3    3    0  502 -0.22984604371E+01  0.99483612146E+02  0.10752031262E+04  0.10797981453E+04  0.25500000920E-02 0.  1.
</event>
<event>
 5   0  0.1285769E-03  0.9974747E+03  0.7818609E-02  0.9311319E-01
       -1   -1    0    0    0  501  0.00000000000E+00  0.00000000000E+00  0.61345023374E+03  0.61345023376E+03  0.50400001928E-02 0. -1.
        1   -1    0    0  501    0  0.00000000000E+00  0.00000000000E+00 -0.40547533508E+03  0.40547533511E+03  0.50400001928E-02 0.  1.
    10030    2    1    2    0    0  0.00000000000E+00  0.00000000000E+00  0.20797489866E+03  0.10189255689E+04  0.99747468961E+03 0.  0.
        5    1    3    3  502    0 -0.47825464055E+03 -0.12952847338E+03  0.46096645226E+02  0.49764657873E+03  0.46999998093E+01 0.  1.
       -5    1    3    3    0  502  0.47825464055E+03  0.12952847338E+03  0.16187825344E+03  0.52127899014E+03  0.46999998093E+01 0. -1.
</event>
<event>
 5   0  0.1293716E-03  0.1001874E+04  0.7818609E-02  0.9306492E-01
       -1   -1    0    0    0  501  0.00000000000E+00  0.00000000000E+00  0.20542272626E+03  0.20542272632E+03  0.50400001928E-02 0. -1.
        1   -1    0    0  501    0  0.00000000000E+00  0.00000000000E+00 -0.12215670991E+04  0.12215670991E+04  0.50400001928E-02 0.  1.
    10030    2    1    2    0    0  0.00000000000E+00  0.00000000000E+00 -0.10161443728E+04  0.14269898254E+04  0.10018735326E+04 0.  0.
        3    1    3    3  502    0 -0.43942893097E+03 -0.43450142672E+02 -0.17116092953E+03  0.47358396749E+03  0.10100000352E+00 0. -1.
       -3    1    3    3    0  502  0.43942893097E+03  0.43450142672E+02 -0.84498344326E+03  0.95340585789E+03  0.10100000352E+00 0.  1.
</event>
<event>
 5   0  0.2277570E-03  0.1001513E+04  0.7818609E-02  0.9306887E-01
       -2   -1    0    0    0  501  0.00000000000E+00  0.00000000000E+00  0.96184750729E+03  0.96184750729E+03  0.25500000920E-02 0.  1.
        2   -1    0    0  501    0  0.00000000000E+00  0.00000000000E+00 -0.26070370383E+03  0.26070370384E+03  0.25500000920E-02 0. -1.
    10030    2    1    2    0    0  0.00000000000E+00  0.00000000000E+00  0.70114380346E+03  0.12225512111E+04  0.10015132704E+04 0.  0.
        3    1    3    3  502    0  0.25553235518E+03  0.40011778204E+03  0.15615329311E+03  0.49977483449E+03  0.10100000352E+00 0. -1.
       -3    1    3    3    0  502 -0.25553235518E+03 -0.40011778204E+03  0.54499051036E+03  0.72277637664E+03  0.10100000352E+00 0.  1.
</event>
<event>
 5   0  0.2277570E-03  0.1002154E+04  0.7818609E-02  0.9306185E-01
       -2   -1    0    0    0  501  0.00000000000E+00  0.00000000000E+00  0.40973555463E+03  0.40973555464E+03  0.25500000920E-02 0.  1.
        2   -1    0    0  501    0  0.00000000000E+00  0.00000000000E+00 -0.61278134389E+03  0.61278134390E+03  0.25500000920E-02 0. -1.
    10030    2    1    2    0    0  0.00000000000E+00  0.00000000000E+00 -0.20304578926E+03  0.10225168985E+04  0.10021542872E+04 0.  0.
        3    1    3    3  502    0 -0.18731665266E+02  0.75290454593E+02  0.40356972922E+03  0.41095993038E+03  0.10100000352E+00 0.  1.
       -3    1    3    3    0  502  0.18731665266E+02 -0.75290454593E+02 -0.60661551848E+03  0.61155696816E+03  0.10100000352E+00 0. -1.
</event>
<event>
 5   0  0.1353789E-03  0.9952904E+03  0.7818609E-02  0.9313725E-01
       -1   -1    0    0    0  501  0.00000000000E+00  0.00000000000E+00  0.30067353003E+03  0.30067353007E+03  0.50400001928E-02 0.  1.
        1   -1    0    0  501    0  0.00000000000E+00  0.00000000000E+00 -0.82365335919E+03  0.82365335921E+03  0.50400001928E-02 0. -1.
    10030    2    1    2    0    0  0.00000000000E+00  0.00000000000E+00 -0.52297982916E+03  0.11243268893E+04  0.99529043613E+03 0.  0.
        1    1    3    3  502    0  0.22846566345E+03  0.43357987202E+03 -0.16390319778E+03  0.51677105479E+03  0.50400001928E-02 0.  1.
       -1    1    3    3    0  502 -0.22846566345E+03 -0.43357987202E+03 -0.35907663138E+03  0.60755583449E+03  0.50400001928E-02 0. -1.
</event>
<event>
 5   0  0.2204862E-03  0.9964150E+03  0.7818609E-02  0.9312486E-01
       -2   -1    0    0    0  501  0.00000000000E+00  0.00000000000E+00  0.27335027964E+03  0.27335027965E+03  0.25500000920E-02 0.  1.
        2   -1    0    0  501    0  0.00000000000E+00  0.00000000000E+00 -0.90803169528E+03  0.90803169528E+03  0.25500000920E-02 0. -1.
    10030    2    1    2    0    0  0.00000000000E+00  0.00000000000E+00 -0.63468141564E+03  0.11813819749E+04  0.99641500959E+03 0.  0.
        1    1    3    3  502    0 -0.47546277933E+03  0.30672247119E+01 -0.14093845798E+03  0.49592127536E+03  0.50400001928E-02 0. -1.
       -1    1    3    3    0  502  0.47546277933E+03 -0.30672247119E+01 -0.49374295766E+03  0.68546069957E+03  0.50400001928E-02 0.  1.
</event>
<event>
 5   0  0.1249195E-03  0.9858601E+03  0.7818609E-02  0.9324191E-01
       -1   -1    0    0    0  501  0.00000000000E+00  0.00000000000E+00  0.25087965482E+03  0.25087965487E+03  0.50400001928E-02 0. -1.
        1   -1    0    0  501    0  0.00000000000E+00  0.00000000000E+00 -0.96851232590E+03  0.96851232592E+03  0.50400001928E-02 0.  1.
    10030    2    1    2    0    0  0.00000000000E+00  0.00000000000E+00 -0.71763267108E+03  0.12193919808E+04  0.98586010782E+03 0.  0.
        2    1    3    3  502    0 -0.16117006362E+03 -0.46026226849E+03 -0.26994236222E+03  0.55739216368E+03  0.25500000920E-02 0. -1.
       -2    1    3    3    0  502  0.16117006362E+03  0.46026226849E+03 -0.44769030886E+03  0.66199981711E+03  0.25500000920E-02 0.  1.
</event>
<event>
 5   0  0.1353789E-03  0.1013397E+04  0.7818609E-02  0.9293972E-01
        1   -1    0    0  501    0  0.00000000000E+00  0.00000000000E+00  0.87751596397E+03  0.87751596398E+03  0.50400001928E-02 0. -1.
       -1   -1    0    0    0  501  0.00000000000E+00  0.00000000000E+00 -0.29257979160E+03  0.29257979164E+03  0.50400001928E-02 0.  1.
    10030    2    1    2    0    0  0.00000000000E+00  0.00000000000E+00  0.58493617237E+03  0.11700957556E+04  0.10133971342E+04 0.  0.
        1    1    3    3  502    0  0.18524698294E+03 -0.31795333171E+02  0.83577631346E+03  0.85665012348E+03  0.50400001928E-02 0. -1.
       -1    1    3    3    0  502 -0.18524698294E+03  0.31795333171E+02 -0.25084014109E+03  0.31344563214E+03  0.50400001928E-02 0.  1.
</event>
<event>
 5   0  0.8680125E-04  0.9885711E+03  0.7818609E-02  0.9321169E-01
        4   -1    0    0  501    0  0.00000000000E+00  0.00000000000E+00  0.63868101747E+03  0.63868228015E+03  0.12699999809E+01 0. -1.
       -4   -1    0    0    0  501  0.00000000000E+00  0.00000000000E+00 -0.38253285724E+03  0.38253496541E+03  0.12699999809E+01 0.  1.
    10030    2    1    2    0    0  0.00000000000E+00  0.00000000000E+00  0.25614816024E+03  0.10212172456E+04  0.98857108123E+03 0.  0.
        1    1    3    3  502    0  0.28495823954E+03 -0.39987613738E+03  0.69490875190E+02  0.49591441327E+03  0.50400001928E-02 0.  1.
       -1    1    3    3    0  502 -0.28495823954E+03  0.39987613738E+03  0.18665728505E+03  0.52530283229E+03  0.50400001928E-02 0. -1.
</event>
<event>
 5   0  0.2204862E-03  0.1000694E+04  0.7818609E-02  0.9307783E-01
       -2   -1    0    0    0  501  0.00000000000E+00  0.00000000000E+00  0.14852957029E+03  0.14852957031E+03  0.25500000920E-02 0. -1.
        2   -1    0    0  501    0  0.00000000000E+00  0.00000000000E+00 -0.16855051452E+04  0.16855051452E+04  0.25500000920E-02 0.  1.
    10030    2    1    2    0    0  0.00000000000E+00  0.00000000000E+00 -0.15369755749E+04  0.18340347155E+04  0.10006944688E+04 0.  0.
        1    1    3    3  502    0  0.42716620852E+03  0.21710006964E+03 -0.50451951592E+03  0.69580410455E+03  0.50400001928E-02 0. -1.
       -1    1    3    3    0  502 -0.42716620852E+03 -0.21710006964E+03 -0.10324560590E+04  0.11382306110E+04  0.50400001928E-02 0.  1.
</event>
<event>
 5   0  0.1249195E-03  0.9905891E+03  0.7818609E-02  0.9318927E-01
        1   -1    0    0  501    0  0.00000000000E+00  0.00000000000E+00  0.13519786921E+04  0.13519786921E+04  0.50400001928E-02 0. -1.
       -1   -1    0    0    0  501  0.00000000000E+00  0.00000000000E+00 -0.18145010116E+03  0.18145010123E+03  0.50400001928E-02 0.  1.
    10030    2    1    2    0    0  0.00000000000E+00  0.00000000000E+00  0.11705285909E+04  0.15334287933E+04  0.99058905809E+03 0.  0.
        2    1    3    3  502    0  0.11214217854E+03  0.42917186954E+03  0.92635904160E+03  0.10270858950E+04  0.25500000920E-02 0. -1.
       -2    1    3    3    0  502 -0.11214217854E+03 -0.42917186954E+03  0.24416954930E+03  0.50634289826E+03  0.25500000920E-02 0.  1.
</event>
<event>
 5   0  0.1249195E-03  0.9984546E+03  0.7818609E-02  0.9310241E-01
        1   -1    0    0  501    0  0.00000000000E+00  0.00000000000E+00  0.17841601666E+04  0.17841601666E+04  0.50400001928E-02 0. -1.
       -1   -1    0    0    0  501  0.00000000000E+00  0.00000000000E+00 -0.13968919446E+03  0.13968919455E+03  0.50400001928E-02 0.  1.
    10030    2    1    2    0    0  0.00000000000E+00  0.00000000000E+00  0.16444709722E+04  0.19238493612E+04  0.99845459899E+03 0.  0.
        2    1    3    3  502    0  0.75203798947E+02  0.12061752764E+02 -0.12842826850E+03  0.14931482650E+03  0.25500000920E-02 0.  1.
       -2    1    3    3    0  502 -0.75203798947E+02 -0.12061752764E+02  0.17728992407E+04  0.17745345347E+04  0.25500000920E-02 0. -1.
</event>
<event>
 5   0  0.2284843E-03  0.9996648E+03  0.7818609E-02  0.9308912E-01
        2   -1    0    0  501    0  0.00000000000E+00  0.00000000000E+00  0.10276868626E+04  0.10276868626E+04  0.25500000920E-02 0. -1.
       -2   -1    0    0    0  501  0.00000000000E+00  0.00000000000E+00 -0.24310172245E+03  0.24310172246E+03  0.25500000920E-02 0.  1.
    10030    2    1    2    0    0  0.00000000000E+00  0.00000000000E+00  0.78458514019E+03  0.12707885851E+04  0.99966483674E+03 0.  0.
        2    1    3    3  502    0  0.20771645971E+03 -0.34263661580E+03  0.12442936702E+02  0.40087504886E+03  0.25500000920E-02 0.  1.
       -2    1    3    3    0  502 -0.20771645971E+03  0.34263661580E+03  0.77214220349E+03  0.86991353624E+03  0.25500000920E-02 0. -1.
</event>
<event>
 5   0  0.8680125E-04  0.9991824E+03  0.7818609E-02  0.9309442E-01
        3   -1    0    0  501    0  0.00000000000E+00  0.00000000000E+00  0.35218080346E+03  0.35218081794E+03  0.10100000352E+00 0.  1.
       -3   -1    0    0    0  501  0.00000000000E+00  0.00000000000E+00 -0.70870229447E+03  0.70870230166E+03  0.10100000352E+00 0. -1.
    10030    2    1    2    0    0  0.00000000000E+00  0.00000000000E+00 -0.35652149101E+03  0.10608831196E+04  0.99918237570E+03 0.  0.
        1    1    3    3  502    0 -0.61296947316E+01 -0.30662979437E+03  0.24046781489E+03  0.38972320174E+03  0.50400001928E-02 0.  1.
       -1    1    3    3    0  502  0.61296947316E+01  0.30662979437E+03 -0.59698930590E+03  0.67115991786E+03  0.50400001928E-02 0. -1.
</event>
<event>
 5   0  0.1293716E-03  0.9987194E+03  0.7818609E-02  0.9309950E-01
       -1   -1    0    0    0  501  0.00000000000E+00  0.00000000000E+00  0.37804757268E+03  0.37804757272E+03  0.50400001928E-02 0. -1.
        1   -1    0    0  501    0  0.00000000000E+00  0.00000000000E+00 -0.65959979332E+03  0.65959979334E+03  0.50400001928E-02 0.  1.
    10030    2    1    2    0    0  0.00000000000E+00  0.00000000000E+00 -0.28155222064E+03  0.10376473661E+04  0.99871938168E+03 0.  0.
        3    1    3    3  502    0  0.40403109106E+03  0.29037885100E+03 -0.18484507765E+03  0.53078122855E+03  0.10100000352E+00 0.  1.
       -3    1    3    3    0  502 -0.40403109106E+03 -0.29037885100E+03 -0.96707142986E+02  0.50686613751E+03  0.10100000352E+00 0. -1.
</event>
<event>
 5   0  0.2264577E-03  0.9982371E+03  0.7818609E-02  0.9310480E-01
       -2   -1    0    0    0  501  0.00000000000E+00  0.00000000000E+00  0.12640497902E+03  0.12640497904E+03  0.25500000920E-02 0. -1.
        2   -1    0    0  501    0  0.00000000000E+00  0.00000000000E+00 -0.19708031312E+04  0.19708031312E+04  0.25500000920E-02 0.  1.
    10030    2    1    2    0    0  0.00000000000E+00  0.00000000000E+00 -0.18443981522E+04  0.20972081103E+04  0.99823710305E+03 0.  0.
        5    1    3    3  502    0 -0.41261548079E+03 -0.10080743245E+03 -0.14727965763E+04  0.15328292529E+04  0.46999998093E+01 0.  1.
       -5    1    3    3    0  502  0.41261548079E+03  0.10080743245E+03 -0.37160157595E+03  0.56437885739E+03  0.46999998093E+01 0. -1.
</event>
<event>
 5   0  0.1293716E-03  0.9977688E+03  0.7818609E-02  0.9310995E-01
       -1   -1    0    0    0  501  0.00000000000E+00  0.00000000000E+00  0.30087770713E+03  0.30087770718E+03  0.50400001928E-02 0.  1.
        1   -1    0    0  501    0  0.00000000000E+00  0.00000000000E+00 -0.82719868203E+03  0.82719868205E+03  0.50400001928E-02 0. -1.
    10030    2    1    2    0    0  0.00000000000E+00  0.00000000000E+00 -0.52632097490E+03  0.11280763892E+04  0.99776879652E+03 0.  0.
        3    1    3    3  502    0 -0.36549766152E+03 -0.24063005627E+03 -0.53401922653E+03  0.69041140566E+03  0.10100000352E+00 0.  1.
       -3    1    3    3    0  502  0.36549766152E+03  0.24063005627E+03  0.76982516358E+01  0.43766498356E+03  0.10100000352E+00 0. -1.
</event>
<event>
 5   0  0.2284843E-03  0.1000168E+04  0.7818609E-02  0.9308360E-01
       -2   -1    0    0    0  501  0.00000000000E+00  0.00000000000E+00  0.22352698314E+03  0.22352698316E+03  0.25500000920E-02 0.  1.
        2   -1    0    0  501    0  0.00000000000E+00  0.00000000000E+00 -0.11188097707E+04  0.11188097707E+04  0.25500000920E-02 0. -1.
    10030    2    1    2    0    0  0.00000000000E+00  0.00000000000E+00 -0.89528278758E+03  0.13423367539E+04  0.10001683314E+04 0.  0.
        2    1    3    3  502    0 -0.15002704462E+03  0.25017234434E+03  0.97509847246E+02  0.30757517180E+03  0.25500000920E-02 0. -1.
       -2    1    3    3    0  502  0.15002704462E+03 -0.25017234434E+03 -0.99279263483E+03  0.10347615821E+04  0.25500000920E-02 0.  1.
</event>
<event>
 5   0  0.2284843E-03  0.9979744E+03  0.7818609E-02  0.9310769E-01
        2   -1    0    0  501    0  0.00000000000E+00  0.00000000000E+00  0.37174073028E+03  0.37174073029E+03  0.25500000920E-02 0.  1.
       -2   -1    0    0    0  501  0.00000000000E+00  0.00000000000E+00 -0.66979004110E+03  0.66979004110E+03  0.25500000920E-02 0. -1.
    10030    2    1    2    0    0  0.00000000000E+00  0.00000000000E+00 -0.29804931082E+03  0.10415307714E+04  0.99797442656E+03 0.  0.
        2    1    3    3  502    0 -0.82069065378E+02  0.24388649336E+03 -0.59520235979E+03  0.64844568180E+03  0.25500000920E-02 0. -1.
       -2    1    3    3    0  502  0.82069065378E+02 -0.24388649336E+03  0.29715304898E+03  0.39308508959E+03  0.25500000920E-02 0.  1.
</event>
<event>
 5   0  0.1353789E-03  0.9993071E+03  0.7818609E-02  0.9309305E-01
       -1   -1    0    0    0  501  0.00000000000E+00  0.00000000000E+00  0.56196376116E+03  0.56196376118E+03  0.50400001928E-02 0. -1.
        1   -1    0    0  501    0  0.00000000000E+00  0.00000000000E+00 -0.44425226510E+03  0.44425226513E+03  0.50400001928E-02 0.  1.
    10030    2    1    2    0    0  0.00000000000E+00  0.00000000000E+00  0.11771149606E+03  0.10062160263E+04  0.99930710760E+03 0.  0.
        1    1    3    3  502    0 -0.14202313243E+03 -0.17274391107E+03  0.50875877092E+03  0.55573961166E+03  0.50400001928E-02 0. -1.
       -1    1    3    3    0  502  0.14202313243E+03  0.17274391107E+03 -0.39104727486E+03  0.45047641465E+03  0.50400001928E-02 0.  1.
</event>
<event>
 5   0  0.2277570E-03  0.9990325E+03  0.7818609E-02  0.9309607E-01
        2   -1    0    0  501    0  0.00000000000E+00  0.00000000000E+00  0.56170893345E+03  0.56170893346E+03  0.25500000920E-02 0.  1.
       -2   -1    0    0    0  501  0.00000000000E+00  0.00000000000E+00 -0.44420954681E+03  0.44420954682E+03  0.25500000920E-02 0. -1.
    10030    2    1    2    0    0  0.00000000000E+00  0.00000000000E+00  0.11749938664E+03  0.10059184803E+04  0.99903247349E+03 0.  0.
        3    1    3    3  502    0 -0.12607771533E+03 -0.12312012914E+03 -0.41187145218E+03  0.44798689693E+03  0.10100000352E+00 0. -1.
       -3    1    3    3    0  502  0.12607771533E+03  0.12312012914E+03  0.52937083882E+03  0.55793158334E+03  0.10100000352E+00 0.  1.
</event>
<event>
 5   0  0.2284843E-03  0.9984769E+03  0.7818609E-02  0.9310217E-01
       -2   -1    0    0    0  501  0.00000000000E+00  0.00000000000E+00  0.28361843747E+03  0.28361843749E+03  0.25500000920E-02 0. -1.
        2   -1    0    0  501    0  0.00000000000E+00  0.00000000000E+00 -0.87878285902E+03  0.87878285902E+03  0.25500000920E-02 0.  1.
    10030    2    1    2    0    0  0.00000000000E+00  0.00000000000E+00 -0.59516442154E+03  0.11624012965E+04  0.99847688278E+03 0.  0.
        2    1    3    3  502    0 -0.66160933503E+01 -0.50596868245E+02  0.28057454677E+03  0.28517694870E+03  0.25500000920E-02 0. -1.
       -2    1    3    3    0  502  0.66160933503E+01  0.50596868245E+02 -0.87573896831E+03  0.87722434781E+03  0.25500000920E-02 0.  1.
</event>
<event>
 5   0  0.1293716E-03  0.9999879E+03  0.7818609E-02  0.9308558E-01
       -1   -1    0    0    0  501  0.00000000000E+00  0.00000000000E+00  0.54262415143E+03  0.54262415146E+03  0.50400001928E-02 0. -1.
        1   -1    0    0  501    0  0.00000000000E+00  0.00000000000E+00 -0.46071286927E+03  0.46071286929E+03  0.50400001928E-02 0.  1.
    10030    2    1    2    0    0  0.00000000000E+00  0.00000000000E+00  0.81911282169E+02  0.10033370208E+04  0.99998785946E+03 0.  0.
        3    1    3    3  502    0  0.18628683344E+03 -0.33249647734E+03 -0.28375958018E+03  0.47515913261E+03  0.10100000352E+00 0.  1.
       -3    1    3    3    0  502 -0.18628683344E+03  0.33249647734E+03  0.36567086234E+03  0.52817788814E+03  0.10100000352E+00 0. -1.
</event>
<event>
 5   0  0.1293716E-03  0.9988627E+03  0.7818609E-02  0.9309793E-01
        1   -1    0    0  501    0  0.00000000000E+00  0.00000000000E+00  0.76066004834E+03  0.76066004836E+03  0.50400001928E-02 0.  1.
       -1   -1    0    0    0  501  0.00000000000E+00  0.00000000000E+00 -0.32791478837E+03  0.32791478841E+03  0.50400001928E-02 0. -1.
    10030    2    1    2    0    0  0.00000000000E+00  0.00000000000E+00  0.43274525997E+03  0.10885748368E+04  0.99886271090E+03 0.  0.
        3    1    3    3  502    0 -0.20581060863E+03 -0.20562248247E+03  0.65877958436E+03  0.72015912331E+03  0.10100000352E+00 0.  1.
       -3    1    3    3    0  502  0.20581060863E+03  0.20562248247E+03 -0.22603432439E+03  0.36841571346E+03  0.10100000352E+00 0. -1.
</event>
<event>
 5   0  0.1293575E-03  0.1001484E+04  0.7818609E-02  0.9306918E-01
        1   -1    0    0  501    0  0.00000000000E+00  0.00000000000E+00  0.23658832003E+04  0.23658832003E+04  0.50400001928E-02 0. -1.
       -1   -1    0    0    0  501  0.00000000000E+00  0.00000000000E+00 -0.10598268407E+03  0.10598268419E+03  0.50400001928E-02 0.  1.
    10030    2    1    2    0    0  0.00000000000E+00  0.00000000000E+00  0.22599005162E+04  0.24718658845E+04  0.10014842024E+04 0.  0.
        4    1    3    3  502    0 -0.18174215436E+03  0.42431055894E+03  0.16090065554E+04  0.16739096061E+04  0.12699999809E+01 0. -1.
       -4    1    3    3    0  502  0.18174215436E+03 -0.42431055894E+03  0.65089396080E+03  0.79795627838E+03  0.12699999809E+01 0.  1.
</event>
<event>
 5   0  0.2277570E-03  0.9987930E+03  0.7818609E-02  0.9309870E-01
       -2   -1    0    0    0  501  0.00000000000E+00  0.00000000000E+00  0.12652908292E+03  0.12652908295E+03  0.25500000920E-02 0. -1.
        2   -1    0    0  501    0  0.00000000000E+00  0.00000000000E+00 -0.19710634049E+04  0.19710634049E+04  0.25500000920E-02 0.  1.
    10030    2    1    2    0    0  0.00000000000E+00  0.00000000000E+00 -0.18445343220E+04  0.20975924878E+04  0.99879296159E+03 0.  0.
        3    1    3    3  502    0 -0.29898271769E+03  0.32364867102E+02 -0.84954272783E+02  0.31249862202E+03  0.10100000352E+00 0. -1.
       -3    1    3    3    0  502  0.29898271769E+03 -0.32364867102E+02 -0.17595800492E+04  0.17850938658E+04  0.10100000352E+00 0.  1.
</event>
<event>
 5   0  0.2284843E-03  0.9989637E+03  0.7818609E-02  0.9309682E-01
       -2   -1    0    0    0  501  0.00000000000E+00  0.00000000000E+00  0.41809854604E+03  0.41809854604E+03  0.25500000920E-02 0. -1.
        2   -1    0    0  501    0  0.00000000000E+00  0.00000000000E+00 -0.59670652593E+03  0.59670652594E+03  0.25500000920E-02 0.  1.
    10030    2    1    2    0    0  0.00000000000E+00  0.00000000000E+00 -0.17860797989E+03  0.10148050720E+04  0.99896372488E+03 0.  0.
        2    1    3    3  502    0 -0.33919506168E+03  0.64539284538E+02  0.27733978761E+03  0.44287240478E+03  0.25500000920E-02 0. -1.
       -2    1    3    3    0  502  0.33919506168E+03 -0.64539284538E+02 -0.45594776750E+03  0.57193266720E+03  0.25500000920E-02 0.  1.
</event>
<event>
 5   0  0.2255142E-03  0.9826901E+03  0.7818609E-02  0.9327736E-01
       -2   -1    0    0    0  501  0.00000000000E+00  0.00000000000E+00  0.84886943894E+02  0.84886943932E+02  0.25500000920E-02 0. -1.
        2   -1    0    0  501    0  0.00000000000E+00  0.00000000000E+00 -0.28440172988E+04  0.28440172988E+04  0.25500000920E-02 0.  1.
    10030    2    1    2    0    0  0.00000000000E+00  0.00000000000E+00 -0.27591303549E+04  0.29289042427E+04  0.98269005679E+03 0.  0.
        4    1    3    3  502    0  0.11410635289E+03  0.12168634174E+03 -0.27570270165E+04  0.27620694068E+04  0.12699999809E+01 0.  1.
       -4    1    3    3    0  502 -0.11410635289E+03 -0.12168634174E+03 -0.21033383920E+01  0.16683483589E+03  0.12699999809E+01 0. -1.
</event>
<event>
 5   0  0.1249195E-03  0.9976484E+03  0.7818609E-02  0.9311128E-01
       -1   -1    0    0    0  501  0.00000000000E+00  0.00000000000E+00  0.28407128664E+03  0.28407128669E+03  0.50400001928E-02 0. -1.
        1   -1    0    0  501    0  0.00000000000E+00  0.00000000000E+00 -0.87592648714E+03  0.87592648715E+03  0.50400001928E-02 0.  1.
    10030    2    1    2    0    0  0.00000000000E+00  0.00000000000E+00 -0.59185520049E+03  0.11599977738E+04  0.99764836338E+03 0.  0.
        2    1    3    3  502    0 -0.25441860185E+03 -0.25062130428E+03  0.10900660424E+03  0.37339296043E+03  0.25500000920E-02 0. -1.
       -2    1    3    3    0  502  0.25441860185E+03  0.25062130428E+03 -0.70086180473E+03  0.78660481340E+03  0.25500000920E-02 0.  1.
</event>
<event>
 5   0  0.8680125E-04  0.1008076E+04  0.7818609E-02  0.9299732E-01
       -3   -1    0    0    0  501  0.00000000000E+00  0.00000000000E+00  0.33817803509E+03  0.33817805017E+03  0.10100000352E+00 0. -1.
        3   -1    0    0  501    0  0.00000000000E+00  0.00000000000E+00 -0.75124385005E+03  0.75124385684E+03  0.10100000352E+00 0.  1.
    10030    2    1    2    0    0  0.00000000000E+00  0.00000000000E+00 -0.41306581497E+03  0.10894219070E+04  0.10080757531E+04 0.  0.
        2    1    3    3  502    0 -0.13437299157E+03  0.48204163130E+03 -0.27167956817E+03  0.56941199753E+03  0.25500000920E-02 0.  1.
       -2    1    3    3    0  502  0.13437299157E+03 -0.48204163130E+03 -0.14138624680E+03  0.52000990948E+03  0.25500000920E-02 0. -1.
</event>
<event>
 5   0  0.2277570E-03  0.1000964E+04  0.7818609E-02  0.9307488E-01
        2   -1    0    0  501    0  0.00000000000E+00  0.00000000000E+00  0.27358774905E+04  0.27358774905E+04  0.25500000920E-02 0. -1.
       -2   -1    0    0    0  501  0.00000000000E+00  0.00000000000E+00 -0.91554590239E+02  0.91554590275E+02  0.25500000920E-02 0.  1.
    10030    2    1    2    0    0  0.00000000000E+00  0.00000000000E+00  0.26443229003E+04  0.28274320808E+04  0.10009638208E+04 0.  0.
        3    1    3    3  502    0 -0.16523749601E+03 -0.45978990864E+03  0.10156844680E+04  0.11270870147E+04  0.10100000352E+00 0.  1.
       -3    1    3    3    0  502  0.16523749601E+03  0.45978990864E+03  0.16286384324E+04  0.17003450661E+04  0.10100000352E+00 0. -1.
</event>
<event>
 5   0  0.2284843E-03  0.9992985E+03  0.7818609E-02  0.9309315E-01
       -2   -1    0    0    0  501  0.00000000000E+00  0.00000000000E+00  0.20172164831E+03  0.20172164832E+03  0.25500000920E-02 0.  1.
        2   -1    0    0  501    0  0.00000000000E+00  0.00000000000E+00 -0.12375932699E+04  0.12375932699E+04  0.25500000920E-02 0. -1.
    10030    2    1    2    0    0  0.00000000000E+00  0.00000000000E+00 -0.10358716216E+04  0.14393149182E+04  0.99929846262E+03 0.  0.
        2    1    3    3  502    0  0.27199232305E+03  0.81206933103E+02  0.74307630725E+02  0.29342122243E+03  0.25500000920E-02 0.  1.
       -2    1    3    3    0  502 -0.27199232305E+03 -0.81206933103E+02 -0.11101792523E+04  0.11458936958E+04  0.25500000920E-02 0. -1.
</event>
<event>
 5   0  0.1353789E-03  0.1009456E+04  0.7818609E-02  0.9298234E-01
        1   -1    0    0  501    0  0.00000000000E+00  0.00000000000E+00  0.69499954415E+03  0.69499954417E+03  0.50400001928E-02 0. -1.
       -1   -1    0    0    0  501  0.00000000000E+00  0.00000000000E+00 -0.36654721134E+03  0.36654721138E+03  0.50400001928E-02 0.  1.
    10030    2    1    2    0    0  0.00000000000E+00  0.00000000000E+00  0.32845233280E+03  0.10615467555E+04  0.10094555856E+04 0.  0.
        1    1    3    3  502    0 -0.31822224939E+03  0.39173052202E+03  0.17016962365E+03  0.53261233813E+03  0.50400001928E-02 0. -1.
       -1    1    3    3    0  502  0.31822224939E+03 -0.39173052202E+03  0.15828270915E+03  0.52893441742E+03  0.50400001928E-02 0.  1.
</event>
<event>
 5   0  0.1293716E-03  0.1003398E+04  0.7818609E-02  0.9304826E-01
        1   -1    0    0  501    0  0.00000000000E+00  0.00000000000E+00  0.10847487221E+04  0.10847487221E+04  0.50400001928E-02 0.  1.
       -1   -1    0    0    0  501  0.00000000000E+00  0.00000000000E+00 -0.23203693437E+03  0.23203693442E+03  0.50400001928E-02 0. -1.
    10030    2    1    2    0    0  0.00000000000E+00  0.00000000000E+00  0.85271178769E+03  0.13167856565E+04  0.10033977637E+04 0.  0.
        3    1    3    3  502    0 -0.12995258478E+03  0.43132516148E+03  0.13653458926E+03  0.47071304792E+03  0.10100000352E+00 0. -1.
       -3    1    3    3    0  502  0.12995258478E+03 -0.43132516148E+03  0.71617719843E+03  0.84607260857E+03  0.10100000352E+00 0.  1.
</event>
<event>
 5   0  0.1293575E-03  0.9995999E+03  0.7818609E-02  0.9308984E-01
        1   -1    0    0  501    0  0.00000000000E+00  0.00000000000E+00  0.19348626143E+04  0.19348626143E+04  0.50400001928E-02 0.  1.
       -1   -1    0    0    0  501  0.00000000000E+00  0.00000000000E+00 -0.12910477252E+03  0.12910477262E+03  0.50400001928E-02 0. -1.
    10030    2    1    2    0    0  0.00000000000E+00  0.00000000000E+00  0.18057578417E+04  0.20639673869E+04  0.99959991552E+03 0.  0.
        4    1    3    3  502    0  0.10558745040E+03 -0.65164825817E+02  0.19025529445E+04  0.19065949973E+04  0.12699999809E+01 0.  1.
       -4    1    3    3    0  502 -0.10558745040E+03  0.65164825817E+02 -0.96795102716E+02  0.15737238962E+03  0.12699999809E+01 0. -1.
</event>
<event>
 5   0  0.8680125E-04  0.9978016E+03  0.7818609E-02  0.9310959E-01
       -3   -1    0    0    0  501  0.00000000000E+00  0.00000000000E+00  0.20999830833E+03  0.20999833262E+03  0.10100000352E+00 0. -1.
        3   -1    0    0  501    0  0.00000000000E+00  0.00000000000E+00 -0.11852570143E+04  0.11852570186E+04  0.10100000352E+00 0.  1.
    10030    2    1    2    0    0  0.00000000000E+00  0.00000000000E+00 -0.97525870593E+03  0.13952553512E+04  0.99780155920E+03 0.  0.
        1    1    3    3  502    0  0.18798103808E+03 -0.30634105101E+03 -0.37987036243E+01  0.35943864621E+03  0.50400001928E-02 0. -1.
       -1    1    3    3    0  502 -0.18798103808E+03  0.30634105101E+03 -0.97146000230E+03  0.10358167050E+04  0.50400001928E-02 0.  1.
</event>
<event>
 5   0  0.1353789E-03  0.9775055E+03  0.7818609E-02  0.9333566E-01
       -1   -1    0    0    0  501  0.00000000000E+00  0.00000000000E+00  0.92967369623E+03  0.92967369624E+03  0.50400001928E-02 0.  1.
        1   -1    0    0  501    0  0.00000000000E+00  0.00000000000E+00 -0.25694956256E+03  0.25694956261E+03  0.50400001928E-02 0. -1.
    10030    2    1    2    0    0  0.00000000000E+00  0.00000000000E+00  0.67272413367E+03  0.11866232588E+04  0.97750549789E+03 0.  0.
        1    1    3    3  502    0  0.40949658219E+03  0.15248735761E+03  0.60215287979E+03  0.74399458043E+03  0.50400001928E-02 0.  1.
       -1    1    3    3    0  502 -0.40949658219E+03 -0.15248735761E+03  0.70571253881E+02  0.44262867841E+03  0.50400001928E-02 0. -1.
</event>
<event>
 5   0  0.2277570E-03  0.9980809E+03  0.7818609E-02  0.9310652E-01
        2   -1    0    0  501    0  0.00000000000E+00  0.00000000000E+00  0.40031867033E+03  0.40031867034E+03  0.25500000920E-02 0.  1.
       -2   -1    0    0    0  501  0.00000000000E+00  0.00000000000E+00 -0.62210776677E+03  0.62210776677E+03  0.25500000920E-02 0. -1.
    10030    2    1    2    0    0  0.00000000000E+00  0.00000000000E+00 -0.22178909644E+03  0.10224264371E+04  0.99808086647E+03 0.  0.
        3    1    3    3  502    0 -0.35221580627E+03 -0.34233429382E+03 -0.20132351261E+03  0.53082945458E+03  0.10100000352E+00 0. -1.
       -3    1    3    3    0  502  0.35221580627E+03  0.34233429382E+03 -0.20465583830E+02  0.49159698253E+03  0.10100000352E+00 0.  1.
</event>
<event>
 5   0  0.1249195E-03  0.1014398E+04  0.7818609E-02  0.9292893E-01
       -1   -1    0    0    0  501  0.00000000000E+00  0.00000000000E+00  0.79912011880E+03  0.79912011881E+03  0.50400001928E-02 0. -1.
        1   -1    0    0  501    0  0.00000000000E+00  0.00000000000E+00 -0.32191734546E+03  0.32191734550E+03  0.50400001928E-02 0.  1.
    10030    2    1    2    0    0  0.00000000000E+00  0.00000000000E+00  0.47720277334E+03  0.11210374643E+04  0.10143976092E+04 0.  0.
        2    1    3    3  502    0  0.48323805956E+03 -0.67112345620E+02  0.39184195410E+03  0.62575011478E+03  0.25500000920E-02 0. -1.
       -2    1    3    3    0  502 -0.48323805956E+03  0.67112345620E+02  0.85360819233E+02  0.49528734954E+03  0.25500000920E-02 0.  1.
</event>
<event>
 5   0  0.2204862E-03  0.9999556E+03  0.7818609E-02  0.9308594E-01
       -2   -1    0    0    0  501  0.00000000000E+00  0.00000000000E+00  0.38050374745E+03  0.38050374746E+03  0.25500000920E-02 0.  1.
        2   -1    0    0  501    0  0.00000000000E+00  0.00000000000E+00 -0.65696539144E+03  0.65696539144E+03  0.25500000920E-02 0. -1.
    10030    2    1    2    0    0  0.00000000000E+00  0.00000000000E+00 -0.27646164399E+03  0.10374691389E+04  0.99995558580E+03 0.  0.
        1    1    3    3  502    0  0.10161903486E+03  0.20613685918E+03  0.32245276092E+03  0.39597299909E+03  0.50400001928E-02 0.  1.
       -1    1    3    3    0  502 -0.10161903486E+03 -0.20613685918E+03 -0.59891440491E+03  0.64149613981E+03  0.50400001928E-02 0. -1.
</event>
<event>
 5   0  0.1249195E-03  0.1005265E+04  0.7818609E-02  0.9302789E-01
        1   -1    0    0  501    0  0.00000000000E+00  0.00000000000E+00  0.63622935064E+03  0.63622935066E+03  0.50400001928E-02 0.  1.
       -1   -1    0    0    0  501  0.00000000000E+00  0.00000000000E+00 -0.39708866386E+03  0.39708866389E+03  0.50400001928E-02 0. -1.
    10030    2    1    2    0    0  0.00000000000E+00  0.00000000000E+00  0.23914068678E+03  0.10333180146E+04  0.10052650651E+04 0.  0.
        2    1    3    3  502    0  0.23171826014E+03 -0.43310091713E+03  0.22917475458E+03  0.54202474541E+03  0.25500000920E-02 0.  1.
       -2    1    3    3    0  502 -0.23171826014E+03  0.43310091713E+03  0.99659322062E+01  0.49129326915E+03  0.25500000920E-02 0. -1.
</event>
<event>
 5   0  0.1293716E-03  0.1005796E+04  0.7818609E-02  0.9302211E-01
        1   -1    0    0  501    0  0.00000000000E+00  0.00000000000E+00  0.23278342648E+03  0.23278342654E+03  0.50400001928E-02 0. -1.
       -1   -1    0    0    0  501  0.00000000000E+00  0.00000000000E+00 -0.10864451031E+04  0.10864451031E+04  0.50400001928E-02 0.  1.
    10030    2    1    2    0    0  0.00000000000E+00  0.00000000000E+00 -0.85366167665E+03  0.13192285297E+04  0.10057960307E+04 0.  0.
        3    1    3    3  502    0  0.21305726777E+03  0.27442910688E+03 -0.90373222738E+03  0.96821313927E+03  0.10100000352E+00 0.  1.
       -3    1    3    3    0  502 -0.21305726777E+03 -0.27442910688E+03  0.50070550724E+02  0.35101539041E+03  0.10100000352E+00 0. -1.
</event>
<event>
 5   0  0.2204862E-03  0.1004455E+04  0.7818609E-02  0.9303672E-01
       -2   -1    0    0    0  501  0.00000000000E+00  0.00000000000E+00  0.42052910163E+03  0.42052910164E+03  0.25500000920E-02 0. -1.
        2   -1    0    0  501    0  0.00000000000E+00  0.00000000000E+00 -0.59979756183E+03  0.59979756184E+03  0.25500000920E-02 0.  1.
    10030    2    1    2    0    0  0.00000000000E+00  0.00000000000E+00 -0.17926846020E+03  0.10203266635E+04  0.10044547373E+04 0.  0.
        1    1    3    3  502    0  0.38178764223E+03  0.35954826072E+02  0.23980161909E+03  0.45228240053E+03  0.50400001928E-02 0. -1.
       -1    1    3    3    0  502 -0.38178764223E+03 -0.35954826072E+02 -0.41907007929E+03  0.56804426295E+03  0.50400001928E-02 0.  1.
</event>
<event>
 5   0  0.1293575E-03  0.1002174E+04  0.7818609E-02  0.9306164E-01
       -1   -1    0    0    0  501  0.00000000000E+00  0.00000000000E+00  0.74843881655E+03  0.74843881656E+03  0.50400001928E-02 0.  1.
        1   -1    0    0  501    0  0.00000000000E+00  0.00000000000E+00 -0.33548239426E+03  0.33548239430E+03  0.50400001928E-02 0. -1.
    10030    2    1    2    0    0  0.00000000000E+00  0.00000000000E+00  0.41295642228E+03  0.10839212109E+04  0.10021737298E+04 0.  0.
        4    1    3    3  502    0  0.18136714988E+03  0.53155259483E+02 -0.29545298365E+03  0.35073295129E+03  0.12699999809E+01 0. -1.
       -4    1    3    3    0  502 -0.18136714988E+03 -0.53155259483E+02  0.70840940594E+03  0.73318825958E+03  0.12699999809E+01 0.  1.
</event>
<event>
 5   0  0.2284843E-03  0.9998355E+03  0.7818609E-02  0.9308725E-01
        2   -1    0    0  501    0  0.00000000000E+00  0.00000000000E+00  0.19886754780E+03  0.19886754782E+03  0.25500000920E-02 0. -1.
       -2   -1    0    0    0  501  0.00000000000E+00  0.00000000000E+00 -0.12567045056E+04  0.12567045056E+04  0.25500000920E-02 0.  1.
    10030    2    1    2    0    0  0.00000000000E+00  0.00000000000E+00 -0.10578369578E+04  0.14555720534E+04  0.99983547316E+03 0.  0.
        2    1    3    3  502    0  0.38804147261E+02 -0.40947274721E+03 -0.94259458265E+03  0.10284251260E+04  0.25500000920E-02 0.  1.
       -2    1    3    3    0  502 -0.38804147261E+02  0.40947274721E+03 -0.11524237514E+03  0.42714692740E+03  0.25500000920E-02 0. -1.
</event>
<event>
 5   0  0.1293716E-03  0.9966857E+03  0.7818609E-02  0.9312187E-01
       -1   -1    0    0    0  501  0.00000000000E+00  0.00000000000E+00  0.18420905023E+03  0.18420905030E+03  0.50400001928E-02 0.  1.
        1   -1    0    0  501    0  0.00000000000E+00  0.00000000000E+00 -0.13481727390E+04  0.13481727390E+04  0.50400001928E-02 0. -1.
    10030    2    1    2    0    0  0.00000000000E+00  0.00000000000E+00 -0.11639636887E+04  0.15323817893E+04  0.99668574756E+03 0.  0.
        3    1    3    3  502    0 -0.35303032322E+03  0.10898315537E+02 -0.11225017506E+04  0.11767579924E+04  0.10100000352E+00 0. -1.
       -3    1    3    3    0  502  0.35303032322E+03 -0.10898315537E+02 -0.41461938155E+02  0.35562379688E+03  0.10100000352E+00 0.  1.
</event>
<event>
 5   0  0.2277570E-03  0.1020583E+04  0.7818609E-02  0.9286254E-01
       -2   -1    0    0    0  501  0.00000000000E+00  0.00000000000E+00  0.37372919327E+03  0.37372919328E+03  0.25500000920E-02 0.  1.
        2   -1    0    0  501    0  0.00000000000E+00  0.00000000000E+00 -0.69675370533E+03  0.69675370533E+03  0.25500000920E-02 0. -1.
    10030    2    1    2    0    0  0.00000000000E+00  0.00000000000E+00 -0.32302451206E+03  0.10704828986E+04  0.10205825791E+04 0.  0.
        3    1    3    3  502    0 -0.31886743012E+03  0.55251155069E+02  0.25232667345E+03  0.41036311782E+03  0.10100000352E+00 0.  1.
       -3    1    3    3    0  502  0.31886743012E+03 -0.55251155069E+02 -0.57535118551E+03  0.66011978079E+03  0.10100000352E+00 0. -1.
</event>
<event>
 5   0  0.1249195E-03  0.9944346E+03  0.7818609E-02  0.9314670E-01
        1   -1    0    0  501    0  0.00000000000E+00  0.00000000000E+00  0.53527465313E+03  0.53527465315E+03  0.50400001928E-02 0. -1.
       -1   -1    0    0    0  501  0.00000000000E+00  0.00000000000E+00 -0.46186576642E+03  0.46186576645E+03  0.50400001928E-02 0.  1.
    10030    2    1    2    0    0  0.00000000000E+00  0.00000000000E+00  0.73408886713E+02  0.99714041960E+03  0.99443458898E+03 0.  0.
        2    1    3    3  502    0  0.13338694723E+03 -0.29691803409E+03 -0.34018079856E+03  0.47082414166E+03  0.25500000920E-02 0.  1.
       -2    1    3    3    0  502 -0.13338694723E+03  0.29691803409E+03  0.41358968527E+03  0.52631627794E+03  0.25500000920E-02 0. -1.
</event>
<event>
 5   0  0.2284843E-03  0.9991211E+03  0.7818609E-02  0.9309509E-01
       -2   -1    0    0    0  501  0.00000000000E+00  0.00000000000E+00  0.25054721195E+03  0.25054721196E+03  0.25500000920E-02 0. -1.
        2   -1    0    0  501    0  0.00000000000E+00  0.00000000000E+00 -0.99606266123E+03  0.99606266124E+03  0.25500000920E-02 0.  1.
    10030    2    1    2    0    0  0.00000000000E+00  0.00000000000E+00 -0.74551544929E+03  0.12466098732E+04  0.99912105915E+03 0.  0.
        2    1    3    3  502    0 -0.20180732880E+03 -0.98223351799E+02  0.18409790577E+03  0.29028617554E+03  0.25500000920E-02 0. -1.
       -2    1    3    3    0  502  0.20180732880E+03  0.98223351799E+02 -0.92961335505E+03  0.95632369766E+03  0.25500000920E-02 0.  1.
</event>
<event>
 5   0  0.2204862E-03  0.1006945E+04  0.7818609E-02  0.9300961E-01
        2   -1    0    0  501    0  0.00000000000E+00  0.00000000000E+00  0.73318029948E+03  0.73318029949E+03  0.25500000920E-02 0.  1.
       -2   -1    0    0    0  501  0.00000000000E+00  0.00000000000E+00 -0.34573266031E+03  0.34573266032E+03  0.25500000920E-02 0. -1.
    10030    2    1    2    0    0  0.00000000000E+00  0.00000000000E+00  0.38744763917E+03  0.10789129598E+04  0.10069446369E+04 0.  0.
        1    1    3    3  502    0  0.40652495001E+03  0.23686378990E+03  0.38574578419E+03  0.60841334633E+03  0.50400001928E-02 0.  1.
       -1    1    3    3    0  502 -0.40652495001E+03 -0.23686378990E+03  0.17018549803E+01  0.47049961348E+03  0.50400001928E-02 0. -1.
</event>
<event>
 5   0  0.1293716E-03  0.1002646E+04  0.7818609E-02  0.9305647E-01
        1   -1    0    0  501    0  0.00000000000E+00  0.00000000000E+00  0.68815570060E+03  0.68815570061E+03  0.50400001928E-02 0.  1.
       -1   -1    0    0    0  501  0.00000000000E+00  0.00000000000E+00 -0.36521516825E+03  0.36521516828E+03  0.50400001928E-02 0. -1.
    10030    2    1    2    0    0  0.00000000000E+00  0.00000000000E+00  0.32294053235E+03  0.10533708689E+04  0.10026462986E+04 0.  0.
        3    1    3    3  502    0  0.79159534976E+02  0.49450613400E+03  0.13745924031E+03  0.51932417764E+03  0.10100000352E+00 0.  1.
       -3    1    3    3    0  502 -0.79159534976E+02 -0.49450613400E+03  0.18548129204E+03  0.53404669125E+03  0.10100000352E+00 0. -1.
</event>
<event>
 5   0  0.1249195E-03  0.9971810E+03  0.7818609E-02  0.9311642E-01
       -1   -1    0    0    0  501  0.00000000000E+00  0.00000000000E+00  0.19079880648E+03  0.19079880655E+03  0.50400001928E-02 0. -1.
        1   -1    0    0  501    0  0.00000000000E+00  0.00000000000E+00 -0.13029036878E+04  0.13029036878E+04  0.50400001928E-02 0.  1.
    10030    2    1    2    0    0  0.00000000000E+00  0.00000000000E+00 -0.11121048814E+04  0.14937024944E+04  0.99718096384E+03 0.  0.
        2    1    3    3  502    0 -0.37130659869E+03 -0.24222897844E+03 -0.89779284094E+03  0.10012868987E+04  0.25500000920E-02 0.  1.
       -2    1    3    3    0  502  0.37130659869E+03  0.24222897844E+03 -0.21431204042E+03  0.49241559572E+03  0.25500000920E-02 0. -1.
</event>
<event>
 5   0  0.2284843E-03  0.1009055E+04  0.7818609E-02  0.9298669E-01
        2   -1    0    0  501    0  0.00000000000E+00  0.00000000000E+00  0.12984369733E+04  0.12984369733E+04  0.25500000920E-02 0.  1.
       -2   -1    0    0    0  501  0.00000000000E+00  0.00000000000E+00 -0.19604166960E+03  0.19604166962E+03  0.25500000920E-02 0. -1.
    10030    2    1    2    0    0  0.00000000000E+00  0.00000000000E+00  0.11023953037E+04  0.14944786429E+04  0.10090545122E+04 0.  0.
        2    1    3    3  502    0  0.10369054936E+03 -0.89556867368E+02  0.12703559634E+04  0.12777231454E+04  0.25500000920E-02 0.  1.
       -2    1    3    3    0  502 -0.10369054936E+03  0.89556867368E+02 -0.16796065967E+03  0.21675549756E+03  0.25500000920E-02 0. -1.
</event>
<event>
 5   0  0.2255142E-03  0.9977217E+03  0.7818609E-02  0.9311047E-01
        2   -1    0    0  501    0  0.00000000000E+00  0.00000000000E+00  0.70843204481E+03  0.70843204482E+03  0.25500000920E-02 0.  1.
       -2   -1    0    0    0  501  0.00000000000E+00  0.00000000000E+00 -0.35128584743E+03  0.35128584743E+03  0.25500000920E-02 0. -1.
    10030    2    1    2    0    0  0.00000000000E+00  0.00000000000E+00  0.35714619739E+03  0.10597178923E+04  0.99772170712E+03 0.  0.
        4    1    3    3  502    0  0.45242877999E+03 -0.11036615974E+03 -0.11392393111E+02  0.46583676293E+03  0.12699999809E+01 0. -1.
       -4    1    3    3    0  502 -0.45242877999E+03  0.11036615974E+03  0.36853859050E+03  0.59388112932E+03  0.12699999809E+01 0.  1.
</event>
<event>
 5   0  0.2277570E-03  0.1000451E+04  0.7818609E-02  0.9308051E-01
       -2   -1    0    0    0  501  0.00000000000E+00  0.00000000000E+00  0.15013127180E+03  0.15013127182E+03  0.25500000920E-02 0.  1.
        2   -1    0    0  501    0  0.00000000000E+00  0.00000000000E+00 -0.16667107125E+04  0.16667107125E+04  0.25500000920E-02 0. -1.
    10030    2    1    2    0    0  0.00000000000E+00  0.00000000000E+00 -0.15165794407E+04  0.18168419844E+04  0.10004506965E+04 0.  0.
        3    1    3    3  502    0 -0.24949497486E+03  0.16130755188E+03 -0.14891292431E+04  0.15184774551E+04  0.10100000352E+00 0. -1.
       -3    1    3    3    0  502  0.24949497486E+03 -0.16130755188E+03 -0.27450197653E+02  0.29836452927E+03  0.10100000352E+00 0.  1.
</event>
<event>
 5   0  0.2264577E-03  0.1000065E+04  0.7818609E-02  0.9308473E-01
       -2   -1    0    0    0  501  0.00000000000E+00  0.00000000000E+00  0.25242237362E+03  0.25242237363E+03  0.25500000920E-02 0. -1.
        2   -1    0    0  501    0  0.00000000000E+00  0.00000000000E+00 -0.99053244424E+03  0.99053244424E+03  0.25500000920E-02 0.  1.
    10030    2    1    2    0    0  0.00000000000E+00  0.00000000000E+00 -0.73811007062E+03  0.12429548179E+04  0.10000650993E+04 0.  0.
        5    1    3    3  502    0 -0.29046135088E+02  0.45320988260E+03 -0.62907300511E+03  0.77588517927E+03  0.46999998093E+01 0.  1.
       -5    1    3    3    0  502  0.29046135088E+02 -0.45320988260E+03 -0.10903706551E+03  0.46706963860E+03  0.46999998093E+01 0. -1.
</event>
<event>
 5   0  0.1293575E-03  0.1001846E+04  0.7818609E-02  0.9306522E-01
        1   -1    0    0  501    0  0.00000000000E+00  0.00000000000E+00  0.11068372485E+04  0.11068372485E+04  0.50400001928E-02 0.  1.
       -1   -1    0    0    0  501  0.00000000000E+00  0.00000000000E+00 -0.22670348287E+03  0.22670348293E+03  0.50400001928E-02 0. -1.
    10030    2    1    2    0    0  0.00000000000E+00  0.00000000000E+00  0.88013376563E+03  0.13335407314E+04  0.10018460146E+04 0.  0.
        4    1    3    3  502    0 -0.74405331646E+02  0.42237069966E+03  0.78458124647E+03  0.89414904044E+03  0.12699999809E+01 0.  1.
       -4    1    3    3    0  502  0.74405331646E+02 -0.42237069966E+03  0.95552519168E+02  0.43939169101E+03  0.12699999809E+01 0. -1.
</event>
<event>
 5   0  0.1293716E-03  0.1003090E+04  0.7818609E-02  0.9305163E-01
        1   -1    0    0  501    0  0.00000000000E+00  0.00000000000E+00  0.62406063638E+03  0.62406063641E+03  0.50400001928E-02 0. -1.
       -1   -1    0    0    0  501  0.00000000000E+00  0.00000000000E+00 -0.40308130183E+03  0.40308130187E+03  0.50400001928E-02 0.  1.
    10030    2    1    2    0    0  0.00000000000E+00  0.00000000000E+00  0.22097933455E+03  0.10271419383E+04  0.10030895748E+04 0.  0.
        3    1    3    3  502    0  0.10454151021E+03  0.32368428175E+03  0.48790133879E+03  0.59476732274E+03  0.10100000352E+00 0. -1.
       -3    1    3    3    0  502 -0.10454151021E+03 -0.32368428175E+03 -0.26692200424E+03  0.43237461553E+03  0.10100000352E+00 0.  1.
</event>
<event>
 5   0  0.1353789E-03  0.1001493E+04  0.7818609E-02  0.9306908E-01
       -1   -1    0    0    0  501  0.00000000000E+00  0.00000000000E+00  0.30598033164E+03  0.30598033168E+03  0.50400001928E-02 0. -1.
        1   -1    0    0  501    0  0.00000000000E+00  0.00000000000E+00 -0.81948824778E+03  0.81948824779E+03  0.50400001928E-02 0.  1.
    10030    2    1    2    0    0  0.00000000000E+00  0.00000000000E+00 -0.51350791614E+03  0.11254685795E+04  0.10014934565E+04 0.  0.
        1    1    3    3  502    0 -0.45733416906E+03  0.96961521556E+02 -0.45838337264E+03  0.65473001702E+03  0.50400001928E-02 0.  1.
       -1    1    3    3    0  502  0.45733416906E+03 -0.96961521556E+02 -0.55124543496E+02  0.47073856244E+03  0.50400001928E-02 0. -1.
</event>
<event>
 5   0  0.2255142E-03  0.9986283E+03  0.7818609E-02  0.9310051E-01
       -2   -1    0    0    0  501  0.00000000000E+00  0.00000000000E+00  0.27731410829E+03  0.27731410830E+03  0.25500000920E-02 0.  1.
        2   -1    0    0  501    0  0.00000000000E+00  0.00000000000E+00 -0.89903322170E+03  0.89903322170E+03  0.25500000920E-02 0. -1.
    10030    2    1    2    0    0  0.00000000000E+00  0.00000000000E+00 -0.62171911341E+03  0.11763473300E+04  0.99862825157E+03 0.  0.
        4    1    3    3  502    0 -0.38415189684E+02  0.49416727325E+03 -0.23982962065E+03  0.55063316336E+03  0.12699999809E+01 0.  1.
       -4    1    3    3    0  502  0.38415189684E+02 -0.49416727325E+03 -0.38188949276E+03  0.62571416664E+03  0.12699999809E+01 0. -1.
</event>
<event>
 5   0  0.2255142E-03  0.1000695E+04  0.7818609E-02  0.9307783E-01
        2   -1    0    0  501    0  0.00000000000E+00  0.00000000000E+00  0.16509983929E+04  0.16509983929E+04  0.25500000920E-02 0.  1.
       -2   -1    0    0    0  501  0.00000000000E+00  0.00000000000E+00 -0.15163396329E+03  0.15163396331E+03  0.25500000920E-02 0. -1.
    10030    2    1    2    0    0  0.00000000000E+00  0.00000000000E+00  0.14993644296E+04  0.18026323562E+04  0.10006946182E+04 0.  0.
        4    1    3    3  502    0  0.35021392436E+03  0.12155924980E+03  0.14435552005E+03  0.39782731567E+03  0.12699999809E+01 0. -1.
       -4    1    3    3    0  502 -0.35021392436E+03 -0.12155924980E+03  0.13550089095E+04  0.14048050405E+04  0.12699999809E+01 0.  1.
</event>
<event>
 5   0  0.1285769E-03  0.9966461E+03  0.7818609E-02  0.9312231E-01
        1   -1    0    0  501    0  0.00000000000E+00  0.00000000000E+00  0.59524810106E+03  0.59524810108E+03  0.50400001928E-02 0. -1.
       -1   -1    0    0    0  501  0.00000000000E+00  0.00000000000E+00 -0.41718043557E+03  0.41718043560E+03  0.50400001928E-02 0.  1.
    10030    2    1    2    0    0  0.00000000000E+00  0.00000000000E+00  0.17806766549E+03  0.10124285367E+04  0.99664609987E+03 0.  0.
        5    1    3    3  502    0  0.21622059107E+03  0.31950621043E+03  0.40941395048E+03  0.56256327231E+03  0.46999998093E+01 0. -1.
       -5    1    3    3    0  502 -0.21622059107E+03 -0.31950621043E+03 -0.23134628499E+03  0.44986526437E+03  0.46999998093E+01 0.  1.
</event>
<event>
 5   0  0.2284843E-03  0.9892986E+03  0.7818609E-02  0.9320360E-01
       -2   -1    0    0    0  501  0.00000000000E+00  0.00000000000E+00  0.33302401274E+03  0.33302401275E+03  0.25500000920E-02 0. -1.
        2   -1    0    0  501    0  0.00000000000E+00  0.00000000000E+00 -0.73471563355E+03  0.73471563355E+03  0.25500000920E-02 0.  1.
    10030    2    1    2    0    0  0.00000000000E+00  0.00000000000E+00 -0.40169162081E+03  0.10677396463E+04  0.98929863746E+03 0.  0.
        2    1    3    3  502    0 -0.97390904640E+01  0.44121013424E+03  0.40289583560E+02  0.44315288896E+03  0.25500000920E-02 0. -1.
       -2    1    3    3    0  502  0.97390904640E+01 -0.44121013424E+03 -0.44198120437E+03  0.62458675735E+03  0.25500000920E-02 0.  1.
</event>
<event>
 5   0  0.1249195E-03  0.9987457E+03  0.7818609E-02  0.9309922E-01
       -1   -1    0    0    0  501  0.00000000000E+00  0.00000000000E+00  0.23559823685E+03  0.23559823691E+03  0.50400001928E-02 0. -1.
        1   -1    0    0  501    0  0.00000000000E+00  0.00000000000E+00 -0.10584681048E+04  0.10584681048E+04  0.50400001928E-02 0.  1.
    10030    2    1    2    0    0  0.00000000000E+00  0.00000000000E+00 -0.82286986795E+03  0.12940663417E+04  0.99874565191E+03 0.  0.
        2    1    3    3  502    0 -0.76019887083E+02  0.48185546059E+03 -0.54983463714E+03  0.73503866316E+03  0.25500000920E-02 0.  1.
       -2    1    3    3    0  502  0.76019887083E+02 -0.48185546059E+03 -0.27303523080E+03  0.55902767856E+03  0.25500000920E-02 0. -1.
</event>
<event>
 5   0  0.1293716E-03  0.1001768E+04  0.7818609E-02  0.9306608E-01
       -1   -1    0    0    0  501  0.00000000000E+00  0.00000000000E+00  0.42115556000E+03  0.42115556003E+03  0.50400001928E-02 0.  1.
        1   -1    0    0  501    0  0.00000000000E+00  0.00000000000E+00 -0.59570593732E+03  0.59570593734E+03  0.50400001928E-02 0. -1.
    10030    2    1    2    0    0  0.00000000000E+00  0.00000000000E+00 -0.17455037732E+03  0.10168614974E+04  0.10017681721E+04 0.  0.
        3    1    3    3  502    0 -0.15315015814E+03 -0.42170804055E+03 -0.31332353143E+03  0.54723330304E+03  0.10100000352E+00 0. -1.
       -3    1    3    3    0  502  0.15315015814E+03  0.42170804055E+03  0.13877315411E+03  0.46962819433E+03  0.10100000352E+00 0.  1.
</event>
<event>
 5   0  0.2264577E-03  0.9967295E+03  0.7818609E-02  0.9312139E-01
        2   -1    0    0  501    0  0.00000000000E+00  0.00000000000E+00  0.65401459739E+03  0.65401459740E+03  0.25500000920E-02 0.  1.
       -2   -1    0    0    0  501  0.00000000000E+00  0.00000000000E+00 -0.37975821385E+03  0.37975821386E+03  0.25500000920E-02 0. -1.
    10030    2    1    2    0    0  0.00000000000E+00  0.00000000000E+00  0.27425638354E+03  0.10337728113E+04  0.99672948255E+03 0.  0.
        5    1    3    3  502    0 -0.36954435305E+03 -0.28313007696E+03  0.32155598582E+03  0.56581446726E+03  0.46999998093E+01 0.  1.
       -5    1    3    3    0  502  0.36954435305E+03  0.28313007696E+03 -0.47299602276E+02  0.46795834400E+03  0.46999998093E+01 0. -1.
</event>
<event>
 5   0  0.2204862E-03  0.9895075E+03  0.7818609E-02  0.9320128E-01
        2   -1    0    0  501    0  0.00000000000E+00  0.00000000000E+00  0.84436748883E+03  0.84436748884E+03  0.25500000920E-02 0. -1.
       -2   -1    0    0    0  501  0.00000000000E+00  0.00000000000E+00 -0.28989897161E+03  0.28989897163E+03  0.25500000920E-02 0.  1.
    10030    2    1    2    0    0  0.00000000000E+00  0.00000000000E+00  0.55446851722E+03  0.11342664605E+04  0.98950748696E+03 0.  0.
        1    1    3    3  502    0 -0.92192650135E+02  0.28817185852E+03 -0.17149080011E+03  0.34778096459E+03  0.50400001928E-02 0.  1.
       -1    1    3    3    0  502  0.92192650135E+02 -0.28817185852E+03  0.72595931733E+03  0.78648549588E+03  0.50400001928E-02 0. -1.
</event>
<event>
 5   0  0.1293575E-03  0.1000719E+04  0.7818609E-02  0.9307757E-01
        1   -1    0    0  501    0  0.00000000000E+00  0.00000000000E+00  0.13140151831E+04  0.13140151831E+04  0.50400001928E-02 0.  1.
       -1   -1    0    0    0  501  0.00000000000E+00  0.00000000000E+00 -0.19053020098E+03  0.19053020105E+03  0.50400001928E-02 0. -1.
    10030    2    1    2    0    0  0.00000000000E+00  0.00000000000E+00  0.11234849821E+04  0.15045453842E+04  0.10007188956E+04 0.  0.
        4    1    3    3  502    0 -0.46129343579E+03  0.42911973422E+02  0.27757220853E+03  0.54007500888E+03  0.12699999809E+01 0. -1.
       -4    1    3    3    0  502  0.46129343579E+03 -0.42911973422E+02  0.84591277359E+03  0.96447037528E+03  0.12699999809E+01 0.  1.
</event>
<event>
 5   0  0.1293575E-03  0.9976144E+03  0.7818609E-02  0.9311165E-01
       -1   -1    0    0    0  501  0.00000000000E+00  0.00000000000E+00  0.64957773028E+03  0.64957773030E+03  0.50400001928E-02 0. -1.
        1   -1    0    0  501    0  0.00000000000E+00  0.00000000000E+00 -0.38303132511E+03  0.38303132514E+03  0.50400001928E-02 0.  1.
    10030    2    1    2    0    0  0.00000000000E+00  0.00000000000E+00  0.26654640517E+03  0.10326090554E+04  0.99761439207E+03 0.  0.
        4    1    3    3  502    0 -0.35358895919E+03 -0.25729771254E+03 -0.11510190993E+03  0.45219169332E+03  0.12699999809E+01 0.  1.
       -4    1    3    3    0  502  0.35358895919E+03  0.25729771254E+03  0.38164831510E+03  0.58041736212E+03  0.12699999809E+01 0. -1.
</event>
<event>
 5   0  0.1293716E-03  0.1000414E+04  0.7818609E-02  0.9308090E-01
       -1   -1    0    0    0  501  0.00000000000E+00  0.00000000000E+00  0.25167925176E+03  0.25167925181E+03  0.50400001928E-02 0. -1.
        1   -1    0    0  501    0  0.00000000000E+00  0.00000000000E+00 -0.99415109366E+03  0.99415109367E+03  0.50400001928E-02 0.  1.
    10030    2    1    2    0    0  0.00000000000E+00  0.00000000000E+00 -0.74247184190E+03  0.12458303455E+04  0.10004143210E+04 0.  0.
        3    1    3    3  502    0 -0.27043194342E+03 -0.39293121154E+03 -0.55877390099E+03  0.73468132932E+03  0.10100000352E+00 0.  1.
       -3    1    3    3    0  502  0.27043194342E+03  0.39293121154E+03 -0.18369794091E+03  0.51114901616E+03  0.10100000352E+00 0. -1.
</event>
<event>
 5   0  0.2255142E-03  0.9991407E+03  0.7818609E-02  0.9309488E-01
       -2   -1    0    0    0  501  0.00000000000E+00  0.00000000000E+00  0.19405234293E+03  0.19405234295E+03  0.25500000920E-02 0. -1.
        2   -1    0    0  501    0  0.00000000000E+00  0.00000000000E+00 -0.12860990911E+04  0.12860990912E+04  0.25500000920E-02 0.  1.
    10030    2    1    2    0    0  0.00000000000E+00  0.00000000000E+00 -0.10920467482E+04  0.14801514341E+04  0.99914071460E+03 0.  0.
        4    1    3    3  502    0  0.27086130534E+03 -0.20530478744E+03 -0.36257164457E+01  0.33989801587E+03  0.12699999809E+01 0. -1.
       -4    1    3    3    0  502 -0.27086130534E+03  0.20530478744E+03 -0.10884210318E+04  0.11402534182E+04  0.12699999809E+01 0.  1.
</event>
<event>
 5   0  0.1285769E-03  0.9976231E+03  0.7818609E-02  0.9311156E-01
       -1   -1    0    0    0  501  0.00000000000E+00  0.00000000000E+00  0.50309062650E+03  0.50309062653E+03  0.50400001928E-02 0.  1.
        1   -1    0    0  501    0  0.00000000000E+00  0.00000000000E+00 -0.49456890830E+03  0.49456890832E+03  0.50400001928E-02 0. -1.
    10030    2    1    2    0    0  0.00000000000E+00  0.00000000000E+00  0.85217182041E+01  0.99765953485E+03  0.99762313917E+03 0.  0.
        5    1    3    3  502    0  0.47252681214E+03 -0.50744350439E+02  0.15570717991E+03  0.50012337795E+03  0.46999998093E+01 0.  1.
       -5    1    3    3    0  502 -0.47252681214E+03  0.50744350439E+02 -0.14718546171E+03  0.49753615691E+03  0.46999998093E+01 0. -1.
</event>
<event>
 5   0  0.2277570E-03  0.1000868E+04  0.7818609E-02  0.9307593E-01
       -2   -1    0    0    0  501  0.00000000000E+00  0.00000000000E+00  0.10752279168E+03  0.10752279171E+03  0.25500000920E-02 0. -1.
        2   -1    0    0  501    0  0.00000000000E+00  0.00000000000E+00 -0.23291269727E+04  0.23291269727E+04  0.25500000920E-02 0.  1.
    10030    2    1    2    0    0  0.00000000000E+00  0.00000000000E+00 -0.22216041810E+04  0.24366497644E+04  0.10008680918E+04 0.  0.
        3    1    3    3  502    0  0.16304704427E+03  0.26151284928E+03 -0.20707040443E+04  0.20935110600E+04  0.10100000352E+00 0.  1.
       -3    1    3    3    0  502 -0.16304704427E+03 -0.26151284928E+03 -0.15090013665E+03  0.34313870436E+03  0.10100000352E+00 0. -1.
</event>
<event>
 5   0  0.2277570E-03  0.1000461E+04  0.7818609E-02  0.9308040E-01
       -2   -1    0    0    0  501  0.00000000000E+00  0.00000000000E+00  0.27863204576E+03  0.27863204577E+03  0.25500000920E-02 0.  1.
        2   -1    0    0  501    0  0.00000000000E+00  0.00000000000E+00 -0.89806771122E+03  0.89806771122E+03  0.25500000920E-02 0. -1.
    10030    2    1    2    0    0  0.00000000000E+00  0.00000000000E+00 -0.61943566546E+03  0.11766997570E+04  0.10004607811E+04 0.  0.
        3    1    3    3  502    0 -0.23097634429E+03  0.27389374445E+03  0.10086499066E+03  0.37221178301E+03  0.10100000352E+00 0.  1.
       -3    1    3    3    0  502  0.23097634429E+03 -0.27389374445E+03 -0.72030065612E+03  0.80448797398E+03  0.10100000352E+00 0. -1.
</event>
<event>
 5   0  0.8680125E-04  0.9973285E+03  0.7818609E-02  0.9311480E-01
        3   -1    0    0  501    0  0.00000000000E+00  0.00000000000E+00  0.14673767894E+04  0.14673767929E+04  0.10100000352E+00 0.  1.
       -3   -1    0    0    0  501  0.00000000000E+00  0.00000000000E+00 -0.16946294813E+03  0.16946297823E+03  0.10100000352E+00 0. -1.
    10030    2    1    2    0    0  0.00000000000E+00  0.00000000000E+00  0.12979138413E+04  0.16368397711E+04  0.99732847994E+03 0.  0.
        2    1    3    3  502    0  0.27102550449E+03  0.38105945549E+03  0.36466535306E+03  0.59299405767E+03  0.25500000920E-02 0. -1.
       -2    1    3    3    0  502 -0.27102550449E+03 -0.38105945549E+03  0.93324848820E+03  0.10438457134E+04  0.25500000920E-02 0.  1.
</event>
<event>
 5   0  0.8680125E-04  0.9999136E+03  0.7818609E-02  0.9308640E-01
       -3   -1    0    0    0  501  0.00000000000E+00  0.00000000000E+00  0.15646849806E+04  0.15646849839E+04  0.10100000352E+00 0. -1.
        3   -1    0    0  501    0  0.00000000000E+00  0.00000000000E+00 -0.15974894965E+03  0.15974898157E+03  0.10100000352E+00 0.  1.
    10030    2    1    2    0    0  0.00000000000E+00  0.00000000000E+00  0.14049360310E+04  0.17244339655E+04  0.99991362131E+03 0.  0.
        5    1    3    3  502    0  0.38072318938E+03  0.18237620657E+03  0.11643327524E+04  0.12385088114E+04  0.46999998093E+01 0. -1.
       -5    1    3    3    0  502 -0.38072318938E+03 -0.18237620657E+03  0.24060327856E+03  0.48592515402E+03  0.46999998093E+01 0.  1.
</event>
<event>
 5   0  0.1285769E-03  0.1002103E+04  0.7818609E-02  0.9306242E-01
       -1   -1    0    0    0  501  0.00000000000E+00  0.00000000000E+00  0.26714049127E+03  0.26714049131E+03  0.50400001928E-02 0.  1.
        1   -1    0    0  501    0  0.00000000000E+00  0.00000000000E+00 -0.93977661683E+03  0.93977661684E+03  0.50400001928E-02 0. -1.
    10030    2    1    2    0    0  0.00000000000E+00  0.00000000000E+00 -0.67263612556E+03  0.12069171082E+04  0.10021025639E+04 0.  0.
        5    1    3    3  502    0 -0.33769114180E+03 -0.13527085284E+03 -0.75125753525E+03  0.83471161795E+03  0.46999998093E+01 0. -1.
       -5    1    3    3    0  502  0.33769114180E+03  0.13527085284E+03  0.78621409684E+02  0.37220549021E+03  0.46999998093E+01 0.  1.
</event>
<event>
 5   0  0.2277570E-03  0.1002931E+04  0.7818609E-02  0.9305336E-01
       -2   -1    0    0    0  501  0.00000000000E+00  0.00000000000E+00  0.33487705950E+03  0.33487705951E+03  0.25500000920E-02 0. -1.
        2   -1    0    0  501    0  0.00000000000E+00  0.00000000000E+00 -0.75092469998E+03  0.75092469998E+03  0.25500000920E-02 0.  1.
    10030    2    1    2    0    0  0.00000000000E+00  0.00000000000E+00 -0.41604764048E+03  0.10858017595E+04  0.10029306166E+04 0.  0.
        3    1    3    3  502    0  0.36522362525E+03  0.24854212291E+03 -0.46491952498E+03  0.64133583886E+03  0.10100000352E+00 0.  1.
       -3    1    3    3    0  502 -0.36522362525E+03 -0.24854212291E+03  0.48871884498E+02  0.44446592063E+03  0.10100000352E+00 0. -1.
</event>
<event>
 5   0  0.8680125E-04  0.9988925E+03  0.7818609E-02  0.9309760E-01
       -3   -1    0    0    0  501  0.00000000000E+00  0.00000000000E+00  0.19298670753E+04  0.19298670780E+04  0.10100000352E+00 0.  1.
        3   -1    0    0  501    0  0.00000000000E+00  0.00000000000E+00 -0.12925580471E+03  0.12925584417E+03  0.10100000352E+00 0. -1.
    10030    2    1    2    0    0  0.00000000000E+00  0.00000000000E+00  0.18006112706E+04  0.20591229221E+04  0.99889251704E+03 0.  0.
        4    1    3    3  502    0  0.54208248775E+02 -0.12665625465E+03 -0.89307923537E+02  0.16418848676E+03  0.12699999809E+01 0. -1.
       -4    1    3    3    0  502 -0.54208248775E+02  0.12665625465E+03  0.18899191941E+04  0.18949344354E+04  0.12699999809E+01 0.  1.
</event>
<event>
 5   0  0.2284843E-03  0.1015372E+04  0.7818609E-02  0.9291843E-01
       -2   -1    0    0    0  501  0.00000000000E+00  0.00000000000E+00  0.22048301185E+03  0.22048301186E+03  0.25500000920E-02 0.  1.
        2   -1    0    0  501    0  0.00000000000E+00  0.00000000000E+00 -0.11690030597E+04  0.11690030597E+04  0.25500000920E-02 0. -1.
    10030    2    1    2    0    0  0.00000000000E+00  0.00000000000E+00 -0.94852004788E+03  0.13894860716E+04  0.10153724745E+04 0.  0.
        2    1    3    3  502    0  0.35960173031E+03  0.16269121570E+03 -0.91122953433E+03  0.99303630364E+03  0.25500000920E-02 0.  1.
       -2    1    3    3    0  502 -0.35960173031E+03 -0.16269121570E+03 -0.37290513555E+02  0.39644976796E+03  0.25500000920E-02 0. -1.
</event>
<event>
 5   0  0.2204862E-03  0.9989475E+03  0.7818609E-02  0.9309700E-01
       -2   -1    0    0    0  501  0.00000000000E+00  0.00000000000E+00  0.35333821068E+03  0.35333821069E+03  0.25500000920E-02 0.  1.
        2   -1    0    0  501    0  0.00000000000E+00  0.00000000000E+00 -0.70604883716E+03  0.70604883716E+03  0.25500000920E-02 0. -1.
    10030    2    1    2    0    0  0.00000000000E+00  0.00000000000E+00 -0.35271062648E+03  0.10593870479E+04  0.99894751170E+03 0.  0.
        1    1    3    3  502    0  0.41898545371E+03 -0.70387418387E+02 -0.45486783604E+03  0.62242103707E+03  0.50400001928E-02 0. -1.
       -1    1    3    3    0  502 -0.41898545371E+03  0.70387418387E+02  0.10215720957E+03  0.43696601079E+03  0.50400001928E-02 0.  1.
</event>
<event>
 5   0  0.1353789E-03  0.1008203E+04  0.7818609E-02  0.9299593E-01
       -1   -1    0    0    0  501  0.00000000000E+00  0.00000000000E+00  0.13259717952E+04  0.13259717952E+04  0.50400001928E-02 0.  1.
        1   -1    0    0  501    0  0.00000000000E+00  0.00000000000E+00 -0.19164696353E+03  0.19164696359E+03  0.50400001928E-02 0. -1.
    10030    2    1    2    0    0  0.00000000000E+00  0.00000000000E+00  0.11343248316E+04  0.15176187588E+04  0.10082032897E+04 0.  0.
        1    1    3    3  502    0  0.21122729130E+02  0.50280612874E+03  0.52306298374E+03  0.72584781998E+03  0.50400001928E-02 0. -1.
       -1    1    3    3    0  502 -0.21122729130E+02 -0.50280612874E+03  0.61126184789E+03  0.79177093878E+03  0.50400001928E-02 0.  1.
</event>
<event>
 5   0  0.2255142E-03  0.9999826E+03  0.7818609E-02  0.9308564E-01
       -2   -1    0    0    0  501  0.00000000000E+00  0.00000000000E+00  0.14085363521E+03  0.14085363523E+03  0.25500000920E-02 0.  1.
        2   -1    0    0  501    0  0.00000000000E+00  0.00000000000E+00 -0.17748303458E+04  0.17748303458E+04  0.25500000920E-02 0. -1.
    10030    2    1    2    0    0  0.00000000000E+00  0.00000000000E+00 -0.16339767106E+04  0.19156839810E+04  0.99998261206E+03 0.  0.
        4    1    3    3  502    0  0.83326700127E+02  0.18384010323E+03 -0.16933095021E+04  0.17052973950E+04  0.12699999809E+01 0. -1.
       -4    1    3    3    0  502 -0.83326700127E+02 -0.18384010323E+03  0.59332791574E+02  0.21038658599E+03  0.12699999809E+01 0.  1.
</event>
<event>
 5   0  0.2255142E-03  0.1005169E+04  0.7818609E-02  0.9302893E-01
        2   -1    0    0  501    0  0.00000000000E+00  0.00000000000E+00  0.71588836797E+03  0.71588836797E+03  0.25500000920E-02 0. -1.
       -2   -1    0    0    0  501  0.00000000000E+00  0.00000000000E+00 -0.35283620214E+03  0.35283620214E+03  0.25500000920E-02 0.  1.
    10030    2    1    2    0    0  0.00000000000E+00  0.00000000000E+00  0.36305216583E+03  0.10687245701E+04  0.10051693050E+04 0.  0.
        4    1    3    3  502    0 -0.15465617120E+03 -0.12136035676E+03 -0.31025913096E+03  0.36729988936E+03  0.12699999809E+01 0.  1.
       -4    1    3    3    0  502  0.15465617120E+03  0.12136035676E+03  0.67331129680E+03  0.70142468076E+03  0.12699999809E+01 0. -1.
</event>
<event>
 5   0  0.2264577E-03  0.1003058E+04  0.7818609E-02  0.9305197E-01
       -2   -1    0    0    0  501  0.00000000000E+00  0.00000000000E+00  0.33593675962E+03  0.33593675962E+03  0.25500000920E-02 0. -1.
        2   -1    0    0  501    0  0.00000000000E+00  0.00000000000E+00 -0.74874639171E+03  0.74874639171E+03  0.25500000920E-02 0.  1.
    10030    2    1    2    0    0  0.00000000000E+00  0.00000000000E+00 -0.41280963209E+03  0.10846831513E+04  0.10030581969E+04 0.  0.
        5    1    3    3  502    0 -0.90425818564E+01 -0.37098008249E+03 -0.57120116473E+03  0.68117607891E+03  0.46999998093E+01 0.  1.
       -5    1    3    3    0  502  0.90425818564E+01  0.37098008249E+03  0.15839153264E+03  0.40350707243E+03  0.46999998093E+01 0. -1.
</event>
<event>
 5   0  0.1293575E-03  0.9996824E+03  0.7818609E-02  0.9308893E-01
        1   -1    0    0  501    0  0.00000000000E+00  0.00000000000E+00  0.78975325560E+03  0.78975325562E+03  0.50400001928E-02 0. -1.
       -1   -1    0    0    0  501  0.00000000000E+00  0.00000000000E+00 -0.31635353426E+03  0.31635353430E+03  0.50400001928E-02 0.  1.
    10030    2    1    2    0    0  0.00000000000E+00  0.00000000000E+00  0.47339972134E+03  0.11061067899E+04  0.99968241684E+03 0.  0.
        4    1    3    3  502    0 -0.12407642913E+03  0.31746607656E+03 -0.16781609180E+03  0.37992568168E+03  0.12699999809E+01 0.  1.
       -4    1    3    3    0  502  0.12407642913E+03 -0.31746607656E+03  0.64121581314E+03  0.72618110824E+03  0.12699999809E+01 0. -1.
</event>
<event>
 5   0  0.1249195E-03  0.1001558E+04  0.7818609E-02  0.9306838E-01
       -1   -1    0    0    0  501  0.00000000000E+00  0.00000000000E+00  0.22592898276E+03  0.22592898282E+03  0.50400001928E-02 0. -1.
        1   -1    0    0  501    0  0.00000000000E+00  0.00000000000E+00 -0.11099924042E+04  0.11099924042E+04  0.50400001928E-02 0.  1.
    10030    2    1    2    0    0  0.00000000000E+00  0.00000000000E+00 -0.88406342142E+03  0.13359213870E+04  0.10015576964E+04 0.  0.
        2    1    3    3  502    0 -0.75455222173E+01  0.45583852474E+03 -0.16565312615E+03  0.48506355640E+03  0.25500000920E-02 0. -1.
       -2    1    3    3    0  502  0.75455222173E+01 -0.45583852474E+03 -0.71841029527E+03  0.85085783061E+03  0.25500000920E-02 0.  1.
</event>
<event>
 5   0  0.2277570E-03  0.1024537E+04  0.7818609E-02  0.9282035E-01
        2   -1    0    0  501    0  0.00000000000E+00  0.00000000000E+00  0.56186131916E+03  0.56186131916E+03  0.25500000920E-02 0. -1.
       -2   -1    0    0    0  501  0.00000000000E+00  0.00000000000E+00 -0.46705298046E+03  0.46705298047E+03  0.25500000920E-02 0.  1.
    10030    2    1    2    0    0  0.00000000000E+00  0.00000000000E+00  0.94808338695E+02  0.10289142996E+04  0.10245369759E+04 0.  0.
        3    1    3    3  502    0  0.11066283324E+03  0.39259308520E+03  0.35863694784E+03  0.54313540095E+03  0.10100000352E+00 0. -1.
       -3    1    3    3    0  502 -0.11066283324E+03 -0.39259308520E+03 -0.26382860914E+03  0.48577889869E+03  0.10100000352E+00 0.  1.
</event>
<event>
 5   0  0.2204862E-03  0.1000031E+04  0.7818609E-02  0.9308511E-01
       -2   -1    0    0    0  501  0.00000000000E+00  0.00000000000E+00  0.28368900380E+03  0.28368900382E+03  0.25500000920E-02 0.  1.
        2   -1    0    0  501    0  0.00000000000E+00  0.00000000000E+00 -0.88130167818E+03  0.88130167818E+03  0.25500000920E-02 0. -1.
    10030    2    1    2    0    0  0.00000000000E+00  0.00000000000E+00 -0.59761267437E+03  0.11649906820E+04  0.10000311898E+04 0.  0.
        1    1    3    3  502    0  0.49780279070E+03  0.14049389010E+02 -0.24657022907E+03  0.55569945262E+03  0.50400001928E-02 0. -1.
       -1    1    3    3    0  502 -0.49780279070E+03 -0.14049389010E+02 -0.35104244530E+03  0.60929122937E+03  0.50400001928E-02 0.  1.
</event>
<event>
 5   0  0.2255142E-03  0.9985209E+03  0.7818609E-02  0.9310169E-01
       -2   -1    0    0    0  501  0.00000000000E+00  0.00000000000E+00  0.48361580173E+03  0.48361580173E+03  0.25500000920E-02 0. -1.
        2   -1    0    0  501    0  0.00000000000E+00  0.00000000000E+00 -0.51541121919E+03  0.51541121920E+03  0.25500000920E-02 0.  1.
    10030    2    1    2    0    0  0.00000000000E+00  0.00000000000E+00 -0.31795417466E+02  0.99902702093E+03  0.99852092616E+03 0.  0.
        4    1    3    3  502    0  0.28227261268E+03 -0.18735547088E+03 -0.38279803808E+03  0.51119062119E+03  0.12699999809E+01 0. -1.
       -4    1    3    3    0  502 -0.28227261268E+03  0.18735547088E+03  0.35100262061E+03  0.48783639974E+03  0.12699999809E+01 0.  1.
</event>
<event>
 5   0  0.1293716E-03  0.1001633E+04  0.7818609E-02  0.9306755E-01
        1   -1    0    0  501    0  0.00000000000E+00  0.00000000000E+00  0.23939663103E+04  0.23939663103E+04  0.50400001928E-02 0.  1.
       -1   -1    0    0    0  501  0.00000000000E+00  0.00000000000E+00 -0.10477062411E+03  0.10477062423E+03  0.50400001928E-02 0. -1.
    10030    2    1    2    0    0  0.00000000000E+00  0.00000000000E+00  0.22891956861E+04  0.24987369345E+04  0.10016333552E+04 0.  0.
        3    1    3    3  502    0 -0.20453240886E+01  0.14525271099E+03 -0.51058155594E+02  0.15397882599E+03  0.10100000352E+00 0. -1.
       -3    1    3    3    0  502  0.20453240886E+01 -0.14525271099E+03  0.23402538417E+04  0.23447581085E+04  0.10100000352E+00 0.  1.
</event>
<event>
 5   0  0.1353789E-03  0.9986912E+03  0.7818609E-02  0.9309981E-01
       -1   -1    0    0    0  501  0.00000000000E+00  0.00000000000E+00  0.54430709338E+03  0.54430709340E+03  0.50400001928E-02 0. -1.
        1   -1    0    0  501    0  0.00000000000E+00  0.00000000000E+00 -0.45809803897E+03  0.45809803899E+03  0.50400001928E-02 0.  1.
    10030    2    1    2    0    0  0.00000000000E+00  0.00000000000E+00  0.86209054411E+02  0.10024051324E+04  0.99869116767E+03 0.  0.
        1    1    3    3  502    0 -0.40040017940E+03  0.14909463093E+03  0.30251584758E+03  0.52351251246E+03  0.50400001928E-02 0. -1.
       -1    1    3    3    0  502  0.40040017940E+03 -0.14909463093E+03 -0.21630679317E+03  0.47889261994E+03  0.50400001928E-02 0.  1.
</event>
<event>
 5   0  0.1249195E-03  0.1001872E+04  0.7818609E-02  0.9306494E-01
       -1   -1    0    0    0  501  0.00000000000E+00  0.00000000000E+00  0.30838874194E+03  0.30838874199E+03  0.50400001928E-02 0. -1.
        1   -1    0    0  501    0  0.00000000000E+00  0.00000000000E+00 -0.81370375689E+03  0.81370375690E+03  0.50400001928E-02 0.  1.
    10030    2    1    2    0    0  0.00000000000E+00  0.00000000000E+00 -0.50531501494E+03  0.11220924989E+04  0.10018724029E+04 0.  0.
        2    1    3    3  502    0 -0.23562176742E+03  0.81612212907E+02  0.23394010377E+03  0.34191540289E+03  0.25500000920E-02 0. -1.
       -2    1    3    3    0  502  0.23562176742E+03 -0.81612212907E+02 -0.73925511871E+03  0.78017709600E+03  0.25500000920E-02 0.  1.
</event>
<event>
 5   0  0.2204862E-03  0.1022998E+04  0.7818609E-02  0.9283674E-01
        2   -1    0    0  501    0  0.00000000000E+00  0.00000000000E+00  0.79651929884E+03  0.79651929884E+03  0.25500000920E-02 0.  1.
       -2   -1    0    0    0  501  0.00000000000E+00  0.00000000000E+00 -0.32846846900E+03  0.32846846901E+03  0.25500000920E-02 0. -1.
    10030    2    1    2    0    0  0.00000000000E+00  0.00000000000E+00  0.46805082984E+03  0.11249877679E+04  0.10229984841E+04 0.  0.
        1    1    3    3  502    0  0.27290342020E+03 -0.35742250840E+03 -0.34003672795E+02  0.45098046084E+03  0.50400001928E-02 0. -1.
       -1    1    3    3    0  502 -0.27290342020E+03  0.35742250840E+03  0.50205450263E+03  0.67400730702E+03  0.50400001928E-02 0.  1.
</event>
<event>
 5   0  0.2255142E-03  0.9975019E+03  0.7818609E-02  0.9311289E-01
       -2   -1    0    0    0  501  0.00000000000E+00  0.00000000000E+00  0.19588516411E+03  0.19588516413E+03  0.25500000920E-02 0. -1.
        2   -1    0    0  501    0  0.00000000000E+00  0.00000000000E+00 -0.12698895105E+04  0.12698895105E+04  0.25500000920E-02 0.  1.
    10030    2    1    2    0    0  0.00000000000E+00  0.00000000000E+00 -0.10740043464E+04  0.14657746746E+04  0.99750191013E+03 0.  0.
        4    1    3    3  502    0  0.74952785843E+02 -0.44422025417E+03 -0.22252247963E+03  0.50246136286E+03  0.12699999809E+01 0. -1.
       -4    1    3    3    0  502 -0.74952785843E+02  0.44422025417E+03 -0.85148186675E+03  0.96331331176E+03  0.12699999809E+01 0.  1.
</event>
<event>
 5   0  0.1285769E-03  0.9963846E+03  0.7818609E-02  0.9312519E-01
       -1   -1    0    0    0  501  0.00000000000E+00  0.00000000000E+00  0.33965512989E+03  0.33965512992E+03  0.50400001928E-02 0. -1.
        1   -1    0    0  501    0  0.00000000000E+00  0.00000000000E+00 -0.73072810806E+03  0.73072810808E+03  0.50400001928E-02 0.  1.
    10030    2    1    2    0    0  0.00000000000E+00  0.00000000000E+00 -0.39107297817E+03  0.10703832380E+04  0.99638456528E+03 0.  0.
        5    1    3    3  502    0 -0.11864430736E+03  0.44219743332E+03  0.15409812772E+02  0.45812071993E+03  0.46999998093E+01 0. -1.
       -5    1    3    3    0  502  0.11864430736E+03 -0.44219743332E+03 -0.40648279094E+03  0.61226251807E+03  0.46999998093E+01 0.  1.
</event>
<event>
 5   0  0.2204862E-03  0.9941903E+03  0.7818609E-02  0.9314940E-01
        2   -1    0    0  501    0  0.00000000000E+00  0.00000000000E+00  0.86567258225E+03  0.86567258225E+03  0.25500000920E-02 0. -1.
       -2   -1    0    0    0  501  0.00000000000E+00  0.00000000000E+00 -0.28544695885E+03  0.28544695886E+03  0.25500000920E-02 0.  1.
    10030    2    1    2    0    0  0.00000000000E+00  0.00000000000E+00  0.58022562340E+03  0.11511195411E+04  0.99419033585E+03 0.  0.
        1    1    3    3  502    0  0.21110545181E+01 -0.49549066055E+03  0.24397071857E+03  0.55230169544E+03  0.50400001928E-02 0. -1.
       -1    1    3    3    0  502 -0.21110545181E+01  0.49549066055E+03  0.33625490483E+03  0.59881784567E+03  0.50400001928E-02 0.  1.
</event>
<event>
 5   0  0.1293716E-03  0.1001681E+04  0.7818609E-02  0.9306703E-01
       -1   -1    0    0    0  501  0.00000000000E+00  0.00000000000E+00  0.30704408890E+03  0.30704408894E+03  0.50400001928E-02 0.  1.
        1   -1    0    0  501    0  0.00000000000E+00  0.00000000000E+00 -0.81695555073E+03  0.81695555074E+03  0.50400001928E-02 0. -1.
    10030    2    1    2    0    0  0.00000000000E+00  0.00000000000E+00 -0.50991146183E+03  0.11239996397E+04  0.10016813321E+04 0.  0.
        3    1    3    3  502    0  0.17956102492E+03 -0.24211632428E+03 -0.70377131319E+03  0.76560861256E+03  0.10100000352E+00 0. -1.
       -3    1    3    3    0  502 -0.17956102492E+03  0.24211632428E+03  0.19385985136E+03  0.35839102712E+03  0.10100000352E+00 0.  1.
</event>
<event>
 5   0  0.1285769E-03  0.1002853E+04  0.7818609E-02  0.9305421E-01
       -1   -1    0    0    0  501  0.00000000000E+00  0.00000000000E+00  0.17572282483E+03  0.17572282491E+03  0.50400001928E-02 0. -1.
        1   -1    0    0  501    0  0.00000000000E+00  0.00000000000E+00 -0.14308258257E+04  0.14308258257E+04  0.50400001928E-02 0.  1.
    10030    2    1    2    0    0  0.00000000000E+00  0.00000000000E+00 -0.12551030009E+04  0.16065486506E+04  0.10028534409E+04 0.  0.
        5    1    3    3  502    0  0.30258008765E+03  0.14576811853E+03 -0.12239598119E+04  0.12692134434E+04  0.46999998093E+01 0.  1.
       -5    1    3    3    0  502 -0.30258008765E+03 -0.14576811853E+03 -0.31143189015E+02  0.33733520724E+03  0.46999998093E+01 0. -1.
</event>
<event>
 5   0  0.1285769E-03  0.1003160E+04  0.7818609E-02  0.9305086E-01
        1   -1    0    0  501    0  0.00000000000E+00  0.00000000000E+00  0.18601302308E+04  0.18601302308E+04  0.50400001928E-02 0.  1.
       -1   -1    0    0    0  501  0.00000000000E+00  0.00000000000E+00 -0.13524995391E+03  0.13524995400E+03  0.50400001928E-02 0. -1.
    10030    2    1    2    0    0  0.00000000000E+00  0.00000000000E+00  0.17248802769E+04  0.19953801848E+04  0.10031600631E+04 0.  0.
        5    1    3    3  502    0  0.39953215404E+03  0.13794318642E+03  0.13995183978E+04  0.14619603622E+04  0.46999998093E+01 0.  1.
       -5    1    3    3    0  502 -0.39953215404E+03 -0.13794318642E+03  0.32536187905E+03  0.53341982259E+03  0.46999998093E+01 0. -1.
</event>
<event>
 5   0  0.8680125E-04  0.9989184E+03  0.7818609E-02  0.9309732E-01
        4   -1    0    0  501    0  0.00000000000E+00  0.00000000000E+00  0.24761123232E+03  0.24761448922E+03  0.12699999809E+01 0.  1.
       -4   -1    0    0    0  501  0.00000000000E+00  0.00000000000E+00 -0.10074541462E+04  0.10074549466E+04  0.12699999809E+01 0. -1.
    10030    2    1    2    0    0  0.00000000000E+00  0.00000000000E+00 -0.75984291383E+03  0.12550694359E+04  0.99891843267E+03 0.  0.
        4    1    3    3  502    0  0.46375333571E+03  0.15360905699E+03 -0.51046307508E+03  0.70656709709E+03  0.12699999809E+01 0.  1.
       -4    1    3    3    0  502 -0.46375333571E+03 -0.15360905699E+03 -0.24937983875E+03  0.54850233878E+03  0.12699999809E+01 0. -1.
</event>
<event>
 5   0  0.2264577E-03  0.1000090E+04  0.7818609E-02  0.9308446E-01
       -2   -1    0    0    0  501  0.00000000000E+00  0.00000000000E+00  0.32149104153E+03  0.32149104154E+03  0.25500000920E-02 0. -1.
        2   -1    0    0  501    0  0.00000000000E+00  0.00000000000E+00 -0.77776727933E+03  0.77776727933E+03  0.25500000920E-02 0.  1.
    10030    2    1    2    0    0  0.00000000000E+00  0.00000000000E+00 -0.45627623780E+03  0.10992583209E+04  0.10000904213E+04 0.  0.
        5    1    3    3  502    0 -0.30377908630E+03  0.37611932258E+03 -0.36836445706E+03  0.60783381061E+03  0.46999998093E+01 0.  1.
       -5    1    3    3    0  502  0.30377908630E+03 -0.37611932258E+03 -0.87911780731E+02  0.49142451026E+03  0.46999998093E+01 0. -1.
</event>
<event>
 5   0  0.2255142E-03  0.9777870E+03  0.7818609E-02  0.9333249E-01
       -2   -1    0    0    0  501  0.00000000000E+00  0.00000000000E+00  0.24477532114E+03  0.24477532116E+03  0.25500000920E-02 0. -1.
        2   -1    0    0  501    0  0.00000000000E+00  0.00000000000E+00 -0.97647439842E+03  0.97647439842E+03  0.25500000920E-02 0.  1.
    10030    2    1    2    0    0  0.00000000000E+00  0.00000000000E+00 -0.73169907727E+03  0.12212497196E+04  0.97778695935E+03 0.  0.
        4    1    3    3  502    0  0.27179251454E+02  0.19998214066E+03 -0.92201458646E+03  0.94384536808E+03  0.12699999809E+01 0.  1.
       -4    1    3    3    0  502 -0.27179251454E+02 -0.19998214066E+03  0.19031550919E+03  0.27740435150E+03  0.12699999809E+01 0. -1.
</event>
<event>
 5   0  0.1353789E-03  0.9978904E+03  0.7818609E-02  0.9310862E-01
       -1   -1    0    0    0  501  0.00000000000E+00  0.00000000000E+00  0.39236304705E+03  0.39236304709E+03  0.50400001928E-02 0. -1.
        1   -1    0    0  501    0  0.00000000000E+00  0.00000000000E+00 -0.63447949475E+03  0.63447949477E+03  0.50400001928E-02 0.  1.
    10030    2    1    2    0    0  0.00000000000E+00  0.00000000000E+00 -0.24211644770E+03  0.10268425419E+04  0.99789039054E+03 0.  0.
        1    1    3    3  502    0  0.24367640984E+03 -0.35231113352E+03 -0.38430264942E+03  0.57549096769E+03  0.50400001928E-02 0.  1.
       -1    1    3    3    0  502 -0.24367640984E+03  0.35231113352E+03  0.14218620172E+03  0.45135157417E+03  0.50400001928E-02 0. -1.
</event>
<event>
 5   0  0.2264577E-03  0.9996684E+03  0.7818609E-02  0.9308909E-01
        2   -1    0    0  501    0  0.00000000000E+00  0.00000000000E+00  0.58391701282E+03  0.58391701283E+03  0.25500000920E-02 0.  1.
       -2   -1    0    0    0  501  0.00000000000E+00  0.00000000000E+00 -0.42785915235E+03  0.42785915236E+03  0.25500000920E-02 0. -1.
    10030    2    1    2    0    0  0.00000000000E+00  0.00000000000E+00  0.15605786047E+03  0.10117761652E+04  0.99966842134E+03 0.  0.
        5    1    3    3  502    0 -0.45000875432E+03  0.21688269561E+03  0.94541108919E+02  0.50843494559E+03  0.46999998093E+01 0. -1.
       -5    1    3    3    0  502  0.45000875432E+03 -0.21688269561E+03  0.61516751552E+02  0.50334121959E+03  0.46999998093E+01 0.  1.
</event>
<event>
 5   0  0.1285769E-03  0.9987670E+03  0.7818609E-02  0.9309898E-01
        1   -1    0    0  501    0  0.00000000000E+00  0.00000000000E+00  0.11057663719E+04  0.11057663719E+04  0.50400001928E-02 0.  1.
       -1   -1    0    0    0  501  0.00000000000E+00  0.00000000000E+00 -0.22553035833E+03  0.22553035839E+03  0.50400001928E-02 0. -1.
    10030    2    1    2    0    0  0.00000000000E+00  0.00000000000E+00  0.88023601359E+03  0.13312967303E+04  0.99876701215E+03 0.  0.
        5    1    3    3  502    0 -0.74272941913E+02  0.48312195645E+03  0.57630315671E+03  0.75569220794E+03  0.46999998093E+01 0.  1.
       -5    1    3    3    0  502  0.74272941913E+02 -0.48312195645E+03  0.30393285688E+03  0.57560452239E+03  0.46999998093E+01 0. -1.
</event>
<event>
 5   0  0.2277570E-03  0.9957431E+03  0.7818609E-02  0.9313226E-01
       -2   -1    0    0    0  501  0.00000000000E+00  0.00000000000E+00  0.15388120254E+03  0.15388120256E+03  0.25500000920E-02 0. -1.
        2   -1    0    0  501    0  0.00000000000E+00  0.00000000000E+00 -0.16108275124E+04  0.16108275124E+04  0.25500000920E-02 0.  1.
    10030    2    1    2    0    0  0.00000000000E+00  0.00000000000E+00 -0.14569463098E+04  0.17647087149E+04  0.99574308876E+03 0.  0.
        3    1    3    3  502    0  0.16117038743E+03 -0.18678075171E+03 -0.14948842254E+04  0.15151045510E+04  0.10100000352E+00 0.  1.
       -3    1    3    3    0  502 -0.16117038743E+03  0.18678075171E+03  0.37937915575E+02  0.24960416389E+03  0.10100000352E+00 0. -1.
</event>
<event>
 5   0  0.2264577E-03  0.1000533E+04  0.7818609E-02  0.9307960E-01
        2   -1    0    0  501    0  0.00000000000E+00  0.00000000000E+00  0.60143359767E+03  0.60143359768E+03  0.25500000920E-02 0.  1.
       -2   -1    0    0    0  501  0.00000000000E+00  0.00000000000E+00 -0.41611702383E+03  0.41611702383E+03  0.25500000920E-02 0. -1.
    10030    2    1    2    0    0  0.00000000000E+00  0.00000000000E+00  0.18531657385E+03  0.10175506215E+04  0.10005333752E+04 0.  0.
        5    1    3    3  502    0  0.31995734809E+03  0.38424701499E+03  0.10795388622E+03  0.51156094913E+03  0.46999998093E+01 0. -1.
       -5    1    3    3    0  502 -0.31995734809E+03 -0.38424701499E+03  0.77362687626E+02  0.50598967238E+03  0.46999998093E+01 0.  1.
</event>
<event>
 5   0  0.1293575E-03  0.1003150E+04  0.7818609E-02  0.9305097E-01
       -1   -1    0    0    0  501  0.00000000000E+00  0.00000000000E+00  0.76361510879E+03  0.76361510881E+03  0.50400001928E-02 0. -1.
        1   -1    0    0  501    0  0.00000000000E+00  0.00000000000E+00 -0.32945573982E+03  0.32945573985E+03  0.50400001928E-02 0.  1.
    10030    2    1    2    0    0  0.00000000000E+00  0.00000000000E+00  0.43415936898E+03  0.10930708487E+04  0.10031498006E+04 0.  0.
        4    1    3    3  502    0  0.42004956754E+03 -0.14173737591E+03 -0.38566937108E+02  0.44499454430E+03  0.12699999809E+01 0.  1.
       -4    1    3    3    0  502 -0.42004956754E+03  0.14173737591E+03  0.47272630609E+03  0.64807630437E+03  0.12699999809E+01 0. -1.
</event>
<event>
 5   0  0.2277570E-03  0.1003015E+04  0.7818609E-02  0.9305244E-01
       -2   -1    0    0    0  501  0.00000000000E+00  0.00000000000E+00  0.36379532040E+03  0.36379532041E+03  0.25500000920E-02 0.  1.
        2   -1    0    0  501    0  0.00000000000E+00  0.00000000000E+00 -0.69134996253E+03  0.69134996253E+03  0.25500000920E-02 0. -1.
    10030    2    1    2    0    0  0.00000000000E+00  0.00000000000E+00 -0.32755464213E+03  0.10551452829E+04  0.10030152165E+04 0.  0.
        3    1    3    3  502    0  0.12135418278E+03  0.21154935029E+03  0.29721020549E+03  0.38446570944E+03  0.10100000352E+00 0.  1.
       -3    1    3    3    0  502 -0.12135418278E+03 -0.21154935029E+03 -0.62476484762E+03  0.67067957350E+03  0.10100000352E+00 0. -1.
</event>
<event>
 5   0  0.2284843E-03  0.1002574E+04  0.7818609E-02  0.9305726E-01
       -2   -1    0    0    0  501  0.00000000000E+00  0.00000000000E+00  0.11350879414E+04  0.11350879414E+04  0.25500000920E-02 0.  1.
        2   -1    0    0  501    0  0.00000000000E+00  0.00000000000E+00 -0.22138263890E+03  0.22138263892E+03  0.25500000920E-02 0. -1.
    10030    2    1    2    0    0  0.00000000000E+00  0.00000000000E+00  0.91370530248E+03  0.13564705803E+04  0.10025742144E+04 0.  0.
        2    1    3    3  502    0  0.12502015148E+03 -0.29168432360E+03  0.98187286594E+03  0.10318837666E+04  0.25500000920E-02 0.  1.
       -2    1    3    3    0  502 -0.12502015148E+03  0.29168432360E+03 -0.68167563466E+02  0.32458681369E+03  0.25500000920E-02 0. -1.
</event>
<event>
 5   0  0.2255142E-03  0.9989857E+03  0.7818609E-02  0.9309658E-01
       -2   -1    0    0    0  501  0.00000000000E+00  0.00000000000E+00  0.55839585341E+03  0.55839585342E+03  0.25500000920E-02 0.  1.
        2   -1    0    0  501    0  0.00000000000E+00  0.00000000000E+00 -0.44680331006E+03  0.44680331007E+03  0.25500000920E-02 0. -1.
    10030    2    1    2    0    0  0.00000000000E+00  0.00000000000E+00  0.11159254335E+03  0.10051991635E+04  0.99898571689E+03 0.  0.
        4    1    3    3  502    0 -0.31872796937E+03 -0.25232365600E+03 -0.23624461526E+03  0.47017855861E+03  0.12699999809E+01 0. -1.
       -4    1    3    3    0  502  0.31872796937E+03  0.25232365600E+03  0.34783715861E+03  0.53502060488E+03  0.12699999809E+01 0.  1.
</event>
<event>
 5   0  0.2264577E-03  0.9757084E+03  0.7818609E-02  0.9335596E-01
        2   -1    0    0  501    0  0.00000000000E+00  0.00000000000E+00  0.40506123061E+03  0.40506123062E+03  0.25500000920E-02 0.  1.
       -2   -1    0    0    0  501  0.00000000000E+00  0.00000000000E+00 -0.58756976836E+03  0.58756976836E+03  0.25500000920E-02 0. -1.
    10030    2    1    2    0    0  0.00000000000E+00  0.00000000000E+00 -0.18250853774E+03  0.99263099898E+03  0.97570842663E+03 0.  0.
        5    1    3    3  502    0 -0.48550321168E+03 -0.39921649717E+02 -0.64871170308E+02  0.49146461256E+03  0.46999998093E+01 0. -1.
       -5    1    3    3    0  502  0.48550321168E+03  0.39921649717E+02 -0.11763736744E+03  0.50116638642E+03  0.46999998093E+01 0.  1.
</event>
<event>
 5   0  0.2204862E-03  0.1004508E+04  0.7818609E-02  0.9303614E-01
       -2   -1    0    0    0  501  0.00000000000E+00  0.00000000000E+00  0.34622236200E+03  0.34622236201E+03  0.25500000920E-02 0.  1.
        2   -1    0    0  501    0  0.00000000000E+00  0.00000000000E+00 -0.72860451356E+03  0.72860451356E+03  0.25500000920E-02 0. -1.
    10030    2    1    2    0    0  0.00000000000E+00  0.00000000000E+00 -0.38238215156E+03  0.10748268756E+04  0.10045081894E+04 0.  0.
        1    1    3    3  502    0 -0.41616446071E+03 -0.13407196806E+03  0.73277295233E+02  0.44332574141E+03  0.50400001928E-02 0.  1.
       -1    1    3    3    0  502  0.41616446071E+03  0.13407196806E+03 -0.45565944679E+03  0.63150113416E+03  0.50400001928E-02 0. -1.
</event>
<event>
 5   0  0.2204862E-03  0.9991283E+03  0.7818609E-02  0.9309501E-01
       -2   -1    0    0    0  501  0.00000000000E+00  0.00000000000E+00  0.55178982448E+03  0.55178982448E+03  0.25500000920E-02 0. -1.
        2   -1    0    0  501    0  0.00000000000E+00  0.00000000000E+00 -0.45228149459E+03  0.45228149460E+03  0.25500000920E-02 0.  1.
    10030    2    1    2    0    0  0.00000000000E+00  0.00000000000E+00  0.99508329885E+02  0.10040713191E+04  0.99912827309E+03 0.  0.
        1    1    3    3  502    0  0.90660873663E+02 -0.46103132058E+03 -0.12077641192E+03  0.48513525359E+03  0.50400001928E-02 0. -1.
       -1    1    3    3    0  502 -0.90660873663E+02  0.46103132058E+03  0.22028474180E+03  0.51893606549E+03  0.50400001928E-02 0.  1.
</event>
<event>
 5   0  0.1353789E-03  0.1000670E+04  0.7818609E-02  0.9307811E-01
        1   -1    0    0  501    0  0.00000000000E+00  0.00000000000E+00  0.26636851546E+03  0.26636851551E+03  0.50400001928E-02 0. -1.
       -1   -1    0    0    0  501  0.00000000000E+00  0.00000000000E+00 -0.93980698245E+03  0.93980698246E+03  0.50400001928E-02 0.  1.
    10030    2    1    2    0    0  0.00000000000E+00  0.00000000000E+00 -0.67343846698E+03  0.12061754980E+04  0.10006697573E+04 0.  0.
        1    1    3    3  502    0 -0.22216252408E+03 -0.46129802771E+01  0.20362666981E+03  0.30139888416E+03  0.50400001928E-02 0. -1.
       -1    1    3    3    0  502  0.22216252408E+03  0.46129802771E+01 -0.87706513679E+03  0.90477661381E+03  0.50400001928E-02 0.  1.
</event>
<event>
 5   0  0.1249195E-03  0.1000867E+04  0.7818609E-02  0.9307595E-01
        1   -1    0    0  501    0  0.00000000000E+00  0.00000000000E+00  0.37868590634E+03  0.37868590638E+03  0.50400001928E-02 0. -1.
       -1   -1    0    0    0  501  0.00000000000E+00  0.00000000000E+00 -0.66132260731E+03  0.66132260733E+03  0.50400001928E-02 0.  1.
    10030    2    1    2    0    0  0.00000000000E+00  0.00000000000E+00 -0.28263670097E+03  0.10400085137E+04  0.10008667263E+04 0.  0.
        2    1    3    3  502    0  0.48388734248E+03 -0.52726124341E+01 -0.27381495781E+03  0.55601204284E+03  0.25500000920E-02 0.  1.
       -2    1    3    3    0  502 -0.48388734248E+03  0.52726124341E+01 -0.88217431605E+01  0.48399647087E+03  0.25500000920E-02 0. -1.
</event>
<event>
 5   0  0.2204862E-03  0.9977606E+03  0.7818609E-02  0.9311004E-01
        2   -1    0    0  501    0  0.00000000000E+00  0.00000000000E+00  0.10626225094E+04  0.10626225094E+04  0.25500000920E-02 0. -1.
       -2   -1    0    0    0  501  0.00000000000E+00  0.00000000000E+00 -0.23421445545E+03  0.23421445547E+03  0.25500000920E-02 0.  1.
    10030    2    1    2    0    0  0.00000000000E+00  0.00000000000E+00  0.82840805394E+03  0.12968369649E+04  0.99776059734E+03 0.  0.
        1    1    3    3  502    0 -0.81626721199E+02  0.11477062328E+03  0.10362474538E+04  0.10457743557E+04  0.50400001928E-02 0. -1.
       -1    1    3    3    0  502  0.81626721199E+02 -0.11477062328E+03 -0.20783939982E+03  0.25106260917E+03  0.50400001928E-02 0.  1.
</event>
<event>
 5   0  0.1293716E-03  0.9879028E+03  0.7818609E-02  0.9321913E-01
        1   -1    0    0  501    0  0.00000000000E+00  0.00000000000E+00  0.22357102330E+03  0.22357102336E+03  0.50400001928E-02 0.  1.
       -1   -1    0    0    0  501  0.00000000000E+00  0.00000000000E+00 -0.10913221014E+04  0.10913221015E+04  0.50400001928E-02 0. -1.
    10030    2    1    2    0    0  0.00000000000E+00  0.00000000000E+00 -0.86775107814E+03  0.13148931248E+04  0.98790282724E+03 0.  0.
        3    1    3    3  502    0  0.81254179845E+01 -0.15971641140E+03 -0.10559109444E+04  0.10679528487E+04  0.10100000352E+00 0. -1.
       -3    1    3    3    0  502 -0.81254179845E+01  0.15971641140E+03  0.18815986623E+03  0.24694027607E+03  0.10100000352E+00 0.  1.
</event>
<event>
 5   0  0.2264577E-03  0.1002128E+04  0.7818609E-02  0.9306214E-01
       -2   -1    0    0    0  501  0.00000000000E+00  0.00000000000E+00  0.23740542859E+03  0.23740542861E+03  0.25500000920E-02 0. -1.
        2   -1    0    0  501    0  0.00000000000E+00  0.00000000000E+00 -0.10575376875E+04  0.10575376875E+04  0.25500000920E-02 0.  1.
    10030    2    1    2    0    0  0.00000000000E+00  0.00000000000E+00 -0.82013225889E+03  0.12949431161E+04  0.10021281115E+04 0.  0.
        5    1    3    3  502    0 -0.47409561487E+03 -0.14045078317E+03 -0.51464618617E+03  0.71370572470E+03  0.46999998093E+01 0.  1.
       -5    1    3    3    0  502  0.47409561487E+03  0.14045078317E+03 -0.30548607273E+03  0.58123739140E+03  0.46999998093E+01 0. -1.
</event>
<event>
 5   0  0.1293716E-03  0.1002620E+04  0.7818609E-02  0.9305676E-01
        1   -1    0    0  501    0  0.00000000000E+00  0.00000000000E+00  0.12203862817E+04  0.12203862817E+04  0.50400001928E-02 0.  1.
       -1   -1    0    0    0  501  0.00000000000E+00  0.00000000000E+00 -0.20592792798E+03  0.20592792804E+03  0.50400001928E-02 0. -1.
    10030    2    1    2    0    0  0.00000000000E+00  0.00000000000E+00  0.10144583537E+04  0.14263142098E+04  0.10026198051E+04 0.  0.
        3    1    3    3  502    0 -0.40857567661E+03 -0.74912767071E+02  0.10797705944E+03  0.42919117157E+03  0.10100000352E+00 0. -1.
       -3    1    3    3    0  502  0.40857567661E+03  0.74912767071E+02  0.90648129430E+03  0.99712303820E+03  0.10100000352E+00 0.  1.
</event>
<event>
 5   0  0.2284843E-03  0.9900400E+03  0.7818609E-02  0.9319537E-01
        2   -1    0    0  501    0  0.00000000000E+00  0.00000000000E+00  0.48284265489E+03  0.48284265490E+03  0.25500000920E-02 0.  1.
       -2   -1    0    0    0  501  0.00000000000E+00  0.00000000000E+00 -0.50750442512E+03  0.50750442513E+03  0.25500000920E-02 0. -1.
    10030    2    1    2    0    0  0.00000000000E+00  0.00000000000E+00 -0.24661770235E+02  0.99034708003E+03  0.99003996687E+03 0.  0.
        2    1    3    3  502    0  0.48638557569E+02 -0.20292729030E+03  0.43669541748E+03  0.48399182026E+03  0.25500000920E-02 0.  1.
       -2    1    3    3    0  502 -0.48638557569E+02  0.20292729030E+03 -0.46135718771E+03  0.50635525976E+03  0.25500000920E-02 0. -1.
</event>
<event>
 5   0  0.1293575E-03  0.9920533E+03  0.7818609E-02  0.9317304E-01
        1   -1    0    0  501    0  0.00000000000E+00  0.00000000000E+00  0.92273749482E+03  0.92273749483E+03  0.50400001928E-02 0.  1.
       -1   -1    0    0    0  501  0.00000000000E+00  0.00000000000E+00 -0.26664400769E+03  0.26664400774E+03  0.50400001928E-02 0. -1.
    10030    2    1    2    0    0  0.00000000000E+00  0.00000000000E+00  0.65609348713E+03  0.11893815026E+04  0.99205327215E+03 0.  0.
        4    1    3    3  502    0  0.22380409543E+03  0.39081130411E+03  0.57729025196E+03  0.73217989351E+03  0.12699999809E+01 0.  1.
       -4    1    3    3    0  502 -0.22380409543E+03 -0.39081130411E+03  0.78803235168E+02  0.45720160906E+03  0.12699999809E+01 0. -1.
</event>
<event>
 5   0  0.1285769E-03  0.9992088E+03  0.7818609E-02  0.9309413E-01
       -1   -1    0    0    0  501  0.00000000000E+00  0.00000000000E+00  0.45855705805E+03  0.45855705808E+03  0.50400001928E-02 0.  1.
        1   -1    0    0  501    0  0.00000000000E+00  0.00000000000E+00 -0.54432601003E+03  0.54432601006E+03  0.50400001928E-02 0. -1.
    10030    2    1    2    0    0  0.00000000000E+00  0.00000000000E+00 -0.85768951983E+02  0.10028830681E+04  0.99920875458E+03 0.  0.
        5    1    3    3  502    0  0.37817023302E+03 -0.31409528880E+03 -0.13217152627E+03  0.50907757557E+03  0.46999998093E+01 0. -1.
       -5    1    3    3    0  502 -0.37817023302E+03  0.31409528880E+03  0.46402574284E+02  0.49380549257E+03  0.46999998093E+01 0.  1.
</event>
<event>
 5   0  0.1353789E-03  0.9950792E+03  0.7818609E-02  0.9313958E-01
       -1   -1    0    0    0  501  0.00000000000E+00  0.00000000000E+00  0.36007924798E+03  0.36007924802E+03  0.50400001928E-02 0. -1.
        1   -1    0    0  501    0  0.00000000000E+00  0.00000000000E+00 -0.68747554075E+03  0.68747554077E+03  0.50400001928E-02 0.  1.
    10030    2    1    2    0    0  0.00000000000E+00  0.00000000000E+00 -0.32739629276E+03  0.10475547888E+04  0.99507924458E+03 0.  0.
        1    1    3    3  502    0  0.38459662857E+03 -0.94167317548E+02 -0.48085565372E+03  0.62289983957E+03  0.50400001928E-02 0.  1.
       -1    1    3    3    0  502 -0.38459662857E+03  0.94167317548E+02  0.15345936096E+03  0.42465494921E+03  0.50400001928E-02 0. -1.
</event>
<event>
 5   0  0.1249195E-03  0.1000905E+04  0.7818609E-02  0.9307553E-01
       -1   -1    0    0    0  501  0.00000000000E+00  0.00000000000E+00  0.85403809007E+03  0.85403809009E+03  0.50400001928E-02 0. -1.
        1   -1    0    0  501    0  0.00000000000E+00  0.00000000000E+00 -0.29325714012E+03  0.29325714016E+03  0.50400001928E-02 0.  1.
    10030    2    1    2    0    0  0.00000000000E+00  0.00000000000E+00  0.56078094995E+03  0.11472952303E+04  0.10009051261E+04 0.  0.
        2    1    3    3  502    0 -0.32223828531E+02 -0.15879657382E+03  0.82313841178E+03  0.83893478408E+03  0.25500000920E-02 0. -1.
       -2    1    3    3    0  502  0.32223828531E+02  0.15879657382E+03 -0.26235746183E+03  0.30836044617E+03  0.25500000920E-02 0.  1.
</event>
<event>
 5   0  0.2277570E-03  0.1004143E+04  0.7818609E-02  0.9304013E-01
       -2   -1    0    0    0  501  0.00000000000E+00  0.00000000000E+00  0.54929432471E+03  0.54929432471E+03  0.25500000920E-02 0.  1.
        2   -1    0    0  501    0  0.00000000000E+00  0.00000000000E+00 -0.45890826300E+03  0.45890826301E+03  0.25500000920E-02 0. -1.
    10030    2    1    2    0    0  0.00000000000E+00  0.00000000000E+00  0.90386061708E+02  0.10082025877E+04  0.10041428274E+04 0.  0.
        3    1    3    3  502    0  0.45191796938E+03  0.21862641424E+03  0.38212644190E+02  0.50347549735E+03  0.10100000352E+00 0. -1.
       -3    1    3    3    0  502 -0.45191796938E+03 -0.21862641424E+03  0.52173417518E+02  0.50472709037E+03  0.10100000352E+00 0.  1.
</event>
<event>
 5   0  0.2204862E-03  0.9988909E+03  0.7818609E-02  0.9309762E-01
        2   -1    0    0  501    0  0.00000000000E+00  0.00000000000E+00  0.10815452001E+04  0.10815452001E+04  0.25500000920E-02 0. -1.
       -2   -1    0    0    0  501  0.00000000000E+00  0.00000000000E+00 -0.23063829528E+03  0.23063829530E+03  0.25500000920E-02 0.  1.
    10030    2    1    2    0    0  0.00000000000E+00  0.00000000000E+00  0.85090690484E+03  0.13121834954E+04  0.99889086739E+03 0.  0.
        1    1    3    3  502    0  0.18849777652E+03  0.51610122438E+02 -0.17832225047E+03  0.26456349244E+03  0.50400001928E-02 0.  1.
       -1    1    3    3    0  502 -0.18849777652E+03 -0.51610122438E+02  0.10292291553E+04  0.10476200030E+04  0.50400001928E-02 0. -1.
</event>
<event>
 5   0  0.1249195E-03  0.9834878E+03  0.7818609E-02  0.9326843E-01
       -1   -1    0    0    0  501  0.00000000000E+00  0.00000000000E+00  0.56772757765E+03  0.56772757767E+03  0.50400001928E-02 0. -1.
        1   -1    0    0  501    0  0.00000000000E+00  0.00000000000E+00 -0.42592971175E+03  0.42592971178E+03  0.50400001928E-02 0.  1.
    10030    2    1    2    0    0  0.00000000000E+00  0.00000000000E+00  0.14179786590E+03  0.99365728945E+03  0.98348776001E+03 0.  0.
        2    1    3    3  502    0 -0.48053615464E+03  0.19937941670E+02  0.17442566663E+03  0.51160221913E+03  0.25500000920E-02 0. -1.
       -2    1    3    3    0  502  0.48053615464E+03 -0.19937941670E+02 -0.32627800730E+02  0.48205507032E+03  0.25500000920E-02 0.  1.
</event>
<event>
 5   0  0.1293575E-03  0.1005500E+04  0.7818609E-02  0.9302533E-01
       -1   -1    0    0    0  501  0.00000000000E+00  0.00000000000E+00  0.17094832811E+03  0.17094832819E+03  0.50400001928E-02 0. -1.
        1   -1    0    0  501    0  0.00000000000E+00  0.00000000000E+00 -0.14785621881E+04  0.14785621881E+04  0.50400001928E-02 0.  1.
    10030    2    1    2    0    0  0.00000000000E+00  0.00000000000E+00 -0.13076138600E+04  0.16495105163E+04  0.10055003414E+04 0.  0.
        4    1    3    3  502    0 -0.24472873599E+03 -0.10235428309E+03  0.46793633359E+02  0.26936928279E+03  0.12699999809E+01 0. -1.
       -4    1    3    3    0  502  0.24472873599E+03  0.10235428309E+03 -0.13544074933E+04  0.13801412335E+04  0.12699999809E+01 0.  1.
</event>
<event>
 5   0  0.1293716E-03  0.9633373E+03  0.7818609E-02  0.9349696E-01
       -1   -1    0    0    0  501  0.00000000000E+00  0.00000000000E+00  0.38880264713E+03  0.38880264716E+03  0.50400001928E-02 0. -1.
        1   -1    0    0  501    0  0.00000000000E+00  0.00000000000E+00 -0.59671581683E+03  0.59671581685E+03  0.50400001928E-02 0.  1.
    10030    2    1    2    0    0  0.00000000000E+00  0.00000000000E+00 -0.20791316970E+03  0.98551846401E+03  0.96333730166E+03 0.  0.
        3    1    3    3  502    0 -0.25421505110E+03  0.32678548964E+03  0.14786278007E+03  0.43963332492E+03  0.10100000352E+00 0. -1.
       -3    1    3    3    0  502  0.25421505110E+03 -0.32678548964E+03 -0.35577594977E+03  0.54588513909E+03  0.10100000352E+00 0.  1.
</event>
<event>
 5   0  0.1293575E-03  0.1002873E+04  0.7818609E-02  0.9305399E-01
       -1   -1    0    0    0  501  0.00000000000E+00  0.00000000000E+00  0.11655014520E+03  0.11655014531E+03  0.50400001928E-02 0.  1.
        1   -1    0    0  501    0  0.00000000000E+00  0.00000000000E+00 -0.21573419026E+04  0.21573419026E+04  0.50400001928E-02 0. -1.
    10030    2    1    2    0    0  0.00000000000E+00  0.00000000000E+00 -0.20407917574E+04  0.22738920479E+04  0.10028728975E+04 0.  0.
        4    1    3    3  502    0  0.14771426128E+03 -0.12861115345E+03  0.26230783962E+02  0.19761072518E+03  0.12699999809E+01 0.  1.
       -4    1    3    3    0  502 -0.14771426128E+03  0.12861115345E+03 -0.20670225414E+04  0.20762813228E+04  0.12699999809E+01 0. -1.
</event>
<event>
 5   0  0.2284843E-03  0.1034136E+04  0.7818609E-02  0.9271877E-01
       -2   -1    0    0    0  501  0.00000000000E+00  0.00000000000E+00  0.19519389023E+03  0.19519389024E+03  0.25500000920E-02 0.  1.
        2   -1    0    0  501    0  0.00000000000E+00  0.00000000000E+00 -0.13697121747E+04  0.13697121747E+04  0.25500000920E-02 0. -1.
    10030    2    1    2    0    0  0.00000000000E+00  0.00000000000E+00 -0.11745182845E+04  0.15649060649E+04  0.10341362539E+04 0.  0.
        2    1    3    3  502    0  0.45983931731E+02 -0.50513557501E+03 -0.43530767663E+03  0.66840799252E+03  0.25500000920E-02 0. -1.
       -2    1    3    3    0  502 -0.45983931731E+02  0.50513557501E+03 -0.73921060782E+03  0.89649807241E+03  0.25500000920E-02 0.  1.
</event>
<event>
 5   0  0.2204862E-03  0.9949375E+03  0.7818609E-02  0.9314115E-01
        2   -1    0    0  501    0  0.00000000000E+00  0.00000000000E+00  0.29952653506E+03  0.29952653507E+03  0.25500000920E-02 0.  1.
       -2   -1    0    0    0  501  0.00000000000E+00  0.00000000000E+00 -0.82622116079E+03  0.82622116080E+03  0.25500000920E-02 0. -1.
    10030    2    1    2    0    0  0.00000000000E+00  0.00000000000E+00 -0.52669462573E+03  0.11257476959E+04  0.99493750858E+03 0.  0.
        1    1    3    3  502    0 -0.31064979137E+03  0.34873931595E+02 -0.70120896460E+03  0.76773269830E+03  0.50400001928E-02 0. -1.
       -1    1    3    3    0  502  0.31064979137E+03 -0.34873931595E+02  0.17451433887E+03  0.35801499756E+03  0.50400001928E-02 0.  1.
</event>
<event>
 5   0  0.8680125E-04  0.9971619E+03  0.7818609E-02  0.9311663E-01
        3   -1    0    0  501    0  0.00000000000E+00  0.00000000000E+00  0.55049195638E+03  0.55049196565E+03  0.10100000352E+00 0.  1.
       -3   -1    0    0    0  501  0.00000000000E+00  0.00000000000E+00 -0.45156511092E+03  0.45156512221E+03  0.10100000352E+00 0. -1.
    10030    2    1    2    0    0  0.00000000000E+00  0.00000000000E+00  0.98926845463E+02  0.10020570879E+04  0.99716191593E+03 0.  0.
        3    1    3    3  502    0  0.50006297678E+02  0.46881557780E+03 -0.11348774207E+03  0.48494139192E+03  0.10100000352E+00 0. -1.
       -3    1    3    3    0  502 -0.50006297678E+02 -0.46881557780E+03  0.21241458753E+03  0.51711569594E+03  0.10100000352E+00 0.  1.
</event>
<event>
 5   0  0.1353789E-03  0.9890576E+03  0.7818609E-02  0.9320628E-01
       -1   -1    0    0    0  501  0.00000000000E+00  0.00000000000E+00  0.23098341953E+03  0.23098341959E+03  0.50400001928E-02 0.  1.
        1   -1    0    0  501    0  0.00000000000E+00  0.00000000000E+00 -0.10587717830E+04  0.10587717830E+04  0.50400001928E-02 0. -1.
    10030    2    1    2    0    0  0.00000000000E+00  0.00000000000E+00 -0.82778836345E+03  0.12897552026E+04  0.98905758575E+03 0.  0.
        1    1    3    3  502    0  0.17744856185E+03 -0.37826028186E+03 -0.68906666889E+02  0.42345833526E+03  0.50400001928E-02 0.  1.
       -1    1    3    3    0  502 -0.17744856185E+03  0.37826028186E+03 -0.75888169656E+03  0.86629686732E+03  0.50400001928E-02 0. -1.
</event>
<event>
 5   0  0.2284843E-03  0.9944462E+03  0.7818609E-02  0.9314657E-01
        2   -1    0    0  501    0  0.00000000000E+00  0.00000000000E+00  0.70248258580E+03  0.70248258580E+03  0.25500000920E-02 0. -1.
       -2   -1    0    0    0  501  0.00000000000E+00  0.00000000000E+00 -0.35193868355E+03  0.35193868356E+03  0.25500000920E-02 0.  1.
    10030    2    1    2    0    0  0.00000000000E+00  0.00000000000E+00  0.35054390225E+03  0.10544212694E+04  0.99444617042E+03 0.  0.
        2    1    3    3  502    0  0.12843651982E+03  0.17695657565E+03 -0.29822650830E+03  0.36979537524E+03  0.25500000920E-02 0.  1.
       -2    1    3    3    0  502 -0.12843651982E+03 -0.17695657565E+03  0.64877041055E+03  0.68462589412E+03  0.25500000920E-02 0. -1.
</event>
<event>
 5   0  0.1293716E-03  0.1000650E+04  0.7818609E-02  0.9307832E-01
        1   -1    0    0  501    0  0.00000000000E+00  0.00000000000E+00  0.11111307065E+04  0.11111307065E+04  0.50400001928E-02 0. -1.
       -1   -1    0    0    0  501  0.00000000000E+00  0.00000000000E+00 -0.22528859508E+03  0.22528859514E+03  0.50400001928E-02 0.  1.
    10030    2    1    2    0    0  0.00000000000E+00  0.00000000000E+00  0.88584211137E+03  0.13364193016E+04  0.10006499405E+04 0.  0.
        3    1    3    3  502    0  0.45373965018E+03  0.21069962009E+03  0.45246493250E+03  0.67453578511E+03  0.10100000352E+00 0. -1.
       -3    1    3    3    0  502 -0.45373965018E+03 -0.21069962009E+03  0.43337717886E+03  0.66188351649E+03  0.10100000352E+00 0.  1.
</event>
<event>
 5   0  0.2204862E-03  0.1009381E+04  0.7818609E-02  0.9298316E-01
        2   -1    0    0  501    0  0.00000000000E+00  0.00000000000E+00  0.16915360749E+04  0.16915360749E+04  0.25500000920E-02 0.  1.
       -2   -1    0    0    0  501  0.00000000000E+00  0.00000000000E+00 -0.15058052768E+03  0.15058052771E+03  0.25500000920E-02 0. -1.
    10030    2    1    2    0    0  0.00000000000E+00  0.00000000000E+00  0.15409555472E+04  0.18421166026E+04  0.10093807900E+04 0.  0.
        1    1    3    3  502    0 -0.22104794681E+03 -0.41077100273E+03  0.11220793045E+04  0.12151777554E+04  0.50400001928E-02 0.  1.
       -1    1    3    3    0  502  0.22104794681E+03  0.41077100273E+03  0.41887624272E+03  0.62693884727E+03  0.50400001928E-02 0. -1.
</event>
<event>
 5   0  0.1293716E-03  0.1002060E+04  0.7818609E-02  0.9306289E-01
        1   -1    0    0  501    0  0.00000000000E+00  0.00000000000E+00  0.61248289767E+03  0.61248289769E+03  0.50400001928E-02 0. -1.
       -1   -1    0    0    0  501  0.00000000000E+00  0.00000000000E+00 -0.40985769910E+03  0.40985769913E+03  0.50400001928E-02 0.  1.
    10030    2    1    2    0    0  0.00000000000E+00  0.00000000000E+00  0.20262519857E+03  0.10223405968E+04  0.10020595415E+04 0.  0.
        3    1    3    3  502    0 -0.26804160628E+03 -0.67615661858E+02 -0.32501153527E+03  0.42667398408E+03  0.10100000352E+00 0.  1.
       -3    1    3    3    0  502  0.26804160628E+03  0.67615661858E+02  0.52763673385E+03  0.59566661274E+03  0.10100000352E+00 0. -1.
</event>
<event>
 5   0  0.2264577E-03  0.9985067E+03  0.7818609E-02  0.9310184E-01
        2   -1    0    0  501    0  0.00000000000E+00  0.00000000000E+00  0.20663251845E+04  0.20663251845E+04  0.25500000920E-02 0.  1.
       -2   -1    0    0    0  501  0.00000000000E+00  0.00000000000E+00 -0.12062666798E+03  0.12062666801E+03  0.25500000920E-02 0. -1.
    10030    2    1    2    0    0  0.00000000000E+00  0.00000000000E+00  0.19456985165E+04  0.21869518525E+04  0.99850672908E+03 0.  0.
        5    1    3    3  502    0  0.18237980163E+03 -0.12107637425E+03  0.19555490138E+04  0.19677692740E+04  0.46999998093E+01 0.  1.
       -5    1    3    3    0  502 -0.18237980163E+03  0.12107637425E+03 -0.98504972100E+01  0.21918257855E+03  0.46999998093E+01 0. -1.
</event>
<event>
 5   0  0.2204862E-03  0.9962691E+03  0.7818609E-02  0.9312646E-01
       -2   -1    0    0    0  501  0.00000000000E+00  0.00000000000E+00  0.30461620515E+03  0.30461620516E+03  0.25500000920E-02 0.  1.
        2   -1    0    0  501    0  0.00000000000E+00  0.00000000000E+00 -0.81459234600E+03  0.81459234601E+03  0.25500000920E-02 0. -1.
    10030    2    1    2    0    0  0.00000000000E+00  0.00000000000E+00 -0.50997614085E+03  0.11192085512E+04  0.99626909858E+03 0.  0.
        1    1    3    3  502    0  0.90983512891E+02 -0.45146055808E+03 -0.46826663032E+03  0.65678632159E+03  0.50400001928E-02 0. -1.
       -1    1    3    3    0  502 -0.90983512891E+02  0.45146055808E+03 -0.41709510527E+02  0.46242222959E+03  0.50400001928E-02 0.  1.
</event>
<event>
 5   0  0.1249195E-03  0.9963973E+03  0.7818609E-02  0.9312505E-01
        1   -1    0    0  501    0  0.00000000000E+00  0.00000000000E+00  0.28823538954E+03  0.28823538959E+03  0.50400001928E-02 0. -1.
       -1   -1    0    0    0  501  0.00000000000E+00  0.00000000000E+00 -0.86110837500E+03  0.86110837502E+03  0.50400001928E-02 0.  1.
    10030    2    1    2    0    0  0.00000000000E+00  0.00000000000E+00 -0.57287298546E+03  0.11493437646E+04  0.99639732625E+03 0.  0.
        2    1    3    3  502    0  0.35035659303E+03  0.11669177432E+03 -0.67218712016E+03  0.76694343794E+03  0.25500000920E-02 0.  1.
       -2    1    3    3    0  502 -0.35035659303E+03 -0.11669177432E+03  0.99314134704E+02  0.38240032666E+03  0.25500000920E-02 0. -1.
</event>
<event>
 5   0  0.2284843E-03  0.1001956E+04  0.7818609E-02  0.9306402E-01
       -2   -1    0    0    0  501  0.00000000000E+00  0.00000000000E+00  0.29894311869E+03  0.29894311870E+03  0.25500000920E-02 0. -1.
        2   -1    0    0  501    0  0.00000000000E+00  0.00000000000E+00 -0.83955469781E+03  0.83955469781E+03  0.25500000920E-02 0.  1.
    10030    2    1    2    0    0  0.00000000000E+00  0.00000000000E+00 -0.54061157912E+03  0.11384978165E+04  0.10019562858E+04 0.  0.
        2    1    3    3  502    0 -0.36993095354E+03  0.21125180342E+03 -0.56986645103E+03  0.71149420718E+03  0.25500000920E-02 0.  1.
       -2    1    3    3    0  502  0.36993095354E+03 -0.21125180342E+03  0.29254871914E+02  0.42700360932E+03  0.25500000920E-02 0. -1.
</event>
<event>
 5   0  0.2204862E-03  0.1001913E+04  0.7818609E-02  0.9306449E-01
       -2   -1    0    0    0  501  0.00000000000E+00  0.00000000000E+00  0.14167649875E+03  0.14167649877E+03  0.25500000920E-02 0.  1.
        2   -1    0    0  501    0  0.00000000000E+00  0.00000000000E+00 -0.17713413074E+04  0.17713413074E+04  0.25500000920E-02 0. -1.
    10030    2    1    2    0    0  0.00000000000E+00  0.00000000000E+00 -0.16296648087E+04  0.19130178062E+04  0.10019130392E+04 0.  0.
        1    1    3    3  502    0 -0.14810277268E+03  0.14584336178E+03  0.55454282353E+02  0.21512762470E+03  0.50400001928E-02 0.  1.
       -1    1    3    3    0  502  0.14810277268E+03 -0.14584336178E+03 -0.16851190910E+04  0.16978901815E+04  0.50400001928E-02 0. -1.
</event>
<event>
 5   0  0.1249195E-03  0.1002315E+04  0.7818609E-02  0.9306010E-01
        1   -1    0    0  501    0  0.00000000000E+00  0.00000000000E+00  0.33421095256E+03  0.33421095259E+03  0.50400001928E-02 0. -1.
       -1   -1    0    0    0  501  0.00000000000E+00  0.00000000000E+00 -0.75149722923E+03  0.75149722924E+03  0.50400001928E-02 0.  1.
    10030    2    1    2    0    0  0.00000000000E+00  0.00000000000E+00 -0.41728627667E+03  0.10857081818E+04  0.10023145312E+04 0.  0.
        2    1    3    3  502    0  0.43560286144E+03  0.16337223406E+02  0.59198665570E+02  0.43991049064E+03  0.25500000920E-02 0. -1.
       -2    1    3    3    0  502 -0.43560286144E+03 -0.16337223406E+02 -0.47648494224E+03  0.64579769120E+03  0.25500000920E-02 0.  1.
</event>
<event>
 5   0  0.1293575E-03  0.1003011E+04  0.7818609E-02  0.9305249E-01
        1   -1    0    0  501    0  0.00000000000E+00  0.00000000000E+00  0.25322732476E+03  0.25322732481E+03  0.50400001928E-02 0.  1.
       -1   -1    0    0    0  501  0.00000000000E+00  0.00000000000E+00 -0.99320914815E+03  0.99320914816E+03  0.50400001928E-02 0. -1.
    10030    2    1    2    0    0  0.00000000000E+00  0.00000000000E+00 -0.73998182339E+03  0.12464364730E+04  0.10030108585E+04 0.  0.
        4    1    3    3  502    0 -0.27423497414E+03  0.24259460112E+03  0.55891200900E+02  0.37038142606E+03  0.12699999809E+01 0.  1.
       -4    1    3    3    0  502  0.27423497414E+03 -0.24259460112E+03 -0.79587302429E+03  0.87605504691E+03  0.12699999809E+01 0. -1.
</event>
<event>
 5   0  0.2264577E-03  0.9989855E+03  0.7818609E-02  0.9309658E-01
       -2   -1    0    0    0  501  0.00000000000E+00  0.00000000000E+00  0.39467029045E+03  0.39467029046E+03  0.25500000920E-02 0. -1.
        2   -1    0    0  501    0  0.00000000000E+00  0.00000000000E+00 -0.63215547191E+03  0.63215547192E+03  0.25500000920E-02 0.  1.
    10030    2    1    2    0    0  0.00000000000E+00  0.00000000000E+00 -0.23748518146E+03  0.10268257624E+04  0.99898545278E+03 0.  0.
        5    1    3    3  502    0  0.40805391081E+03 -0.29514218505E+02 -0.41324408941E+03  0.58152545142E+03  0.46999998093E+01 0.  1.
       -5    1    3    3    0  502 -0.40805391081E+03  0.29514218505E+02  0.17575890795E+03  0.44530031096E+03  0.46999998093E+01 0. -1.
</event>
<event>
 5   0  0.1293716E-03  0.1001135E+04  0.7818609E-02  0.9307300E-01
       -1   -1    0    0    0  501  0.00000000000E+00  0.00000000000E+00  0.25909760320E+03  0.25909760325E+03  0.50400001928E-02 0. -1.
        1   -1    0    0  501    0  0.00000000000E+00  0.00000000000E+00 -0.96707974131E+03  0.96707974132E+03  0.50400001928E-02 0.  1.
    10030    2    1    2    0    0  0.00000000000E+00  0.00000000000E+00 -0.70798213810E+03  0.12261773446E+04  0.10011354416E+04 0.  0.
        3    1    3    3  502    0 -0.33734484770E+03  0.28044561360E+03 -0.58726666856E+02  0.44260605515E+03  0.10100000352E+00 0. -1.
       -3    1    3    3    0  502  0.33734484770E+03 -0.28044561360E+03 -0.64925547125E+03  0.78357128942E+03  0.10100000352E+00 0.  1.
</event>
<event>
 5   0  0.1293716E-03  0.9991739E+03  0.7818609E-02  0.9309451E-01
        1   -1    0    0  501    0  0.00000000000E+00  0.00000000000E+00  0.78085511986E+03  0.78085511988E+03  0.50400001928E-02 0. -1.
       -1   -1    0    0    0  501  0.00000000000E+00  0.00000000000E+00 -0.31963308000E+03  0.31963308004E+03  0.50400001928E-02 0.  1.
    10030    2    1    2    0    0  0.00000000000E+00  0.00000000000E+00  0.46122203986E+03  0.11004881999E+04  0.99917391284E+03 0.  0.
        3    1    3    3  502    0 -0.54738017762E+02 -0.49179144569E+03  0.30637600037E+03  0.58199771515E+03  0.10100000352E+00 0. -1.
       -3    1    3    3    0  502  0.54738017762E+02  0.49179144569E+03  0.15484603949E+03  0.51849048476E+03  0.10100000352E+00 0.  1.
</event>
<event>
 5   0  0.2277570E-03  0.1006184E+04  0.7818609E-02  0.9301788E-01
       -2   -1    0    0    0  501  0.00000000000E+00  0.00000000000E+00  0.87658609037E+03  0.87658609037E+03  0.25500000920E-02 0. -1.
        2   -1    0    0  501    0  0.00000000000E+00  0.00000000000E+00 -0.28873559402E+03  0.28873559403E+03  0.25500000920E-02 0.  1.
    10030    2    1    2    0    0  0.00000000000E+00  0.00000000000E+00  0.58785049635E+03  0.11653216844E+04  0.10061840896E+04 0.  0.
        3    1    3    3  502    0 -0.35149438796E+03 -0.29920393526E+02  0.70934475182E+03  0.79222062701E+03  0.10100000352E+00 0. -1.
       -3    1    3    3    0  502  0.35149438796E+03  0.29920393526E+02 -0.12149425547E+03  0.37310105740E+03  0.10100000352E+00 0.  1.
</event>
<event>
 5   0  0.2264577E-03  0.9995045E+03  0.7818609E-02  0.9309088E-01
       -2   -1    0    0    0  501  0.00000000000E+00  0.00000000000E+00  0.42329622346E+03  0.42329622347E+03  0.25500000920E-02 0.  1.
        2   -1    0    0  501    0  0.00000000000E+00  0.00000000000E+00 -0.59001783427E+03  0.59001783428E+03  0.25500000920E-02 0. -1.
    10030    2    1    2    0    0  0.00000000000E+00  0.00000000000E+00 -0.16672161081E+03  0.10133140578E+04  0.99950451931E+03 0.  0.
        5    1    3    3  502    0  0.34237059047E+03  0.31452401055E+03 -0.26916117419E+03  0.53722695587E+03  0.46999998093E+01 0. -1.
       -5    1    3    3    0  502 -0.34237059047E+03 -0.31452401055E+03  0.10243956337E+03  0.47608710188E+03  0.46999998093E+01 0.  1.
</event>
<event>
 5   0  0.1285769E-03  0.9890775E+03  0.7818609E-02  0.9320606E-01
       -1   -1    0    0    0  501  0.00000000000E+00  0.00000000000E+00  0.62525686504E+03  0.62525686506E+03  0.50400001928E-02 0.  1.
        1   -1    0    0  501    0  0.00000000000E+00  0.00000000000E+00 -0.39114899484E+03  0.39114899487E+03  0.50400001928E-02 0. -1.
    10030    2    1    2    0    0  0.00000000000E+00  0.00000000000E+00  0.23410787020E+03  0.10164058599E+04  0.98907753853E+03 0.  0.
        5    1    3    3  502    0  0.42036233573E+03  0.23880620442E+03  0.10192223321E+02  0.48358956562E+03  0.46999998093E+01 0.  1.
       -5    1    3    3    0  502 -0.42036233573E+03 -0.23880620442E+03  0.22391564688E+03  0.53281629431E+03  0.46999998093E+01 0. -1.
</event>
<event>
 5   0  0.1249195E-03  0.9919941E+03  0.7818609E-02  0.9317369E-01
        1   -1    0    0  501    0  0.00000000000E+00  0.00000000000E+00  0.64684670220E+03  0.64684670221E+03  0.50400001928E-02 0. -1.
       -1   -1    0    0    0  501  0.00000000000E+00  0.00000000000E+00 -0.38032668007E+03  0.38032668011E+03  0.50400001928E-02 0.  1.
    10030    2    1    2    0    0  0.00000000000E+00  0.00000000000E+00  0.26652002212E+03  0.10271733823E+04  0.99199407012E+03 0.  0.
        2    1    3    3  502    0  0.30609474823E+03 -0.31481196485E+03  0.37211893653E+03  0.57556326415E+03  0.25500000920E-02 0. -1.
       -2    1    3    3    0  502 -0.30609474823E+03  0.31481196485E+03 -0.10559891441E+03  0.45161011817E+03  0.25500000920E-02 0.  1.
</event>
<event>
 5   0  0.2255142E-03  0.9990532E+03  0.7818609E-02  0.9309584E-01
       -2   -1    0    0    0  501  0.00000000000E+00  0.00000000000E+00  0.23220238020E+03  0.23220238022E+03  0.25500000920E-02 0. -1.
        2   -1    0    0  501    0  0.00000000000E+00  0.00000000000E+00 -0.10746093205E+04  0.10746093205E+04  0.25500000920E-02 0.  1.
    10030    2    1    2    0    0  0.00000000000E+00  0.00000000000E+00 -0.84240694028E+03  0.13068117007E+04  0.99905323585E+03 0.  0.
        4    1    3    3  502    0 -0.17458905954E+01  0.49313945159E+03 -0.52532016966E+03  0.72052235246E+03  0.12699999809E+01 0. -1.
       -4    1    3    3    0  502  0.17458905954E+01 -0.49313945159E+03 -0.31708677063E+03  0.58628934824E+03  0.12699999809E+01 0.  1.
</event>
<event>
 5   0  0.2264577E-03  0.9981972E+03  0.7818609E-02  0.9310524E-01
       -2   -1    0    0    0  501  0.00000000000E+00  0.00000000000E+00  0.34822514889E+03  0.34822514890E+03  0.25500000920E-02 0.  1.
        2   -1    0    0  501    0  0.00000000000E+00  0.00000000000E+00 -0.71534016820E+03  0.71534016820E+03  0.25500000920E-02 0. -1.
    10030    2    1    2    0    0  0.00000000000E+00  0.00000000000E+00 -0.36711501931E+03  0.10635653171E+04  0.99819724822E+03 0.  0.
        5    1    3    3  502    0  0.79609228814E+02 -0.15886834766E+03 -0.68046780328E+03  0.70330313699E+03  0.46999998093E+01 0. -1.
       -5    1    3    3    0  502 -0.79609228814E+02  0.15886834766E+03  0.31335278397E+03  0.36026218011E+03  0.46999998093E+01 0.  1.
</event>
<event>
 5   0  0.1353789E-03  0.9987618E+03  0.7818609E-02  0.9309904E-01
        1   -1    0    0  501    0  0.00000000000E+00  0.00000000000E+00  0.32108226716E+03  0.32108226720E+03  0.50400001928E-02 0. -1.
       -1   -1    0    0    0  501  0.00000000000E+00  0.00000000000E+00 -0.77668971152E+03  0.77668971153E+03  0.50400001928E-02 0.  1.
    10030    2    1    2    0    0  0.00000000000E+00  0.00000000000E+00 -0.45560744435E+03  0.10977719787E+04  0.99876182043E+03 0.  0.
        1    1    3    3  502    0  0.36529309801E+03  0.18095586631E+03 -0.54483682946E+03  0.68046399152E+03  0.50400001928E-02 0.  1.
       -1    1    3    3    0  502 -0.36529309801E+03 -0.18095586631E+03  0.89229385105E+02  0.41730798721E+03  0.50400001928E-02 0. -1.
</event>
<event>
 5   0  0.2284843E-03  0.1004198E+04  0.7818609E-02  0.9303953E-01
       -2   -1    0    0    0  501  0.00000000000E+00  0.00000000000E+00  0.21285216508E+03  0.21285216509E+03  0.25500000920E-02 0.  1.
        2   -1    0    0  501    0  0.00000000000E+00  0.00000000000E+00 -0.11844059046E+04  0.11844059046E+04  0.25500000920E-02 0. -1.
    10030    2    1    2    0    0  0.00000000000E+00  0.00000000000E+00 -0.97155373950E+03  0.13972580697E+04  0.10041979110E+04 0.  0.
        2    1    3    3  502    0  0.19958495023E+03 -0.32383727266E+03 -0.94176830217E+03  0.10156929982E+04  0.25500000920E-02 0. -1.
       -2    1    3    3    0  502 -0.19958495023E+03  0.32383727266E+03 -0.29785437332E+02  0.38156507152E+03  0.25500000920E-02 0.  1.
</event>
<event>
 5   0  0.1249195E-03  0.1002319E+04  0.7818609E-02  0.9306005E-01
       -1   -1    0    0    0  501  0.00000000000E+00  0.00000000000E+00  0.40451319051E+03  0.40451319054E+03  0.50400001928E-02 0.  1.
        1   -1    0    0  501    0  0.00000000000E+00  0.00000000000E+00 -0.62089611837E+03  0.62089611839E+03  0.50400001928E-02 0. -1.
    10030    2    1    2    0    0  0.00000000000E+00  0.00000000000E+00 -0.21638292786E+03  0.10254093089E+04  0.10023186516E+04 0.  0.
        2    1    3    3  502    0  0.11315533027E+03  0.13186681001E+03 -0.58909262667E+03  0.61418491284E+03  0.25500000920E-02 0. -1.
       -2    1    3    3    0  502 -0.11315533027E+03 -0.13186681001E+03  0.37270969881E+03  0.41122439610E+03  0.25500000920E-02 0.  1.
</event>
<event>
 5   0  0.2204862E-03  0.1002130E+04  0.7818609E-02  0.9306212E-01
        2   -1    0    0  501    0  0.00000000000E+00  0.00000000000E+00  0.73274552441E+03  0.73274552441E+03  0.25500000920E-02 0. -1.
       -2   -1    0    0    0  501  0.00000000000E+00  0.00000000000E+00 -0.34263725513E+03  0.34263725513E+03  0.25500000920E-02 0.  1.
    10030    2    1    2    0    0  0.00000000000E+00  0.00000000000E+00  0.39010826928E+03  0.10753827795E+04  0.10021295629E+04 0.  0.
        1    1    3    3  502    0  0.20130216696E+03  0.45426890573E+03  0.12564940681E+03  0.51251397503E+03  0.50400001928E-02 0.  1.
       -1    1    3    3    0  502 -0.20130216696E+03 -0.45426890573E+03  0.26445886247E+03  0.56286880452E+03  0.50400001928E-02 0. -1.
</event>
<event>
 5   0  0.1293716E-03  0.9999918E+03  0.7818609E-02  0.9308554E-01
       -1   -1    0    0    0  501  0.00000000000E+00  0.00000000000E+00  0.38409167615E+03  0.38409167618E+03  0.50400001928E-02 0. -1.
        1   -1    0    0  501    0  0.00000000000E+00  0.00000000000E+00 -0.65087563438E+03  0.65087563440E+03  0.50400001928E-02 0.  1.
    10030    2    1    2    0    0  0.00000000000E+00  0.00000000000E+00 -0.26678395823E+03  0.10349673106E+04  0.99999182677E+03 0.  0.
        3    1    3    3  502    0 -0.35721590291E+03  0.27087143338E+03 -0.36254358119E+03  0.57655215998E+03  0.10100000352E+00 0.  1.
       -3    1    3    3    0  502  0.35721590291E+03 -0.27087143338E+03  0.95759622963E+02  0.45841515060E+03  0.10100000352E+00 0. -1.
</event>
<event>
 5   0  0.1293716E-03  0.9968918E+03  0.7818609E-02  0.9311960E-01
        1   -1    0    0  501    0  0.00000000000E+00  0.00000000000E+00  0.17148767405E+04  0.17148767405E+04  0.50400001928E-02 0.  1.
       -1   -1    0    0    0  501  0.00000000000E+00  0.00000000000E+00 -0.14487822798E+03  0.14487822807E+03  0.50400001928E-02 0. -1.
    10030    2    1    2    0    0  0.00000000000E+00  0.00000000000E+00  0.15699985125E+04  0.18597549686E+04  0.99689177638E+03 0.  0.
        3    1    3    3  502    0 -0.25785134873E+03 -0.14916944934E+03  0.39455698020E+02  0.30049227106E+03  0.10100000352E+00 0. -1.
       -3    1    3    3    0  502  0.25785134873E+03  0.14916944934E+03  0.15305428145E+04  0.15592626975E+04  0.10100000352E+00 0.  1.
</event>
<event>
 5   0  0.2255142E-03  0.9979064E+03  0.7818609E-02  0.9310844E-01
       -2   -1    0    0    0  501  0.00000000000E+00  0.00000000000E+00  0.35696614603E+03  0.35696614604E+03  0.25500000920E-02 0.  1.
        2   -1    0    0  501    0  0.00000000000E+00  0.00000000000E+00 -0.69741711284E+03  0.69741711285E+03  0.25500000920E-02 0. -1.
    10030    2    1    2    0    0  0.00000000000E+00  0.00000000000E+00 -0.34045096681E+03  0.10543832589E+04  0.99790640634E+03 0.  0.
        4    1    3    3  502    0  0.26588798718E+03 -0.64322956926E+02  0.27066583843E+03  0.38483174701E+03  0.12699999809E+01 0.  1.
       -4    1    3    3    0  502 -0.26588798718E+03  0.64322956926E+02 -0.61111680524E+03  0.66955151188E+03  0.12699999809E+01 0. -1.
</event>
<event>
 5   0  0.2204862E-03  0.1001351E+04  0.7818609E-02  0.9307064E-01
        2   -1    0    0  501    0  0.00000000000E+00  0.00000000000E+00  0.15185516192E+04  0.15185516192E+04  0.25500000920E-02 0.  1.
       -2   -1    0    0    0  501  0.00000000000E+00  0.00000000000E+00 -0.16507566450E+03  0.16507566452E+03  0.25500000920E-02 0. -1.
    10030    2    1    2    0    0  0.00000000000E+00  0.00000000000E+00  0.13534759547E+04  0.16836272837E+04  0.10013509228E+04 0.  0.
        1    1    3    3  502    0  0.40489633376E+03 -0.29128283906E+03  0.74981768544E+03  0.90056276563E+03  0.50400001928E-02 0.  1.
       -1    1    3    3    0  502 -0.40489633376E+03  0.29128283906E+03  0.60365826923E+03  0.78306451806E+03  0.50400001928E-02 0. -1.
</event>
<event>
 5   0  0.8680125E-04  0.9984029E+03  0.7818609E-02  0.9310298E-01
       -4   -1    0    0    0  501  0.00000000000E+00  0.00000000000E+00  0.23179253019E+03  0.23179600935E+03  0.12699999809E+01 0.  1.
        4   -1    0    0  501    0  0.00000000000E+00  0.00000000000E+00 -0.10750963734E+04  0.10750971235E+04  0.12699999809E+01 0. -1.
    10030    2    1    2    0    0  0.00000000000E+00  0.00000000000E+00 -0.84330384321E+03  0.13068931329E+04  0.99840286898E+03 0.  0.
        1    1    3    3  502    0  0.11980466665E+03  0.37309160562E+03 -0.16814824454E+02  0.39221581136E+03  0.50400001928E-02 0.  1.
       -1    1    3    3    0  502 -0.11980466665E+03 -0.37309160562E+03 -0.82648901876E+03  0.91467732151E+03  0.50400001928E-02 0. -1.
</event>
<event>
 5   0  0.1293575E-03  0.9891139E+03  0.7818609E-02  0.9320566E-01
        1   -1    0    0  501    0  0.00000000000E+00  0.00000000000E+00  0.11210312104E+04  0.11210312104E+04  0.50400001928E-02 0. -1.
       -1   -1    0    0    0  501  0.00000000000E+00  0.00000000000E+00 -0.21818000054E+03  0.21818000059E+03  0.50400001928E-02 0.  1.
    10030    2    1    2    0    0  0.00000000000E+00  0.00000000000E+00  0.90285120987E+03  0.13392112110E+04  0.98911392697E+03 0.  0.
        4    1    3    3  502    0  0.32804126437E+03 -0.32580372892E+03  0.21370863083E+03  0.50934480727E+03  0.12699999809E+01 0.  1.
       -4    1    3    3    0  502 -0.32804126437E+03  0.32580372892E+03  0.68914257904E+03  0.82986640373E+03  0.12699999809E+01 0. -1.
</event>
<event>
 5   0  0.1285769E-03  0.9990900E+03  0.7818609E-02  0.9309543E-01
        1   -1    0    0  501    0  0.00000000000E+00  0.00000000000E+00  0.18956747629E+03  0.18956747635E+03  0.50400001928E-02 0.  1.
       -1   -1    0    0    0  501  0.00000000000E+00  0.00000000000E+00 -0.13163924872E+04  0.13163924872E+04  0.50400001928E-02 0. -1.
    10030    2    1    2    0    0  0.00000000000E+00  0.00000000000E+00 -0.11268250109E+04  0.15059599636E+04  0.99908998926E+03 0.  0.
        5    1    3    3  502    0 -0.47587187238E+02  0.35319368704E+03 -0.35818885505E+02  0.35821139500E+03  0.46999998093E+01 0.  1.
       -5    1    3    3    0  502  0.47587187238E+02 -0.35319368704E+03 -0.10910061254E+04  0.11477485686E+04  0.46999998093E+01 0. -1.
</event>
<event>
 5   0  0.2284843E-03  0.9980249E+03  0.7818609E-02  0.9310714E-01
        2   -1    0    0  501    0  0.00000000000E+00  0.00000000000E+00  0.33936363691E+03  0.33936363692E+03  0.25500000920E-02 0.  1.
       -2   -1    0    0    0  501  0.00000000000E+00  0.00000000000E+00 -0.73376575289E+03  0.73376575290E+03  0.25500000920E-02 0. -1.
    10030    2    1    2    0    0  0.00000000000E+00  0.00000000000E+00 -0.39440211598E+03  0.10731293898E+04  0.99802487855E+03 0.  0.
        2    1    3    3  502    0 -0.91843166353E+02 -0.22529663307E+03 -0.66567057163E+03  0.70873905637E+03  0.25500000920E-02 0. -1.
       -2    1    3    3    0  502  0.91843166353E+02  0.22529663307E+03  0.27126845565E+03  0.36439033345E+03  0.25500000920E-02 0.  1.
</event>
<event>
 5   0  0.1293575E-03  0.9974038E+03  0.7818609E-02  0.9311397E-01
        1   -1    0    0  501    0  0.00000000000E+00  0.00000000000E+00  0.77964467430E+03  0.77964467432E+03  0.50400001928E-02 0.  1.
       -1   -1    0    0    0  501  0.00000000000E+00  0.00000000000E+00 -0.31899609724E+03  0.31899609727E+03  0.50400001928E-02 0. -1.
    10030    2    1    2    0    0  0.00000000000E+00  0.00000000000E+00  0.46064857707E+03  0.10986407716E+04  0.99740384672E+03 0.  0.
        4    1    3    3  502    0  0.16389289307E+03  0.24660971925E+03  0.67233317970E+03  0.73465008776E+03  0.12699999809E+01 0.  1.
       -4    1    3    3    0  502 -0.16389289307E+03 -0.24660971925E+03 -0.21168460263E+03  0.36399068383E+03  0.12699999809E+01 0. -1.
</event>
<event>
 5   0  0.2264577E-03  0.9992137E+03  0.7818609E-02  0.9309408E-01
        2   -1    0    0  501    0  0.00000000000E+00  0.00000000000E+00  0.66580224117E+03  0.66580224117E+03  0.25500000920E-02 0.  1.
       -2   -1    0    0    0  501  0.00000000000E+00  0.00000000000E+00 -0.37489658507E+03  0.37489658508E+03  0.25500000920E-02 0. -1.
    10030    2    1    2    0    0  0.00000000000E+00  0.00000000000E+00  0.29090565610E+03  0.10406988263E+04  0.99921366395E+03 0.  0.
        5    1    3    3  502    0  0.90322176661E+02 -0.32016592453E+03  0.53364788150E+03  0.62886124563E+03  0.46999998093E+01 0.  1.
       -5    1    3    3    0  502 -0.90322176661E+02  0.32016592453E+03 -0.24274222540E+03  0.41183758063E+03  0.46999998093E+01 0. -1.
</event>
<event>
 5   0  0.1285769E-03  0.9994081E+03  0.7818609E-02  0.9309194E-01
       -1   -1    0    0    0  501  0.00000000000E+00  0.00000000000E+00  0.15786309365E+03  0.15786309373E+03  0.50400001928E-02 0. -1.
        1   -1    0    0  501    0  0.00000000000E+00  0.00000000000E+00 -0.15817765113E+04  0.15817765113E+04  0.50400001928E-02 0.  1.
    10030    2    1    2    0    0  0.00000000000E+00  0.00000000000E+00 -0.14239134177E+04  0.17396396051E+04  0.99940809206E+03 0.  0.
        5    1    3    3  502    0  0.52654693740E+02  0.48634364119E+03 -0.53461849487E+03  0.72466659862E+03  0.46999998093E+01 0. -1.
       -5    1    3    3    0  502 -0.52654693740E+02 -0.48634364119E+03 -0.88929492280E+03  0.10149730064E+04  0.46999998093E+01 0.  1.
</event>
<event>
 5   0  0.1353789E-03  0.9943190E+03  0.7818609E-02  0.9314798E-01
       -1   -1    0    0    0  501  0.00000000000E+00  0.00000000000E+00  0.33449027981E+03  0.33449027985E+03  0.50400001928E-02 0.  1.
        1   -1    0    0  501    0  0.00000000000E+00  0.00000000000E+00 -0.73893795141E+03  0.73893795143E+03  0.50400001928E-02 0. -1.
    10030    2    1    2    0    0  0.00000000000E+00  0.00000000000E+00 -0.40444767160E+03  0.10734282313E+04  0.99431898737E+03 0.  0.
        1    1    3    3  502    0  0.23580599498E+03 -0.14652586213E+03  0.24301274738E+03  0.36895730235E+03  0.50400001928E-02 0.  1.
       -1    1    3    3    0  502 -0.23580599498E+03  0.14652586213E+03 -0.64746041898E+03  0.70447092893E+03  0.50400001928E-02 0. -1.
</event>
<event>
 5   0  0.2284843E-03  0.1005028E+04  0.7818609E-02  0.9303047E-01
        2   -1    0    0  501    0  0.00000000000E+00  0.00000000000E+00  0.53216842213E+03  0.53216842214E+03  0.25500000920E-02 0. -1.
       -2   -1    0    0    0  501  0.00000000000E+00  0.00000000000E+00 -0.47451187284E+03  0.47451187285E+03  0.25500000920E-02 0.  1.
    10030    2    1    2    0    0  0.00000000000E+00  0.00000000000E+00  0.57656549290E+02  0.10066802950E+04  0.10050278298E+04 0.  0.
        2    1    3    3  502    0 -0.28214499991E+03  0.37072269299E+03 -0.15984044010E+03  0.49253434638E+03  0.25500000920E-02 0.  1.
       -2    1    3    3    0  502  0.28214499991E+03 -0.37072269299E+03  0.21749698939E+03  0.51414594860E+03  0.25500000920E-02 0. -1.
</event>
<event>
 5   0  0.1285769E-03  0.1005155E+04  0.7818609E-02  0.9302909E-01
        1   -1    0    0  501    0  0.00000000000E+00  0.00000000000E+00  0.55132013728E+03  0.55132013731E+03  0.50400001928E-02 0.  1.
       -1   -1    0    0    0  501  0.00000000000E+00  0.00000000000E+00 -0.45814454187E+03  0.45814454190E+03  0.50400001928E-02 0. -1.
    10030    2    1    2    0    0  0.00000000000E+00  0.00000000000E+00  0.93175595412E+02  0.10094646792E+04  0.10051553348E+04 0.  0.
        5    1    3    3  502    0 -0.20246585013E+03 -0.36097292732E+02 -0.41392667639E+03  0.46222593873E+03  0.46999998093E+01 0. -1.
       -5    1    3    3    0  502  0.20246585013E+03  0.36097292732E+02  0.50710227180E+03  0.54723874047E+03  0.46999998093E+01 0.  1.
</event>
<event>
 5   0  0.2204862E-03  0.9967687E+03  0.7818609E-02  0.9312096E-01
        2   -1    0    0  501    0  0.00000000000E+00  0.00000000000E+00  0.16148731132E+04  0.16148731132E+04  0.25500000920E-02 0.  1.
       -2   -1    0    0    0  501  0.00000000000E+00  0.00000000000E+00 -0.15381204500E+03  0.15381204502E+03  0.25500000920E-02 0. -1.
    10030    2    1    2    0    0  0.00000000000E+00  0.00000000000E+00  0.14610610682E+04  0.17686851582E+04  0.99676865115E+03 0.  0.
        1    1    3    3  502    0  0.41439483216E+02 -0.38117796518E+03  0.16557086293E+03  0.41764528321E+03  0.50400001928E-02 0. -1.
       -1    1    3    3    0  502 -0.41439483216E+02  0.38117796518E+03  0.12954902053E+04  0.13510398750E+04  0.50400001928E-02 0.  1.
</event>
<event>
 5   0  0.1353789E-03  0.9988705E+03  0.7818609E-02  0.9309784E-01
        1   -1    0    0  501    0  0.00000000000E+00  0.00000000000E+00  0.93952896301E+03  0.93952896302E+03  0.50400001928E-02 0. -1.
       -1   -1    0    0    0  501  0.00000000000E+00  0.00000000000E+00 -0.26549004516E+03  0.26549004521E+03  0.50400001928E-02 0.  1.
    10030    2    1    2    0    0  0.00000000000E+00  0.00000000000E+00  0.67403891785E+03  0.12050190082E+04  0.99887053587E+03 0.  0.
        1    1    3    3  502    0  0.21906977668E+03 -0.38000606126E+02 -0.20249074640E+03  0.30072930606E+03  0.50400001928E-02 0.  1.
       -1    1    3    3    0  502 -0.21906977668E+03  0.38000606126E+02  0.87652966425E+03  0.90428970217E+03  0.50400001928E-02 0. -1.
</event>
<event>
 5   0  0.1249195E-03  0.9949439E+03  0.7818609E-02  0.9314108E-01
       -1   -1    0    0    0  501  0.00000000000E+00  0.00000000000E+00  0.18182067104E+03  0.18182067111E+03  0.50400001928E-02 0. -1.
        1   -1    0    0  501    0  0.00000000000E+00  0.00000000000E+00 -0.13611121716E+04  0.13611121716E+04  0.50400001928E-02 0.  1.
    10030    2    1    2    0    0  0.00000000000E+00  0.00000000000E+00 -0.11792915005E+04  0.15429328427E+04  0.99494387472E+03 0.  0.
        2    1    3    3  502    0 -0.20722622228E+03 -0.21281099908E+03  0.29202556280E+02  0.29846945879E+03  0.25500000920E-02 0. -1.
       -2    1    3    3    0  502  0.20722622228E+03  0.21281099908E+03 -0.12084940568E+04  0.12444633839E+04  0.25500000920E-02 0.  1.
</event>
<event>
 5   0  0.2255142E-03  0.1000612E+04  0.7818609E-02  0.9307873E-01
       -2   -1    0    0    0  501  0.00000000000E+00  0.00000000000E+00  0.15599613786E+03  0.15599613788E+03  0.25500000920E-02 0.  1.
        2   -1    0    0  501    0  0.00000000000E+00  0.00000000000E+00 -0.16045671299E+04  0.16045671299E+04  0.25500000920E-02 0. -1.
    10030    2    1    2    0    0  0.00000000000E+00  0.00000000000E+00 -0.14485709920E+04  0.17605632678E+04  0.10006123629E+04 0.  0.
        4    1    3    3  502    0 -0.21611898357E+03  0.48511280404E+02 -0.15135946468E+04  0.15297160283E+04  0.12699999809E+01 0. -1.
       -4    1    3    3    0  502  0.21611898357E+03 -0.48511280404E+02  0.65023654807E+02  0.23084723947E+03  0.12699999809E+01 0.  1.
</event>
<event>
 5   0  0.2284843E-03  0.9857791E+03  0.7818609E-02  0.9324281E-01
        2   -1    0    0  501    0  0.00000000000E+00  0.00000000000E+00  0.29135191464E+03  0.29135191465E+03  0.25500000920E-02 0. -1.
       -2   -1    0    0    0  501  0.00000000000E+00  0.00000000000E+00 -0.83383729984E+03  0.83383729984E+03  0.25500000920E-02 0.  1.
    10030    2    1    2    0    0  0.00000000000E+00  0.00000000000E+00 -0.54248538520E+03  0.11251892145E+04  0.98577907020E+03 0.  0.
        2    1    3    3  502    0  0.50724950571E+02 -0.17174928305E+03 -0.79538908545E+03  0.81530033368E+03  0.25500000920E-02 0.  1.
       -2    1    3    3    0  502 -0.50724950571E+02  0.17174928305E+03  0.25290370025E+03  0.30988888080E+03  0.25500000920E-02 0. -1.
</event>
<event>
 5   0  0.2255142E-03  0.1001609E+04  0.7818609E-02  0.9306782E-01
       -2   -1    0    0    0  501  0.00000000000E+00  0.00000000000E+00  0.14095520148E+03  0.14095520150E+03  0.25500000920E-02 0. -1.
        2   -1    0    0  501    0  0.00000000000E+00  0.00000000000E+00 -0.17793262855E+04  0.17793262855E+04  0.25500000920E-02 0.  1.
    10030    2    1    2    0    0  0.00000000000E+00  0.00000000000E+00 -0.16383710840E+04  0.19202814870E+04  0.10016092953E+04 0.  0.
        4    1    3    3  502    0 -0.50673617719E+02  0.45136557484E+03 -0.12236411633E+04  0.13052195245E+04  0.12699999809E+01 0.  1.
       -4    1    3    3    0  502  0.50673617719E+02 -0.45136557484E+03 -0.41472992071E+03  0.61506196249E+03  0.12699999809E+01 0. -1.
</event>
<event>
 5   0  0.1249195E-03  0.1001023E+04  0.7818609E-02  0.9307424E-01
       -1   -1    0    0    0  501  0.00000000000E+00  0.00000000000E+00  0.30142658923E+03  0.30142658928E+03  0.50400001928E-02 0.  1.
        1   -1    0    0  501    0  0.00000000000E+00  0.00000000000E+00 -0.83108667494E+03  0.83108667495E+03  0.50400001928E-02 0. -1.
    10030    2    1    2    0    0  0.00000000000E+00  0.00000000000E+00 -0.52966008570E+03  0.11325132642E+04  0.10010227207E+04 0.  0.
        2    1    3    3  502    0  0.26713310391E+03  0.41896205887E+03 -0.33292152057E+03  0.59810203213E+03  0.25500000920E-02 0.  1.
       -2    1    3    3    0  502 -0.26713310391E+03 -0.41896205887E+03 -0.19673856513E+03  0.53441123210E+03  0.25500000920E-02 0. -1.
</event>
<event>
 5   0  0.2204862E-03  0.9900437E+03  0.7818609E-02  0.9319533E-01
        2   -1    0    0  501    0  0.00000000000E+00  0.00000000000E+00  0.66299161919E+03  0.66299161919E+03  0.25500000920E-02 0.  1.
       -2   -1    0    0    0  501  0.00000000000E+00  0.00000000000E+00 -0.36960745783E+03  0.36960745784E+03  0.25500000920E-02 0. -1.
    10030    2    1    2    0    0  0.00000000000E+00  0.00000000000E+00  0.29338416136E+03  0.10325990770E+04  0.99004373022E+03 0.  0.
        1    1    3    3  502    0 -0.13128277231E+03 -0.41293078237E+03 -0.10297043237E+03  0.44536491477E+03  0.50400001928E-02 0. -1.
       -1    1    3    3    0  502  0.13128277231E+03  0.41293078237E+03  0.39635459372E+03  0.58723416227E+03  0.50400001928E-02 0.  1.
</event>
<event>
 5   0  0.1293575E-03  0.1002741E+04  0.7818609E-02  0.9305543E-01
        1   -1    0    0  501    0  0.00000000000E+00  0.00000000000E+00  0.20825617589E+04  0.20825617589E+04  0.50400001928E-02 0.  1.
       -1   -1    0    0    0  501  0.00000000000E+00  0.00000000000E+00 -0.12070354843E+03  0.12070354853E+03  0.50400001928E-02 0. -1.
    10030    2    1    2    0    0  0.00000000000E+00  0.00000000000E+00  0.19618582104E+04  0.22032653074E+04  0.10027414308E+04 0.  0.
        4    1    3    3  502    0 -0.33876646271E+03 -0.30767319989E+02  0.17163502499E+03  0.38101120579E+03  0.12699999809E+01 0. -1.
       -4    1    3    3    0  502  0.33876646271E+03  0.30767319989E+02  0.17902231854E+04  0.18222541016E+04  0.12699999809E+01 0.  1.
</event>
<event>
 5   0  0.1249195E-03  0.1002814E+04  0.7818609E-02  0.9305464E-01
        1   -1    0    0  501    0  0.00000000000E+00  0.00000000000E+00  0.18878019250E+03  0.18878019257E+03  0.50400001928E-02 0.  1.
       -1   -1    0    0    0  501  0.00000000000E+00  0.00000000000E+00 -0.13317548002E+04  0.13317548002E+04  0.50400001928E-02 0. -1.
    10030    2    1    2    0    0  0.00000000000E+00  0.00000000000E+00 -0.11429746077E+04  0.15205349928E+04  0.10028138962E+04 0.  0.
        2    1    3    3  502    0 -0.17505826057E+03 -0.37163819163E+03 -0.13558035351E+03  0.43259955194E+03  0.25500000920E-02 0.  1.
       -2    1    3    3    0  502  0.17505826057E+03  0.37163819163E+03 -0.10073942542E+04  0.10879354409E+04  0.25500000920E-02 0. -1.
</event>
<event>
 5   0  0.1353789E-03  0.9989779E+03  0.7818609E-02  0.9309667E-01
       -1   -1    0    0    0  501  0.00000000000E+00  0.00000000000E+00  0.27578395163E+03  0.27578395167E+03  0.50400001928E-02 0.  1.
        1   -1    0    0  501    0  0.00000000000E+00  0.00000000000E+00 -0.90465459550E+03  0.90465459552E+03  0.50400001928E-02 0. -1.
    10030    2    1    2    0    0  0.00000000000E+00  0.00000000000E+00 -0.62887064388E+03  0.11804385472E+04  0.99897791616E+03 0.  0.
        1    1    3    3  502    0  0.27768162174E+03  0.38146206427E+03 -0.12074323853E+03  0.48703112755E+03  0.50400001928E-02 0. -1.
       -1    1    3    3    0  502 -0.27768162174E+03 -0.38146206427E+03 -0.50812740534E+03  0.69340741964E+03  0.50400001928E-02 0.  1.
</event>
<event>
 5   0  0.2204862E-03  0.9970147E+03  0.7818609E-02  0.9311825E-01
       -2   -1    0    0    0  501  0.00000000000E+00  0.00000000000E+00  0.14335900344E+03  0.14335900346E+03  0.25500000920E-02 0. -1.
        2   -1    0    0  501    0  0.00000000000E+00  0.00000000000E+00 -0.17334773623E+04  0.17334773623E+04  0.25500000920E-02 0.  1.
    10030    2    1    2    0    0  0.00000000000E+00  0.00000000000E+00 -0.15901183588E+04  0.18768363657E+04  0.99701471838E+03 0.  0.
        1    1    3    3  502    0 -0.27284898109E+03  0.95974783389E+01 -0.98901575177E+01  0.27319680327E+03  0.50400001928E-02 0. -1.
       -1    1    3    3    0  502  0.27284898109E+03 -0.95974783389E+01 -0.15802282013E+04  0.16036395625E+04  0.50400001928E-02 0.  1.
</event>
<event>
 5   0  0.1293716E-03  0.1001086E+04  0.7818609E-02  0.9307354E-01
        1   -1    0    0  501    0  0.00000000000E+00  0.00000000000E+00  0.40570471246E+03  0.40570471249E+03  0.50400001928E-02 0. -1.
       -1   -1    0    0    0  501  0.00000000000E+00  0.00000000000E+00 -0.61755129302E+03  0.61755129304E+03  0.50400001928E-02 0.  1.
    10030    2    1    2    0    0  0.00000000000E+00  0.00000000000E+00 -0.21184658056E+03  0.10232560055E+04  0.10010863495E+04 0.  0.
        3    1    3    3  502    0  0.33907210373E+03 -0.33176242086E+03  0.57323519430E+02  0.47783071427E+03  0.10100000352E+00 0. -1.
       -3    1    3    3    0  502 -0.33907210373E+03  0.33176242086E+03 -0.26917009999E+03  0.54542529126E+03  0.10100000352E+00 0.  1.
</event>
<event>
 5   0  0.1285769E-03  0.9988196E+03  0.7818609E-02  0.9309840E-01
       -1   -1    0    0    0  501  0.00000000000E+00  0.00000000000E+00  0.53214662085E+03  0.53214662088E+03  0.50400001928E-02 0.  1.
        1   -1    0    0  501    0  0.00000000000E+00  0.00000000000E+00 -0.46868685614E+03  0.46868685617E+03  0.50400001928E-02 0. -1.
    10030    2    1    2    0    0  0.00000000000E+00  0.00000000000E+00  0.63459764712E+02  0.10008334770E+04  0.99881955679E+03 0.  0.
        5    1    3    3  502    0 -0.66489604787E+02  0.10078676276E+03 -0.45381830683E+03  0.46962962503E+03  0.46999998093E+01 0. -1.
       -5    1    3    3    0  502  0.66489604787E+02 -0.10078676276E+03  0.51727807155E+03  0.53120385201E+03  0.46999998093E+01 0.  1.
</event>
<event>
 5   0  0.1293716E-03  0.1000192E+04  0.7818609E-02  0.9308334E-01
        1   -1    0    0  501    0  0.00000000000E+00  0.00000000000E+00  0.43706520186E+03  0.43706520189E+03  0.50400001928E-02 0.  1.
       -1   -1    0    0    0  501  0.00000000000E+00  0.00000000000E+00 -0.57221683172E+03  0.57221683174E+03  0.50400001928E-02 0. -1.
    10030    2    1    2    0    0  0.00000000000E+00  0.00000000000E+00 -0.13515162986E+03  0.10092820336E+04  0.10001921117E+04 0.  0.
        3    1    3    3  502    0  0.33714748087E+03  0.11798741509E+03 -0.42076619196E+03  0.55193627574E+03  0.10100000352E+00 0. -1.
       -3    1    3    3    0  502 -0.33714748087E+03 -0.11798741509E+03  0.28561456210E+03  0.45734575789E+03  0.10100000352E+00 0.  1.
</event>
<event>
 5   0  0.2284843E-03  0.1000136E+04  0.7818609E-02  0.9308396E-01
       -2   -1    0    0    0  501  0.00000000000E+00  0.00000000000E+00  0.16103635858E+03  0.16103635860E+03  0.25500000920E-02 0.  1.
        2   -1    0    0  501    0  0.00000000000E+00  0.00000000000E+00 -0.15528658345E+04  0.15528658345E+04  0.25500000920E-02 0. -1.
    10030    2    1    2    0    0  0.00000000000E+00  0.00000000000E+00 -0.13918294760E+04  0.17139021932E+04  0.10001357096E+04 0.  0.
        2    1    3    3  502    0 -0.29748993397E+03  0.19082465089E+03 -0.13021604629E+04  0.13492724630E+04  0.25500000920E-02 0. -1.
       -2    1    3    3    0  502  0.29748993397E+03 -0.19082465089E+03 -0.89669013029E+02  0.36462973014E+03  0.25500000920E-02 0.  1.
</event>
<event>
 5   0  0.2284843E-03  0.9951211E+03  0.7818609E-02  0.9313912E-01
       -2   -1    0    0    0  501  0.00000000000E+00  0.00000000000E+00  0.16751443777E+03  0.16751443779E+03  0.25500000920E-02 0. -1.
        2   -1    0    0  501    0  0.00000000000E+00  0.00000000000E+00 -0.14778814413E+04  0.14778814413E+04  0.25500000920E-02 0.  1.
    10030    2    1    2    0    0  0.00000000000E+00  0.00000000000E+00 -0.13103670035E+04  0.16453958791E+04  0.99512105545E+03 0.  0.
        2    1    3    3  502    0  0.38468957228E+03 -0.13599965972E+03 -0.18435426531E+03  0.44773705409E+03  0.25500000920E-02 0. -1.
       -2    1    3    3    0  502 -0.38468957228E+03  0.13599965972E+03 -0.11260127382E+04  0.11976588250E+04  0.25500000920E-02 0.  1.
</event>
<event>
 5   0  0.2255142E-03  0.9942829E+03  0.7818609E-02  0.9314838E-01
        2   -1    0    0  501    0  0.00000000000E+00  0.00000000000E+00  0.36608889388E+03  0.36608889389E+03  0.25500000920E-02 0.  1.
       -2   -1    0    0    0  501  0.00000000000E+00  0.00000000000E+00 -0.67510822672E+03  0.67510822672E+03  0.25500000920E-02 0. -1.
    10030    2    1    2    0    0  0.00000000000E+00  0.00000000000E+00 -0.30901933283E+03  0.10411971206E+04  0.99428290537E+03 0.  0.
        4    1    3    3  502    0 -0.87658401972E+02  0.48897321380E+03 -0.13438814639E+03  0.51462664723E+03  0.12699999809E+01 0. -1.
       -4    1    3    3    0  502  0.87658401972E+02 -0.48897321380E+03 -0.17463118645E+03  0.52657047338E+03  0.12699999809E+01 0.  1.
</event>
<event>
 5   0  0.8680125E-04  0.9999343E+03  0.7818609E-02  0.9308617E-01
        3   -1    0    0  501    0  0.00000000000E+00  0.00000000000E+00  0.11561177193E+04  0.11561177237E+04  0.10100000352E+00 0. -1.
       -3   -1    0    0    0  501  0.00000000000E+00  0.00000000000E+00 -0.21621250787E+03  0.21621253146E+03  0.10100000352E+00 0.  1.
    10030    2    1    2    0    0  0.00000000000E+00  0.00000000000E+00  0.93990521146E+03  0.13723302552E+04  0.99993425926E+03 0.  0.
        2    1    3    3  502    0 -0.59778922070E+02 -0.22696493621E+03  0.10758113980E+04  0.11011161455E+04  0.25500000920E-02 0. -1.
       -2    1    3    3    0  502  0.59778922070E+02  0.22696493621E+03 -0.13590618651E+03  0.27121410975E+03  0.25500000920E-02 0.  1.
</event>
<event>
 5   0  0.1293716E-03  0.9974558E+03  0.7818609E-02  0.9311340E-01
       -1   -1    0    0    0  501  0.00000000000E+00  0.00000000000E+00  0.30089724266E+03  0.30089724270E+03  0.50400001928E-02 0. -1.
        1   -1    0    0  501    0  0.00000000000E+00  0.00000000000E+00 -0.82662618770E+03  0.82662618772E+03  0.50400001928E-02 0.  1.
    10030    2    1    2    0    0  0.00000000000E+00  0.00000000000E+00 -0.52572894504E+03  0.11275234304E+04  0.99745584488E+03 0.  0.
        3    1    3    3  502    0 -0.10489267396E+03 -0.27235741457E+03 -0.72001073497E+03  0.77691473341E+03  0.10100000352E+00 0.  1.
       -3    1    3    3    0  502  0.10489267396E+03  0.27235741457E+03  0.19428178992E+03  0.35060869701E+03  0.10100000352E+00 0. -1.
</event>
<event>
 5   0  0.1293575E-03  0.1001875E+04  0.7818609E-02  0.9306491E-01
        1   -1    0    0  501    0  0.00000000000E+00  0.00000000000E+00  0.76239861437E+03  0.76239861438E+03  0.50400001928E-02 0. -1.
       -1   -1    0    0    0  501  0.00000000000E+00  0.00000000000E+00 -0.32914329090E+03  0.32914329094E+03  0.50400001928E-02 0.  1.
    10030    2    1    2    0    0  0.00000000000E+00  0.00000000000E+00  0.43325532347E+03  0.10915419053E+04  0.10018750200E+04 0.  0.
        4    1    3    3  502    0 -0.39551197723E+03  0.30358429488E+03  0.26937143384E+03  0.56670603535E+03  0.12699999809E+01 0. -1.
       -4    1    3    3    0  502  0.39551197723E+03 -0.30358429488E+03  0.16388388962E+03  0.52483586997E+03  0.12699999809E+01 0.  1.
</event>
<event>
 5   0  0.2264577E-03  0.1003327E+04  0.7818609E-02  0.9304903E-01
       -2   -1    0    0    0  501  0.00000000000E+00  0.00000000000E+00  0.24715975035E+03  0.24715975037E+03  0.25500000920E-02 0. -1.
        2   -1    0    0  501    0  0.00000000000E+00  0.00000000000E+00 -0.10182332286E+04  0.10182332286E+04  0.25500000920E-02 0.  1.
    10030    2    1    2    0    0  0.00000000000E+00  0.00000000000E+00 -0.77107347821E+03  0.12653929789E+04  0.10033270067E+04 0.  0.
        5    1    3    3  502    0 -0.18978898959E+03  0.10020493516E+03  0.18630628175E+03  0.28424111282E+03  0.46999998093E+01 0. -1.
       -5    1    3    3    0  502  0.18978898959E+03 -0.10020493516E+03 -0.95737975996E+03  0.98115186612E+03  0.46999998093E+01 0.  1.
</event>
<event>
 5   0  0.1293716E-03  0.1006421E+04  0.7818609E-02  0.9301531E-01
       -1   -1    0    0    0  501  0.00000000000E+00  0.00000000000E+00  0.31355548219E+03  0.31355548223E+03  0.50400001928E-02 0.  1.
        1   -1    0    0  501    0  0.00000000000E+00  0.00000000000E+00 -0.80757833894E+03  0.80757833896E+03  0.50400001928E-02 0. -1.
    10030    2    1    2    0    0  0.00000000000E+00  0.00000000000E+00 -0.49402285675E+03  0.11211338212E+04  0.10064206188E+04 0.  0.
        3    1    3    3  502    0  0.25000979226E+03 -0.87975037430E+02  0.22950196729E+03  0.35059330659E+03  0.10100000352E+00 0.  1.
       -3    1    3    3    0  502 -0.25000979226E+03  0.87975037430E+02 -0.72352482404E+03  0.77054051460E+03  0.10100000352E+00 0. -1.
</event>
<event>
 5   0  0.1249195E-03  0.1007246E+04  0.7818609E-02  0.9300633E-01
       -1   -1    0    0    0  501  0.00000000000E+00  0.00000000000E+00  0.15870597598E+03  0.15870597606E+03  0.50400001928E-02 0. -1.
        1   -1    0    0  501    0  0.00000000000E+00  0.00000000000E+00 -0.15981514119E+04  0.15981514119E+04  0.50400001928E-02 0.  1.
    10030    2    1    2    0    0  0.00000000000E+00  0.00000000000E+00 -0.14394454359E+04  0.17568573880E+04  0.10072461063E+04 0.  0.
        2    1    3    3  502    0  0.31834967439E+03  0.31539067475E+03 -0.11205834159E+04  0.12068657692E+04  0.25500000920E-02 0.  1.
       -2    1    3    3    0  502 -0.31834967439E+03 -0.31539067475E+03 -0.31886202007E+03  0.54999161880E+03  0.25500000920E-02 0. -1.
</event>
<event>
 5   0  0.2277570E-03  0.1007486E+04  0.7818609E-02  0.9300372E-01
       -2   -1    0    0    0  501  0.00000000000E+00  0.00000000000E+00  0.67643950193E+03  0.67643950194E+03  0.25500000920E-02 0. -1.
        2   -1    0    0  501    0  0.00000000000E+00  0.00000000000E+00 -0.37513631783E+03  0.37513631784E+03  0.25500000920E-02 0.  1.
    10030    2    1    2    0    0  0.00000000000E+00  0.00000000000E+00  0.30130318410E+03  0.10515758198E+04  0.10074860277E+04 0.  0.
        3    1    3    3  502    0  0.15193960838E+02  0.19599285166E+03 -0.33344814530E+03  0.38708103822E+03  0.10100000352E+00 0.  1.
       -3    1    3    3    0  502 -0.15193960838E+02 -0.19599285166E+03  0.63475132940E+03  0.66449478156E+03  0.10100000352E+00 0. -1.
</event>
<event>
 5   0  0.1293716E-03  0.9870116E+03  0.7818609E-02  0.9322906E-01
        1   -1    0    0  501    0  0.00000000000E+00  0.00000000000E+00  0.71522922047E+03  0.71522922049E+03  0.50400001928E-02 0. -1.
       -1   -1    0    0    0  501  0.00000000000E+00  0.00000000000E+00 -0.34051736832E+03  0.34051736836E+03  0.50400001928E-02 0.  1.
    10030    2    1    2    0    0  0.00000000000E+00  0.00000000000E+00  0.37471185215E+03  0.10557465889E+04  0.98701159452E+03 0.  0.
        3    1    3    3  502    0  0.20684139722E+03  0.30359279573E+03  0.53984395475E+03  0.65298043991E+03  0.10100000352E+00 0. -1.
       -3    1    3    3    0  502 -0.20684139722E+03 -0.30359279573E+03 -0.16513210259E+03  0.40276614894E+03  0.10100000352E+00 0.  1.
</event>
<event>
 5   0  0.1293716E-03  0.1001511E+04  0.7818609E-02  0.9306890E-01
       -1   -1    0    0    0  501  0.00000000000E+00  0.00000000000E+00  0.54864266033E+03  0.54864266035E+03  0.50400001928E-02 0.  1.
        1   -1    0    0  501    0  0.00000000000E+00  0.00000000000E+00 -0.45704767968E+03  0.45704767971E+03  0.50400001928E-02 0. -1.
    10030    2    1    2    0    0  0.00000000000E+00  0.00000000000E+00  0.91594980649E+02  0.10056903401E+04  0.10015105689E+04 0.  0.
        3    1    3    3  502    0  0.40277711290E+03  0.25554203639E+03 -0.10723508560E+03  0.48890746448E+03  0.10100000352E+00 0. -1.
       -3    1    3    3    0  502 -0.40277711290E+03 -0.25554203639E+03  0.19883006625E+03  0.51678287557E+03  0.10100000352E+00 0.  1.
</event>
<event>
 5   0  0.1293716E-03  0.9978714E+03  0.7818609E-02  0.9310883E-01
        1   -1    0    0  501    0  0.00000000000E+00  0.00000000000E+00  0.11034853720E+04  0.11034853720E+04  0.50400001928E-02 0. -1.
       -1   -1    0    0    0  501  0.00000000000E+00  0.00000000000E+00 -0.22559140509E+03  0.22559140515E+03  0.50400001928E-02 0.  1.
    10030    2    1    2    0    0  0.00000000000E+00  0.00000000000E+00  0.87789396687E+03  0.13290767771E+04  0.99787136566E+03 0.  0.
        3    1    3    3  502    0  0.11213962044E+03 -0.35884346238E+03  0.20618401433E+01  0.37596301194E+03  0.10100000352E+00 0.  1.
       -3    1    3    3    0  502 -0.11213962044E+03  0.35884346238E+03  0.87583212672E+03  0.95311376517E+03  0.10100000352E+00 0. -1.
</event>
<event>
 5   0  0.8680125E-04  0.9987732E+03  0.7818609E-02  0.9309891E-01
        4   -1    0    0  501    0  0.00000000000E+00  0.00000000000E+00  0.85451052377E+03  0.85451146753E+03  0.12699999809E+01 0. -1.
       -4   -1    0    0    0  501  0.00000000000E+00  0.00000000000E+00 -0.29184526409E+03  0.29184802735E+03  0.12699999809E+01 0.  1.
    10030    2    1    2    0    0  0.00000000000E+00  0.00000000000E+00  0.56266525968E+03  0.11463594949E+04  0.99877319600E+03 0.  0.
        1    1    3    3  502    0  0.21584772440E+02  0.38056908791E+03 -0.88968288218E+02  0.39142571378E+03  0.50400001928E-02 0.  1.
       -1    1    3    3    0  502 -0.21584772440E+02 -0.38056908791E+03  0.65163354790E+03  0.75493378110E+03  0.50400001928E-02 0. -1.
</event>
<event>
 5   0  0.1293575E-03  0.9842649E+03  0.7818609E-02  0.9325973E-01
       -1   -1    0    0    0  501  0.00000000000E+00  0.00000000000E+00  0.21059298917E+03  0.21059298923E+03  0.50400001928E-02 0.  1.
        1   -1    0    0  501    0  0.00000000000E+00  0.00000000000E+00 -0.11500589121E+04  0.11500589121E+04  0.50400001928E-02 0. -1.
    10030    2    1    2    0    0  0.00000000000E+00  0.00000000000E+00 -0.93946592294E+03  0.13606519013E+04  0.98426489132E+03 0.  0.
        4    1    3    3  502    0  0.23097952264E+03 -0.24427464692E+03 -0.96657427106E+03  0.10233714269E+04  0.12699999809E+01 0. -1.
       -4    1    3    3    0  502 -0.23097952264E+03  0.24427464692E+03  0.27108348121E+02  0.33728047445E+03  0.12699999809E+01 0.  1.
</event>
<event>
 5   0  0.1293575E-03  0.9980742E+03  0.7818609E-02  0.9310660E-01
       -1   -1    0    0    0  501  0.00000000000E+00  0.00000000000E+00  0.86624120273E+03  0.86624120274E+03  0.50400001928E-02 0. -1.
        1   -1    0    0  501    0  0.00000000000E+00  0.00000000000E+00 -0.28749269653E+03  0.28749269657E+03  0.50400001928E-02 0.  1.
    10030    2    1    2    0    0  0.00000000000E+00  0.00000000000E+00  0.57874850620E+03  0.11537338993E+04  0.99807418411E+03 0.  0.
        4    1    3    3  502    0  0.46340167878E+03  0.18511283719E+03  0.29554841796E+03  0.57996410116E+03  0.12699999809E+01 0.  1.
       -4    1    3    3    0  502 -0.46340167878E+03 -0.18511283719E+03  0.28320008825E+03  0.57376979815E+03  0.12699999809E+01 0. -1.
</event>
<event>
 5   0  0.2277570E-03  0.9581279E+03  0.7818609E-02  0.9355700E-01
        2   -1    0    0  501    0  0.00000000000E+00  0.00000000000E+00  0.10878866856E+04  0.10878866856E+04  0.25500000920E-02 0.  1.
       -2   -1    0    0    0  501  0.00000000000E+00  0.00000000000E+00 -0.21096157450E+03  0.21096157451E+03  0.25500000920E-02 0. -1.
    10030    2    1    2    0    0  0.00000000000E+00  0.00000000000E+00  0.87692511113E+03  0.12988482601E+04  0.95812794154E+03 0.  0.
        3    1    3    3  502    0 -0.36368159782E+03 -0.64272248722E+02  0.85210604956E+03  0.92869798990E+03  0.10100000352E+00 0.  1.
       -3    1    3    3    0  502  0.36368159782E+03  0.64272248722E+02  0.24819061573E+02  0.37015027025E+03  0.10100000352E+00 0. -1.
</event>
<event>
 5   0  0.2255142E-03  0.9999712E+03  0.7818609E-02  0.9308576E-01
        2   -1    0    0  501    0  0.00000000000E+00  0.00000000000E+00  0.96785098031E+03  0.96785098032E+03  0.25500000920E-02 0. -1.
       -2   -1    0    0    0  501  0.00000000000E+00  0.00000000000E+00 -0.25828936525E+03  0.25828936527E+03  0.25500000920E-02 0.  1.
    10030    2    1    2    0    0  0.00000000000E+00  0.00000000000E+00  0.70956161506E+03  0.12261403456E+04  0.99997123034E+03 0.  0.
        4    1    3    3  502    0 -0.43215917359E+03 -0.80835705948E+02  0.64672403009E+03  0.78201633401E+03  0.12699999809E+01 0.  1.
       -4    1    3    3    0  502  0.43215917359E+03  0.80835705948E+02  0.62837584973E+02  0.44412401157E+03  0.12699999809E+01 0. -1.
</event>
<event>
 5   0  0.2255142E-03  0.1003913E+04  0.7818609E-02  0.9304263E-01
        2   -1    0    0  501    0  0.00000000000E+00  0.00000000000E+00  0.10178151103E+04  0.10178151103E+04  0.25500000920E-02 0. -1.
       -2   -1    0    0    0  501  0.00000000000E+00  0.00000000000E+00 -0.24755036549E+03  0.24755036550E+03  0.25500000920E-02 0.  1.
    10030    2    1    2    0    0  0.00000000000E+00  0.00000000000E+00  0.77026474484E+03  0.12653654758E+04  0.10039133480E+04 0.  0.
        4    1    3    3  502    0 -0.35739471872E+03  0.88886287813E+02 -0.44760519016E+02  0.37099443944E+03  0.12699999809E+01 0.  1.
       -4    1    3    3    0  502  0.35739471872E+03 -0.88886287813E+02  0.81502526386E+03  0.89437103640E+03  0.12699999809E+01 0. -1.
</event>
<event>
 5   0  0.1285769E-03  0.1002085E+04  0.7818609E-02  0.9306261E-01
       -1   -1    0    0    0  501  0.00000000000E+00  0.00000000000E+00  0.16551702212E+03  0.16551702219E+03  0.50400001928E-02 0.  1.
        1   -1    0    0  501    0  0.00000000000E+00  0.00000000000E+00 -0.15167238969E+04  0.15167238969E+04  0.50400001928E-02 0. -1.
    10030    2    1    2    0    0  0.00000000000E+00  0.00000000000E+00 -0.13512068747E+04  0.16822409191E+04  0.10020850719E+04 0.  0.
        5    1    3    3  502    0  0.74862655707E+02 -0.17526573269E+03 -0.14534584414E+04  0.14659079184E+04  0.46999998093E+01 0. -1.
       -5    1    3    3    0  502 -0.74862655707E+02  0.17526573269E+03  0.10225156671E+03  0.21633300064E+03  0.46999998093E+01 0.  1.
</event>
<event>
 5   0  0.1293716E-03  0.9980172E+03  0.7818609E-02  0.9310722E-01
       -1   -1    0    0    0  501  0.00000000000E+00  0.00000000000E+00  0.38652727113E+03  0.38652727117E+03  0.50400001928E-02 0. -1.
        1   -1    0    0  501    0  0.00000000000E+00  0.00000000000E+00 -0.64422251916E+03  0.64422251918E+03  0.50400001928E-02 0.  1.
    10030    2    1    2    0    0  0.00000000000E+00  0.00000000000E+00 -0.25769524803E+03  0.10307497903E+04  0.99801717893E+03 0.  0.
        3    1    3    3  502    0 -0.21547920545E+03 -0.67987182337E+02 -0.58836251745E+03  0.63025709602E+03  0.10100000352E+00 0.  1.
       -3    1    3    3    0  502  0.21547920545E+03  0.67987182337E+02  0.33066726942E+03  0.40049269433E+03  0.10100000352E+00 0. -1.
</event>
<event>
 5   0  0.2255142E-03  0.9999034E+03  0.7818609E-02  0.9308651E-01
        2   -1    0    0  501    0  0.00000000000E+00  0.00000000000E+00  0.40666745116E+03  0.40666745117E+03  0.25500000920E-02 0. -1.
       -2   -1    0    0    0  501  0.00000000000E+00  0.00000000000E+00 -0.61463417109E+03  0.61463417110E+03  0.25500000920E-02 0.  1.
    10030    2    1    2    0    0  0.00000000000E+00  0.00000000000E+00 -0.20796671993E+03  0.10213016223E+04  0.99990341886E+03 0.  0.
        4    1    3    3  502    0 -0.31343785225E+03  0.29638733139E+03  0.15413271645E+03  0.45809086938E+03  0.12699999809E+01 0. -1.
       -4    1    3    3    0  502  0.31343785225E+03 -0.29638733139E+03 -0.36209943639E+03  0.56321075288E+03  0.12699999809E+01 0.  1.
</event>
<event>
 5   0  0.2264577E-03  0.9968932E+03  0.7818609E-02  0.9311959E-01
       -2   -1    0    0    0  501  0.00000000000E+00  0.00000000000E+00  0.63945466386E+03  0.63945466387E+03  0.25500000920E-02 0.  1.
        2   -1    0    0  501    0  0.00000000000E+00  0.00000000000E+00 -0.38853260791E+03  0.38853260792E+03  0.25500000920E-02 0. -1.
    10030    2    1    2    0    0  0.00000000000E+00  0.00000000000E+00  0.25092205595E+03  0.10279872718E+04  0.99689315013E+03 0.  0.
        5    1    3    3  502    0 -0.25410596238E+03 -0.87543552605E+02 -0.30738524064E+03  0.40833991953E+03  0.46999998093E+01 0. -1.
       -5    1    3    3    0  502  0.25410596238E+03  0.87543552605E+02  0.55830729660E+03  0.61964735225E+03  0.46999998093E+01 0.  1.
</event>
<event>
 5   0  0.1285769E-03  0.9998683E+03  0.7818609E-02  0.9308689E-01
        1   -1    0    0  501    0  0.00000000000E+00  0.00000000000E+00  0.83726104099E+03  0.83726104101E+03  0.50400001928E-02 0.  1.
       -1   -1    0    0    0  501  0.00000000000E+00  0.00000000000E+00 -0.29851398513E+03  0.29851398517E+03  0.50400001928E-02 0. -1.
    10030    2    1    2    0    0  0.00000000000E+00  0.00000000000E+00  0.53874705586E+03  0.11357750262E+04  0.99986825127E+03 0.  0.
        5    1    3    3  502    0  0.37420106020E+03  0.30041783677E+03  0.11020323998E+03  0.49238618401E+03  0.46999998093E+01 0.  1.
       -5    1    3    3    0  502 -0.37420106020E+03 -0.30041783677E+03  0.42854381588E+03  0.64338884217E+03  0.46999998093E+01 0. -1.
</event>
<event>
 5   0  0.1293716E-03  0.9965084E+03  0.7818609E-02  0.9312383E-01
       -1   -1    0    0    0  501  0.00000000000E+00  0.00000000000E+00  0.29722868560E+03  0.29722868565E+03  0.50400001928E-02 0. -1.
        1   -1    0    0  501    0  0.00000000000E+00  0.00000000000E+00 -0.83523995055E+03  0.83523995056E+03  0.50400001928E-02 0.  1.
    10030    2    1    2    0    0  0.00000000000E+00  0.00000000000E+00 -0.53801126495E+03  0.11324686362E+04  0.99650844994E+03 0.  0.
        3    1    3    3  502    0 -0.13726346791E+03  0.47057338841E+03 -0.37050340868E+03  0.61445370822E+03  0.10100000352E+00 0. -1.
       -3    1    3    3    0  502  0.13726346791E+03 -0.47057338841E+03 -0.16750785626E+03  0.51801492799E+03  0.10100000352E+00 0.  1.
</event>
<event>
 5   0  0.2284843E-03  0.9453368E+03  0.7818609E-02  0.9370618E-01
       -2   -1    0    0    0  501  0.00000000000E+00  0.00000000000E+00  0.52146458521E+03  0.52146458522E+03  0.25500000920E-02 0. -1.
        2   -1    0    0  501    0  0.00000000000E+00  0.00000000000E+00 -0.42843835707E+03  0.42843835708E+03  0.25500000920E-02 0.  1.
    10030    2    1    2    0    0  0.00000000000E+00  0.00000000000E+00  0.93026228142E+02  0.94990294230E+03  0.94533682921E+03 0.  0.
        2    1    3    3  502    0  0.28117620821E+03 -0.35036405776E+03 -0.10116751137E+03  0.46048876034E+03  0.25500000920E-02 0. -1.
       -2    1    3    3    0  502 -0.28117620821E+03  0.35036405776E+03  0.19419373951E+03  0.48941418196E+03  0.25500000920E-02 0.  1.
</event>
<event>
 5   0  0.2264577E-03  0.9956948E+03  0.7818609E-02  0.9313279E-01
       -2   -1    0    0    0  501  0.00000000000E+00  0.00000000000E+00  0.72151078972E+03  0.72151078973E+03  0.25500000920E-02 0. -1.
        2   -1    0    0  501    0  0.00000000000E+00  0.00000000000E+00 -0.34351809228E+03  0.34351809229E+03  0.25500000920E-02 0.  1.
    10030    2    1    2    0    0  0.00000000000E+00  0.00000000000E+00  0.37799269744E+03  0.10650288820E+04  0.99569475253E+03 0.  0.
        5    1    3    3  502    0 -0.15840581327E+03 -0.47138507347E+03  0.16428732164E+03  0.52374488372E+03  0.46999998093E+01 0. -1.
       -5    1    3    3    0  502  0.15840581327E+03  0.47138507347E+03  0.21370537580E+03  0.54128399830E+03  0.46999998093E+01 0.  1.
</event>
<event>
 5   0  0.2204862E-03  0.9976795E+03  0.7818609E-02  0.9311093E-01
       -2   -1    0    0    0  501  0.00000000000E+00  0.00000000000E+00  0.13916072614E+03  0.13916072617E+03  0.25500000920E-02 0.  1.
        2   -1    0    0  501    0  0.00000000000E+00  0.00000000000E+00 -0.17881562361E+04  0.17881562361E+04  0.25500000920E-02 0. -1.
    10030    2    1    2    0    0  0.00000000000E+00  0.00000000000E+00 -0.16489955100E+04  0.19273169623E+04  0.99767954834E+03 0.  0.
        1    1    3    3  502    0 -0.29467393005E+03 -0.27126840181E+02 -0.16002843539E+04  0.16274146994E+04  0.50400001928E-02 0. -1.
       -1    1    3    3    0  502  0.29467393005E+03  0.27126840181E+02 -0.48711156041E+02  0.29990226284E+03  0.50400001928E-02 0.  1.
</event>
<event>
 5   0  0.2255142E-03  0.9818033E+03  0.7818609E-02  0.9328731E-01
       -2   -1    0    0    0  501  0.00000000000E+00  0.00000000000E+00  0.16015722066E+03  0.16015722068E+03  0.25500000920E-02 0.  1.
        2   -1    0    0  501    0  0.00000000000E+00  0.00000000000E+00 -0.15046740617E+04  0.15046740617E+04  0.25500000920E-02 0. -1.
    10030    2    1    2    0    0  0.00000000000E+00  0.00000000000E+00 -0.13445168411E+04  0.16648312824E+04  0.98180327101E+03 0.  0.
        4    1    3    3  502    0  0.47975782010E+03  0.84142419227E+02 -0.56862306873E+03  0.74871978727E+03  0.12699999809E+01 0. -1.
       -4    1    3    3    0  502 -0.47975782010E+03 -0.84142419227E+02 -0.77589377235E+03  0.91611149514E+03  0.12699999809E+01 0.  1.
</event>
<event>
 5   0  0.2264577E-03  0.1000366E+04  0.7818609E-02  0.9308143E-01
       -2   -1    0    0    0  501  0.00000000000E+00  0.00000000000E+00  0.31322884048E+03  0.31322884049E+03  0.25500000920E-02 0.  1.
        2   -1    0    0  501    0  0.00000000000E+00  0.00000000000E+00 -0.79872295846E+03  0.79872295846E+03  0.25500000920E-02 0. -1.
    10030    2    1    2    0    0  0.00000000000E+00  0.00000000000E+00 -0.48549411798E+03  0.11119517990E+04  0.10003660653E+04 0.  0.
        5    1    3    3  502    0  0.14687090686E+03 -0.43306163484E+03 -0.17545940737E+02  0.45764985839E+03  0.46999998093E+01 0. -1.
       -5    1    3    3    0  502 -0.14687090686E+03  0.43306163484E+03 -0.46794817724E+03  0.65430194057E+03  0.46999998093E+01 0.  1.
</event>
<event>
 5   0  0.2277570E-03  0.9997593E+03  0.7818609E-02  0.9308809E-01
       -2   -1    0    0    0  501  0.00000000000E+00  0.00000000000E+00  0.44370919683E+03  0.44370919684E+03  0.25500000920E-02 0. -1.
        2   -1    0    0  501    0  0.00000000000E+00  0.00000000000E+00 -0.56316090793E+03  0.56316090793E+03  0.25500000920E-02 0.  1.
    10030    2    1    2    0    0  0.00000000000E+00  0.00000000000E+00 -0.11945171109E+03  0.10068701048E+04  0.99975931934E+03 0.  0.
        3    1    3    3  502    0 -0.37895402058E+03 -0.57745586546E+02 -0.38284885856E+03  0.54176928778E+03  0.10100000352E+00 0.  1.
       -3    1    3    3    0  502  0.37895402058E+03  0.57745586546E+02  0.26339714746E+03  0.46510081700E+03  0.10100000352E+00 0. -1.
</event>
<event>
 5   0  0.1249195E-03  0.9987835E+03  0.7818609E-02  0.9309880E-01
        1   -1    0    0  501    0  0.00000000000E+00  0.00000000000E+00  0.12831277210E+04  0.12831277210E+04  0.50400001928E-02 0.  1.
       -1   -1    0    0    0  501  0.00000000000E+00  0.00000000000E+00 -0.19436266860E+03  0.19436266867E+03  0.50400001928E-02 0. -1.
    10030    2    1    2    0    0  0.00000000000E+00  0.00000000000E+00  0.10887650524E+04  0.14774903896E+04  0.99878351620E+03 0.  0.
        2    1    3    3  502    0 -0.35507237168E+03  0.32354426916E+03  0.74631966041E+03  0.88755299490E+03  0.25500000920E-02 0.  1.
       -2    1    3    3    0  502  0.35507237168E+03 -0.32354426916E+03  0.34244539196E+03  0.58993739474E+03  0.25500000920E-02 0. -1.
</event>
<event>
 5   0  0.2264577E-03  0.1001265E+04  0.7818609E-02  0.9307159E-01
       -2   -1    0    0    0  501  0.00000000000E+00  0.00000000000E+00  0.15658113152E+03  0.15658113154E+03  0.25500000920E-02 0. -1.
        2   -1    0    0  501    0  0.00000000000E+00  0.00000000000E+00 -0.16006576415E+04  0.16006576415E+04  0.25500000920E-02 0.  1.
    10030    2    1    2    0    0  0.00000000000E+00  0.00000000000E+00 -0.14440765099E+04  0.17572387730E+04  0.10012647696E+04 0.  0.
        5    1    3    3  502    0 -0.28083852793E+03  0.38082018890E+03 -0.10088987924E+04  0.11143577335E+04  0.46999998093E+01 0.  1.
       -5    1    3    3    0  502  0.28083852793E+03 -0.38082018890E+03 -0.43517771759E+03  0.64288103948E+03  0.46999998093E+01 0. -1.
</event>
<event>
 5   0  0.1285769E-03  0.1000351E+04  0.7818609E-02  0.9308160E-01
       -1   -1    0    0    0  501  0.00000000000E+00  0.00000000000E+00  0.25544826547E+03  0.25544826552E+03  0.50400001928E-02 0.  1.
        1   -1    0    0  501    0  0.00000000000E+00  0.00000000000E+00 -0.97935937983E+03  0.97935937984E+03  0.50400001928E-02 0. -1.
    10030    2    1    2    0    0  0.00000000000E+00  0.00000000000E+00 -0.72391111436E+03  0.12348076454E+04  0.10003512481E+04 0.  0.
        5    1    3    3  502    0 -0.12320814651E+03  0.28692576772E+03  0.12031507486E+03  0.33467066018E+03  0.46999998093E+01 0.  1.
       -5    1    3    3    0  502  0.12320814651E+03 -0.28692576772E+03 -0.84422618921E+03  0.90013698519E+03  0.46999998093E+01 0. -1.
</event>
<event>
 5   0  0.1285769E-03  0.1002072E+04  0.7818609E-02  0.9306276E-01
        1   -1    0    0  501    0  0.00000000000E+00  0.00000000000E+00  0.72322778311E+03  0.72322778313E+03  0.50400001928E-02 0.  1.
       -1   -1    0    0    0  501  0.00000000000E+00  0.00000000000E+00 -0.34710629447E+03  0.34710629451E+03  0.50400001928E-02 0. -1.
    10030    2    1    2    0    0  0.00000000000E+00  0.00000000000E+00  0.37612148864E+03  0.10703340776E+04  0.10020716858E+04 0.  0.
        5    1    3    3  502    0 -0.48858414242E+03 -0.74434776310E+02  0.10024177978E+03  0.50430695470E+03  0.46999998093E+01 0.  1.
       -5    1    3    3    0  502  0.48858414242E+03  0.74434776310E+02  0.27587970886E+03  0.56602712294E+03  0.46999998093E+01 0. -1.
</event>
<event>
 5   0  0.1285769E-03  0.9971742E+03  0.7818609E-02  0.9311649E-01
       -1   -1    0    0    0  501  0.00000000000E+00  0.00000000000E+00  0.47284521253E+03  0.47284521256E+03  0.50400001928E-02 0. -1.
        1   -1    0    0  501    0  0.00000000000E+00  0.00000000000E+00 -0.52573041343E+03  0.52573041346E+03  0.50400001928E-02 0.  1.
    10030    2    1    2    0    0  0.00000000000E+00  0.00000000000E+00 -0.52885200898E+02  0.99857562601E+03  0.99717422570E+03 0.  0.
        5    1    3    3  502    0  0.28352478002E+03  0.17393178740E+03 -0.39835173641E+03  0.51898435762E+03  0.46999998093E+01 0.  1.
       -5    1    3    3    0  502 -0.28352478002E+03 -0.17393178740E+03  0.34546653552E+03  0.47959126839E+03  0.46999998093E+01 0. -1.
</event>
<event>
 5   0  0.1293575E-03  0.9973393E+03  0.7818609E-02  0.9311468E-01
        1   -1    0    0  501    0  0.00000000000E+00  0.00000000000E+00  0.68732588754E+03  0.68732588756E+03  0.50400001928E-02 0.  1.
       -1   -1    0    0    0  501  0.00000000000E+00  0.00000000000E+00 -0.36179551251E+03  0.36179551255E+03  0.50400001928E-02 0. -1.
    10030    2    1    2    0    0  0.00000000000E+00  0.00000000000E+00  0.32553037503E+03  0.10491214001E+04  0.99733930390E+03 0.  0.
        4    1    3    3  502    0  0.41777125486E+03 -0.42820680307E+02  0.44561904243E+03  0.61232701715E+03  0.12699999809E+01 0.  1.
       -4    1    3    3    0  502 -0.41777125486E+03  0.42820680307E+02 -0.12008866741E+03  0.43679438296E+03  0.12699999809E+01 0. -1.
</event>
<event>
 5   0  0.2277570E-03  0.9949369E+03  0.7818609E-02  0.9314115E-01
        2   -1    0    0  501    0  0.00000000000E+00  0.00000000000E+00  0.16903532268E+04  0.16903532268E+04  0.25500000920E-02 0.  1.
       -2   -1    0    0    0  501  0.00000000000E+00  0.00000000000E+00 -0.14640423556E+03  0.14640423558E+03  0.25500000920E-02 0. -1.
    10030    2    1    2    0    0  0.00000000000E+00  0.00000000000E+00  0.15439489912E+04  0.18367574624E+04  0.99493692667E+03 0.  0.
        3    1    3    3  502    0  0.28062647136E+03 -0.26377380738E+03  0.13532688492E+04  0.14070054820E+04  0.10100000352E+00 0.  1.
       -3    1    3    3    0  502 -0.28062647136E+03  0.26377380738E+03  0.19068014203E+03  0.42975198040E+03  0.10100000352E+00 0. -1.
</event>
<event>
 5   0  0.8680125E-04  0.9971888E+03  0.7818609E-02  0.9311633E-01
       -4   -1    0    0    0  501  0.00000000000E+00  0.00000000000E+00  0.73638996636E+03  0.73639106149E+03  0.12699999809E+01 0.  1.
        4   -1    0    0  501    0  0.00000000000E+00  0.00000000000E+00 -0.33758540970E+03  0.33758779857E+03  0.12699999809E+01 0. -1.
    10030    2    1    2    0    0  0.00000000000E+00  0.00000000000E+00  0.39880455665E+03  0.10739788601E+04  0.99718880733E+03 0.  0.
        4    1    3    3  502    0  0.17518704816E+03  0.18546131603E+03  0.66076900501E+03  0.70831044922E+03  0.12699999809E+01 0.  1.
       -4    1    3    3    0  502 -0.17518704816E+03 -0.18546131603E+03 -0.26196444836E+03  0.36566841085E+03  0.12699999809E+01 0. -1.
</event>
<event>
 5   0  0.1293575E-03  0.1007223E+04  0.7818609E-02  0.9300658E-01
       -1   -1    0    0    0  501  0.00000000000E+00  0.00000000000E+00  0.37925814655E+03  0.37925814658E+03  0.50400001928E-02 0. -1.
        1   -1    0    0  501    0  0.00000000000E+00  0.00000000000E+00 -0.66873890648E+03  0.66873890650E+03  0.50400001928E-02 0.  1.
    10030    2    1    2    0    0  0.00000000000E+00  0.00000000000E+00 -0.28948075994E+03  0.10479970531E+04  0.10072232686E+04 0.  0.
        4    1    3    3  502    0 -0.11859354652E+03 -0.39308532910E+03 -0.44816615787E+03  0.60781166754E+03  0.12699999809E+01 0.  1.
       -4    1    3    3    0  502  0.11859354652E+03  0.39308532910E+03  0.15868539793E+03  0.44018538555E+03  0.12699999809E+01 0. -1.
</event>
<event>
 5   0  0.2255142E-03  0.1000491E+04  0.7818609E-02  0.9308007E-01
       -2   -1    0    0    0  501  0.00000000000E+00  0.00000000000E+00  0.19292993603E+03  0.19292993605E+03  0.25500000920E-02 0. -1.
        2   -1    0    0  501    0  0.00000000000E+00  0.00000000000E+00 -0.12970787616E+04  0.12970787616E+04  0.25500000920E-02 0.  1.
    10030    2    1    2    0    0  0.00000000000E+00  0.00000000000E+00 -0.11041488256E+04  0.14900086977E+04  0.10004905247E+04 0.  0.
        4    1    3    3  502    0 -0.16146273126E+03  0.18279614800E+03 -0.12025311485E+04  0.12270156565E+04  0.12699999809E+01 0.  1.
       -4    1    3    3    0  502  0.16146273126E+03 -0.18279614800E+03  0.98382322951E+02  0.26299304112E+03  0.12699999809E+01 0. -1.
</event>
<event>
 5   0  0.2284843E-03  0.1002505E+04  0.7818609E-02  0.9305801E-01
        2   -1    0    0  501    0  0.00000000000E+00  0.00000000000E+00  0.13988521551E+04  0.13988521551E+04  0.25500000920E-02 0.  1.
       -2   -1    0    0    0  501  0.00000000000E+00  0.00000000000E+00 -0.17961459903E+03  0.17961459905E+03  0.25500000920E-02 0. -1.
    10030    2    1    2    0    0  0.00000000000E+00  0.00000000000E+00  0.12192375560E+04  0.15784667541E+04  0.10025053994E+04 0.  0.
        2    1    3    3  502    0 -0.20510599851E+03 -0.18182765360E+03 -0.51163837637E+02  0.27883239505E+03  0.25500000920E-02 0. -1.
       -2    1    3    3    0  502  0.20510599851E+03  0.18182765360E+03  0.12704013937E+04  0.12996343591E+04  0.25500000920E-02 0.  1.
</event>
<event>
 5   0  0.1293575E-03  0.9978736E+03  0.7818609E-02  0.9310880E-01
       -1   -1    0    0    0  501  0.00000000000E+00  0.00000000000E+00  0.54141842483E+03  0.54141842486E+03  0.50400001928E-02 0. -1.
        1   -1    0    0  501    0  0.00000000000E+00  0.00000000000E+00 -0.45978846106E+03  0.45978846109E+03  0.50400001928E-02 0.  1.
    10030    2    1    2    0    0  0.00000000000E+00  0.00000000000E+00  0.81629963773E+02  0.10012068859E+04  0.99787362801E+03 0.  0.
        4    1    3    3  502    0 -0.27125253191E+03 -0.27474169731E+03  0.35790132545E+03  0.52645598864E+03  0.12699999809E+01 0. -1.
       -4    1    3    3    0  502  0.27125253191E+03  0.27474169731E+03 -0.27627136168E+03  0.47475089731E+03  0.12699999809E+01 0.  1.
</event>
<event>
 5   0  0.2264577E-03  0.9979823E+03  0.7818609E-02  0.9310761E-01
        2   -1    0    0  501    0  0.00000000000E+00  0.00000000000E+00  0.96063674559E+03  0.96063674559E+03  0.25500000920E-02 0.  1.
       -2   -1    0    0    0  501  0.00000000000E+00  0.00000000000E+00 -0.25919491460E+03  0.25919491461E+03  0.25500000920E-02 0. -1.
    10030    2    1    2    0    0  0.00000000000E+00  0.00000000000E+00  0.70144183099E+03  0.12198316602E+04  0.99798228289E+03 0.  0.
        5    1    3    3  502    0  0.30446696325E+03  0.38408764916E+03  0.46503429976E+03  0.67564964582E+03  0.46999998093E+01 0.  1.
       -5    1    3    3    0  502 -0.30446696325E+03 -0.38408764916E+03  0.23640753124E+03  0.54418201438E+03  0.46999998093E+01 0. -1.
</event>
<event>
 5   0  0.1293716E-03  0.1000787E+04  0.7818609E-02  0.9307682E-01
       -1   -1    0    0    0  501  0.00000000000E+00  0.00000000000E+00  0.48624219391E+03  0.48624219394E+03  0.50400001928E-02 0. -1.
        1   -1    0    0  501    0  0.00000000000E+00  0.00000000000E+00 -0.51495656918E+03  0.51495656920E+03  0.50400001928E-02 0.  1.
    10030    2    1    2    0    0  0.00000000000E+00  0.00000000000E+00 -0.28714375265E+02  0.10011987631E+04  0.10007869144E+04 0.  0.
        3    1    3    3  502    0 -0.33506395549E+03 -0.24164427386E+03 -0.29684511804E+03  0.50870113393E+03  0.10100000352E+00 0.  1.
       -3    1    3    3    0  502  0.33506395549E+03  0.24164427386E+03  0.26813074277E+03  0.49249762921E+03  0.10100000352E+00 0. -1.
</event>
<event>
 5   0  0.2255142E-03  0.1000164E+04  0.7818609E-02  0.9308365E-01
        2   -1    0    0  501    0  0.00000000000E+00  0.00000000000E+00  0.10458663107E+04  0.10458663107E+04  0.25500000920E-02 0.  1.
       -2   -1    0    0    0  501  0.00000000000E+00  0.00000000000E+00 -0.23911454418E+03  0.23911454420E+03  0.25500000920E-02 0. -1.
    10030    2    1    2    0    0  0.00000000000E+00  0.00000000000E+00  0.80675176651E+03  0.12849808549E+04  0.10001636789E+04 0.  0.
        4    1    3    3  502    0 -0.23718721356E+03 -0.42601377883E+03  0.26068697588E+03  0.55290580239E+03  0.12699999809E+01 0. -1.
       -4    1    3    3    0  502  0.23718721356E+03  0.42601377883E+03  0.54606479063E+03  0.73207505250E+03  0.12699999809E+01 0.  1.
</event>
<event>
 5   0  0.8680125E-04  0.9896049E+03  0.7818609E-02  0.9320020E-01
       -3   -1    0    0    0  501  0.00000000000E+00  0.00000000000E+00  0.67694808842E+03  0.67694809595E+03  0.10100000352E+00 0.  1.
        3   -1    0    0  501    0  0.00000000000E+00  0.00000000000E+00 -0.36166653653E+03  0.36166655063E+03  0.10100000352E+00 0. -1.
    10030    2    1    2    0    0  0.00000000000E+00  0.00000000000E+00  0.31528155189E+03  0.10386146466E+04  0.98960493487E+03 0.  0.
        4    1    3    3  502    0 -0.11313960816E+03 -0.46049683135E+03  0.93270805416E+01  0.47428526221E+03  0.12699999809E+01 0.  1.
       -4    1    3    3    0  502  0.11313960816E+03  0.46049683135E+03  0.30595447135E+03  0.56432938437E+03  0.12699999809E+01 0. -1.
</event>
<event>
 5   0  0.8680125E-04  0.9743605E+03  0.7818609E-02  0.9337122E-01
       -4   -1    0    0    0  501  0.00000000000E+00  0.00000000000E+00  0.59069057459E+03  0.59069193986E+03  0.12699999809E+01 0. -1.
        4   -1    0    0  501    0  0.00000000000E+00  0.00000000000E+00 -0.40180581516E+03  0.40180782222E+03  0.12699999809E+01 0.  1.
    10030    2    1    2    0    0  0.00000000000E+00  0.00000000000E+00  0.18888475944E+03  0.99249976208E+03  0.97436046994E+03 0.  0.
        1    1    3    3  502    0 -0.35854979552E+03 -0.23480958322E+02  0.42955837514E+03  0.56002652522E+03  0.50400001928E-02 0. -1.
       -1    1    3    3    0  502  0.35854979552E+03  0.23480958322E+02 -0.24067361570E+03  0.43247323685E+03  0.50400001928E-02 0.  1.
</event>
<event>
 5   0  0.1353789E-03  0.1000778E+04  0.7818609E-02  0.9307692E-01
        1   -1    0    0  501    0  0.00000000000E+00  0.00000000000E+00  0.47448361938E+03  0.47448361941E+03  0.50400001928E-02 0. -1.
       -1   -1    0    0    0  501  0.00000000000E+00  0.00000000000E+00 -0.52770869582E+03  0.52770869585E+03  0.50400001928E-02 0.  1.
    10030    2    1    2    0    0  0.00000000000E+00  0.00000000000E+00 -0.53225076443E+02  0.10021923153E+04  0.10007779614E+04 0.  0.
        1    1    3    3  502    0  0.47145604672E+03 -0.56708157725E+02 -0.18464085763E+03  0.50948882763E+03  0.50400001928E-02 0. -1.
       -1    1    3    3    0  502 -0.47145604672E+03  0.56708157725E+02  0.13141578119E+03  0.49270348762E+03  0.50400001928E-02 0.  1.
</event>
<event>
 5   0  0.1353789E-03  0.1006757E+04  0.7818609E-02  0.9301165E-01
       -1   -1    0    0    0  501  0.00000000000E+00  0.00000000000E+00  0.16359222305E+03  0.16359222313E+03  0.50400001928E-02 0. -1.
        1   -1    0    0  501    0  0.00000000000E+00  0.00000000000E+00 -0.15489121718E+04  0.15489121718E+04  0.50400001928E-02 0.  1.
    10030    2    1    2    0    0  0.00000000000E+00  0.00000000000E+00 -0.13853199487E+04  0.17125043949E+04  0.10067571416E+04 0.  0.
        1    1    3    3  502    0  0.24508849929E+03 -0.39485051918E+03 -0.36363565720E+03  0.59008998991E+03  0.50400001928E-02 0.  1.
       -1    1    3    3    0  502 -0.24508849929E+03  0.39485051918E+03 -0.10216842915E+04  0.11224144050E+04  0.50400001928E-02 0. -1.
</event>
<event>
 5   0  0.1293716E-03  0.9939381E+03  0.7818609E-02  0.9315218E-01
       -1   -1    0    0    0  501  0.00000000000E+00  0.00000000000E+00  0.27937800612E+03  0.27937800617E+03  0.50400001928E-02 0. -1.
        1   -1    0    0  501    0  0.00000000000E+00  0.00000000000E+00 -0.88402890572E+03  0.88402890574E+03  0.50400001928E-02 0.  1.
    10030    2    1    2    0    0  0.00000000000E+00  0.00000000000E+00 -0.60465089960E+03  0.11634069119E+04  0.99393809278E+03 0.  0.
        3    1    3    3  502    0 -0.39272517941E+03  0.20855232711E+03 -0.56209018811E+03  0.71670951539E+03  0.10100000352E+00 0.  1.
       -3    1    3    3    0  502  0.39272517941E+03 -0.20855232711E+03 -0.42560711494E+02  0.44669739651E+03  0.10100000352E+00 0. -1.
</event>
<event>
 5   0  0.2255142E-03  0.9997443E+03  0.7818609E-02  0.9308825E-01
       -2   -1    0    0    0  501  0.00000000000E+00  0.00000000000E+00  0.39518919883E+03  0.39518919884E+03  0.25500000920E-02 0. -1.
        2   -1    0    0  501    0  0.00000000000E+00  0.00000000000E+00 -0.63228496081E+03  0.63228496082E+03  0.25500000920E-02 0.  1.
    10030    2    1    2    0    0  0.00000000000E+00  0.00000000000E+00 -0.23709576198E+03  0.10274741597E+04  0.99974434153E+03 0.  0.
        4    1    3    3  502    0  0.32384820332E+03 -0.24402661357E+01 -0.50988083970E+03  0.60403948321E+03  0.12699999809E+01 0.  1.
       -4    1    3    3    0  502 -0.32384820332E+03  0.24402661357E+01  0.27278507772E+03  0.42343467645E+03  0.12699999809E+01 0. -1.
</event>
<event>
 5   0  0.2204862E-03  0.9816187E+03  0.7818609E-02  0.9328938E-01
        2   -1    0    0  501    0  0.00000000000E+00  0.00000000000E+00  0.41930643585E+03  0.41930643586E+03  0.25500000920E-02 0.  1.
       -2   -1    0    0    0  501  0.00000000000E+00  0.00000000000E+00 -0.57450544848E+03  0.57450544848E+03  0.25500000920E-02 0. -1.
    10030    2    1    2    0    0  0.00000000000E+00  0.00000000000E+00 -0.15519901263E+03  0.99381188434E+03  0.98161872839E+03 0.  0.
        1    1    3    3  502    0  0.29056421467E+02  0.21418382897E+03 -0.52372581229E+03  0.56657542720E+03  0.50400001928E-02 0. -1.
       -1    1    3    3    0  502 -0.29056421467E+02 -0.21418382897E+03  0.36852679966E+03  0.42723645714E+03  0.50400001928E-02 0.  1.
</event>
<event>
 5   0  0.8680125E-04  0.9951370E+03  0.7818609E-02  0.9313895E-01
        4   -1    0    0  501    0  0.00000000000E+00  0.00000000000E+00  0.11127146815E+04  0.11127154063E+04  0.12699999809E+01 0. -1.
       -4   -1    0    0    0  501  0.00000000000E+00  0.00000000000E+00 -0.22249325488E+03  0.22249687946E+03  0.12699999809E+01 0.  1.
    10030    2    1    2    0    0  0.00000000000E+00  0.00000000000E+00  0.89022142663E+03  0.13352122857E+04  0.99513700540E+03 0.  0.
        1    1    3    3  502    0 -0.25796021340E+03  0.36202619414E+03  0.14518525517E+03  0.46763788906E+03  0.50400001928E-02 0.  1.
       -1    1    3    3    0  502  0.25796021340E+03 -0.36202619414E+03  0.74503617146E+03  0.86757439666E+03  0.50400001928E-02 0. -1.
</event>
<event>
 5   0  0.1249195E-03  0.1000801E+04  0.7818609E-02  0.9307666E-01
       -1   -1    0    0    0  501  0.00000000000E+00  0.00000000000E+00  0.59899197170E+03  0.59899197172E+03  0.50400001928E-02 0.  1.
        1   -1    0    0  501    0  0.00000000000E+00  0.00000000000E+00 -0.41803715935E+03  0.41803715939E+03  0.50400001928E-02 0. -1.
    10030    2    1    2    0    0  0.00000000000E+00  0.00000000000E+00  0.18095481235E+03  0.10170291311E+04  0.10008014835E+04 0.  0.
        2    1    3    3  502    0  0.19939573634E+03 -0.45839013995E+03  0.67288058600E+02  0.50438860307E+03  0.25500000920E-02 0.  1.
       -2    1    3    3    0  502 -0.19939573634E+03  0.45839013995E+03  0.11366675375E+03  0.51264052804E+03  0.25500000920E-02 0. -1.
</event>
<event>
 5   0  0.1285769E-03  0.9988723E+03  0.7818609E-02  0.9309782E-01
        1   -1    0    0  501    0  0.00000000000E+00  0.00000000000E+00  0.12550603846E+04  0.12550603846E+04  0.50400001928E-02 0.  1.
       -1   -1    0    0    0  501  0.00000000000E+00  0.00000000000E+00 -0.19874461323E+03  0.19874461329E+03  0.50400001928E-02 0. -1.
    10030    2    1    2    0    0  0.00000000000E+00  0.00000000000E+00  0.10563157713E+04  0.14538049979E+04  0.99887234573E+03 0.  0.
        5    1    3    3  502    0 -0.34889813415E+02  0.14522403417E+03  0.12217617532E+04  0.12308660329E+04  0.46999998093E+01 0.  1.
       -5    1    3    3    0  502  0.34889813415E+02 -0.14522403417E+03 -0.16544598192E+03  0.22293896499E+03  0.46999998093E+01 0. -1.
</event>
<event>
 5   0  0.2255142E-03  0.9698633E+03  0.7818609E-02  0.9342230E-01
        2   -1    0    0  501    0  0.00000000000E+00  0.00000000000E+00  0.19037672574E+04  0.19037672574E+04  0.25500000920E-02 0.  1.
       -2   -1    0    0    0  501  0.00000000000E+00  0.00000000000E+00 -0.12352282158E+03  0.12352282160E+03  0.25500000920E-02 0. -1.
    10030    2    1    2    0    0  0.00000000000E+00  0.00000000000E+00  0.17802444358E+04  0.20272900790E+04  0.96986329611E+03 0.  0.
        4    1    3    3  502    0 -0.56799563418E+02  0.22127412955E+03  0.17842379249E+04  0.17988037738E+04  0.12699999809E+01 0.  1.
       -4    1    3    3    0  502  0.56799563418E+02 -0.22127412955E+03 -0.39934891447E+01  0.22848630521E+03  0.12699999809E+01 0. -1.
</event>
<event>
 5   0  0.1293716E-03  0.9997601E+03  0.7818609E-02  0.9308808E-01
       -1   -1    0    0    0  501  0.00000000000E+00  0.00000000000E+00  0.23676312010E+03  0.23676312015E+03  0.50400001928E-02 0. -1.
        1   -1    0    0  501    0  0.00000000000E+00  0.00000000000E+00 -0.10554011683E+04  0.10554011684E+04  0.50400001928E-02 0.  1.
    10030    2    1    2    0    0  0.00000000000E+00  0.00000000000E+00 -0.81863804825E+03  0.12921642885E+04  0.99976011846E+03 0.  0.
        3    1    3    3  502    0  0.37333039419E+03  0.29754059868E+03 -0.60091094908E+03  0.76746333464E+03  0.10100000352E+00 0. -1.
       -3    1    3    3    0  502 -0.37333039419E+03 -0.29754059868E+03 -0.21772709917E+03  0.52470095388E+03  0.10100000352E+00 0.  1.
</event>
<event>
 5   0  0.2255142E-03  0.9964998E+03  0.7818609E-02  0.9312392E-01
        2   -1    0    0  501    0  0.00000000000E+00  0.00000000000E+00  0.14076982604E+04  0.14076982604E+04  0.25500000920E-02 0.  1.
       -2   -1    0    0    0  501  0.00000000000E+00  0.00000000000E+00 -0.17635382651E+03  0.17635382653E+03  0.25500000920E-02 0. -1.
    10030    2    1    2    0    0  0.00000000000E+00  0.00000000000E+00  0.12313444339E+04  0.15840520869E+04  0.99649982401E+03 0.  0.
        4    1    3    3  502    0  0.32076935516E+03 -0.38103266024E+03  0.63654978466E+03  0.80825497748E+03  0.12699999809E+01 0. -1.
       -4    1    3    3    0  502 -0.32076935516E+03  0.38103266024E+03  0.59479464924E+03  0.77579710946E+03  0.12699999809E+01 0.  1.
</event>
<event>
 5   0  0.1353789E-03  0.9970043E+03  0.7818609E-02  0.9311836E-01
        1   -1    0    0  501    0  0.00000000000E+00  0.00000000000E+00  0.39350538097E+03  0.39350538101E+03  0.50400001928E-02 0. -1.
       -1   -1    0    0    0  501  0.00000000000E+00  0.00000000000E+00 -0.63151466234E+03  0.63151466236E+03  0.50400001928E-02 0.  1.
    10030    2    1    2    0    0  0.00000000000E+00  0.00000000000E+00 -0.23800928137E+03  0.10250200434E+04  0.99700434868E+03 0.  0.
        1    1    3    3  502    0  0.84596465706E+02  0.18480686769E+03 -0.58698128970E+03  0.62117402943E+03  0.50400001928E-02 0.  1.
       -1    1    3    3    0  502 -0.84596465706E+02 -0.18480686769E+03  0.34897200833E+03  0.40384601394E+03  0.50400001928E-02 0. -1.
</event>
<event>
 5   0  0.1353789E-03  0.1001557E+04  0.7818609E-02  0.9306839E-01
        1   -1    0    0  501    0  0.00000000000E+00  0.00000000000E+00  0.53926352189E+03  0.53926352192E+03  0.50400001928E-02 0.  1.
       -1   -1    0    0    0  501  0.00000000000E+00  0.00000000000E+00 -0.46503983048E+03  0.46503983050E+03  0.50400001928E-02 0. -1.
    10030    2    1    2    0    0  0.00000000000E+00  0.00000000000E+00  0.74223691418E+02  0.10043033524E+04  0.10015568218E+04 0.  0.
        1    1    3    3  502    0  0.11049185383E+03  0.46837465261E+03  0.17604051708E+03  0.51241928988E+03  0.50400001928E-02 0.  1.
       -1    1    3    3    0  502 -0.11049185383E+03 -0.46837465261E+03 -0.10181682566E+03  0.49188406254E+03  0.50400001928E-02 0. -1.
</event>
<event>
 5   0  0.2204862E-03  0.1001924E+04  0.7818609E-02  0.9306437E-01
       -2   -1    0    0    0  501  0.00000000000E+00  0.00000000000E+00  0.30890299577E+03  0.30890299578E+03  0.25500000920E-02 0. -1.
        2   -1    0    0  501    0  0.00000000000E+00  0.00000000000E+00 -0.81243329188E+03  0.81243329189E+03  0.25500000920E-02 0.  1.
    10030    2    1    2    0    0  0.00000000000E+00  0.00000000000E+00 -0.50353029612E+03  0.11213362877E+04  0.10019243040E+04 0.  0.
        1    1    3    3  502    0 -0.26702426679E+03  0.24906087891E+03 -0.63561346377E+03  0.73303325696E+03  0.50400001928E-02 0.  1.
       -1    1    3    3    0  502  0.26702426679E+03 -0.24906087891E+03  0.13208316765E+03  0.38830303071E+03  0.50400001928E-02 0. -1.
</event>
<event>
 5   0  0.2204862E-03  0.9571131E+03  0.7818609E-02  0.9356875E-01
        2   -1    0    0  501    0  0.00000000000E+00  0.00000000000E+00  0.35341220187E+03  0.35341220188E+03  0.25500000920E-02 0.  1.
       -2   -1    0    0    0  501  0.00000000000E+00  0.00000000000E+00 -0.64801493306E+03  0.64801493306E+03  0.25500000920E-02 0. -1.
    10030    2    1    2    0    0  0.00000000000E+00  0.00000000000E+00 -0.29460273118E+03  0.10014271349E+04  0.95711312674E+03 0.  0.
        1    1    3    3  502    0 -0.14164712568E+03 -0.40133895443E+03 -0.37624626648E+03  0.56806524064E+03  0.50400001928E-02 0. -1.
       -1    1    3    3    0  502  0.14164712568E+03  0.40133895443E+03  0.81643535294E+02  0.43336189431E+03  0.50400001928E-02 0.  1.
</event>
<event>
 5   0  0.2255142E-03  0.9696539E+03  0.7818609E-02  0.9342469E-01
       -2   -1    0    0    0  501  0.00000000000E+00  0.00000000000E+00  0.19422107241E+03  0.19422107242E+03  0.25500000920E-02 0.  1.
        2   -1    0    0  501    0  0.00000000000E+00  0.00000000000E+00 -0.12102558532E+04  0.12102558532E+04  0.25500000920E-02 0. -1.
    10030    2    1    2    0    0  0.00000000000E+00  0.00000000000E+00 -0.10160347808E+04  0.14044769256E+04  0.96965393766E+03 0.  0.
        4    1    3    3  502    0 -0.40335445105E+02  0.55299166283E+02 -0.12032200084E+04  0.12051659418E+04  0.12699999809E+01 0. -1.
       -4    1    3    3    0  502  0.40335445105E+02 -0.55299166283E+02  0.18718522759E+03  0.19931098377E+03  0.12699999809E+01 0.  1.
</event>
<event>
 5   0  0.2255142E-03  0.9941610E+03  0.7818609E-02  0.9314972E-01
       -2   -1    0    0    0  501  0.00000000000E+00  0.00000000000E+00  0.46511888233E+03  0.46511888233E+03  0.25500000920E-02 0.  1.
        2   -1    0    0  501    0  0.00000000000E+00  0.00000000000E+00 -0.53123838904E+03  0.53123838905E+03  0.25500000920E-02 0. -1.
    10030    2    1    2    0    0  0.00000000000E+00  0.00000000000E+00 -0.66119506716E+02  0.99635727138E+03  0.99416096437E+03 0.  0.
        4    1    3    3  502    0 -0.22339404338E+03 -0.32309343440E+03  0.27223285738E+03  0.47791903865E+03  0.12699999809E+01 0.  1.
       -4    1    3    3    0  502  0.22339404338E+03  0.32309343440E+03 -0.33835236409E+03  0.51843823273E+03  0.12699999809E+01 0. -1.
</event>
<event>
 5   0  0.1353789E-03  0.9998644E+03  0.7818609E-02  0.9308694E-01
       -1   -1    0    0    0  501  0.00000000000E+00  0.00000000000E+00  0.25464575548E+03  0.25464575553E+03  0.50400001928E-02 0.  1.
        1   -1    0    0  501    0  0.00000000000E+00  0.00000000000E+00 -0.98148971987E+03  0.98148971988E+03  0.50400001928E-02 0. -1.
    10030    2    1    2    0    0  0.00000000000E+00  0.00000000000E+00 -0.72684396439E+03  0.12361354754E+04  0.99986437331E+03 0.  0.
        1    1    3    3  502    0  0.96077792277E+02  0.26376773424E+02 -0.96909131834E+03  0.97419949685E+03  0.50400001928E-02 0. -1.
       -1    1    3    3    0  502 -0.96077792277E+02 -0.26376773424E+02  0.24224735395E+03  0.26193597857E+03  0.50400001928E-02 0.  1.
</event>
<event>
 5   0  0.1293716E-03  0.1001884E+04  0.7818609E-02  0.9306480E-01
       -1   -1    0    0    0  501  0.00000000000E+00  0.00000000000E+00  0.20893115137E+03  0.20893115143E+03  0.50400001928E-02 0. -1.
        1   -1    0    0  501    0  0.00000000000E+00  0.00000000000E+00 -0.12010803487E+04  0.12010803487E+04  0.50400001928E-02 0.  1.
    10030    2    1    2    0    0  0.00000000000E+00  0.00000000000E+00 -0.99214919733E+03  0.14100115001E+04  0.10018844249E+04 0.  0.
        3    1    3    3  502    0  0.11515401391E+03  0.29327319541E+03 -0.10441746585E+04  0.10906742601E+04  0.10100000352E+00 0.  1.
       -3    1    3    3    0  502 -0.11515401391E+03 -0.29327319541E+03  0.52025461140E+02  0.31933724003E+03  0.10100000352E+00 0. -1.
</event>
<event>
 5   0  0.2284843E-03  0.9993021E+03  0.7818609E-02  0.9309311E-01
        2   -1    0    0  501    0  0.00000000000E+00  0.00000000000E+00  0.40730149306E+03  0.40730149307E+03  0.25500000920E-02 0. -1.
       -2   -1    0    0    0  501  0.00000000000E+00  0.00000000000E+00 -0.61293954511E+03  0.61293954511E+03  0.25500000920E-02 0.  1.
    10030    2    1    2    0    0  0.00000000000E+00  0.00000000000E+00 -0.20563805205E+03  0.10202410382E+04  0.99930214026E+03 0.  0.
        2    1    3    3  502    0  0.25996008335E+03 -0.14675009001E+03  0.30624630527E+03  0.42767000520E+03  0.25500000920E-02 0. -1.
       -2    1    3    3    0  502 -0.25996008335E+03  0.14675009001E+03 -0.51188435732E+03  0.59257103298E+03  0.25500000920E-02 0.  1.
</event>
<event>
 5   0  0.8680125E-04  0.1000922E+04  0.7818609E-02  0.9307534E-01
       -3   -1    0    0    0  501  0.00000000000E+00  0.00000000000E+00  0.20985979579E+03  0.20985982009E+03  0.10100000352E+00 0.  1.
        3   -1    0    0  501    0  0.00000000000E+00  0.00000000000E+00 -0.11934693603E+04  0.11934693646E+04  0.10100000352E+00 0. -1.
    10030    2    1    2    0    0  0.00000000000E+00  0.00000000000E+00 -0.98360956453E+03  0.14033291847E+04  0.10009220875E+04 0.  0.
        5    1    3    3  502    0  0.11026462156E+03 -0.45818035876E+03 -0.25573067032E+03  0.53619753232E+03  0.46999998093E+01 0.  1.
       -5    1    3    3    0  502 -0.11026462156E+03  0.45818035876E+03 -0.72787889421E+03  0.86713165237E+03  0.46999998093E+01 0. -1.
</event>
<event>
 5   0  0.1249195E-03  0.1005947E+04  0.7818609E-02  0.9302046E-01
        1   -1    0    0  501    0  0.00000000000E+00  0.00000000000E+00  0.11633146134E+04  0.11633146134E+04  0.50400001928E-02 0.  1.
       -1   -1    0    0    0  501  0.00000000000E+00  0.00000000000E+00 -0.21746674112E+03  0.21746674118E+03  0.50400001928E-02 0. -1.
    10030    2    1    2    0    0  0.00000000000E+00  0.00000000000E+00  0.94584787231E+03  0.13807813546E+04  0.10059467937E+04 0.  0.
        2    1    3    3  502    0  0.27989353327E+03 -0.38175547647E+03  0.23956017480E+03  0.53053436377E+03  0.25500000920E-02 0.  1.
       -2    1    3    3    0  502 -0.27989353327E+03  0.38175547647E+03  0.70628769751E+03  0.85024699085E+03  0.25500000920E-02 0. -1.
</event>
<event>
 5   0  0.1293575E-03  0.1005986E+04  0.7818609E-02  0.9302004E-01
       -1   -1    0    0    0  501  0.00000000000E+00  0.00000000000E+00  0.33179753320E+03  0.33179753324E+03  0.50400001928E-02 0.  1.
        1   -1    0    0  501    0  0.00000000000E+00  0.00000000000E+00 -0.76251865756E+03  0.76251865758E+03  0.50400001928E-02 0. -1.
    10030    2    1    2    0    0  0.00000000000E+00  0.00000000000E+00 -0.43072112436E+03  0.10943161908E+04  0.10059857049E+04 0.  0.
        4    1    3    3  502    0  0.48462339295E+03  0.13450762237E+03 -0.20781906449E+03  0.54418977383E+03  0.12699999809E+01 0. -1.
       -4    1    3    3    0  502 -0.48462339295E+03 -0.13450762237E+03 -0.22290205986E+03  0.55012641699E+03  0.12699999809E+01 0.  1.
</event>
<event>
 5   0  0.1293575E-03  0.1002038E+04  0.7818609E-02  0.9306313E-01
        1   -1    0    0  501    0  0.00000000000E+00  0.00000000000E+00  0.51565092698E+03  0.51565092700E+03  0.50400001928E-02 0.  1.
       -1   -1    0    0    0  501  0.00000000000E+00  0.00000000000E+00 -0.48680214172E+03  0.48680214175E+03  0.50400001928E-02 0. -1.
    10030    2    1    2    0    0  0.00000000000E+00  0.00000000000E+00  0.28848785261E+02  0.10024530688E+04  0.10020378749E+04 0.  0.
        4    1    3    3  502    0 -0.38853309988E+03  0.23376640244E+03  0.22761750743E+03  0.50736184642E+03  0.12699999809E+01 0.  1.
       -4    1    3    3    0  502  0.38853309988E+03 -0.23376640244E+03 -0.19876872217E+03  0.49509122233E+03  0.12699999809E+01 0. -1.
</event>
<event>
 5   0  0.2284843E-03  0.9979667E+03  0.7818609E-02  0.9310778E-01
       -2   -1    0    0    0  501  0.00000000000E+00  0.00000000000E+00  0.16017096420E+03  0.16017096422E+03  0.25500000920E-02 0. -1.
        2   -1    0    0  501    0  0.00000000000E+00  0.00000000000E+00 -0.15544912651E+04  0.15544912651E+04  0.25500000920E-02 0.  1.
    10030    2    1    2    0    0  0.00000000000E+00  0.00000000000E+00 -0.13943203009E+04  0.17146622293E+04  0.99796666234E+03 0.  0.
        2    1    3    3  502    0 -0.13466245558E+03  0.21456651853E+03 -0.14357905155E+04  0.14579667940E+04  0.25500000920E-02 0.  1.
       -2    1    3    3    0  502  0.13466245558E+03 -0.21456651853E+03  0.41470214632E+02  0.25669543534E+03  0.25500000920E-02 0. -1.
</event>
<event>
 5   0  0.1353789E-03  0.1002541E+04  0.7818609E-02  0.9305763E-01
       -1   -1    0    0    0  501  0.00000000000E+00  0.00000000000E+00  0.36250993760E+03  0.36250993763E+03  0.50400001928E-02 0. -1.
        1   -1    0    0  501    0  0.00000000000E+00  0.00000000000E+00 -0.69314507354E+03  0.69314507356E+03  0.50400001928E-02 0.  1.
    10030    2    1    2    0    0  0.00000000000E+00  0.00000000000E+00 -0.33063513594E+03  0.10556550112E+04  0.10025407271E+04 0.  0.
        1    1    3    3  502    0  0.35987272198E+03  0.11087992875E+03 -0.51370786109E+03  0.63694466102E+03  0.50400001928E-02 0. -1.
       -1    1    3    3    0  502 -0.35987272198E+03 -0.11087992875E+03  0.18307272515E+03  0.41871035017E+03  0.50400001928E-02 0.  1.
</event>
<event>
 5   0  0.2284843E-03  0.9964303E+03  0.7818609E-02  0.9312469E-01
        2   -1    0    0  501    0  0.00000000000E+00  0.00000000000E+00  0.46150392516E+03  0.46150392517E+03  0.25500000920E-02 0. -1.
       -2   -1    0    0    0  501  0.00000000000E+00  0.00000000000E+00 -0.53784661288E+03  0.53784661289E+03  0.25500000920E-02 0.  1.
    10030    2    1    2    0    0  0.00000000000E+00  0.00000000000E+00 -0.76342687720E+02  0.99935053805E+03  0.99643027450E+03 0.  0.
        2    1    3    3  502    0 -0.36857136432E+03  0.24318716008E+03  0.19322865658E+03  0.48199809040E+03  0.25500000920E-02 0. -1.
       -2    1    3    3    0  502  0.36857136432E+03 -0.24318716008E+03 -0.26957134430E+03  0.51735244765E+03  0.25500000920E-02 0.  1.
</event>
<event>
 5   0  0.2284843E-03  0.1000014E+04  0.7818609E-02  0.9308529E-01
        2   -1    0    0  501    0  0.00000000000E+00  0.00000000000E+00  0.66757931753E+03  0.66757931754E+03  0.25500000920E-02 0.  1.
       -2   -1    0    0    0  501  0.00000000000E+00  0.00000000000E+00 -0.37449814463E+03  0.37449814464E+03  0.25500000920E-02 0. -1.
    10030    2    1    2    0    0  0.00000000000E+00  0.00000000000E+00  0.29308117290E+03  0.10420774622E+04  0.10000144315E+04 0.  0.
        2    1    3    3  502    0  0.49678887217E+03  0.52564159599E+02  0.12455723245E+03  0.51485597845E+03  0.25500000920E-02 0.  1.
       -2    1    3    3    0  502 -0.49678887217E+03 -0.52564159599E+02  0.16852394045E+03  0.52722148372E+03  0.25500000920E-02 0. -1.
</event>
<event>
 5   0  0.2284843E-03  0.1009880E+04  0.7818609E-02  0.9297775E-01
        2   -1    0    0  501    0  0.00000000000E+00  0.00000000000E+00  0.23839710180E+04  0.23839710180E+04  0.25500000920E-02 0.  1.
       -2   -1    0    0    0  501  0.00000000000E+00  0.00000000000E+00 -0.10694941511E+03  0.10694941514E+03  0.25500000920E-02 0. -1.
    10030    2    1    2    0    0  0.00000000000E+00  0.00000000000E+00  0.22770216029E+04  0.24909204331E+04  0.10098798068E+04 0.  0.
        2    1    3    3  502    0  0.44505722419E+02  0.44981154833E+03  0.58338264241E+03  0.73800169093E+03  0.25500000920E-02 0. -1.
       -2    1    3    3    0  502 -0.44505722419E+02 -0.44981154833E+03  0.16936389604E+04  0.17529187422E+04  0.25500000920E-02 0.  1.
</event>
<event>
 5   0  0.2204862E-03  0.1006504E+04  0.7818609E-02  0.9301440E-01
        2   -1    0    0  501    0  0.00000000000E+00  0.00000000000E+00  0.73951267445E+03  0.73951267445E+03  0.25500000920E-02 0. -1.
       -2   -1    0    0    0  501  0.00000000000E+00  0.00000000000E+00 -0.34247236889E+03  0.34247236890E+03  0.25500000920E-02 0.  1.
    10030    2    1    2    0    0  0.00000000000E+00  0.00000000000E+00  0.39704030556E+03  0.10819850434E+04  0.10065041628E+04 0.  0.
        1    1    3    3  502    0 -0.61023204053E+02 -0.18209711460E+02 -0.33812350737E+03  0.34406820732E+03  0.50400001928E-02 0.  1.
       -1    1    3    3    0  502  0.61023204053E+02  0.18209711460E+02  0.73516381294E+03  0.73791683603E+03  0.50400001928E-02 0. -1.
</event>
<event>
 5   0  0.1249195E-03  0.9843770E+03  0.7818609E-02  0.9325848E-01
        1   -1    0    0  501    0  0.00000000000E+00  0.00000000000E+00  0.15882562854E+04  0.15882562854E+04  0.50400001928E-02 0. -1.
       -1   -1    0    0    0  501  0.00000000000E+00  0.00000000000E+00 -0.15252547128E+03  0.15252547136E+03  0.50400001928E-02 0.  1.
    10030    2    1    2    0    0  0.00000000000E+00  0.00000000000E+00  0.14357308141E+04  0.17407817568E+04  0.98437703859E+03 0.  0.
        2    1    3    3  502    0  0.80204551607E+02  0.44824592426E+03  0.38753540284E+03  0.59794721103E+03  0.25500000920E-02 0.  1.
       -2    1    3    3    0  502 -0.80204551607E+02 -0.44824592426E+03  0.10481954113E+04  0.11428345457E+04  0.25500000920E-02 0. -1.
</event>
<event>
 5   0  0.2255142E-03  0.9997625E+03  0.7818609E-02  0.9308805E-01
       -2   -1    0    0    0  501  0.00000000000E+00  0.00000000000E+00  0.22805679274E+03  0.22805679275E+03  0.25500000920E-02 0.  1.
        2   -1    0    0  501    0  0.00000000000E+00  0.00000000000E+00 -0.10956974795E+04  0.10956974795E+04  0.25500000920E-02 0. -1.
    10030    2    1    2    0    0  0.00000000000E+00  0.00000000000E+00 -0.86764068674E+03  0.13237542722E+04  0.99976247778E+03 0.  0.
        4    1    3    3  502    0 -0.30083809798E+03 -0.33176145001E+03 -0.13979830182E+03  0.46916350988E+03  0.12699999809E+01 0.  1.
       -4    1    3    3    0  502  0.30083809798E+03  0.33176145001E+03 -0.72784238492E+03  0.85459076235E+03  0.12699999809E+01 0. -1.
</event>
<event>
 5   0  0.2264577E-03  0.1001756E+04  0.7818609E-02  0.9306621E-01
       -2   -1    0    0    0  501  0.00000000000E+00  0.00000000000E+00  0.11933189726E+03  0.11933189728E+03  0.25500000920E-02 0. -1.
        2   -1    0    0  501    0  0.00000000000E+00  0.00000000000E+00 -0.21023628611E+04  0.21023628611E+04  0.25500000920E-02 0.  1.
    10030    2    1    2    0    0  0.00000000000E+00  0.00000000000E+00 -0.19830309639E+04  0.22216947584E+04  0.10017563556E+04 0.  0.
        5    1    3    3  502    0  0.38449441017E+03 -0.21625580085E+02 -0.28128880536E+03  0.47691623917E+03  0.46999998093E+01 0. -1.
       -5    1    3    3    0  502 -0.38449441017E+03  0.21625580085E+02 -0.17017421585E+04  0.17447785192E+04  0.46999998093E+01 0.  1.
</event>
<event>
 5   0  0.1293716E-03  0.1001217E+04  0.7818609E-02  0.9307212E-01
       -1   -1    0    0    0  501  0.00000000000E+00  0.00000000000E+00  0.25136529366E+03  0.25136529371E+03  0.50400001928E-02 0. -1.
        1   -1    0    0  501    0  0.00000000000E+00  0.00000000000E+00 -0.99698986761E+03  0.99698986763E+03  0.50400001928E-02 0.  1.
    10030    2    1    2    0    0  0.00000000000E+00  0.00000000000E+00 -0.74562457396E+03  0.12483551613E+04  0.10012165618E+04 0.  0.
        3    1    3    3  502    0 -0.41095939033E+02 -0.42613274038E+03 -0.69634376849E+03  0.81741827894E+03  0.10100000352E+00 0.  1.
       -3    1    3    3    0  502  0.41095939033E+02  0.42613274038E+03 -0.49280805468E+02  0.43093688240E+03  0.10100000352E+00 0. -1.
</event>
<event>
 5   0  0.2264577E-03  0.9709604E+03  0.7818609E-02  0.9340981E-01
       -2   -1    0    0    0  501  0.00000000000E+00  0.00000000000E+00  0.11588821557E+03  0.11588821560E+03  0.25500000920E-02 0.  1.
        2   -1    0    0  501    0  0.00000000000E+00  0.00000000000E+00 -0.20337791086E+04  0.20337791086E+04  0.25500000920E-02 0. -1.
    10030    2    1    2    0    0  0.00000000000E+00  0.00000000000E+00 -0.19178908930E+04  0.21496673242E+04  0.97096041484E+03 0.  0.
        5    1    3    3  502    0  0.14146347911E+03 -0.12738516159E+03 -0.19476465658E+04  0.19569333485E+04  0.46999998093E+01 0. -1.
       -5    1    3    3    0  502 -0.14146347911E+03  0.12738516159E+03  0.29755672781E+02  0.19273397567E+03  0.46999998093E+01 0.  1.
</event>
<event>
 5   0  0.1285769E-03  0.9991588E+03  0.7818609E-02  0.9309468E-01
       -1   -1    0    0    0  501  0.00000000000E+00  0.00000000000E+00  0.70945124244E+03  0.70945124246E+03  0.50400001928E-02 0.  1.
        1   -1    0    0  501    0  0.00000000000E+00  0.00000000000E+00 -0.35179240876E+03  0.35179240880E+03  0.50400001928E-02 0. -1.
    10030    2    1    2    0    0  0.00000000000E+00  0.00000000000E+00  0.35765883368E+03  0.10612436513E+04  0.99915876918E+03 0.  0.
        5    1    3    3  502    0 -0.15432985785E+03 -0.36984536928E+03 -0.13795496006E+03  0.42385960318E+03  0.46999998093E+01 0. -1.
       -5    1    3    3    0  502  0.15432985785E+03  0.36984536928E+03  0.49561379375E+03  0.63738404808E+03  0.46999998093E+01 0.  1.
</event>
<event>
 5   0  0.2264577E-03  0.9977684E+03  0.7818609E-02  0.9310996E-01
        2   -1    0    0  501    0  0.00000000000E+00  0.00000000000E+00  0.34475188305E+03  0.34475188306E+03  0.25500000920E-02 0.  1.
       -2   -1    0    0    0  501  0.00000000000E+00  0.00000000000E+00 -0.72192621000E+03  0.72192621000E+03  0.25500000920E-02 0. -1.
    10030    2    1    2    0    0  0.00000000000E+00  0.00000000000E+00 -0.37717432695E+03  0.10666780931E+04  0.99776835053E+03 0.  0.
        5    1    3    3  502    0  0.97872147617E+02  0.24689289699E+03 -0.64004141856E+03  0.69297198164E+03  0.46999998093E+01 0.  1.
       -5    1    3    3    0  502 -0.97872147617E+02 -0.24689289699E+03  0.26286709162E+03  0.37370611143E+03  0.46999998093E+01 0. -1.
</event>
<event>
 5   0  0.2284843E-03  0.1000321E+04  0.7818609E-02  0.9308192E-01
        2   -1    0    0  501    0  0.00000000000E+00  0.00000000000E+00  0.35562427996E+03  0.35562427997E+03  0.25500000920E-02 0. -1.
       -2   -1    0    0    0  501  0.00000000000E+00  0.00000000000E+00 -0.70344116812E+03  0.70344116812E+03  0.25500000920E-02 0.  1.
    10030    2    1    2    0    0  0.00000000000E+00  0.00000000000E+00 -0.34781688816E+03  0.10590654481E+04  0.10003214662E+04 0.  0.
        2    1    3    3  502    0 -0.35871128998E+03  0.31348399660E+03 -0.12596974916E+02  0.47655502250E+03  0.25500000920E-02 0. -1.
       -2    1    3    3    0  502  0.35871128998E+03 -0.31348399660E+03 -0.33521991324E+03  0.58251042559E+03  0.25500000920E-02 0.  1.
</event>
<event>
 5   0  0.1353789E-03  0.1000051E+04  0.7818609E-02  0.9308489E-01
        1   -1    0    0  501    0  0.00000000000E+00  0.00000000000E+00  0.70488929940E+03  0.70488929942E+03  0.50400001928E-02 0. -1.
       -1   -1    0    0    0  501  0.00000000000E+00  0.00000000000E+00 -0.35470165063E+03  0.35470165067E+03  0.50400001928E-02 0.  1.
    10030    2    1    2    0    0  0.00000000000E+00  0.00000000000E+00  0.35018764877E+03  0.10595909501E+04  0.10000507948E+04 0.  0.
        1    1    3    3  502    0 -0.27340366517E+03  0.18318920873E+03 -0.22377307330E+03  0.39797266072E+03  0.50400001928E-02 0. -1.
       -1    1    3    3    0  502  0.27340366517E+03 -0.18318920873E+03  0.57396072207E+03  0.66161828937E+03  0.50400001928E-02 0.  1.
</event>
<event>
 5   0  0.1353789E-03  0.9982459E+03  0.7818609E-02  0.9310471E-01
        1   -1    0    0  501    0  0.00000000000E+00  0.00000000000E+00  0.30195616280E+03  0.30195616285E+03  0.50400001928E-02 0.  1.
       -1   -1    0    0    0  501  0.00000000000E+00  0.00000000000E+00 -0.82503281390E+03  0.82503281392E+03  0.50400001928E-02 0. -1.
    10030    2    1    2    0    0  0.00000000000E+00  0.00000000000E+00 -0.52307665110E+03  0.11269889768E+04  0.99824594706E+03 0.  0.
        1    1    3    3  502    0  0.39387330780E+03 -0.57730389382E+01 -0.60758946713E+03  0.72410943314E+03  0.50400001928E-02 0. -1.
       -1    1    3    3    0  502 -0.39387330780E+03  0.57730389382E+01  0.84512816030E+02  0.40287954362E+03  0.50400001928E-02 0.  1.
</event>
<event>
 5   0  0.2255142E-03  0.9982426E+03  0.7818609E-02  0.9310474E-01
       -2   -1    0    0    0  501  0.00000000000E+00  0.00000000000E+00  0.11474545208E+03  0.11474545211E+03  0.25500000920E-02 0.  1.
        2   -1    0    0  501    0  0.00000000000E+00  0.00000000000E+00 -0.21710845057E+04  0.21710845057E+04  0.25500000920E-02 0. -1.
    10030    2    1    2    0    0  0.00000000000E+00  0.00000000000E+00 -0.20563390536E+04  0.22858299578E+04  0.99824260209E+03 0.  0.
        4    1    3    3  502    0  0.12885461818E+03 -0.42368246048E+03 -0.15553838674E+04  0.16171984813E+04  0.12699999809E+01 0. -1.
       -4    1    3    3    0  502 -0.12885461818E+03  0.42368246048E+03 -0.50095518626E+03  0.66863147658E+03  0.12699999809E+01 0.  1.
</event>
<event>
 5   0  0.2255142E-03  0.9995869E+03  0.7818609E-02  0.9308998E-01
       -2   -1    0    0    0  501  0.00000000000E+00  0.00000000000E+00  0.71761280285E+03  0.71761280285E+03  0.25500000920E-02 0. -1.
        2   -1    0    0  501    0  0.00000000000E+00  0.00000000000E+00 -0.34808950618E+03  0.34808950619E+03  0.25500000920E-02 0.  1.
    10030    2    1    2    0    0  0.00000000000E+00  0.00000000000E+00  0.36952329666E+03  0.10657023090E+04  0.99958688703E+03 0.  0.
        4    1    3    3  502    0  0.28089316873E+01  0.18787158916E+03  0.67852301743E+03  0.70405874911E+03  0.12699999809E+01 0. -1.
       -4    1    3    3    0  502 -0.28089316873E+01 -0.18787158916E+03 -0.30899972077E+03  0.36164355994E+03  0.12699999809E+01 0.  1.
</event>
<event>
 5   0  0.2204862E-03  0.1017726E+04  0.7818609E-02  0.9289314E-01
       -2   -1    0    0    0  501  0.00000000000E+00  0.00000000000E+00  0.70085425406E+03  0.70085425406E+03  0.25500000920E-02 0.  1.
        2   -1    0    0  501    0  0.00000000000E+00  0.00000000000E+00 -0.36946587469E+03  0.36946587469E+03  0.25500000920E-02 0. -1.
    10030    2    1    2    0    0  0.00000000000E+00  0.00000000000E+00  0.33138837937E+03  0.10703201288E+04  0.10177263483E+04 0.  0.
        1    1    3    3  502    0  0.21906004788E+03 -0.34125120639E+03  0.48899237393E+03  0.63525839800E+03  0.50400001928E-02 0.  1.
       -1    1    3    3    0  502 -0.21906004788E+03  0.34125120639E+03 -0.15760399456E+03  0.43506173075E+03  0.50400001928E-02 0. -1.
</event>
<event>
 5   0  0.8680125E-04  0.9870518E+03  0.7818609E-02  0.9322861E-01
        4   -1    0    0  501    0  0.00000000000E+00  0.00000000000E+00  0.85374301164E+03  0.85374395625E+03  0.12699999809E+01 0. -1.
       -4   -1    0    0    0  501  0.00000000000E+00  0.00000000000E+00 -0.28529157249E+03  0.28529439924E+03  0.12699999809E+01 0.  1.
    10030    2    1    2    0    0  0.00000000000E+00  0.00000000000E+00  0.56845143915E+03  0.11390383555E+04  0.98705184089E+03 0.  0.
        2    1    3    3  502    0  0.81028008268E+02  0.10226583449E+03 -0.26503009512E+03  0.29540614474E+03  0.25500000920E-02 0.  1.
       -2    1    3    3    0  502 -0.81028008268E+02 -0.10226583449E+03  0.83348153427E+03  0.84363221074E+03  0.25500000920E-02 0. -1.
</event>
<event>
 5   0  0.1293716E-03  0.9991511E+03  0.7818609E-02  0.9309476E-01
        1   -1    0    0  501    0  0.00000000000E+00  0.00000000000E+00  0.21909075070E+04  0.21909075070E+04  0.50400001928E-02 0.  1.
       -1   -1    0    0    0  501  0.00000000000E+00  0.00000000000E+00 -0.11391432094E+03  0.11391432105E+03  0.50400001928E-02 0. -1.
    10030    2    1    2    0    0  0.00000000000E+00  0.00000000000E+00  0.20769931861E+04  0.23048218281E+04  0.99915112178E+03 0.  0.
        3    1    3    3  502    0  0.34121305019E+03 -0.36452415635E+03  0.10004854606E+04  0.11181571326E+04  0.10100000352E+00 0. -1.
       -3    1    3    3    0  502 -0.34121305019E+03  0.36452415635E+03  0.10765077255E+04  0.11866646955E+04  0.10100000352E+00 0.  1.
</event>
<event>
 5   0  0.1353789E-03  0.9960533E+03  0.7818609E-02  0.9312884E-01
       -1   -1    0    0    0  501  0.00000000000E+00  0.00000000000E+00  0.16101293132E+03  0.16101293140E+03  0.50400001928E-02 0. -1.
        1   -1    0    0  501    0  0.00000000000E+00  0.00000000000E+00 -0.15404385747E+04  0.15404385747E+04  0.50400001928E-02 0.  1.
    10030    2    1    2    0    0  0.00000000000E+00  0.00000000000E+00 -0.13794256434E+04  0.17014515061E+04  0.99605327268E+03 0.  0.
        1    1    3    3  502    0 -0.30359632758E+03  0.38392422193E+03 -0.53257768107E+03  0.72333085425E+03  0.50400001928E-02 0.  1.
       -1    1    3    3    0  502  0.30359632758E+03 -0.38392422193E+03 -0.84684796229E+03  0.97812065185E+03  0.50400001928E-02 0. -1.
</event>
<event>
 5   0  0.2284843E-03  0.9978687E+03  0.7818609E-02  0.9310885E-01
        2   -1    0    0  501    0  0.00000000000E+00  0.00000000000E+00  0.73151873292E+03  0.73151873293E+03  0.25500000920E-02 0.  1.
       -2   -1    0    0    0  501  0.00000000000E+00  0.00000000000E+00 -0.34029952081E+03  0.34029952082E+03  0.25500000920E-02 0. -1.
    10030    2    1    2    0    0  0.00000000000E+00  0.00000000000E+00  0.39121921211E+03  0.10718182537E+04  0.99786867730E+03 0.  0.
        2    1    3    3  502    0 -0.29040377793E+03  0.21946141639E+03  0.56212714924E+03  0.66968992783E+03  0.25500000920E-02 0.  1.
       -2    1    3    3    0  502  0.29040377793E+03 -0.21946141639E+03 -0.17090793713E+03  0.40212832591E+03  0.25500000920E-02 0. -1.
</event>
<event>
 5   0  0.1285769E-03  0.9995560E+03  0.7818609E-02  0.9309032E-01
       -1   -1    0    0    0  501  0.00000000000E+00  0.00000000000E+00  0.53324386704E+03  0.53324386707E+03  0.50400001928E-02 0. -1.
        1   -1    0    0  501    0  0.00000000000E+00  0.00000000000E+00 -0.46841238532E+03  0.46841238535E+03  0.50400001928E-02 0.  1.
    10030    2    1    2    0    0  0.00000000000E+00  0.00000000000E+00  0.64831481722E+02  0.10016562524E+04  0.99955596490E+03 0.  0.
        5    1    3    3  502    0 -0.26013756609E+03 -0.14914069340E+03 -0.36822608420E+03  0.47489687175E+03  0.46999998093E+01 0.  1.
       -5    1    3    3    0  502  0.26013756609E+03  0.14914069340E+03  0.43305756592E+03  0.52675938066E+03  0.46999998093E+01 0. -1.
</event>
<event>
 5   0  0.1353789E-03  0.9963248E+03  0.7818609E-02  0.9312585E-01
        1   -1    0    0  501    0  0.00000000000E+00  0.00000000000E+00  0.41622222355E+03  0.41622222358E+03  0.50400001928E-02 0.  1.
       -1   -1    0    0    0  501  0.00000000000E+00  0.00000000000E+00 -0.59623383320E+03  0.59623383323E+03  0.50400001928E-02 0. -1.
    10030    2    1    2    0    0  0.00000000000E+00  0.00000000000E+00 -0.18001160965E+03  0.10124560568E+04  0.99632479009E+03 0.  0.
        1    1    3    3  502    0  0.95276577466E+02 -0.43565223237E+03  0.13561435713E+03  0.46611344935E+03  0.50400001928E-02 0.  1.
       -1    1    3    3    0  502 -0.95276577466E+02  0.43565223237E+03 -0.31562596679E+03  0.54634260745E+03  0.50400001928E-02 0. -1.
</event>
<event>
 5   0  0.1249195E-03  0.1002272E+04  0.7818609E-02  0.9306057E-01
        1   -1    0    0  501    0  0.00000000000E+00  0.00000000000E+00  0.53895295241E+03  0.53895295243E+03  0.50400001928E-02 0.  1.
       -1   -1    0    0    0  501  0.00000000000E+00  0.00000000000E+00 -0.46597210446E+03  0.46597210448E+03  0.50400001928E-02 0. -1.
    10030    2    1    2    0    0  0.00000000000E+00  0.00000000000E+00  0.72980847953E+02  0.10049250569E+04  0.10022715031E+04 0.  0.
        2    1    3    3  502    0  0.11328365372E+03  0.28462116756E+03 -0.36116349152E+03  0.47358363869E+03  0.25500000920E-02 0. -1.
       -2    1    3    3    0  502 -0.11328365372E+03 -0.28462116756E+03  0.43414433947E+03  0.53134141823E+03  0.25500000920E-02 0.  1.
</event>
<event>
 5   0  0.2284843E-03  0.9995332E+03  0.7818609E-02  0.9309057E-01
        2   -1    0    0  501    0  0.00000000000E+00  0.00000000000E+00  0.10316927718E+04  0.10316927718E+04  0.25500000920E-02 0.  1.
       -2   -1    0    0    0  501  0.00000000000E+00  0.00000000000E+00 -0.24209402611E+03  0.24209402613E+03  0.25500000920E-02 0. -1.
    10030    2    1    2    0    0  0.00000000000E+00  0.00000000000E+00  0.78959874569E+03  0.12737867979E+04  0.99953320475E+03 0.  0.
        2    1    3    3  502    0  0.48697868390E+02  0.48131287803E+03  0.55464711339E+03  0.73598029141E+03  0.25500000920E-02 0.  1.
       -2    1    3    3    0  502 -0.48697868390E+02 -0.48131287803E+03  0.23495163230E+03  0.53780650653E+03  0.25500000920E-02 0. -1.
</event>
<event>
 5   0  0.2277570E-03  0.1005727E+04  0.7818609E-02  0.9302286E-01
        2   -1    0    0  501    0  0.00000000000E+00  0.00000000000E+00  0.13505774107E+04  0.13505774107E+04  0.25500000920E-02 0.  1.
       -2   -1    0    0    0  501  0.00000000000E+00  0.00000000000E+00 -0.18723232697E+03  0.18723232699E+03  0.25500000920E-02 0. -1.
    10030    2    1    2    0    0  0.00000000000E+00  0.00000000000E+00  0.11633450837E+04  0.15378097376E+04  0.10057271029E+04 0.  0.
        3    1    3    3  502    0 -0.39285822274E+02 -0.49288282074E+03  0.72176990683E+03  0.87488779819E+03  0.10100000352E+00 0. -1.
       -3    1    3    3    0  502  0.39285822274E+02  0.49288282074E+03  0.44157517685E+03  0.66292193946E+03  0.10100000352E+00 0.  1.
</event>
<event>
 5   0  0.1285769E-03  0.1001354E+04  0.7818609E-02  0.9307061E-01
        1   -1    0    0  501    0  0.00000000000E+00  0.00000000000E+00  0.62657940896E+03  0.62657940898E+03  0.50400001928E-02 0.  1.
       -1   -1    0    0    0  501  0.00000000000E+00  0.00000000000E+00 -0.40007287470E+03  0.40007287473E+03  0.50400001928E-02 0. -1.
    10030    2    1    2    0    0  0.00000000000E+00  0.00000000000E+00  0.22650653426E+03  0.10266522837E+04  0.10013539342E+04 0.  0.
        5    1    3    3  502    0 -0.22738092739E+02  0.14315241914E+02  0.62581703984E+03  0.62641121028E+03  0.46999998093E+01 0.  1.
       -5    1    3    3    0  502  0.22738092739E+02 -0.14315241914E+02 -0.39931050557E+03  0.40024107344E+03  0.46999998093E+01 0. -1.
</event>
<event>
 5   0  0.1353789E-03  0.1009924E+04  0.7818609E-02  0.9297727E-01
        1   -1    0    0  501    0  0.00000000000E+00  0.00000000000E+00  0.32202339140E+03  0.32202339144E+03  0.50400001928E-02 0.  1.
       -1   -1    0    0    0  501  0.00000000000E+00  0.00000000000E+00 -0.79182578005E+03  0.79182578007E+03  0.50400001928E-02 0. -1.
    10030    2    1    2    0    0  0.00000000000E+00  0.00000000000E+00 -0.46980238865E+03  0.11138491715E+04  0.10099236073E+04 0.  0.
        1    1    3    3  502    0 -0.18290374169E+02 -0.16893312174E+03  0.28954518874E+03  0.33572213772E+03  0.50400001928E-02 0.  1.
       -1    1    3    3    0  502  0.18290374169E+02  0.16893312174E+03 -0.75934757739E+03  0.77812703379E+03  0.50400001928E-02 0. -1.
</event>
<event>
 5   0  0.1293716E-03  0.9994049E+03  0.7818609E-02  0.9309198E-01
        1   -1    0    0  501    0  0.00000000000E+00  0.00000000000E+00  0.18745680464E+04  0.18745680464E+04  0.50400001928E-02 0. -1.
       -1   -1    0    0    0  501  0.00000000000E+00  0.00000000000E+00 -0.13320537721E+03  0.13320537731E+03  0.50400001928E-02 0.  1.
    10030    2    1    2    0    0  0.00000000000E+00  0.00000000000E+00  0.17413626692E+04  0.20077734237E+04  0.99940491060E+03 0.  0.
        3    1    3    3  502    0  0.74842267499E+02  0.30927667565E+02 -0.11993521580E+03  0.14471472564E+03  0.10100000352E+00 0.  1.
       -3    1    3    3    0  502 -0.74842267499E+02 -0.30927667565E+02  0.18612978850E+04  0.18630586980E+04  0.10100000352E+00 0. -1.
</event>
<event>
 5   0  0.2264577E-03  0.9971545E+03  0.7818609E-02  0.9311671E-01
       -2   -1    0    0    0  501  0.00000000000E+00  0.00000000000E+00  0.10789767742E+04  0.10789767742E+04  0.25500000920E-02 0. -1.
        2   -1    0    0  501    0  0.00000000000E+00  0.00000000000E+00 -0.23038428668E+03  0.23038428669E+03  0.25500000920E-02 0.  1.
    10030    2    1    2    0    0  0.00000000000E+00  0.00000000000E+00  0.84859248755E+03  0.13093610609E+04  0.99715454065E+03 0.  0.
        5    1    3    3  502    0  0.32454348623E+03 -0.11806943565E+03  0.89644258336E+03  0.96067698076E+03  0.46999998093E+01 0. -1.
       -5    1    3    3    0  502 -0.32454348623E+03  0.11806943565E+03 -0.47850095814E+02  0.34868408016E+03  0.46999998093E+01 0.  1.
</event>
<event>
 5   0  0.8680125E-04  0.1003169E+04  0.7818609E-02  0.9305075E-01
       -3   -1    0    0    0  501  0.00000000000E+00  0.00000000000E+00  0.20294842156E+03  0.20294844669E+03  0.10100000352E+00 0. -1.
        3   -1    0    0  501    0  0.00000000000E+00  0.00000000000E+00 -0.12396608021E+04  0.12396608063E+04  0.10100000352E+00 0.  1.
    10030    2    1    2    0    0  0.00000000000E+00  0.00000000000E+00 -0.10367123806E+04  0.14426092530E+04  0.10031694257E+04 0.  0.
        2    1    3    3  502    0 -0.29302199903E+03 -0.12067098474E+03 -0.10774676478E+04  0.11231028050E+04  0.25500000920E-02 0.  1.
       -2    1    3    3    0  502  0.29302199903E+03  0.12067098474E+03  0.40755267226E+02  0.31950644796E+03  0.25500000920E-02 0. -1.
</event>
<event>
 5   0  0.2284843E-03  0.1001805E+04  0.7818609E-02  0.9306567E-01
        2   -1    0    0  501    0  0.00000000000E+00  0.00000000000E+00  0.49681331754E+03  0.49681331755E+03  0.25500000920E-02 0.  1.
       -2   -1    0    0    0  501  0.00000000000E+00  0.00000000000E+00 -0.50502576330E+03  0.50502576330E+03  0.25500000920E-02 0. -1.
    10030    2    1    2    0    0  0.00000000000E+00  0.00000000000E+00 -0.82124457535E+01  0.10018390809E+04  0.10018054201E+04 0.  0.
        2    1    3    3  502    0 -0.44670088597E+03 -0.44875010451E+02 -0.22625795724E+03  0.50274060042E+03  0.25500000920E-02 0. -1.
       -2    1    3    3    0  502  0.44670088597E+03  0.44875010451E+02  0.21804551149E+03  0.49909848044E+03  0.25500000920E-02 0.  1.
</event>
<event>
 5   0  0.2284843E-03  0.9993951E+03  0.7818609E-02  0.9309209E-01
        2   -1    0    0  501    0  0.00000000000E+00  0.00000000000E+00  0.62074444567E+03  0.62074444568E+03  0.25500000920E-02 0. -1.
       -2   -1    0    0    0  501  0.00000000000E+00  0.00000000000E+00 -0.40225509640E+03  0.40225509641E+03  0.25500000920E-02 0.  1.
    10030    2    1    2    0    0  0.00000000000E+00  0.00000000000E+00  0.21848934927E+03  0.10229995421E+04  0.99939505070E+03 0.  0.
        2    1    3    3  502    0  0.40709454509E+03  0.95575012898E+02  0.38926955389E+03  0.57130669287E+03  0.25500000920E-02 0. -1.
       -2    1    3    3    0  502 -0.40709454509E+03 -0.95575012898E+02 -0.17078020462E+03  0.45169284921E+03  0.25500000920E-02 0.  1.
</event>
<event>
 5   0  0.2264577E-03  0.1000406E+04  0.7818609E-02  0.9308099E-01
       -2   -1    0    0    0  501  0.00000000000E+00  0.00000000000E+00  0.25691080136E+03  0.25691080137E+03  0.25500000920E-02 0. -1.
        2   -1    0    0  501    0  0.00000000000E+00  0.00000000000E+00 -0.97389138406E+03  0.97389138406E+03  0.25500000920E-02 0.  1.
    10030    2    1    2    0    0  0.00000000000E+00  0.00000000000E+00 -0.71698058270E+03  0.12308021854E+04  0.10004063493E+04 0.  0.
        5    1    3    3  502    0 -0.10622440813E+03  0.45944633883E+03 -0.15333370060E+03  0.49589099294E+03  0.46999998093E+01 0. -1.
       -5    1    3    3    0  502  0.10622440813E+03 -0.45944633883E+03 -0.56364688210E+03  0.73491119249E+03  0.46999998093E+01 0.  1.
</event>
<event>
 5   0  0.2204862E-03  0.9933274E+03  0.7818609E-02  0.9315894E-01
        2   -1    0    0  501    0  0.00000000000E+00  0.00000000000E+00  0.14566293067E+04  0.14566293067E+04  0.25500000920E-02 0. -1.
       -2   -1    0    0    0  501  0.00000000000E+00  0.00000000000E+00 -0.16934632113E+03  0.16934632115E+03  0.25500000920E-02 0.  1.
    10030    2    1    2    0    0  0.00000000000E+00  0.00000000000E+00  0.12872829856E+04  0.16259756279E+04  0.99332736670E+03 0.  0.
        1    1    3    3  502    0 -0.19194476193E+03  0.22257813857E+03  0.12989958529E+04  0.13318310874E+04  0.50400001928E-02 0. -1.
       -1    1    3    3    0  502  0.19194476193E+03 -0.22257813857E+03 -0.11712867345E+02  0.29414454047E+03  0.50400001928E-02 0.  1.
</event>
<event>
 5   0  0.2284843E-03  0.1001030E+04  0.7818609E-02  0.9307416E-01
        2   -1    0    0  501    0  0.00000000000E+00  0.00000000000E+00  0.79243627769E+03  0.79243627769E+03  0.25500000920E-02 0. -1.
       -2   -1    0    0    0  501  0.00000000000E+00  0.00000000000E+00 -0.31613312552E+03  0.31613312553E+03  0.25500000920E-02 0.  1.
    10030    2    1    2    0    0  0.00000000000E+00  0.00000000000E+00  0.47630315216E+03  0.11085694032E+04  0.10010301839E+04 0.  0.
        2    1    3    3  502    0 -0.27083063795E+03 -0.15961830314E+02  0.70394521608E+03  0.75441558953E+03  0.25500000920E-02 0. -1.
       -2    1    3    3    0  502  0.27083063795E+03  0.15961830314E+02 -0.22764206392E+03  0.35415381369E+03  0.25500000920E-02 0.  1.
</event>
<event>
 5   0  0.2204862E-03  0.1002543E+04  0.7818609E-02  0.9305760E-01
       -2   -1    0    0    0  501  0.00000000000E+00  0.00000000000E+00  0.20360259469E+03  0.20360259471E+03  0.25500000920E-02 0.  1.
        2   -1    0    0  501    0  0.00000000000E+00  0.00000000000E+00 -0.12341343797E+04  0.12341343797E+04  0.25500000920E-02 0. -1.
    10030    2    1    2    0    0  0.00000000000E+00  0.00000000000E+00 -0.10305317850E+04  0.14377369744E+04  0.10025426912E+04 0.  0.
        1    1    3    3  502    0  0.12723750837E+03  0.36540655420E+03 -0.58239380148E+02  0.39128398743E+03  0.50400001928E-02 0.  1.
       -1    1    3    3    0  502 -0.12723750837E+03 -0.36540655420E+03 -0.97229240481E+03  0.10464529869E+04  0.50400001928E-02 0. -1.
</event>
<event>
 5   0  0.1293575E-03  0.9998182E+03  0.7818609E-02  0.9308744E-01
        1   -1    0    0  501    0  0.00000000000E+00  0.00000000000E+00  0.12365965618E+04  0.12365965618E+04  0.50400001928E-02 0. -1.
       -1   -1    0    0    0  501  0.00000000000E+00  0.00000000000E+00 -0.20209431017E+03  0.20209431024E+03  0.50400001928E-02 0.  1.
    10030    2    1    2    0    0  0.00000000000E+00  0.00000000000E+00  0.10345022516E+04  0.14386908720E+04  0.99981824183E+03 0.  0.
        4    1    3    3  502    0 -0.32793535979E+03 -0.19507625328E+03  0.98199304095E+03  0.10535218508E+04  0.12699999809E+01 0. -1.
       -4    1    3    3    0  502  0.32793535979E+03  0.19507625328E+03  0.52509210660E+02  0.38516902121E+03  0.12699999809E+01 0.  1.
</event>
<event>
 5   0  0.1293575E-03  0.1005917E+04  0.7818609E-02  0.9302079E-01
        1   -1    0    0  501    0  0.00000000000E+00  0.00000000000E+00  0.68056130207E+03  0.68056130209E+03  0.50400001928E-02 0. -1.
       -1   -1    0    0    0  501  0.00000000000E+00  0.00000000000E+00 -0.37170378976E+03  0.37170378979E+03  0.50400001928E-02 0.  1.
    10030    2    1    2    0    0  0.00000000000E+00  0.00000000000E+00  0.30885751231E+03  0.10522650919E+04  0.10059169253E+04 0.  0.
        4    1    3    3  502    0 -0.98599662448E+02 -0.45525742889E+03 -0.44007065418E+02  0.46788829297E+03  0.12699999809E+01 0.  1.
       -4    1    3    3    0  502  0.98599662448E+02  0.45525742889E+03  0.35286457773E+03  0.58437679891E+03  0.12699999809E+01 0. -1.
</event>
<event>
 5   0  0.1293575E-03  0.9950136E+03  0.7818609E-02  0.9314031E-01
       -1   -1    0    0    0  501  0.00000000000E+00  0.00000000000E+00  0.80616758181E+03  0.80616758182E+03  0.50400001928E-02 0. -1.
        1   -1    0    0  501    0  0.00000000000E+00  0.00000000000E+00 -0.30702428758E+03  0.30702428762E+03  0.50400001928E-02 0.  1.
    10030    2    1    2    0    0  0.00000000000E+00  0.00000000000E+00  0.49914329423E+03  0.11131918694E+04  0.99501362304E+03 0.  0.
        4    1    3    3  502    0  0.22940930039E+03 -0.36745095701E+03  0.52329932941E+03  0.67933249148E+03  0.12699999809E+01 0. -1.
       -4    1    3    3    0  502 -0.22940930039E+03  0.36745095701E+03 -0.24156035186E+02  0.43385937797E+03  0.12699999809E+01 0.  1.
</event>
<event>
 5   0  0.2255142E-03  0.9923879E+03  0.7818609E-02  0.9316933E-01
        2   -1    0    0  501    0  0.00000000000E+00  0.00000000000E+00  0.35228935699E+03  0.35228935700E+03  0.25500000920E-02 0. -1.
       -2   -1    0    0    0  501  0.00000000000E+00  0.00000000000E+00 -0.69888128415E+03  0.69888128416E+03  0.25500000920E-02 0.  1.
    10030    2    1    2    0    0  0.00000000000E+00  0.00000000000E+00 -0.34659192716E+03  0.10511706412E+04  0.99238790443E+03 0.  0.
        4    1    3    3  502    0  0.26787510481E+03 -0.23926020977E+03  0.18933388062E+03  0.40601902789E+03  0.12699999809E+01 0. -1.
       -4    1    3    3    0  502 -0.26787510481E+03  0.23926020977E+03 -0.53592580778E+03  0.64515161327E+03  0.12699999809E+01 0.  1.
</event>
<event>
 5   0  0.1285769E-03  0.9989131E+03  0.7818609E-02  0.9309738E-01
        1   -1    0    0  501    0  0.00000000000E+00  0.00000000000E+00  0.61230902878E+03  0.61230902881E+03  0.50400001928E-02 0.  1.
       -1   -1    0    0    0  501  0.00000000000E+00  0.00000000000E+00 -0.40740347893E+03  0.40740347896E+03  0.50400001928E-02 0. -1.
    10030    2    1    2    0    0  0.00000000000E+00  0.00000000000E+00  0.20490554986E+03  0.10197125078E+04  0.99891306635E+03 0.  0.
        5    1    3    3  502    0  0.24904031007E+03 -0.16019661950E+03 -0.30810392545E+03  0.42735717125E+03  0.46999998093E+01 0. -1.
       -5    1    3    3    0  502 -0.24904031007E+03  0.16019661950E+03  0.51300947531E+03  0.59235533651E+03  0.46999998093E+01 0.  1.
</event>
<event>
 5   0  0.1249195E-03  0.1011133E+04  0.7818609E-02  0.9296418E-01
        1   -1    0    0  501    0  0.00000000000E+00  0.00000000000E+00  0.34357465997E+03  0.34357466001E+03  0.50400001928E-02 0.  1.
       -1   -1    0    0    0  501  0.00000000000E+00  0.00000000000E+00 -0.74393576486E+03  0.74393576487E+03  0.50400001928E-02 0. -1.
    10030    2    1    2    0    0  0.00000000000E+00  0.00000000000E+00 -0.40036110489E+03  0.10875104249E+04  0.10111329833E+04 0.  0.
        2    1    3    3  502    0  0.45662135492E+03 -0.25932284698E+02 -0.43191295184E+03  0.62906624702E+03  0.25500000920E-02 0. -1.
       -2    1    3    3    0  502 -0.45662135492E+03  0.25932284698E+02  0.31551846955E+02  0.45844417786E+03  0.25500000920E-02 0.  1.
</event>
<event>
 5   0  0.1293575E-03  0.1000724E+04  0.7818609E-02  0.9307752E-01
        1   -1    0    0  501    0  0.00000000000E+00  0.00000000000E+00  0.23195289325E+04  0.23195289325E+04  0.50400001928E-02 0. -1.
       -1   -1    0    0    0  501  0.00000000000E+00  0.00000000000E+00 -0.10793653170E+03  0.10793653182E+03  0.50400001928E-02 0.  1.
    10030    2    1    2    0    0  0.00000000000E+00  0.00000000000E+00  0.22115924008E+04  0.24274654643E+04  0.10007235548E+04 0.  0.
        4    1    3    3  502    0  0.31543820284E+03  0.25243669796E+03  0.38976057563E+03  0.56137373068E+03  0.12699999809E+01 0.  1.
       -4    1    3    3    0  502 -0.31543820284E+03 -0.25243669796E+03  0.18218318251E+04  0.18660917336E+04  0.12699999809E+01 0. -1.
</event>
<event>
 5   0  0.1293575E-03  0.1004395E+04  0.7818609E-02  0.9303738E-01
        1   -1    0    0  501    0  0.00000000000E+00  0.00000000000E+00  0.36409104277E+03  0.36409104280E+03  0.50400001928E-02 0. -1.
       -1   -1    0    0    0  501  0.00000000000E+00  0.00000000000E+00 -0.69268993197E+03  0.69268993199E+03  0.50400001928E-02 0.  1.
    10030    2    1    2    0    0  0.00000000000E+00  0.00000000000E+00 -0.32859888921E+03  0.10567809748E+04  0.10043947425E+04 0.  0.
        4    1    3    3  502    0  0.22082843278E+03  0.26421413511E+03  0.22031580176E+03  0.40879698057E+03  0.12699999809E+01 0. -1.
       -4    1    3    3    0  502 -0.22082843278E+03 -0.26421413511E+03 -0.54891469096E+03  0.64798399422E+03  0.12699999809E+01 0.  1.
</event>
<event>
 5   0  0.2277570E-03  0.1012192E+04  0.7818609E-02  0.9295273E-01
        2   -1    0    0  501    0  0.00000000000E+00  0.00000000000E+00  0.14830823987E+04  0.14830823987E+04  0.25500000920E-02 0. -1.
       -2   -1    0    0    0  501  0.00000000000E+00  0.00000000000E+00 -0.17270327959E+03  0.17270327961E+03  0.25500000920E-02 0.  1.
    10030    2    1    2    0    0  0.00000000000E+00  0.00000000000E+00  0.13103791191E+04  0.16557856783E+04  0.10121920651E+04 0.  0.
        3    1    3    3  502    0  0.45584679859E+03  0.57674881861E+02  0.30813475976E+03  0.55323569675E+03  0.10100000352E+00 0.  1.
       -3    1    3    3    0  502 -0.45584679859E+03 -0.57674881861E+02  0.10022443593E+04  0.11025499816E+04  0.10100000352E+00 0. -1.
</event>
<event>
 5   0  0.1249195E-03  0.9770421E+03  0.7818609E-02  0.9334089E-01
        1   -1    0    0  501    0  0.00000000000E+00  0.00000000000E+00  0.63564304581E+03  0.63564304583E+03  0.50400001928E-02 0.  1.
       -1   -1    0    0    0  501  0.00000000000E+00  0.00000000000E+00 -0.37545103052E+03  0.37545103055E+03  0.50400001928E-02 0. -1.
    10030    2    1    2    0    0  0.00000000000E+00  0.00000000000E+00  0.26019201529E+03  0.10110940764E+04  0.97704214160E+03 0.  0.
        2    1    3    3  502    0  0.47569732310E+03 -0.89546044306E+02  0.61871080028E+02  0.48799023331E+03  0.25500000920E-02 0.  1.
       -2    1    3    3    0  502 -0.47569732310E+03  0.89546044306E+02  0.19832093526E+03  0.52310384306E+03  0.25500000920E-02 0. -1.
</event>
<event>
 5   0  0.2277570E-03  0.9973199E+03  0.7818609E-02  0.9311489E-01
        2   -1    0    0  501    0  0.00000000000E+00  0.00000000000E+00  0.14434947154E+04  0.14434947154E+04  0.25500000920E-02 0.  1.
       -2   -1    0    0    0  501  0.00000000000E+00  0.00000000000E+00 -0.17226370433E+03  0.17226370435E+03  0.25500000920E-02 0. -1.
    10030    2    1    2    0    0  0.00000000000E+00  0.00000000000E+00  0.12712310111E+04  0.16157584197E+04  0.99731990229E+03 0.  0.
        3    1    3    3  502    0 -0.67591596800E+02 -0.49114949413E+03  0.54889415813E+03  0.73964941463E+03  0.10100000352E+00 0. -1.
       -3    1    3    3    0  502  0.67591596800E+02  0.49114949413E+03  0.72233685293E+03  0.87610900511E+03  0.10100000352E+00 0.  1.
</event>
<event>
 5   0  0.1285769E-03  0.1001530E+04  0.7818609E-02  0.9306868E-01
       -1   -1    0    0    0  501  0.00000000000E+00  0.00000000000E+00  0.10461784938E+04  0.10461784938E+04  0.50400001928E-02 0.  1.
        1   -1    0    0  501    0  0.00000000000E+00  0.00000000000E+00 -0.23969673135E+03  0.23969673140E+03  0.50400001928E-02 0. -1.
    10030    2    1    2    0    0  0.00000000000E+00  0.00000000000E+00  0.80648176249E+03  0.12858752252E+04  0.10015299604E+04 0.  0.
        5    1    3    3  502    0  0.36893145798E+03 -0.24348464843E+03  0.10118524023E+03  0.45349281973E+03  0.46999998093E+01 0. -1.
       -5    1    3    3    0  502 -0.36893145798E+03  0.24348464843E+03  0.70529652226E+03  0.83238240552E+03  0.46999998093E+01 0.  1.
</event>
<event>
 5   0  0.2277570E-03  0.1000369E+04  0.7818609E-02  0.9308140E-01
        2   -1    0    0  501    0  0.00000000000E+00  0.00000000000E+00  0.89069498745E+03  0.89069498745E+03  0.25500000920E-02 0.  1.
       -2   -1    0    0    0  501  0.00000000000E+00  0.00000000000E+00 -0.28088687303E+03  0.28088687304E+03  0.25500000920E-02 0. -1.
    10030    2    1    2    0    0  0.00000000000E+00  0.00000000000E+00  0.60980811442E+03  0.11715818605E+04  0.10003689916E+04 0.  0.
        3    1    3    3  502    0 -0.11563891255E+03  0.37081625732E+03  0.67396948546E+03  0.77788940880E+03  0.10100000352E+00 0.  1.
       -3    1    3    3    0  502  0.11563891255E+03 -0.37081625732E+03 -0.64161371042E+02  0.39369245169E+03  0.10100000352E+00 0. -1.
</event>
<event>
 5   0  0.1293716E-03  0.9995291E+03  0.7818609E-02  0.9309061E-01
        1   -1    0    0  501    0  0.00000000000E+00  0.00000000000E+00  0.37903142644E+03  0.37903142648E+03  0.50400001928E-02 0.  1.
       -1   -1    0    0    0  501  0.00000000000E+00  0.00000000000E+00 -0.65895480772E+03  0.65895480773E+03  0.50400001928E-02 0. -1.
    10030    2    1    2    0    0  0.00000000000E+00  0.00000000000E+00 -0.27992338127E+03  0.10379862342E+04  0.99952905062E+03 0.  0.
        3    1    3    3  502    0  0.14707558642E+03  0.38765049613E+03  0.14980908715E+03  0.44084794211E+03  0.10100000352E+00 0.  1.
       -3    1    3    3    0  502 -0.14707558642E+03 -0.38765049613E+03 -0.42973246842E+03  0.59713829210E+03  0.10100000352E+00 0. -1.
</event>
<event>
 5   0  0.1285769E-03  0.9984156E+03  0.7818609E-02  0.9310284E-01
       -1   -1    0    0    0  501  0.00000000000E+00  0.00000000000E+00  0.12492184749E+04  0.12492184749E+04  0.50400001928E-02 0. -1.
        1   -1    0    0  501    0  0.00000000000E+00  0.00000000000E+00 -0.19949148275E+03  0.19949148281E+03  0.50400001928E-02 0.  1.
    10030    2    1    2    0    0  0.00000000000E+00  0.00000000000E+00  0.10497269922E+04  0.14487099578E+04  0.99841563668E+03 0.  0.
        5    1    3    3  502    0 -0.38921674229E+03  0.27704975668E+03  0.73483463797E+03  0.87649887354E+03  0.46999998093E+01 0. -1.
       -5    1    3    3    0  502  0.38921674229E+03 -0.27704975668E+03  0.31489235422E+03  0.57221108422E+03  0.46999998093E+01 0.  1.
</event>
<event>
 5   0  0.2264577E-03  0.9970861E+03  0.7818609E-02  0.9311746E-01
        2   -1    0    0  501    0  0.00000000000E+00  0.00000000000E+00  0.11822187927E+04  0.11822187927E+04  0.25500000920E-02 0.  1.
       -2   -1    0    0    0  501  0.00000000000E+00  0.00000000000E+00 -0.21023619718E+03  0.21023619720E+03  0.25500000920E-02 0. -1.
    10030    2    1    2    0    0  0.00000000000E+00  0.00000000000E+00  0.97198259550E+03  0.13924549899E+04  0.99708612110E+03 0.  0.
        5    1    3    3  502    0  0.96398632792E+02  0.23209565366E+02  0.11682784057E+04  0.11724879119E+04  0.46999998093E+01 0.  1.
       -5    1    3    3    0  502 -0.96398632792E+02 -0.23209565366E+02 -0.19629581016E+03  0.21996707802E+03  0.46999998093E+01 0. -1.
</event>
<event>
 5   0  0.1353789E-03  0.1003598E+04  0.7818609E-02  0.9304608E-01
       -1   -1    0    0    0  501  0.00000000000E+00  0.00000000000E+00  0.33288415654E+03  0.33288415658E+03  0.50400001928E-02 0.  1.
        1   -1    0    0  501    0  0.00000000000E+00  0.00000000000E+00 -0.75642539631E+03  0.75642539633E+03  0.50400001928E-02 0. -1.
    10030    2    1    2    0    0  0.00000000000E+00  0.00000000000E+00 -0.42354123977E+03  0.10893095529E+04  0.10035975888E+04 0.  0.
        1    1    3    3  502    0  0.18213122031E+03  0.31608365890E+03 -0.58575731438E+03  0.69006687517E+03  0.50400001928E-02 0. -1.
       -1    1    3    3    0  502 -0.18213122031E+03 -0.31608365890E+03  0.16221607461E+03  0.39924267773E+03  0.50400001928E-02 0.  1.
</event>
<event>
 5   0  0.1249195E-03  0.1002122E+04  0.7818609E-02  0.9306220E-01
       -1   -1    0    0    0  501  0.00000000000E+00  0.00000000000E+00  0.49095440062E+03  0.49095440065E+03  0.50400001928E-02 0. -1.
        1   -1    0    0  501    0  0.00000000000E+00  0.00000000000E+00 -0.51137567079E+03  0.51137567081E+03  0.50400001928E-02 0.  1.
    10030    2    1    2    0    0  0.00000000000E+00  0.00000000000E+00 -0.20421270162E+02  0.10023300715E+04  0.10021220205E+04 0.  0.
        2    1    3    3  502    0  0.25575205461E+03  0.81725647668E+02  0.41293031363E+03  0.49254404762E+03  0.25500000920E-02 0. -1.
       -2    1    3    3    0  502 -0.25575205461E+03 -0.81725647668E+02 -0.43335158379E+03  0.50978602384E+03  0.25500000920E-02 0.  1.
</event>
<event>
 5   0  0.2284843E-03  0.9975012E+03  0.7818609E-02  0.9311290E-01
        2   -1    0    0  501    0  0.00000000000E+00  0.00000000000E+00  0.11102524048E+04  0.11102524048E+04  0.25500000920E-02 0.  1.
       -2   -1    0    0    0  501  0.00000000000E+00  0.00000000000E+00 -0.22405009054E+03  0.22405009056E+03  0.25500000920E-02 0. -1.
    10030    2    1    2    0    0  0.00000000000E+00  0.00000000000E+00  0.88620231429E+03  0.13343024954E+04  0.99750118163E+03 0.  0.
        2    1    3    3  502    0  0.32811499372E+03  0.33528343652E+03  0.66962461838E+03  0.81760110167E+03  0.25500000920E-02 0.  1.
       -2    1    3    3    0  502 -0.32811499372E+03 -0.33528343652E+03  0.21657769591E+03  0.51670139373E+03  0.25500000920E-02 0. -1.
</event>
<event>
 5   0  0.2284843E-03  0.1000188E+04  0.7818609E-02  0.9308339E-01
       -2   -1    0    0    0  501  0.00000000000E+00  0.00000000000E+00  0.20192856066E+03  0.20192856068E+03  0.25500000920E-02 0. -1.
        2   -1    0    0  501    0  0.00000000000E+00  0.00000000000E+00 -0.12385267133E+04  0.12385267133E+04  0.25500000920E-02 0.  1.
    10030    2    1    2    0    0  0.00000000000E+00  0.00000000000E+00 -0.10365981527E+04  0.14404552740E+04  0.10001878155E+04 0.  0.
        2    1    3    3  502    0 -0.20827950270E+03  0.17121371193E+03 -0.11248877945E+04  0.11567484759E+04  0.25500000920E-02 0.  1.
       -2    1    3    3    0  502  0.20827950270E+03 -0.17121371193E+03  0.88289641846E+02  0.28370679805E+03  0.25500000920E-02 0. -1.
</event>
<event>
 5   0  0.2255142E-03  0.1002482E+04  0.7818609E-02  0.9305826E-01
       -2   -1    0    0    0  501  0.00000000000E+00  0.00000000000E+00  0.91180361617E+03  0.91180361618E+03  0.25500000920E-02 0. -1.
        2   -1    0    0  501    0  0.00000000000E+00  0.00000000000E+00 -0.27554478422E+03  0.27554478423E+03  0.25500000920E-02 0.  1.
    10030    2    1    2    0    0  0.00000000000E+00  0.00000000000E+00  0.63625883195E+03  0.11873484004E+04  0.10024823802E+04 0.  0.
        4    1    3    3  502    0  0.24530047197E+03 -0.40922952745E+03  0.50008162545E+03  0.69117607937E+03  0.12699999809E+01 0.  1.
       -4    1    3    3    0  502 -0.24530047197E+03  0.40922952745E+03  0.13617720650E+03  0.49617232103E+03  0.12699999809E+01 0. -1.
</event>
<event>
 5   0  0.2204862E-03  0.9959691E+03  0.7818609E-02  0.9312977E-01
       -2   -1    0    0    0  501  0.00000000000E+00  0.00000000000E+00  0.20939164076E+03  0.20939164077E+03  0.25500000920E-02 0.  1.
        2   -1    0    0  501    0  0.00000000000E+00  0.00000000000E+00 -0.11843292021E+04  0.11843292021E+04  0.25500000920E-02 0. -1.
    10030    2    1    2    0    0  0.00000000000E+00  0.00000000000E+00 -0.97493756136E+03  0.13937208429E+04  0.99596914578E+03 0.  0.
        1    1    3    3  502    0 -0.18750165706E+03  0.91624390741E+02 -0.11201855979E+04  0.11394593780E+04  0.50400001928E-02 0. -1.
       -1    1    3    3    0  502  0.18750165706E+03 -0.91624390741E+02  0.14524803654E+03  0.25426146488E+03  0.50400001928E-02 0.  1.
</event>
<event>
 5   0  0.8680125E-04  0.9968471E+03  0.7818609E-02  0.9312010E-01
        4   -1    0    0  501    0  0.00000000000E+00  0.00000000000E+00  0.16225008454E+04  0.16225013424E+04  0.12699999809E+01 0.  1.
       -4   -1    0    0    0  501  0.00000000000E+00  0.00000000000E+00 -0.15310989236E+03  0.15311515940E+03  0.12699999809E+01 0. -1.
    10030    2    1    2    0    0  0.00000000000E+00  0.00000000000E+00  0.14693909530E+04  0.17756165018E+04  0.99684712404E+03 0.  0.
        1    1    3    3  502    0 -0.17212881959E+03  0.19767239486E+03  0.14898274404E+04  0.15127089966E+04  0.50400001928E-02 0.  1.
       -1    1    3    3    0  502  0.17212881959E+03 -0.19767239486E+03 -0.20436487436E+02  0.26290750516E+03  0.50400001928E-02 0. -1.
</event>
<event>
 5   0  0.2255142E-03  0.9968785E+03  0.7818609E-02  0.9311975E-01
       -2   -1    0    0    0  501  0.00000000000E+00  0.00000000000E+00  0.26818717295E+03  0.26818717296E+03  0.25500000920E-02 0.  1.
        2   -1    0    0  501    0  0.00000000000E+00  0.00000000000E+00 -0.92637421108E+03  0.92637421108E+03  0.25500000920E-02 0. -1.
    10030    2    1    2    0    0  0.00000000000E+00  0.00000000000E+00 -0.65818703813E+03  0.11945613840E+04  0.99687848962E+03 0.  0.
        4    1    3    3  502    0  0.27635074505E+03  0.39555906819E+03 -0.47877748142E+03  0.67975451476E+03  0.12699999809E+01 0. -1.
       -4    1    3    3    0  502 -0.27635074505E+03 -0.39555906819E+03 -0.17940955671E+03  0.51480686928E+03  0.12699999809E+01 0.  1.
</event>
<event>
 5   0  0.2277570E-03  0.1003900E+04  0.7818609E-02  0.9304277E-01
        2   -1    0    0  501    0  0.00000000000E+00  0.00000000000E+00  0.11291640260E+04  0.11291640260E+04  0.25500000920E-02 0.  1.
       -2   -1    0    0    0  501  0.00000000000E+00  0.00000000000E+00 -0.22313313398E+03  0.22313313399E+03  0.25500000920E-02 0. -1.
    10030    2    1    2    0    0  0.00000000000E+00  0.00000000000E+00  0.90603089200E+03  0.13522971600E+04  0.10039002100E+04 0.  0.
        3    1    3    3  502    0 -0.31205928783E+03 -0.27308842188E+03  0.72024482827E+02  0.42088694635E+03  0.10100000352E+00 0. -1.
       -3    1    3    3    0  502  0.31205928783E+03  0.27308842188E+03  0.83400640917E+03  0.93141021361E+03  0.10100000352E+00 0.  1.
</event>
<event>
 5   0  0.8680125E-04  0.1000780E+04  0.7818609E-02  0.9307690E-01
       -3   -1    0    0    0  501  0.00000000000E+00  0.00000000000E+00  0.11334850804E+04  0.11334850849E+04  0.10100000352E+00 0. -1.
        3   -1    0    0  501    0  0.00000000000E+00  0.00000000000E+00 -0.22090272573E+03  0.22090274882E+03  0.10100000352E+00 0.  1.
    10030    2    1    2    0    0  0.00000000000E+00  0.00000000000E+00  0.91258235462E+03  0.13543878337E+04  0.10007796211E+04 0.  0.
        2    1    3    3  502    0 -0.12011584925E+02  0.55996905952E+02 -0.21645273752E+03  0.22390113719E+03  0.25500000920E-02 0.  1.
       -2    1    3    3    0  502  0.12011584925E+02 -0.55996905952E+02  0.11290350921E+04  0.11304866965E+04  0.25500000920E-02 0. -1.
</event>
<event>
 5   0  0.8680125E-04  0.9986141E+03  0.7818609E-02  0.9310066E-01
        3   -1    0    0  501    0  0.00000000000E+00  0.00000000000E+00  0.13774828460E+03  0.13774832163E+03  0.10100000352E+00 0.  1.
       -3   -1    0    0    0  501  0.00000000000E+00  0.00000000000E+00 -0.18098773934E+04  0.18098773963E+04  0.10100000352E+00 0. -1.
    10030    2    1    2    0    0  0.00000000000E+00  0.00000000000E+00 -0.16721291088E+04  0.19476257179E+04  0.99861412987E+03 0.  0.
        2    1    3    3  502    0  0.95106411974E+02 -0.30629733647E+03 -0.89712097934E+02  0.33303385481E+03  0.25500000920E-02 0.  1.
       -2    1    3    3    0  502 -0.95106411974E+02  0.30629733647E+03 -0.15824170109E+04  0.16145918631E+04  0.25500000920E-02 0. -1.
</event>
<event>
 5   0  0.1293716E-03  0.9979963E+03  0.7818609E-02  0.9310745E-01
       -1   -1    0    0    0  501  0.00000000000E+00  0.00000000000E+00  0.45744562507E+03  0.45744562510E+03  0.50400001928E-02 0. -1.
        1   -1    0    0  501    0  0.00000000000E+00  0.00000000000E+00 -0.54432508635E+03  0.54432508638E+03  0.50400001928E-02 0.  1.
    10030    2    1    2    0    0  0.00000000000E+00  0.00000000000E+00 -0.86879461281E+02  0.10017707115E+04  0.99799625128E+03 0.  0.
        3    1    3    3  502    0  0.44835295247E+03  0.18337948186E+03 -0.16368726708E+03  0.51131393093E+03  0.10100000352E+00 0.  1.
       -3    1    3    3    0  502 -0.44835295247E+03 -0.18337948186E+03  0.76807805800E+02  0.49045678055E+03  0.10100000352E+00 0. -1.
</event>
<event>
 5   0  0.2264577E-03  0.9644110E+03  0.7818609E-02  0.9348463E-01
       -2   -1    0    0    0  501  0.00000000000E+00  0.00000000000E+00  0.24658710563E+03  0.24658710565E+03  0.25500000920E-02 0.  1.
        2   -1    0    0  501    0  0.00000000000E+00  0.00000000000E+00 -0.94296154133E+03  0.94296154133E+03  0.25500000920E-02 0. -1.
    10030    2    1    2    0    0  0.00000000000E+00  0.00000000000E+00 -0.69637443569E+03  0.11895486470E+04  0.96441102692E+03 0.  0.
        5    1    3    3  502    0 -0.27841009927E+03  0.26399788916E+03  0.12040171630E+02  0.38389337658E+03  0.46999998093E+01 0.  1.
       -5    1    3    3    0  502  0.27841009927E+03 -0.26399788916E+03 -0.70841460732E+03  0.80565527040E+03  0.46999998093E+01 0. -1.
</event>
<event>
 5   0  0.1293575E-03  0.1004934E+04  0.7818609E-02  0.9303150E-01
       -1   -1    0    0    0  501  0.00000000000E+00  0.00000000000E+00  0.60857191348E+03  0.60857191351E+03  0.50400001928E-02 0. -1.
        1   -1    0    0  501    0  0.00000000000E+00  0.00000000000E+00 -0.41486164058E+03  0.41486164061E+03  0.50400001928E-02 0.  1.
    10030    2    1    2    0    0  0.00000000000E+00  0.00000000000E+00  0.19371027291E+03  0.10234335541E+04  0.10049341122E+04 0.  0.
        4    1    3    3  502    0  0.92646029183E+02 -0.46525916263E+03 -0.71789622594E+02  0.47979655892E+03  0.12699999809E+01 0.  1.
       -4    1    3    3    0  502 -0.92646029183E+02  0.46525916263E+03  0.26549989550E+03  0.54363699520E+03  0.12699999809E+01 0. -1.
</event>
<event>
 5   0  0.2204862E-03  0.9909674E+03  0.7818609E-02  0.9318507E-01
       -2   -1    0    0    0  501  0.00000000000E+00  0.00000000000E+00  0.59769469758E+03  0.59769469759E+03  0.25500000920E-02 0. -1.
        2   -1    0    0  501    0  0.00000000000E+00  0.00000000000E+00 -0.41075166663E+03  0.41075166664E+03  0.25500000920E-02 0.  1.
    10030    2    1    2    0    0  0.00000000000E+00  0.00000000000E+00  0.18694303095E+03  0.10084463642E+04  0.99096739235E+03 0.  0.
        1    1    3    3  502    0  0.19467478963E+03 -0.30561124971E+03 -0.25043540197E+03  0.44047065765E+03  0.50400001928E-02 0.  1.
       -1    1    3    3    0  502 -0.19467478963E+03  0.30561124971E+03  0.43737843291E+03  0.56797570658E+03  0.50400001928E-02 0. -1.
</event>
<event>
 5   0  0.8680125E-04  0.9999227E+03  0.7818609E-02  0.9308630E-01
        3   -1    0    0  501    0  0.00000000000E+00  0.00000000000E+00  0.17789269861E+03  0.17789272728E+03  0.10100000352E+00 0.  1.
       -3   -1    0    0    0  501  0.00000000000E+00  0.00000000000E+00 -0.14051242516E+04  0.14051242552E+04  0.10100000352E+00 0. -1.
    10030    2    1    2    0    0  0.00000000000E+00  0.00000000000E+00 -0.12272315530E+04  0.15830169825E+04  0.99992273815E+03 0.  0.
        1    1    3    3  502    0  0.44466983743E+03 -0.17435334823E+03 -0.84752971720E+03  0.97284992466E+03  0.50400001928E-02 0. -1.
       -1    1    3    3    0  502 -0.44466983743E+03  0.17435334823E+03 -0.37970183579E+03  0.61016705785E+03  0.50400001928E-02 0.  1.
</event>
<event>
 5   0  0.2284843E-03  0.1000579E+04  0.7818609E-02  0.9307910E-01
       -2   -1    0    0    0  501  0.00000000000E+00  0.00000000000E+00  0.15628564324E+03  0.15628564326E+03  0.25500000920E-02 0.  1.
        2   -1    0    0  501    0  0.00000000000E+00  0.00000000000E+00 -0.16014886775E+04  0.16014886775E+04  0.25500000920E-02 0. -1.
    10030    2    1    2    0    0  0.00000000000E+00  0.00000000000E+00 -0.14452030343E+04  0.17577743208E+04  0.10005792085E+04 0.  0.
        2    1    3    3  502    0 -0.41397172479E+03 -0.27036953762E+03 -0.85659280606E+03  0.98905182433E+03  0.25500000920E-02 0. -1.
       -2    1    3    3    0  502  0.41397172479E+03  0.27036953762E+03 -0.58861022822E+03  0.76872249646E+03  0.25500000920E-02 0.  1.
</event>
<event>
 5   0  0.1285769E-03  0.1000597E+04  0.7818609E-02  0.9307890E-01
        1   -1    0    0  501    0  0.00000000000E+00  0.00000000000E+00  0.86067211313E+03  0.86067211314E+03  0.50400001928E-02 0.  1.
       -1   -1    0    0    0  501  0.00000000000E+00  0.00000000000E+00 -0.29081778981E+03  0.29081778986E+03  0.50400001928E-02 0. -1.
    10030    2    1    2    0    0  0.00000000000E+00  0.00000000000E+00  0.56985432331E+03  0.11514899030E+04  0.10005973450E+04 0.  0.
        5    1    3    3  502    0  0.12524847823E+03 -0.13731813486E+03  0.81944142791E+03  0.84026769261E+03  0.46999998093E+01 0.  1.
       -5    1    3    3    0  502 -0.12524847823E+03  0.13731813486E+03 -0.24958710460E+03  0.31122221039E+03  0.46999998093E+01 0. -1.
</event>
<event>
 5   0  0.2255142E-03  0.1001231E+04  0.7818609E-02  0.9307196E-01
        2   -1    0    0  501    0  0.00000000000E+00  0.00000000000E+00  0.70062960574E+03  0.70062960574E+03  0.25500000920E-02 0.  1.
       -2   -1    0    0    0  501  0.00000000000E+00  0.00000000000E+00 -0.35770084585E+03  0.35770084586E+03  0.25500000920E-02 0. -1.
    10030    2    1    2    0    0  0.00000000000E+00  0.00000000000E+00  0.34292875988E+03  0.10583304516E+04  0.10012308477E+04 0.  0.
        4    1    3    3  502    0 -0.41883547491E+03 -0.20902583214E+03  0.35906621491E+03  0.58995348387E+03  0.12699999809E+01 0. -1.
       -4    1    3    3    0  502  0.41883547491E+03  0.20902583214E+03 -0.16137455028E+02  0.46837696773E+03  0.12699999809E+01 0.  1.
</event>
<event>
 5   0  0.2264577E-03  0.9998205E+03  0.7818609E-02  0.9308742E-01
       -2   -1    0    0    0  501  0.00000000000E+00  0.00000000000E+00  0.28087181487E+03  0.28087181488E+03  0.25500000920E-02 0. -1.
        2   -1    0    0  501    0  0.00000000000E+00  0.00000000000E+00 -0.88976623126E+03  0.88976623126E+03  0.25500000920E-02 0.  1.
    10030    2    1    2    0    0  0.00000000000E+00  0.00000000000E+00 -0.60889441639E+03  0.11706380461E+04  0.99982049627E+03 0.  0.
        5    1    3    3  502    0 -0.99352567903E+02 -0.20605298421E+03 -0.82486178149E+03  0.85600690045E+03  0.46999998093E+01 0.  1.
       -5    1    3    3    0  502  0.99352567903E+02  0.20605298421E+03  0.21596736510E+03  0.31463114569E+03  0.46999998093E+01 0. -1.
</event>
<event>
 5   0  0.1293575E-03  0.9853487E+03  0.7818609E-02  0.9324762E-01
        1   -1    0    0  501    0  0.00000000000E+00  0.00000000000E+00  0.44871903525E+03  0.44871903528E+03  0.50400001928E-02 0.  1.
       -1   -1    0    0    0  501  0.00000000000E+00  0.00000000000E+00 -0.54093541268E+03  0.54093541270E+03  0.50400001928E-02 0. -1.
    10030    2    1    2    0    0  0.00000000000E+00  0.00000000000E+00 -0.92216377430E+02  0.98965444798E+03  0.98534870281E+03 0.  0.
        4    1    3    3  502    0 -0.20548314157E+03 -0.23244319551E+03 -0.43049880784E+03  0.53064488791E+03  0.12699999809E+01 0. -1.
       -4    1    3    3    0  502  0.20548314157E+03  0.23244319551E+03  0.33828243041E+03  0.45900956007E+03  0.12699999809E+01 0.  1.
</event>
<event>
 5   0  0.2277570E-03  0.9904915E+03  0.7818609E-02  0.9319035E-01
        2   -1    0    0  501    0  0.00000000000E+00  0.00000000000E+00  0.59946942710E+03  0.59946942711E+03  0.25500000920E-02 0.  1.
       -2   -1    0    0    0  501  0.00000000000E+00  0.00000000000E+00 -0.40914237282E+03  0.40914237282E+03  0.25500000920E-02 0. -1.
    10030    2    1    2    0    0  0.00000000000E+00  0.00000000000E+00  0.19032705429E+03  0.10086117999E+04  0.99049148173E+03 0.  0.
        3    1    3    3  502    0  0.39248455926E+03  0.15817200023E+03  0.35717565445E+03  0.55374810992E+03  0.10100000352E+00 0.  1.
       -3    1    3    3    0  502 -0.39248455926E+03 -0.15817200023E+03 -0.16684860016E+03  0.45486369001E+03  0.10100000352E+00 0. -1.
</event>
<event>
 5   0  0.1285769E-03  0.9996561E+03  0.7818609E-02  0.9308922E-01
       -1   -1    0    0    0  501  0.00000000000E+00  0.00000000000E+00  0.18391096449E+03  0.18391096456E+03  0.50400001928E-02 0. -1.
        1   -1    0    0  501    0  0.00000000000E+00  0.00000000000E+00 -0.13584186817E+04  0.13584186817E+04  0.50400001928E-02 0.  1.
    10030    2    1    2    0    0  0.00000000000E+00  0.00000000000E+00 -0.11745077172E+04  0.15423296462E+04  0.99965612085E+03 0.  0.
        5    1    3    3  502    0 -0.52882144174E+02 -0.23150328351E+03  0.91281445064E+02  0.25444976648E+03  0.46999998093E+01 0. -1.
       -5    1    3    3    0  502  0.52882144174E+02  0.23150328351E+03 -0.12657891622E+04  0.12878798798E+04  0.46999998093E+01 0.  1.
</event>
<event>
 5   0  0.1293716E-03  0.1000916E+04  0.7818609E-02  0.9307540E-01
        1   -1    0    0  501    0  0.00000000000E+00  0.00000000000E+00  0.19419661981E+04  0.19419661981E+04  0.50400001928E-02 0. -1.
       -1   -1    0    0    0  501  0.00000000000E+00  0.00000000000E+00 -0.12897157204E+03  0.12897157214E+03  0.50400001928E-02 0.  1.
    10030    2    1    2    0    0  0.00000000000E+00  0.00000000000E+00  0.18129946260E+04  0.20709377702E+04  0.10009164471E+04 0.  0.
        3    1    3    3  502    0 -0.22272773409E+02  0.36186043844E+03  0.19269484240E+03  0.41057321616E+03  0.10100000352E+00 0.  1.
       -3    1    3    3    0  502  0.22272773409E+02 -0.36186043844E+03  0.16202997836E+04  0.16603645541E+04  0.10100000352E+00 0. -1.
</event>
<event>
 5   0  0.1293716E-03  0.9984470E+03  0.7818609E-02  0.9310250E-01
        1   -1    0    0  501    0  0.00000000000E+00  0.00000000000E+00  0.40518602402E+03  0.40518602406E+03  0.50400001928E-02 0. -1.
       -1   -1    0    0    0  501  0.00000000000E+00  0.00000000000E+00 -0.61508566664E+03  0.61508566666E+03  0.50400001928E-02 0.  1.
    10030    2    1    2    0    0  0.00000000000E+00  0.00000000000E+00 -0.20989964262E+03  0.10202716907E+04  0.99844702559E+03 0.  0.
        3    1    3    3  502    0  0.17313908651E+03  0.44222212367E+03  0.52318686047E+02  0.47778112672E+03  0.10100000352E+00 0. -1.
       -3    1    3    3    0  502 -0.17313908651E+03 -0.44222212367E+03 -0.26221832867E+03  0.54249056400E+03  0.10100000352E+00 0.  1.
</event>
<event>
 5   0  0.1293575E-03  0.1001726E+04  0.7818609E-02  0.9306654E-01
       -1   -1    0    0    0  501  0.00000000000E+00  0.00000000000E+00  0.52902461157E+03  0.52902461159E+03  0.50400001928E-02 0.  1.
        1   -1    0    0  501    0  0.00000000000E+00  0.00000000000E+00 -0.47420026584E+03  0.47420026586E+03  0.50400001928E-02 0. -1.
    10030    2    1    2    0    0  0.00000000000E+00  0.00000000000E+00  0.54824345731E+02  0.10032248775E+04  0.10017257339E+04 0.  0.
        4    1    3    3  502    0  0.16042848979E+03 -0.39076294823E+03  0.29694133198E+03  0.51634169847E+03  0.12699999809E+01 0.  1.
       -4    1    3    3    0  502 -0.16042848979E+03  0.39076294823E+03 -0.24211698625E+03  0.48688317898E+03  0.12699999809E+01 0. -1.
</event>
<event>
 5   0  0.2277570E-03  0.1000045E+04  0.7818609E-02  0.9308495E-01
        2   -1    0    0  501    0  0.00000000000E+00  0.00000000000E+00  0.10131119883E+04  0.10131119883E+04  0.25500000920E-02 0.  1.
       -2   -1    0    0    0  501  0.00000000000E+00  0.00000000000E+00 -0.24678673247E+03  0.24678673249E+03  0.25500000920E-02 0. -1.
    10030    2    1    2    0    0  0.00000000000E+00  0.00000000000E+00  0.76632525584E+03  0.12598987208E+04  0.10000451935E+04 0.  0.
        3    1    3    3  502    0 -0.86271350761E+02  0.49094016454E+03  0.33344122108E+03  0.59970663598E+03  0.10100000352E+00 0.  1.
       -3    1    3    3    0  502  0.86271350761E+02 -0.49094016454E+03  0.43288403476E+03  0.66019208482E+03  0.10100000352E+00 0. -1.
</event>
<event>
 5   0  0.1285769E-03  0.1000083E+04  0.7818609E-02  0.9308453E-01
        1   -1    0    0  501    0  0.00000000000E+00  0.00000000000E+00  0.52192621880E+03  0.52192621883E+03  0.50400001928E-02 0.  1.
       -1   -1    0    0    0  501  0.00000000000E+00  0.00000000000E+00 -0.47907478638E+03  0.47907478641E+03  0.50400001928E-02 0. -1.
    10030    2    1    2    0    0  0.00000000000E+00  0.00000000000E+00  0.42851432417E+02  0.10010010052E+04  0.10000833801E+04 0.  0.
        5    1    3    3  502    0 -0.47107696927E+03 -0.13461246273E+03 -0.78593824963E+02  0.49621880801E+03  0.46999998093E+01 0. -1.
       -5    1    3    3    0  502  0.47107696927E+03  0.13461246273E+03  0.12144525738E+03  0.50478219723E+03  0.46999998093E+01 0.  1.
</event>
<event>
 5   0  0.2277570E-03  0.9973960E+03  0.7818609E-02  0.9311405E-01
       -2   -1    0    0    0  501  0.00000000000E+00  0.00000000000E+00  0.14144630658E+04  0.14144630658E+04  0.25500000920E-02 0. -1.
        2   -1    0    0  501    0  0.00000000000E+00  0.00000000000E+00 -0.17582622341E+03  0.17582622343E+03  0.25500000920E-02 0.  1.
    10030    2    1    2    0    0  0.00000000000E+00  0.00000000000E+00  0.12386368424E+04  0.15902892892E+04  0.99739600766E+03 0.  0.
        3    1    3    3  502    0  0.21738570152E+03 -0.44881728014E+03  0.62328683454E+03  0.79823554324E+03  0.10100000352E+00 0.  1.
       -3    1    3    3    0  502 -0.21738570152E+03  0.44881728014E+03  0.61535000784E+03  0.79205374598E+03  0.10100000352E+00 0. -1.
</event>
<event>
 5   0  0.2264577E-03  0.9976268E+03  0.7818609E-02  0.9311152E-01
       -2   -1    0    0    0  501  0.00000000000E+00  0.00000000000E+00  0.94514794936E+02  0.94514794971E+02  0.25500000920E-02 0. -1.
        2   -1    0    0  501    0  0.00000000000E+00  0.00000000000E+00 -0.26325485350E+04  0.26325485350E+04  0.25500000920E-02 0.  1.
    10030    2    1    2    0    0  0.00000000000E+00  0.00000000000E+00 -0.25380337401E+04  0.27270633300E+04  0.99762675385E+03 0.  0.
        5    1    3    3  502    0 -0.46752135825E+01 -0.56709402860E+02 -0.26235867731E+04  0.26242079682E+04  0.46999998093E+01 0.  1.
       -5    1    3    3    0  502  0.46752135825E+01  0.56709402860E+02  0.85553033051E+02  0.10285536183E+03  0.46999998093E+01 0. -1.
</event>
<event>
 5   0  0.1249195E-03  0.9985190E+03  0.7818609E-02  0.9310171E-01
        1   -1    0    0  501    0  0.00000000000E+00  0.00000000000E+00  0.88267268628E+03  0.88267268629E+03  0.50400001928E-02 0. -1.
       -1   -1    0    0    0  501  0.00000000000E+00  0.00000000000E+00 -0.28239238436E+03  0.28239238440E+03  0.50400001928E-02 0.  1.
    10030    2    1    2    0    0  0.00000000000E+00  0.00000000000E+00  0.60028030192E+03  0.11650650707E+04  0.99851899235E+03 0.  0.
        2    1    3    3  502    0  0.47316800907E+03  0.14322840170E+03  0.38146240456E+03  0.62443246710E+03  0.25500000920E-02 0. -1.
       -2    1    3    3    0  502 -0.47316800907E+03 -0.14322840170E+03  0.21881789736E+03  0.54063260360E+03  0.25500000920E-02 0.  1.
</event>
<event>
 5   0  0.1293575E-03  0.9992052E+03  0.7818609E-02  0.9309417E-01
       -1   -1    0    0    0  501  0.00000000000E+00  0.00000000000E+00  0.39117323286E+03  0.39117323290E+03  0.50400001928E-02 0.  1.
        1   -1    0    0  501    0  0.00000000000E+00  0.00000000000E+00 -0.63808749354E+03  0.63808749356E+03  0.50400001928E-02 0. -1.
    10030    2    1    2    0    0  0.00000000000E+00  0.00000000000E+00 -0.24691426068E+03  0.10292607265E+04  0.99920517958E+03 0.  0.
        4    1    3    3  502    0  0.11450362125E+03 -0.17232893948E+03  0.34496609885E+03  0.40225808248E+03  0.12699999809E+01 0.  1.
       -4    1    3    3    0  502 -0.11450362125E+03  0.17232893948E+03 -0.59188035953E+03  0.62700264398E+03  0.12699999809E+01 0. -1.
</event>
<event>
 5   0  0.2284843E-03  0.9968244E+03  0.7818609E-02  0.9312035E-01
        2   -1    0    0  501    0  0.00000000000E+00  0.00000000000E+00  0.98111088641E+03  0.98111088642E+03  0.25500000920E-02 0. -1.
       -2   -1    0    0    0  501  0.00000000000E+00  0.00000000000E+00 -0.25319742085E+03  0.25319742086E+03  0.25500000920E-02 0.  1.
    10030    2    1    2    0    0  0.00000000000E+00  0.00000000000E+00  0.72791346557E+03  0.12343083073E+04  0.99682444997E+03 0.  0.
        2    1    3    3  502    0 -0.59662204512E+02 -0.36667703550E+03  0.77538643520E+03  0.85978820119E+03  0.25500000920E-02 0. -1.
       -2    1    3    3    0  502  0.59662204512E+02  0.36667703550E+03 -0.47472969635E+02  0.37452010608E+03  0.25500000920E-02 0.  1.
</event>
<event>
 5   0  0.2277570E-03  0.1002248E+04  0.7818609E-02  0.9306082E-01
        2   -1    0    0  501    0  0.00000000000E+00  0.00000000000E+00  0.34521747639E+03  0.34521747640E+03  0.25500000920E-02 0.  1.
       -2   -1    0    0    0  501  0.00000000000E+00  0.00000000000E+00 -0.72744112523E+03  0.72744112523E+03  0.25500000920E-02 0. -1.
    10030    2    1    2    0    0  0.00000000000E+00  0.00000000000E+00 -0.38222364883E+03  0.10726586016E+04  0.10022482516E+04 0.  0.
        3    1    3    3  502    0  0.44044638300E+03  0.30170518843E+02  0.62657868863E+02  0.44590278675E+03  0.10100000352E+00 0. -1.
       -3    1    3    3    0  502 -0.44044638300E+03 -0.30170518843E+02 -0.44488151769E+03  0.62675581488E+03  0.10100000352E+00 0.  1.
</event>
<event>
 5   0  0.1353789E-03  0.1001143E+04  0.7818609E-02  0.9307292E-01
       -1   -1    0    0    0  501  0.00000000000E+00  0.00000000000E+00  0.27732705692E+03  0.27732705696E+03  0.50400001928E-02 0. -1.
        1   -1    0    0  501    0  0.00000000000E+00  0.00000000000E+00 -0.90352514948E+03  0.90352514950E+03  0.50400001928E-02 0.  1.
    10030    2    1    2    0    0  0.00000000000E+00  0.00000000000E+00 -0.62619809256E+03  0.11808522065E+04  0.10011432876E+04 0.  0.
        1    1    3    3  502    0 -0.65613564098E+02 -0.42632854643E+03 -0.13517178844E+02  0.43155982604E+03  0.50400001928E-02 0. -1.
       -1    1    3    3    0  502  0.65613564098E+02  0.42632854643E+03 -0.61268091372E+03  0.74929238042E+03  0.50400001928E-02 0.  1.
</event>
<event>
 5   0  0.2264577E-03  0.9973622E+03  0.7818609E-02  0.9311443E-01
       -2   -1    0    0    0  501  0.00000000000E+00  0.00000000000E+00  0.50716774864E+03  0.50716774864E+03  0.25500000920E-02 0.  1.
        2   -1    0    0  501    0  0.00000000000E+00  0.00000000000E+00 -0.49033646526E+03  0.49033646527E+03  0.25500000920E-02 0. -1.
    10030    2    1    2    0    0  0.00000000000E+00  0.00000000000E+00  0.16831283374E+02  0.99750421391E+03  0.99736220335E+03 0.  0.
        5    1    3    3  502    0  0.25346752749E+03  0.34703905019E+03  0.26139208728E+03  0.50302067864E+03  0.46999998093E+01 0.  1.
       -5    1    3    3    0  502 -0.25346752749E+03 -0.34703905019E+03 -0.24456080391E+03  0.49448353527E+03  0.46999998093E+01 0. -1.
</event>
<event>
 5   0  0.1293575E-03  0.9997885E+03  0.7818609E-02  0.9308777E-01
        1   -1    0    0  501    0  0.00000000000E+00  0.00000000000E+00  0.64210000164E+03  0.64210000166E+03  0.50400001928E-02 0.  1.
       -1   -1    0    0    0  501  0.00000000000E+00  0.00000000000E+00 -0.38918276778E+03  0.38918276781E+03  0.50400001928E-02 0. -1.
    10030    2    1    2    0    0  0.00000000000E+00  0.00000000000E+00  0.25291723386E+03  0.10312827695E+04  0.99978848934E+03 0.  0.
        4    1    3    3  502    0  0.30784024419E+03 -0.19462857878E+02  0.53223098199E+03  0.61515514292E+03  0.12699999809E+01 0.  1.
       -4    1    3    3    0  502 -0.30784024419E+03  0.19462857878E+02 -0.27931374813E+03  0.41612762654E+03  0.12699999809E+01 0. -1.
</event>
<event>
 5   0  0.1285769E-03  0.9962886E+03  0.7818609E-02  0.9312625E-01
       -1   -1    0    0    0  501  0.00000000000E+00  0.00000000000E+00  0.29188237730E+03  0.29188237735E+03  0.50400001928E-02 0. -1.
        1   -1    0    0  501    0  0.00000000000E+00  0.00000000000E+00 -0.85016343723E+03  0.85016343724E+03  0.50400001928E-02 0.  1.
    10030    2    1    2    0    0  0.00000000000E+00  0.00000000000E+00 -0.55828105992E+03  0.11420458146E+04  0.99628856299E+03 0.  0.
        5    1    3    3  502    0 -0.21110693083E+03 -0.64801213185E+02  0.23268002436E+03  0.32082303098E+03  0.46999998093E+01 0. -1.
       -5    1    3    3    0  502  0.21110693083E+03  0.64801213185E+02 -0.79096108428E+03  0.82122278361E+03  0.46999998093E+01 0.  1.
</event>
<event>
 5   0  0.2284843E-03  0.9989707E+03  0.7818609E-02  0.9309674E-01
       -2   -1    0    0    0  501  0.00000000000E+00  0.00000000000E+00  0.31114096350E+03  0.31114096351E+03  0.25500000920E-02 0. -1.
        2   -1    0    0  501    0  0.00000000000E+00  0.00000000000E+00 -0.80184109874E+03  0.80184109875E+03  0.25500000920E-02 0.  1.
    10030    2    1    2    0    0  0.00000000000E+00  0.00000000000E+00 -0.49070013525E+03  0.11129820623E+04  0.99897069435E+03 0.  0.
        2    1    3    3  502    0 -0.32013024151E+03  0.37388345449E+03 -0.15072515008E+03  0.51477206601E+03  0.25500000920E-02 0. -1.
       -2    1    3    3    0  502  0.32013024151E+03 -0.37388345449E+03 -0.33997498517E+03  0.59820999625E+03  0.25500000920E-02 0.  1.
</event>
<event>
 5   0  0.1353789E-03  0.9956180E+03  0.7818609E-02  0.9313364E-01
        1   -1    0    0  501    0  0.00000000000E+00  0.00000000000E+00  0.12418189465E+04  0.12418189465E+04  0.50400001928E-02 0. -1.
       -1   -1    0    0    0  501  0.00000000000E+00  0.00000000000E+00 -0.19955709101E+03  0.19955709107E+03  0.50400001928E-02 0.  1.
    10030    2    1    2    0    0  0.00000000000E+00  0.00000000000E+00  0.10422618555E+04  0.14413760376E+04  0.99561795198E+03 0.  0.
        1    1    3    3  502    0 -0.17527913271E+03  0.25671432716E+03 -0.41786022918E+02  0.31364166156E+03  0.50400001928E-02 0.  1.
       -1    1    3    3    0  502  0.17527913271E+03 -0.25671432716E+03  0.10840478784E+04  0.11277343760E+04  0.50400001928E-02 0. -1.
</event>
<event>
 5   0  0.1249195E-03  0.9977392E+03  0.7818609E-02  0.9311028E-01
        1   -1    0    0  501    0  0.00000000000E+00  0.00000000000E+00  0.74727654264E+03  0.74727654265E+03  0.50400001928E-02 0.  1.
       -1   -1    0    0    0  501  0.00000000000E+00  0.00000000000E+00 -0.33303718432E+03  0.33303718436E+03  0.50400001928E-02 0. -1.
    10030    2    1    2    0    0  0.00000000000E+00  0.00000000000E+00  0.41423935832E+03  0.10803137270E+04  0.99773919577E+03 0.  0.
        2    1    3    3  502    0 -0.29083139929E+03  0.19267485143E+03  0.59323371622E+03  0.68820981049E+03  0.25500000920E-02 0.  1.
       -2    1    3    3    0  502  0.29083139929E+03 -0.19267485143E+03 -0.17899435790E+03  0.39210391652E+03  0.25500000920E-02 0. -1.
</event>
<event>
 5   0  0.2264577E-03  0.9946958E+03  0.7818609E-02  0.9314382E-01
        2   -1    0    0  501    0  0.00000000000E+00  0.00000000000E+00  0.77482775430E+03  0.77482775431E+03  0.25500000920E-02 0. -1.
       -2   -1    0    0    0  501  0.00000000000E+00  0.00000000000E+00 -0.31923860772E+03  0.31923860773E+03  0.25500000920E-02 0.  1.
    10030    2    1    2    0    0  0.00000000000E+00  0.00000000000E+00  0.45558914658E+03  0.10940663620E+04  0.99469579977E+03 0.  0.
        5    1    3    3  502    0 -0.31587579889E+03 -0.34748616863E+03  0.40788521429E+03  0.62202620182E+03  0.46999998093E+01 0.  1.
       -5    1    3    3    0  502  0.31587579889E+03  0.34748616863E+03  0.47703932293E+02  0.47204016023E+03  0.46999998093E+01 0. -1.
</event>
<event>
 5   0  0.2255142E-03  0.1004756E+04  0.7818609E-02  0.9303344E-01
        2   -1    0    0  501    0  0.00000000000E+00  0.00000000000E+00  0.71501302613E+03  0.71501302614E+03  0.25500000920E-02 0.  1.
       -2   -1    0    0    0  501  0.00000000000E+00  0.00000000000E+00 -0.35297768854E+03  0.35297768855E+03  0.25500000920E-02 0. -1.
    10030    2    1    2    0    0  0.00000000000E+00  0.00000000000E+00  0.36203533759E+03  0.10679907147E+04  0.10047559808E+04 0.  0.
        4    1    3    3  502    0  0.18518637076E+03 -0.37572186380E+03 -0.11378382555E+03  0.43406138127E+03  0.12699999809E+01 0. -1.
       -4    1    3    3    0  502 -0.18518637076E+03  0.37572186380E+03  0.47581916314E+03  0.63392933342E+03  0.12699999809E+01 0.  1.
</event>
<event>
 5   0  0.1249195E-03  0.1000654E+04  0.7818609E-02  0.9307828E-01
       -1   -1    0    0    0  501  0.00000000000E+00  0.00000000000E+00  0.55481124697E+03  0.55481124699E+03  0.50400001928E-02 0. -1.
        1   -1    0    0  501    0  0.00000000000E+00  0.00000000000E+00 -0.45119295941E+03  0.45119295943E+03  0.50400001928E-02 0.  1.
    10030    2    1    2    0    0  0.00000000000E+00  0.00000000000E+00  0.10361828756E+03  0.10060042064E+04  0.10006536433E+04 0.  0.
        2    1    3    3  502    0 -0.24031544717E+03 -0.18460172853E+03 -0.34843720890E+03  0.46177678685E+03  0.25500000920E-02 0.  1.
       -2    1    3    3    0  502  0.24031544717E+03  0.18460172853E+03  0.45205549646E+03  0.54422741957E+03  0.25500000920E-02 0. -1.
</event>
<event>
 5   0  0.1293716E-03  0.9806415E+03  0.7818609E-02  0.9330035E-01
       -1   -1    0    0    0  501  0.00000000000E+00  0.00000000000E+00  0.12035524522E+04  0.12035524522E+04  0.50400001928E-02 0.  1.
        1   -1    0    0  501    0  0.00000000000E+00  0.00000000000E+00 -0.19975403587E+03  0.19975403594E+03  0.50400001928E-02 0. -1.
    10030    2    1    2    0    0  0.00000000000E+00  0.00000000000E+00  0.10037984163E+04  0.14033064881E+04  0.98064154462E+03 0.  0.
        3    1    3    3  502    0 -0.36158014143E+03 -0.18055462985E+03  0.10461896000E+03  0.41747492143E+03  0.10100000352E+00 0. -1.
       -3    1    3    3    0  502  0.36158014143E+03  0.18055462985E+03  0.89917945631E+03  0.98583156669E+03  0.10100000352E+00 0.  1.
</event>
<event>
 5   0  0.1249195E-03  0.1004796E+04  0.7818609E-02  0.9303300E-01
        1   -1    0    0  501    0  0.00000000000E+00  0.00000000000E+00  0.15720448624E+04  0.15720448624E+04  0.50400001928E-02 0. -1.
       -1   -1    0    0    0  501  0.00000000000E+00  0.00000000000E+00 -0.16055758418E+03  0.16055758426E+03  0.50400001928E-02 0.  1.
    10030    2    1    2    0    0  0.00000000000E+00  0.00000000000E+00  0.14114872782E+04  0.17326024466E+04  0.10047959502E+04 0.  0.
        2    1    3    3  502    0  0.49538506015E+03 -0.56408632302E+02  0.59923299587E+03  0.77953093266E+03  0.25500000920E-02 0. -1.
       -2    1    3    3    0  502 -0.49538506015E+03  0.56408632302E+02  0.81225428231E+03  0.95307151398E+03  0.25500000920E-02 0.  1.
</event>
<event>
 5   0  0.2277570E-03  0.1002942E+04  0.7818609E-02  0.9305324E-01
        2   -1    0    0  501    0  0.00000000000E+00  0.00000000000E+00  0.55259848833E+03  0.55259848834E+03  0.25500000920E-02 0. -1.
       -2   -1    0    0    0  501  0.00000000000E+00  0.00000000000E+00 -0.45507384550E+03  0.45507384551E+03  0.25500000920E-02 0.  1.
    10030    2    1    2    0    0  0.00000000000E+00  0.00000000000E+00  0.97524642827E+02  0.10076723338E+04  0.10029419108E+04 0.  0.
        3    1    3    3  502    0 -0.15696615736E+02  0.49851121956E+03  0.10109724485E+03  0.50890125063E+03  0.10100000352E+00 0.  1.
       -3    1    3    3    0  502  0.15696615736E+02 -0.49851121956E+03 -0.35726020191E+01  0.49877108322E+03  0.10100000352E+00 0. -1.
</event>
<event>
 5   0  0.1285769E-03  0.9947640E+03  0.7818609E-02  0.9314306E-01
       -1   -1    0    0    0  501  0.00000000000E+00  0.00000000000E+00  0.16206137128E+03  0.16206137135E+03  0.50400001928E-02 0.  1.
        1   -1    0    0  501    0  0.00000000000E+00  0.00000000000E+00 -0.15265134928E+04  0.15265134928E+04  0.50400001928E-02 0. -1.
    10030    2    1    2    0    0  0.00000000000E+00  0.00000000000E+00 -0.13644521215E+04  0.16885748641E+04  0.99476403229E+03 0.  0.
        5    1    3    3  502    0 -0.18145695303E+03  0.11461280829E+03  0.79373195595E+02  0.22887751266E+03  0.46999998093E+01 0.  1.
       -5    1    3    3    0  502  0.18145695303E+03 -0.11461280829E+03 -0.14438253171E+04  0.14596973515E+04  0.46999998093E+01 0. -1.
</event>
<event>
 5   0  0.1293575E-03  0.1000746E+04  0.7818609E-02  0.9307727E-01
       -1   -1    0    0    0  501  0.00000000000E+00  0.00000000000E+00  0.35372591676E+03  0.35372591680E+03  0.50400001928E-02 0. -1.
        1   -1    0    0  501    0  0.00000000000E+00  0.00000000000E+00 -0.70781617795E+03  0.70781617797E+03  0.50400001928E-02 0.  1.
    10030    2    1    2    0    0  0.00000000000E+00  0.00000000000E+00 -0.35409026119E+03  0.10615420948E+04  0.10007455750E+04 0.  0.
        4    1    3    3  502    0  0.12394519327E+03 -0.15651187562E+03  0.30964544400E+03  0.36842949398E+03  0.12699999809E+01 0. -1.
       -4    1    3    3    0  502 -0.12394519327E+03  0.15651187562E+03 -0.66373570518E+03  0.69311260079E+03  0.12699999809E+01 0.  1.
</event>
<event>
 5   0  0.1293716E-03  0.1002092E+04  0.7818609E-02  0.9306254E-01
       -1   -1    0    0    0  501  0.00000000000E+00  0.00000000000E+00  0.76078430110E+03  0.76078430111E+03  0.50400001928E-02 0.  1.
        1   -1    0    0  501    0  0.00000000000E+00  0.00000000000E+00 -0.32998435991E+03  0.32998435995E+03  0.50400001928E-02 0. -1.
    10030    2    1    2    0    0  0.00000000000E+00  0.00000000000E+00  0.43079994119E+03  0.10907686611E+04  0.10020916538E+04 0.  0.
        3    1    3    3  502    0  0.23912892227E+03 -0.39230522637E+03 -0.21919269478E+01  0.45944623934E+03  0.10100000352E+00 0. -1.
       -3    1    3    3    0  502 -0.23912892227E+03  0.39230522637E+03  0.43299186813E+03  0.63132242172E+03  0.10100000352E+00 0.  1.
</event>
<event>
 5   0  0.2204862E-03  0.9993599E+03  0.7818609E-02  0.9309247E-01
       -2   -1    0    0    0  501  0.00000000000E+00  0.00000000000E+00  0.48384985029E+03  0.48384985029E+03  0.25500000920E-02 0. -1.
        2   -1    0    0  501    0  0.00000000000E+00  0.00000000000E+00 -0.51602799386E+03  0.51602799387E+03  0.25500000920E-02 0.  1.
    10030    2    1    2    0    0  0.00000000000E+00  0.00000000000E+00 -0.32178143573E+02  0.99987784416E+03  0.99935993031E+03 0.  0.
        1    1    3    3  502    0 -0.30594678112E+03  0.33614331471E+03 -0.22376423816E+03  0.50662233982E+03  0.50400001928E-02 0.  1.
       -1    1    3    3    0  502  0.30594678112E+03 -0.33614331471E+03  0.19158609459E+03  0.49325550434E+03  0.50400001928E-02 0. -1.
</event>
<event>
 5   0  0.1353789E-03  0.1000410E+04  0.7818609E-02  0.9308096E-01
        1   -1    0    0  501    0  0.00000000000E+00  0.00000000000E+00  0.81292736502E+03  0.81292736504E+03  0.50400001928E-02 0.  1.
       -1   -1    0    0    0  501  0.00000000000E+00  0.00000000000E+00 -0.30778259703E+03  0.30778259707E+03  0.50400001928E-02 0. -1.
    10030    2    1    2    0    0  0.00000000000E+00  0.00000000000E+00  0.50514476799E+03  0.11207099621E+04  0.10004097073E+04 0.  0.
        1    1    3    3  502    0  0.35850818884E+03 -0.32231616246E+03  0.40198659406E+03  0.62770140343E+03  0.50400001928E-02 0. -1.
       -1    1    3    3    0  502 -0.35850818884E+03  0.32231616246E+03  0.10315817394E+03  0.49300855867E+03  0.50400001928E-02 0.  1.
</event>
<event>
 5   0  0.2277570E-03  0.1000769E+04  0.7818609E-02  0.9307702E-01
        2   -1    0    0  501    0  0.00000000000E+00  0.00000000000E+00  0.92142973305E+03  0.92142973305E+03  0.25500000920E-02 0. -1.
       -2   -1    0    0    0  501  0.00000000000E+00  0.00000000000E+00 -0.27173470556E+03  0.27173470557E+03  0.25500000920E-02 0.  1.
    10030    2    1    2    0    0  0.00000000000E+00  0.00000000000E+00  0.64969502749E+03  0.11931644386E+04  0.10007685791E+04 0.  0.
        3    1    3    3  502    0  0.93827215924E+02  0.30849357556E+02  0.90969254039E+03  0.91503866451E+03  0.10100000352E+00 0. -1.
       -3    1    3    3    0  502 -0.93827215924E+02 -0.30849357556E+02 -0.25999751290E+03  0.27812577411E+03  0.10100000352E+00 0.  1.
</event>
<event>
 5   0  0.2277570E-03  0.9973714E+03  0.7818609E-02  0.9311432E-01
        2   -1    0    0  501    0  0.00000000000E+00  0.00000000000E+00  0.13985233638E+04  0.13985233638E+04  0.25500000920E-02 0. -1.
       -2   -1    0    0    0  501  0.00000000000E+00  0.00000000000E+00 -0.17782143624E+03  0.17782143626E+03  0.25500000920E-02 0.  1.
    10030    2    1    2    0    0  0.00000000000E+00  0.00000000000E+00  0.12207019275E+04  0.15763448001E+04  0.99737141163E+03 0.  0.
        3    1    3    3  502    0  0.39269216109E+03  0.29450406453E+03  0.74946763444E+03  0.89590263013E+03  0.10100000352E+00 0. -1.
       -3    1    3    3    0  502 -0.39269216109E+03 -0.29450406453E+03  0.47123429311E+03  0.68044216992E+03  0.10100000352E+00 0.  1.
</event>
<event>
 5   0  0.2255142E-03  0.9821903E+03  0.7818609E-02  0.9328297E-01
        2   -1    0    0  501    0  0.00000000000E+00  0.00000000000E+00  0.11992027446E+04  0.11992027446E+04  0.25500000920E-02 0.  1.
       -2   -1    0    0    0  501  0.00000000000E+00  0.00000000000E+00 -0.20111230659E+03  0.20111230661E+03  0.25500000920E-02 0. -1.
    10030    2    1    2    0    0  0.00000000000E+00  0.00000000000E+00  0.99809043799E+03  0.14003150512E+04  0.98219026680E+03 0.  0.
        4    1    3    3  502    0 -0.89567847523E+02  0.30771690470E+03 -0.31464604825E+02  0.32203063054E+03  0.12699999809E+01 0. -1.
       -4    1    3    3    0  502  0.89567847523E+02 -0.30771690470E+03  0.10295550428E+04  0.10782844207E+04  0.12699999809E+01 0.  1.
</event>
<event>
 5   0  0.1293716E-03  0.9996085E+03  0.7818609E-02  0.9308974E-01
        1   -1    0    0  501    0  0.00000000000E+00  0.00000000000E+00  0.80614824039E+03  0.80614824041E+03  0.50400001928E-02 0.  1.
       -1   -1    0    0    0  501  0.00000000000E+00  0.00000000000E+00 -0.30987391591E+03  0.30987391595E+03  0.50400001928E-02 0. -1.
    10030    2    1    2    0    0  0.00000000000E+00  0.00000000000E+00  0.49627432448E+03  0.11160221564E+04  0.99960854756E+03 0.  0.
        3    1    3    3  502    0  0.46495316657E+03 -0.10506004949E+02  0.45252080282E+03  0.64889668703E+03  0.10100000352E+00 0.  1.
       -3    1    3    3    0  502 -0.46495316657E+03  0.10506004949E+02  0.43753521658E+02  0.46712546934E+03  0.10100000352E+00 0. -1.
</event>
<event>
 5   0  0.2255142E-03  0.1005498E+04  0.7818609E-02  0.9302535E-01
        2   -1    0    0  501    0  0.00000000000E+00  0.00000000000E+00  0.11864667070E+04  0.11864667070E+04  0.25500000920E-02 0.  1.
       -2   -1    0    0    0  501  0.00000000000E+00  0.00000000000E+00 -0.21303299893E+03  0.21303299895E+03  0.25500000920E-02 0. -1.
    10030    2    1    2    0    0  0.00000000000E+00  0.00000000000E+00  0.97343370810E+03  0.13994997060E+04  0.10054980074E+04 0.  0.
        4    1    3    3  502    0 -0.19348766621E+03 -0.35589246217E+03  0.72287387782E+02  0.41148997672E+03  0.12699999809E+01 0. -1.
       -4    1    3    3    0  502  0.19348766621E+03  0.35589246217E+03  0.90114632032E+03  0.98800972927E+03  0.12699999809E+01 0.  1.
</event>
<event>
 5   0  0.1285769E-03  0.1003974E+04  0.7818609E-02  0.9304197E-01
       -1   -1    0    0    0  501  0.00000000000E+00  0.00000000000E+00  0.35318178708E+03  0.35318178712E+03  0.50400001928E-02 0.  1.
        1   -1    0    0  501    0  0.00000000000E+00  0.00000000000E+00 -0.71348739521E+03  0.71348739523E+03  0.50400001928E-02 0. -1.
    10030    2    1    2    0    0  0.00000000000E+00  0.00000000000E+00 -0.36030560813E+03  0.10666691823E+04  0.10039736119E+04 0.  0.
        5    1    3    3  502    0 -0.52799165770E+02 -0.21209245711E+03 -0.66025409521E+03  0.69550594714E+03  0.46999998093E+01 0. -1.
       -5    1    3    3    0  502  0.52799165770E+02  0.21209245711E+03  0.29994848708E+03  0.37116323520E+03  0.46999998093E+01 0.  1.
</event>
<event>
 5   0  0.2204862E-03  0.9967254E+03  0.7818609E-02  0.9312144E-01
       -2   -1    0    0    0  501  0.00000000000E+00  0.00000000000E+00  0.76021488623E+03  0.76021488624E+03  0.25500000920E-02 0.  1.
        2   -1    0    0  501    0  0.00000000000E+00  0.00000000000E+00 -0.32670420699E+03  0.32670420700E+03  0.25500000920E-02 0. -1.
    10030    2    1    2    0    0  0.00000000000E+00  0.00000000000E+00  0.43351067924E+03  0.10869190932E+04  0.99672544175E+03 0.  0.
        1    1    3    3  502    0  0.17730068626E+02  0.14775733429E+03 -0.30190857880E+03  0.33659378359E+03  0.50400001928E-02 0. -1.
       -1    1    3    3    0  502 -0.17730068626E+02 -0.14775733429E+03  0.73541925805E+03  0.75032530965E+03  0.50400001928E-02 0.  1.
</event>
<event>
 5   0  0.1249195E-03  0.1000119E+04  0.7818609E-02  0.9308414E-01
        1   -1    0    0  501    0  0.00000000000E+00  0.00000000000E+00  0.50476936467E+03  0.50476936469E+03  0.50400001928E-02 0.  1.
       -1   -1    0    0    0  501  0.00000000000E+00  0.00000000000E+00 -0.49539388507E+03  0.49539388509E+03  0.50400001928E-02 0. -1.
    10030    2    1    2    0    0  0.00000000000E+00  0.00000000000E+00  0.93754796013E+01  0.10001632498E+04  0.10001193062E+04 0.  0.
        2    1    3    3  502    0 -0.90418329479E+02 -0.19415230597E+03  0.45658043534E+03  0.50431764411E+03  0.25500000920E-02 0.  1.
       -2    1    3    3    0  502  0.90418329479E+02  0.19415230597E+03 -0.44720495574E+03  0.49584560567E+03  0.25500000920E-02 0. -1.
</event>
<event>
 5   0  0.2264577E-03  0.9993700E+03  0.7818609E-02  0.9309236E-01
       -2   -1    0    0    0  501  0.00000000000E+00  0.00000000000E+00  0.30378325216E+03  0.30378325217E+03  0.25500000920E-02 0. -1.
        2   -1    0    0  501    0  0.00000000000E+00  0.00000000000E+00 -0.82191857753E+03  0.82191857753E+03  0.25500000920E-02 0.  1.
    10030    2    1    2    0    0  0.00000000000E+00  0.00000000000E+00 -0.51813532537E+03  0.11257018297E+04  0.99936999854E+03 0.  0.
        5    1    3    3  502    0 -0.43040832955E+03 -0.53838754614E+02  0.20302972003E+02  0.43426287236E+03  0.46999998093E+01 0. -1.
       -5    1    3    3    0  502  0.43040832955E+03  0.53838754614E+02 -0.53843829737E+03  0.69143895733E+03  0.46999998093E+01 0.  1.
</event>
<event>
 5   0  0.1293716E-03  0.9983701E+03  0.7818609E-02  0.9310334E-01
        1   -1    0    0  501    0  0.00000000000E+00  0.00000000000E+00  0.40049636208E+03  0.40049636211E+03  0.50400001928E-02 0.  1.
       -1   -1    0    0    0  501  0.00000000000E+00  0.00000000000E+00 -0.62219216560E+03  0.62219216562E+03  0.50400001928E-02 0. -1.
    10030    2    1    2    0    0  0.00000000000E+00  0.00000000000E+00 -0.22169580352E+03  0.10226885277E+04  0.99837006938E+03 0.  0.
        3    1    3    3  502    0  0.12207295712E+03 -0.28172707647E+03  0.29233006996E+03  0.42394437428E+03  0.10100000352E+00 0.  1.
       -3    1    3    3    0  502 -0.12207295712E+03  0.28172707647E+03 -0.51402587348E+03  0.59874415345E+03  0.10100000352E+00 0. -1.
</event>
<event>
 5   0  0.1293716E-03  0.9980901E+03  0.7818609E-02  0.9310642E-01
       -1   -1    0    0    0  501  0.00000000000E+00  0.00000000000E+00  0.11169348836E+04  0.11169348836E+04  0.50400001928E-02 0.  1.
        1   -1    0    0  501    0  0.00000000000E+00  0.00000000000E+00 -0.22297269736E+03  0.22297269741E+03  0.50400001928E-02 0. -1.
    10030    2    1    2    0    0  0.00000000000E+00  0.00000000000E+00  0.89396218626E+03  0.13399075810E+04  0.99809014385E+03 0.  0.
        3    1    3    3  502    0  0.40335287207E+03 -0.17268777777E+03  0.76617148927E+03  0.88291186942E+03  0.10100000352E+00 0.  1.
       -3    1    3    3    0  502 -0.40335287207E+03  0.17268777777E+03  0.12779069699E+03  0.45699571161E+03  0.10100000352E+00 0. -1.
</event>
<event>
 5   0  0.8680125E-04  0.9977552E+03  0.7818609E-02  0.9311010E-01
       -3   -1    0    0    0  501  0.00000000000E+00  0.00000000000E+00  0.30014344278E+03  0.30014345977E+03  0.10100000352E+00 0.  1.
        3   -1    0    0  501    0  0.00000000000E+00  0.00000000000E+00 -0.82919967359E+03  0.82919967974E+03  0.10100000352E+00 0. -1.
    10030    2    1    2    0    0  0.00000000000E+00  0.00000000000E+00 -0.52905623081E+03  0.11293431395E+04  0.99775519613E+03 0.  0.
        2    1    3    3  502    0 -0.36434141479E+03  0.31962277838E+03 -0.39833705966E+03  0.62735619874E+03  0.25500000920E-02 0. -1.
       -2    1    3    3    0  502  0.36434141479E+03 -0.31962277838E+03 -0.13071917115E+03  0.50198694077E+03  0.25500000920E-02 0.  1.
</event>
<event>
 5   0  0.1353789E-03  0.1004860E+04  0.7818609E-02  0.9303230E-01
        1   -1    0    0  501    0  0.00000000000E+00  0.00000000000E+00  0.49843419624E+03  0.49843419626E+03  0.50400001928E-02 0. -1.
       -1   -1    0    0    0  501  0.00000000000E+00  0.00000000000E+00 -0.50645813234E+03  0.50645813237E+03  0.50400001928E-02 0.  1.
    10030    2    1    2    0    0  0.00000000000E+00  0.00000000000E+00 -0.80239361031E+01  0.10048923286E+04  0.10048602931E+04 0.  0.
        1    1    3    3  502    0  0.35671234902E+03  0.15361150721E+03  0.31473924373E+03  0.49990097685E+03  0.50400001928E-02 0. -1.
       -1    1    3    3    0  502 -0.35671234902E+03 -0.15361150721E+03 -0.32276317983E+03  0.50499135178E+03  0.50400001928E-02 0.  1.
</event>
<event>
 5   0  0.1249195E-03  0.1000548E+04  0.7818609E-02  0.9307944E-01
        1   -1    0    0  501    0  0.00000000000E+00  0.00000000000E+00  0.11152709650E+04  0.11152709650E+04  0.50400001928E-02 0. -1.
       -1   -1    0    0    0  501  0.00000000000E+00  0.00000000000E+00 -0.22440644831E+03  0.22440644837E+03  0.50400001928E-02 0.  1.
    10030    2    1    2    0    0  0.00000000000E+00  0.00000000000E+00  0.89086451669E+03  0.13396774134E+04  0.10005478423E+04 0.  0.
        2    1    3    3  502    0 -0.68179295284E+02 -0.44826103037E+03  0.16238690489E+03  0.48161797572E+03  0.25500000920E-02 0.  1.
       -2    1    3    3    0  502  0.68179295284E+02  0.44826103037E+03  0.72847761180E+03  0.85805943765E+03  0.25500000920E-02 0. -1.
</event>
<event>
 5   0  0.1285769E-03  0.1007873E+04  0.7818609E-02  0.9299952E-01
        1   -1    0    0  501    0  0.00000000000E+00  0.00000000000E+00  0.34721468121E+03  0.34721468125E+03  0.50400001928E-02 0.  1.
       -1   -1    0    0    0  501  0.00000000000E+00  0.00000000000E+00 -0.73139725537E+03  0.73139725539E+03  0.50400001928E-02 0. -1.
    10030    2    1    2    0    0  0.00000000000E+00  0.00000000000E+00 -0.38418257416E+03  0.10786119366E+04  0.10078727398E+04 0.  0.
        5    1    3    3  502    0  0.31466147441E+02  0.22840240920E+03  0.28743353352E+03  0.36850767313E+03  0.46999998093E+01 0.  1.
       -5    1    3    3    0  502 -0.31466147441E+02 -0.22840240920E+03 -0.67161610768E+03  0.71010426351E+03  0.46999998093E+01 0. -1.
</event>
<event>
 5   0  0.2264577E-03  0.9968937E+03  0.7818609E-02  0.9311958E-01
       -2   -1    0    0    0  501  0.00000000000E+00  0.00000000000E+00  0.15143656047E+04  0.15143656047E+04  0.25500000920E-02 0.  1.
        2   -1    0    0  501    0  0.00000000000E+00  0.00000000000E+00 -0.16406160510E+03  0.16406160512E+03  0.25500000920E-02 0. -1.
    10030    2    1    2    0    0  0.00000000000E+00  0.00000000000E+00  0.13503039996E+04  0.16784272098E+04  0.99689367904E+03 0.  0.
        5    1    3    3  502    0 -0.42562877710E+03  0.16937402095E+03  0.10058513614E+04  0.11052630755E+04  0.46999998093E+01 0. -1.
       -5    1    3    3    0  502  0.42562877710E+03 -0.16937402095E+03  0.34445263816E+03  0.57316413427E+03  0.46999998093E+01 0.  1.
</event>
<event>
 5   0  0.1285769E-03  0.9977203E+03  0.7818609E-02  0.9311049E-01
        1   -1    0    0  501    0  0.00000000000E+00  0.00000000000E+00  0.12859902406E+04  0.12859902406E+04  0.50400001928E-02 0. -1.
       -1   -1    0    0    0  501  0.00000000000E+00  0.00000000000E+00 -0.19351735889E+03  0.19351735895E+03  0.50400001928E-02 0.  1.
    10030    2    1    2    0    0  0.00000000000E+00  0.00000000000E+00  0.10924728817E+04  0.14795075995E+04  0.99772027136E+03 0.  0.
        5    1    3    3  502    0 -0.11531418133E+03  0.43094993829E+03  0.87723666583E+03  0.98416536598E+03  0.46999998093E+01 0. -1.
       -5    1    3    3    0  502  0.11531418133E+03 -0.43094993829E+03  0.21523621587E+03  0.49534223356E+03  0.46999998093E+01 0.  1.
</event>
<event>
 5   0  0.2204862E-03  0.9981776E+03  0.7818609E-02  0.9310546E-01
       -2   -1    0    0    0  501  0.00000000000E+00  0.00000000000E+00  0.21669504398E+03  0.21669504399E+03  0.25500000920E-02 0.  1.
        2   -1    0    0  501    0  0.00000000000E+00  0.00000000000E+00 -0.11494938974E+04  0.11494938974E+04  0.25500000920E-02 0. -1.
    10030    2    1    2    0    0  0.00000000000E+00  0.00000000000E+00 -0.93279885345E+03  0.13661889414E+04  0.99817760076E+03 0.  0.
        1    1    3    3  502    0  0.44611238263E+03 -0.19145856256E+03 -0.30786246957E+03  0.57484949275E+03  0.50400001928E-02 0.  1.
       -1    1    3    3    0  502 -0.44611238263E+03  0.19145856256E+03 -0.62493638388E+03  0.79133944868E+03  0.50400001928E-02 0. -1.
</event>
<event>
 5   0  0.1353789E-03  0.1000599E+04  0.7818609E-02  0.9307888E-01
        1   -1    0    0  501    0  0.00000000000E+00  0.00000000000E+00  0.94929680503E+03  0.94929680504E+03  0.50400001928E-02 0.  1.
       -1   -1    0    0    0  501  0.00000000000E+00  0.00000000000E+00 -0.26366824107E+03  0.26366824112E+03  0.50400001928E-02 0. -1.
    10030    2    1    2    0    0  0.00000000000E+00  0.00000000000E+00  0.68562856395E+03  0.12129650462E+04  0.10005986586E+04 0.  0.
        1    1    3    3  502    0 -0.26223799269E+03 -0.17395494082E+02  0.85887532935E+03  0.89818606057E+03  0.50400001928E-02 0.  1.
       -1    1    3    3    0  502  0.26223799269E+03  0.17395494082E+02 -0.17324676539E+03  0.31477898559E+03  0.50400001928E-02 0. -1.
</event>
<event>
 5   0  0.2255142E-03  0.1005860E+04  0.7818609E-02  0.9302141E-01
        2   -1    0    0  501    0  0.00000000000E+00  0.00000000000E+00  0.40262151593E+03  0.40262151594E+03  0.25500000920E-02 0.  1.
       -2   -1    0    0    0  501  0.00000000000E+00  0.00000000000E+00 -0.62822882956E+03  0.62822882957E+03  0.25500000920E-02 0. -1.
    10030    2    1    2    0    0  0.00000000000E+00  0.00000000000E+00 -0.22560731363E+03  0.10308503455E+04  0.10058597193E+04 0.  0.
        4    1    3    3  502    0  0.10594746210E+03  0.33453751310E+03  0.25642031782E+03  0.43461845875E+03  0.12699999809E+01 0.  1.
       -4    1    3    3    0  502 -0.10594746210E+03 -0.33453751310E+03 -0.48202763146E+03  0.59623188676E+03  0.12699999809E+01 0. -1.
</event>
<event>
 5   0  0.2277570E-03  0.1003620E+04  0.7818609E-02  0.9304583E-01
       -2   -1    0    0    0  501  0.00000000000E+00  0.00000000000E+00  0.16013327252E+03  0.16013327254E+03  0.25500000920E-02 0.  1.
        2   -1    0    0  501    0  0.00000000000E+00  0.00000000000E+00 -0.15725238400E+04  0.15725238400E+04  0.25500000920E-02 0. -1.
    10030    2    1    2    0    0  0.00000000000E+00  0.00000000000E+00 -0.14123905675E+04  0.17326571125E+04  0.10036202243E+04 0.  0.
        3    1    3    3  502    0  0.45743857557E+02 -0.69450212542E+02 -0.15605445247E+04  0.15627587966E+04  0.10100000352E+00 0. -1.
       -3    1    3    3    0  502 -0.45743857557E+02  0.69450212542E+02  0.14815395722E+03  0.16989831596E+03  0.10100000352E+00 0.  1.
</event>
<event>
 5   0  0.1293716E-03  0.1000489E+04  0.7818609E-02  0.9308009E-01
        1   -1    0    0  501    0  0.00000000000E+00  0.00000000000E+00  0.64296191591E+03  0.64296191593E+03  0.50400001928E-02 0. -1.
       -1   -1    0    0    0  501  0.00000000000E+00  0.00000000000E+00 -0.38920585925E+03  0.38920585928E+03  0.50400001928E-02 0.  1.
    10030    2    1    2    0    0  0.00000000000E+00  0.00000000000E+00  0.25375605666E+03  0.10321677752E+04  0.10004889704E+04 0.  0.
        3    1    3    3  502    0 -0.28073354770E+03 -0.35721490921E+03  0.34286486622E+03  0.56918375140E+03  0.10100000352E+00 0. -1.
       -3    1    3    3    0  502  0.28073354770E+03  0.35721490921E+03 -0.89108809563E+02  0.46298402382E+03  0.10100000352E+00 0.  1.
</event>
<event>
 5   0  0.1285769E-03  0.1006324E+04  0.7818609E-02  0.9301636E-01
        1   -1    0    0  501    0  0.00000000000E+00  0.00000000000E+00  0.39539199269E+03  0.39539199272E+03  0.50400001928E-02 0. -1.
       -1   -1    0    0    0  501  0.00000000000E+00  0.00000000000E+00 -0.64030610956E+03  0.64030610958E+03  0.50400001928E-02 0.  1.
    10030    2    1    2    0    0  0.00000000000E+00  0.00000000000E+00 -0.24491411687E+03  0.10356981023E+04  0.10063238219E+04 0.  0.
        5    1    3    3  502    0 -0.25834872534E+03  0.42776417114E+03 -0.18267625346E+03  0.53208923460E+03  0.46999998093E+01 0.  1.
       -5    1    3    3    0  502  0.25834872534E+03 -0.42776417114E+03 -0.62237863401E+02  0.50360886771E+03  0.46999998093E+01 0. -1.
</event>
<event>
 5   0  0.8680125E-04  0.9940484E+03  0.7818609E-02  0.9315097E-01
        3   -1    0    0  501    0  0.00000000000E+00  0.00000000000E+00  0.24326216495E+03  0.24326218592E+03  0.10100000352E+00 0. -1.
       -3   -1    0    0    0  501  0.00000000000E+00  0.00000000000E+00 -0.10155012076E+04  0.10155012126E+04  0.10100000352E+00 0.  1.
    10030    2    1    2    0    0  0.00000000000E+00  0.00000000000E+00 -0.77223904265E+03  0.12587633985E+04  0.99404836628E+03 0.  0.
        4    1    3    3  502    0  0.62860437380E+02  0.11819624361E+03 -0.99223904193E+03  0.10012301013E+04  0.12699999809E+01 0.  1.
       -4    1    3    3    0  502 -0.62860437380E+02 -0.11819624361E+03  0.21999999927E+03  0.25753329721E+03  0.12699999809E+01 0. -1.
</event>
<event>
 5   0  0.1249195E-03  0.9873853E+03  0.7818609E-02  0.9322490E-01
       -1   -1    0    0    0  501  0.00000000000E+00  0.00000000000E+00  0.23131364288E+03  0.23131364294E+03  0.50400001928E-02 0. -1.
        1   -1    0    0  501    0  0.00000000000E+00  0.00000000000E+00 -0.10536881228E+04  0.10536881228E+04  0.50400001928E-02 0.  1.
    10030    2    1    2    0    0  0.00000000000E+00  0.00000000000E+00 -0.82237447991E+03  0.12850017657E+04  0.98738531119E+03 0.  0.
        2    1    3    3  502    0  0.41770695095E+03  0.18855424325E+02 -0.75278875216E+03  0.86111876607E+03  0.25500000920E-02 0.  1.
       -2    1    3    3    0  502 -0.41770695095E+03 -0.18855424325E+02 -0.69585727756E+02  0.42388299968E+03  0.25500000920E-02 0. -1.
</event>
<event>
 5   0  0.2264577E-03  0.9948907E+03  0.7818609E-02  0.9314166E-01
       -2   -1    0    0    0  501  0.00000000000E+00  0.00000000000E+00  0.16056796192E+03  0.16056796194E+03  0.25500000920E-02 0. -1.
        2   -1    0    0  501    0  0.00000000000E+00  0.00000000000E+00 -0.15411038038E+04  0.15411038038E+04  0.25500000920E-02 0.  1.
    10030    2    1    2    0    0  0.00000000000E+00  0.00000000000E+00 -0.13805358419E+04  0.17016717658E+04  0.99489074156E+03 0.  0.
        5    1    3    3  502    0  0.49417470039E+02  0.90810157530E+02 -0.15224864078E+04  0.15259998437E+04  0.46999998093E+01 0.  1.
       -5    1    3    3    0  502 -0.49417470039E+02 -0.90810157530E+02  0.14195056588E+03  0.17567192208E+03  0.46999998093E+01 0. -1.
</event>
<event>
 5   0  0.2284843E-03  0.1009152E+04  0.7818609E-02  0.9298564E-01
       -2   -1    0    0    0  501  0.00000000000E+00  0.00000000000E+00  0.12015855530E+04  0.12015855530E+04  0.25500000920E-02 0. -1.
        2   -1    0    0  501    0  0.00000000000E+00  0.00000000000E+00 -0.21188398945E+03  0.21188398946E+03  0.25500000920E-02 0.  1.
    10030    2    1    2    0    0  0.00000000000E+00  0.00000000000E+00  0.98970156356E+03  0.14134695425E+04  0.10091516054E+04 0.  0.
        2    1    3    3  502    0 -0.33633524168E+02  0.49834303296E+03  0.39463079523E+03  0.63656143223E+03  0.25500000920E-02 0. -1.
       -2    1    3    3    0  502  0.33633524168E+02 -0.49834303296E+03  0.59507076832E+03  0.77690811024E+03  0.25500000920E-02 0.  1.
</event>
<event>
 5   0  0.2277570E-03  0.9972346E+03  0.7818609E-02  0.9311583E-01
        2   -1    0    0  501    0  0.00000000000E+00  0.00000000000E+00  0.21678918187E+04  0.21678918187E+04  0.25500000920E-02 0.  1.
       -2   -1    0    0    0  501  0.00000000000E+00  0.00000000000E+00 -0.11468247879E+03  0.11468247882E+03  0.25500000920E-02 0. -1.
    10030    2    1    2    0    0  0.00000000000E+00  0.00000000000E+00  0.20532093399E+04  0.22825742975E+04  0.99723459136E+03 0.  0.
        3    1    3    3  502    0  0.14530955629E+03 -0.36588573085E+03  0.17269942082E+04  0.17712978972E+04  0.10100000352E+00 0.  1.
       -3    1    3    3    0  502 -0.14530955629E+03  0.36588573085E+03  0.32621513171E+03  0.51127640034E+03  0.10100000352E+00 0. -1.
</event>
<event>
 5   0  0.2284843E-03  0.1023097E+04  0.7818609E-02  0.9283569E-01
        2   -1    0    0  501    0  0.00000000000E+00  0.00000000000E+00  0.13312841079E+04  0.13312841079E+04  0.25500000920E-02 0.  1.
       -2   -1    0    0    0  501  0.00000000000E+00  0.00000000000E+00 -0.19656364425E+03  0.19656364427E+03  0.25500000920E-02 0. -1.
    10030    2    1    2    0    0  0.00000000000E+00  0.00000000000E+00  0.11347204636E+04  0.15278477522E+04  0.10230973674E+04 0.  0.
        2    1    3    3  502    0 -0.34475650079E+03 -0.19143059908E+02  0.11310074639E+04  0.11825402255E+04  0.25500000920E-02 0.  1.
       -2    1    3    3    0  502  0.34475650079E+03  0.19143059908E+02  0.37129997361E+01  0.34530752664E+03  0.25500000920E-02 0. -1.
</event>
<event>
 5   0  0.2277570E-03  0.1001214E+04  0.7818609E-02  0.9307214E-01
        2   -1    0    0  501    0  0.00000000000E+00  0.00000000000E+00  0.13115221856E+04  0.13115221856E+04  0.25500000920E-02 0. -1.
       -2   -1    0    0    0  501  0.00000000000E+00  0.00000000000E+00 -0.19108135131E+03  0.19108135132E+03  0.25500000920E-02 0.  1.
    10030    2    1    2    0    0  0.00000000000E+00  0.00000000000E+00  0.11204408342E+04  0.15026035369E+04  0.10012141259E+04 0.  0.
        3    1    3    3  502    0  0.23963451771E+03 -0.43451009620E+03  0.46085445790E+03  0.67720792032E+03  0.10100000352E+00 0. -1.
       -3    1    3    3    0  502 -0.23963451771E+03  0.43451009620E+03  0.65958637634E+03  0.82539561656E+03  0.10100000352E+00 0.  1.
</event>
<event>
 5   0  0.2264577E-03  0.1000106E+04  0.7818609E-02  0.9308429E-01
       -2   -1    0    0    0  501  0.00000000000E+00  0.00000000000E+00  0.49883017460E+03  0.49883017460E+03  0.25500000920E-02 0.  1.
        2   -1    0    0  501    0  0.00000000000E+00  0.00000000000E+00 -0.50127884879E+03  0.50127884880E+03  0.25500000920E-02 0. -1.
    10030    2    1    2    0    0  0.00000000000E+00  0.00000000000E+00 -0.24486741987E+01  0.10001090234E+04  0.10001060257E+04 0.  0.
        5    1    3    3  502    0  0.56672367164E+02 -0.33307173638E+02 -0.49691705807E+03  0.50126816936E+03  0.46999998093E+01 0. -1.
       -5    1    3    3    0  502 -0.56672367164E+02  0.33307173638E+02  0.49446838387E+03  0.49884085404E+03  0.46999998093E+01 0.  1.
</event>
<event>
 5   0  0.2255142E-03  0.1001370E+04  0.7818609E-02  0.9307044E-01
        2   -1    0    0  501    0  0.00000000000E+00  0.00000000000E+00  0.77744004151E+03  0.77744004152E+03  0.25500000920E-02 0.  1.
       -2   -1    0    0    0  501  0.00000000000E+00  0.00000000000E+00 -0.32244973841E+03  0.32244973842E+03  0.25500000920E-02 0. -1.
    10030    2    1    2    0    0  0.00000000000E+00  0.00000000000E+00  0.45499030311E+03  0.10998897799E+04  0.10013697380E+04 0.  0.
        4    1    3    3  502    0  0.52278764173E+02  0.28328401180E+03  0.67729810537E+03  0.73601442714E+03  0.12699999809E+01 0.  1.
       -4    1    3    3    0  502 -0.52278764173E+02 -0.28328401180E+03 -0.22230780226E+03  0.36387535279E+03  0.12699999809E+01 0. -1.
</event>
<event>
 5   0  0.2255142E-03  0.1004867E+04  0.7818609E-02  0.9303222E-01
        2   -1    0    0  501    0  0.00000000000E+00  0.00000000000E+00  0.10600121549E+04  0.10600121549E+04  0.25500000920E-02 0. -1.
       -2   -1    0    0    0  501  0.00000000000E+00  0.00000000000E+00 -0.23814783178E+03  0.23814783179E+03  0.25500000920E-02 0.  1.
    10030    2    1    2    0    0  0.00000000000E+00  0.00000000000E+00  0.82186432309E+03  0.12981599867E+04  0.10048673472E+04 0.  0.
        4    1    3    3  502    0 -0.37547650526E+03  0.28743548425E+03  0.63030792662E+03  0.78796666101E+03  0.12699999809E+01 0.  1.
       -4    1    3    3    0  502  0.37547650526E+03 -0.28743548425E+03  0.19155639647E+03  0.51019332565E+03  0.12699999809E+01 0. -1.
</event>
<event>
 5   0  0.1353789E-03  0.9962779E+03  0.7818609E-02  0.9312637E-01
       -1   -1    0    0    0  501  0.00000000000E+00  0.00000000000E+00  0.11851607032E+03  0.11851607042E+03  0.50400001928E-02 0. -1.
        1   -1    0    0  501    0  0.00000000000E+00  0.00000000000E+00 -0.20937449750E+04  0.20937449750E+04  0.50400001928E-02 0.  1.
    10030    2    1    2    0    0  0.00000000000E+00  0.00000000000E+00 -0.19752289047E+04  0.22122610454E+04  0.99627792669E+03 0.  0.
        1    1    3    3  502    0  0.31740092289E+02  0.43601576062E+03 -0.45735372637E+03  0.63268444585E+03  0.50400001928E-02 0. -1.
       -1    1    3    3    0  502 -0.31740092289E+02 -0.43601576062E+03 -0.15178751783E+04  0.15795765996E+04  0.50400001928E-02 0.  1.
</event>
<event>
 5   0  0.2284843E-03  0.9986610E+03  0.7818609E-02  0.9310015E-01
        2   -1    0    0  501    0  0.00000000000E+00  0.00000000000E+00  0.43825406464E+03  0.43825406465E+03  0.25500000920E-02 0. -1.
       -2   -1    0    0    0  501  0.00000000000E+00  0.00000000000E+00 -0.56891870354E+03  0.56891870354E+03  0.25500000920E-02 0.  1.
    10030    2    1    2    0    0  0.00000000000E+00  0.00000000000E+00 -0.13066463889E+03  0.10071727682E+04  0.99866097207E+03 0.  0.
        2    1    3    3  502    0  0.59978369883E+02 -0.36203114015E+03 -0.40684362861E+03  0.54789204178E+03  0.25500000920E-02 0.  1.
       -2    1    3    3    0  502 -0.59978369883E+02  0.36203114015E+03  0.27617898972E+03  0.45928072642E+03  0.25500000920E-02 0. -1.
</event>
<event>
 5   0  0.1285769E-03  0.1010324E+04  0.7818609E-02  0.9297293E-01
        1   -1    0    0  501    0  0.00000000000E+00  0.00000000000E+00  0.69649937619E+03  0.69649937620E+03  0.50400001928E-02 0. -1.
       -1   -1    0    0    0  501  0.00000000000E+00  0.00000000000E+00 -0.36638772547E+03  0.36638772550E+03  0.50400001928E-02 0.  1.
    10030    2    1    2    0    0  0.00000000000E+00  0.00000000000E+00  0.33011165072E+03  0.10628871017E+04  0.10103243484E+04 0.  0.
        5    1    3    3  502    0 -0.95915328188E+02  0.32584072170E+03  0.55839919645E+03  0.65360819969E+03  0.46999998093E+01 0. -1.
       -5    1    3    3    0  502  0.95915328188E+02 -0.32584072170E+03 -0.22828754574E+03  0.40927890202E+03  0.46999998093E+01 0.  1.
</event>
<event>
 5   0  0.1293575E-03  0.9684208E+03  0.7818609E-02  0.9343875E-01
        1   -1    0    0  501    0  0.00000000000E+00  0.00000000000E+00  0.37488992644E+03  0.37488992648E+03  0.50400001928E-02 0.  1.
       -1   -1    0    0    0  501  0.00000000000E+00  0.00000000000E+00 -0.62540946808E+03  0.62540946810E+03  0.50400001928E-02 0. -1.
    10030    2    1    2    0    0  0.00000000000E+00  0.00000000000E+00 -0.25051954163E+03  0.10002993946E+04  0.96842079596E+03 0.  0.
        4    1    3    3  502    0  0.12910000121E+03  0.37248428233E+03  0.16514777491E+03  0.42741870731E+03  0.12699999809E+01 0.  1.
       -4    1    3    3    0  502 -0.12910000121E+03 -0.37248428233E+03 -0.41566731655E+03  0.57288068727E+03  0.12699999809E+01 0. -1.
</event>
<event>
 5   0  0.1285769E-03  0.9961754E+03  0.7818609E-02  0.9312750E-01
       -1   -1    0    0    0  501  0.00000000000E+00  0.00000000000E+00  0.54603125542E+03  0.54603125544E+03  0.50400001928E-02 0.  1.
        1   -1    0    0  501    0  0.00000000000E+00  0.00000000000E+00 -0.45435377180E+03  0.45435377182E+03  0.50400001928E-02 0. -1.
    10030    2    1    2    0    0  0.00000000000E+00  0.00000000000E+00  0.91677483624E+02  0.10003850273E+04  0.99617540713E+03 0.  0.
        5    1    3    3  502    0 -0.23451931638E+03  0.15209974713E+03  0.45981323865E+03  0.53813004680E+03  0.46999998093E+01 0.  1.
       -5    1    3    3    0  502  0.23451931638E+03 -0.15209974713E+03 -0.36813575503E+03  0.46225498046E+03  0.46999998093E+01 0. -1.
</event>
<event>
 5   0  0.2204862E-03  0.1005274E+04  0.7818609E-02  0.9302779E-01
        2   -1    0    0  501    0  0.00000000000E+00  0.00000000000E+00  0.72443783119E+03  0.72443783120E+03  0.25500000920E-02 0. -1.
       -2   -1    0    0    0  501  0.00000000000E+00  0.00000000000E+00 -0.34874504350E+03  0.34874504351E+03  0.25500000920E-02 0.  1.
    10030    2    1    2    0    0  0.00000000000E+00  0.00000000000E+00  0.37569278769E+03  0.10731828747E+04  0.10052742968E+04 0.  0.
        1    1    3    3  502    0  0.24689524828E+03 -0.15708561474E+03 -0.24842991204E+03  0.38386270358E+03  0.50400001928E-02 0.  1.
       -1    1    3    3    0  502 -0.24689524828E+03  0.15708561474E+03  0.62412269973E+03  0.68932017113E+03  0.50400001928E-02 0. -1.
</event>
<event>
 5   0  0.2277570E-03  0.9936873E+03  0.7818609E-02  0.9315496E-01
       -2   -1    0    0    0  501  0.00000000000E+00  0.00000000000E+00  0.57172251172E+03  0.57172251173E+03  0.25500000920E-02 0.  1.
        2   -1    0    0  501    0  0.00000000000E+00  0.00000000000E+00 -0.43177175881E+03  0.43177175881E+03  0.25500000920E-02 0. -1.
    10030    2    1    2    0    0  0.00000000000E+00  0.00000000000E+00  0.13995075292E+03  0.10034942705E+04  0.99368734407E+03 0.  0.
        3    1    3    3  502    0 -0.18447285391E+03  0.38543843767E+03 -0.18602318849E+03  0.46604469734E+03  0.10100000352E+00 0. -1.
       -3    1    3    3    0  502  0.18447285391E+03 -0.38543843767E+03  0.32597394140E+03  0.53744957320E+03  0.10100000352E+00 0.  1.
</event>
<event>
 5   0  0.2264577E-03  0.9997256E+03  0.7818609E-02  0.9308846E-01
       -2   -1    0    0    0  501  0.00000000000E+00  0.00000000000E+00  0.75108703656E+03  0.75108703657E+03  0.25500000920E-02 0. -1.
        2   -1    0    0  501    0  0.00000000000E+00  0.00000000000E+00 -0.33266823087E+03  0.33266823088E+03  0.25500000920E-02 0.  1.
    10030    2    1    2    0    0  0.00000000000E+00  0.00000000000E+00  0.41841880570E+03  0.10837552674E+04  0.99972555371E+03 0.  0.
        5    1    3    3  502    0 -0.22994706394E+03  0.43701983514E+03  0.29303071068E+03  0.57423956318E+03  0.46999998093E+01 0. -1.
       -5    1    3    3    0  502  0.22994706394E+03 -0.43701983514E+03  0.12538809502E+03  0.50951570427E+03  0.46999998093E+01 0.  1.
</event>
<event>
 5   0  0.1285769E-03  0.1003268E+04  0.7818609E-02  0.9304968E-01
        1   -1    0    0  501    0  0.00000000000E+00  0.00000000000E+00  0.13114483365E+04  0.13114483365E+04  0.50400001928E-02 0.  1.
       -1   -1    0    0    0  501  0.00000000000E+00  0.00000000000E+00 -0.19187683635E+03  0.19187683641E+03  0.50400001928E-02 0. -1.
    10030    2    1    2    0    0  0.00000000000E+00  0.00000000000E+00  0.11195715002E+04  0.15033251729E+04  0.10032677766E+04 0.  0.
        5    1    3    3  502    0 -0.38371518092E+03  0.12332676184E+03  0.11234071183E+03  0.41843680023E+03  0.46999998093E+01 0. -1.
       -5    1    3    3    0  502  0.38371518092E+03 -0.12332676184E+03  0.10072307883E+04  0.10848883727E+04  0.46999998093E+01 0.  1.
</event>
<event>
 5   0  0.2277570E-03  0.1002768E+04  0.7818609E-02  0.9305514E-01
        2   -1    0    0  501    0  0.00000000000E+00  0.00000000000E+00  0.24439169298E+04  0.24439169298E+04  0.25500000920E-02 0. -1.
       -2   -1    0    0    0  501  0.00000000000E+00  0.00000000000E+00 -0.10286191202E+03  0.10286191205E+03  0.25500000920E-02 0.  1.
    10030    2    1    2    0    0  0.00000000000E+00  0.00000000000E+00  0.23410550177E+04  0.25467788418E+04  0.10027681053E+04 0.  0.
        3    1    3    3  502    0  0.38786770128E+03  0.17586186635E+03  0.49849061393E+03  0.65563835467E+03  0.10100000352E+00 0.  1.
       -3    1    3    3    0  502 -0.38786770128E+03 -0.17586186635E+03  0.18425644038E+04  0.18911404871E+04  0.10100000352E+00 0. -1.
</event>
<event>
 5   0  0.2255142E-03  0.1000286E+04  0.7818609E-02  0.9308231E-01
        2   -1    0    0  501    0  0.00000000000E+00  0.00000000000E+00  0.63707018897E+03  0.63707018898E+03  0.25500000920E-02 0. -1.
       -2   -1    0    0    0  501  0.00000000000E+00  0.00000000000E+00 -0.39264619693E+03  0.39264619694E+03  0.25500000920E-02 0.  1.
    10030    2    1    2    0    0  0.00000000000E+00  0.00000000000E+00  0.24442399204E+03  0.10297163859E+04  0.10002863328E+04 0.  0.
        4    1    3    3  502    0  0.11753650189E+03 -0.32068229167E+03 -0.25389986111E+03  0.42558044344E+03  0.12699999809E+01 0.  1.
       -4    1    3    3    0  502 -0.11753650189E+03  0.32068229167E+03  0.49832385315E+03  0.60413594247E+03  0.12699999809E+01 0. -1.
</event>
<event>
 5   0  0.2264577E-03  0.9999734E+03  0.7818609E-02  0.9308574E-01
       -2   -1    0    0    0  501  0.00000000000E+00  0.00000000000E+00  0.37602853791E+03  0.37602853792E+03  0.25500000920E-02 0.  1.
        2   -1    0    0  501    0  0.00000000000E+00  0.00000000000E+00 -0.66480776729E+03  0.66480776729E+03  0.25500000920E-02 0. -1.
    10030    2    1    2    0    0  0.00000000000E+00  0.00000000000E+00 -0.28877922938E+03  0.10408363052E+04  0.99997338511E+03 0.  0.
        5    1    3    3  502    0  0.38115920396E+03 -0.56838813174E+02  0.18714087110E+03  0.42843527526E+03  0.46999998093E+01 0.  1.
       -5    1    3    3    0  502 -0.38115920396E+03  0.56838813174E+02 -0.47592010048E+03  0.61240102995E+03  0.46999998093E+01 0. -1.
</event>
<event>
 5   0  0.1285769E-03  0.9945260E+03  0.7818609E-02  0.9314569E-01
       -1   -1    0    0    0  501  0.00000000000E+00  0.00000000000E+00  0.92322948921E+03  0.92322948922E+03  0.50400001928E-02 0. -1.
        1   -1    0    0  501    0  0.00000000000E+00  0.00000000000E+00 -0.26783208929E+03  0.26783208934E+03  0.50400001928E-02 0.  1.
    10030    2    1    2    0    0  0.00000000000E+00  0.00000000000E+00  0.65539739991E+03  0.11910615786E+04  0.99452598363E+03 0.  0.
        5    1    3    3  502    0  0.22315008148E+03  0.38462993309E+03  0.61212694595E+02  0.44889333730E+03  0.46999998093E+01 0. -1.
       -5    1    3    3    0  502 -0.22315008148E+03 -0.38462993309E+03  0.59418470532E+03  0.74216824126E+03  0.46999998093E+01 0.  1.
</event>
<event>
 5   0  0.2277570E-03  0.9961435E+03  0.7818609E-02  0.9312785E-01
        2   -1    0    0  501    0  0.00000000000E+00  0.00000000000E+00  0.23677661037E+03  0.23677661038E+03  0.25500000920E-02 0. -1.
       -2   -1    0    0    0  501  0.00000000000E+00  0.00000000000E+00 -0.10477194644E+04  0.10477194644E+04  0.25500000920E-02 0.  1.
    10030    2    1    2    0    0  0.00000000000E+00  0.00000000000E+00 -0.81094285405E+03  0.12844960748E+04  0.99614349049E+03 0.  0.
        3    1    3    3  502    0  0.27979148100E+03  0.21416409351E+03 -0.85940463846E+03  0.92883037989E+03  0.10100000352E+00 0.  1.
       -3    1    3    3    0  502 -0.27979148100E+03 -0.21416409351E+03  0.48461784413E+02  0.35566569492E+03  0.10100000352E+00 0. -1.
</event>
<event>
 5   0  0.2204862E-03  0.9798451E+03  0.7818609E-02  0.9330931E-01
       -2   -1    0    0    0  501  0.00000000000E+00  0.00000000000E+00  0.92343211163E+03  0.92343211163E+03  0.25500000920E-02 0. -1.
        2   -1    0    0  501    0  0.00000000000E+00  0.00000000000E+00 -0.25992610705E+03  0.25992610707E+03  0.25500000920E-02 0.  1.
    10030    2    1    2    0    0  0.00000000000E+00  0.00000000000E+00  0.66350600458E+03  0.11833582187E+04  0.97984511820E+03 0.  0.
        1    1    3    3  502    0 -0.13512986903E+03 -0.41630991955E+03  0.65921734763E+02  0.44262818004E+03  0.50400001928E-02 0.  1.
       -1    1    3    3    0  502  0.13512986903E+03  0.41630991955E+03  0.59758426981E+03  0.74073003866E+03  0.50400001928E-02 0. -1.
</event>
<event>
 5   0  0.2255142E-03  0.9960700E+03  0.7818609E-02  0.9312866E-01
       -2   -1    0    0    0  501  0.00000000000E+00  0.00000000000E+00  0.84948305572E+03  0.84948305572E+03  0.25500000920E-02 0.  1.
        2   -1    0    0  501    0  0.00000000000E+00  0.00000000000E+00 -0.29198798252E+03  0.29198798253E+03  0.25500000920E-02 0. -1.
    10030    2    1    2    0    0  0.00000000000E+00  0.00000000000E+00  0.55749507320E+03  0.11414710383E+04  0.99606996468E+03 0.  0.
        4    1    3    3  502    0 -0.43443673793E+02 -0.49589001505E+03  0.29661044588E+03  0.57945977369E+03  0.12699999809E+01 0.  1.
       -4    1    3    3    0  502  0.43443673793E+02  0.49589001505E+03  0.26088462732E+03  0.56201126456E+03  0.12699999809E+01 0. -1.
</event>
<event>
 5   0  0.2204862E-03  0.9974525E+03  0.7818609E-02  0.9311343E-01
       -2   -1    0    0    0  501  0.00000000000E+00  0.00000000000E+00  0.35582879747E+03  0.35582879748E+03  0.25500000920E-02 0.  1.
        2   -1    0    0  501    0  0.00000000000E+00  0.00000000000E+00 -0.69900993897E+03  0.69900993898E+03  0.25500000920E-02 0. -1.
    10030    2    1    2    0    0  0.00000000000E+00  0.00000000000E+00 -0.34318114150E+03  0.10548387365E+04  0.99745248711E+03 0.  0.
        1    1    3    3  502    0 -0.18352173378E+03 -0.16310910000E+02  0.31851809594E+03  0.36796745783E+03  0.50400001928E-02 0.  1.
       -1    1    3    3    0  502  0.18352173378E+03  0.16310910000E+02 -0.66169923744E+03  0.68687127863E+03  0.50400001928E-02 0. -1.
</event>
<event>
 5   0  0.2277570E-03  0.1000456E+04  0.7818609E-02  0.9308045E-01
       -2   -1    0    0    0  501  0.00000000000E+00  0.00000000000E+00  0.78926734832E+03  0.78926734832E+03  0.25500000920E-02 0. -1.
        2   -1    0    0  501    0  0.00000000000E+00  0.00000000000E+00 -0.31703813578E+03  0.31703813579E+03  0.25500000920E-02 0.  1.
    10030    2    1    2    0    0  0.00000000000E+00  0.00000000000E+00  0.47222921253E+03  0.11063054841E+04  0.10004555937E+04 0.  0.
        3    1    3    3  502    0  0.20228420022E+03 -0.16453478294E+03  0.70817310449E+03  0.75465207121E+03  0.10100000352E+00 0. -1.
       -3    1    3    3    0  502 -0.20228420022E+03  0.16453478294E+03 -0.23594389196E+03  0.35165341290E+03  0.10100000352E+00 0.  1.
</event>
<event>
 5   0  0.2284843E-03  0.9935474E+03  0.7818609E-02  0.9315650E-01
       -2   -1    0    0    0  501  0.00000000000E+00  0.00000000000E+00  0.25967229451E+03  0.25967229452E+03  0.25500000920E-02 0.  1.
        2   -1    0    0  501    0  0.00000000000E+00  0.00000000000E+00 -0.95036744973E+03  0.95036744973E+03  0.25500000920E-02 0. -1.
    10030    2    1    2    0    0  0.00000000000E+00  0.00000000000E+00 -0.69069515522E+03  0.12100397443E+04  0.99354737443E+03 0.  0.
        2    1    3    3  502    0 -0.22896879657E+03 -0.25451640807E+03 -0.78375510877E+03  0.85526451014E+03  0.25500000920E-02 0. -1.
       -2    1    3    3    0  502  0.22896879657E+03  0.25451640807E+03  0.93059953549E+02  0.35477523411E+03  0.25500000920E-02 0.  1.
</event>
<event>
 5   0  0.2204862E-03  0.9986141E+03  0.7818609E-02  0.9310066E-01
       -2   -1    0    0    0  501  0.00000000000E+00  0.00000000000E+00  0.26185037773E+03  0.26185037774E+03  0.25500000920E-02 0.  1.
        2   -1    0    0  501    0  0.00000000000E+00  0.00000000000E+00 -0.95209910227E+03  0.95209910228E+03  0.25500000920E-02 0. -1.
    10030    2    1    2    0    0  0.00000000000E+00  0.00000000000E+00 -0.69024872454E+03  0.12139494800E+04  0.99861405874E+03 0.  0.
        1    1    3    3  502    0  0.34469825398E+03  0.20289577406E+03  0.18193578707E+02  0.40039304160E+03  0.50400001928E-02 0.  1.
       -1    1    3    3    0  502 -0.34469825398E+03 -0.20289577406E+03 -0.70844230325E+03  0.81355643842E+03  0.50400001928E-02 0. -1.
</event>
<event>
 5   0  0.2284843E-03  0.9993103E+03  0.7818609E-02  0.9309302E-01
        2   -1    0    0  501    0  0.00000000000E+00  0.00000000000E+00  0.37030239947E+03  0.37030239948E+03  0.25500000920E-02 0. -1.
       -2   -1    0    0    0  501  0.00000000000E+00  0.00000000000E+00 -0.67419294815E+03  0.67419294815E+03  0.25500000920E-02 0.  1.
    10030    2    1    2    0    0  0.00000000000E+00  0.00000000000E+00 -0.30389054868E+03  0.10444953476E+04  0.99931029498E+03 0.  0.
        2    1    3    3  502    0  0.39548260599E+02 -0.42077265288E+03 -0.43053329789E+03  0.60330142626E+03  0.25500000920E-02 0.  1.
       -2    1    3    3    0  502 -0.39548260599E+02  0.42077265288E+03  0.12664274921E+03  0.44119392138E+03  0.25500000920E-02 0. -1.
</event>
<event>
 5   0  0.1353789E-03  0.9951448E+03  0.7818609E-02  0.9313886E-01
        1   -1    0    0  501    0  0.00000000000E+00  0.00000000000E+00  0.77670109628E+03  0.77670109630E+03  0.50400001928E-02 0. -1.
       -1   -1    0    0    0  501  0.00000000000E+00  0.00000000000E+00 -0.31875618106E+03  0.31875618110E+03  0.50400001928E-02 0.  1.
    10030    2    1    2    0    0  0.00000000000E+00  0.00000000000E+00  0.45794491523E+03  0.10954572774E+04  0.99514476396E+03 0.  0.
        1    1    3    3  502    0 -0.10002385996E+03  0.48003073106E+03  0.32201464333E+03  0.58662399019E+03  0.50400001928E-02 0. -1.
       -1    1    3    3    0  502  0.10002385996E+03 -0.48003073106E+03  0.13593027190E+03  0.50883328721E+03  0.50400001928E-02 0.  1.
</event>
<event>
 5   0  0.1249195E-03  0.9978268E+03  0.7818609E-02  0.9310932E-01
        1   -1    0    0  501    0  0.00000000000E+00  0.00000000000E+00  0.32817038391E+03  0.32817038395E+03  0.50400001928E-02 0.  1.
       -1   -1    0    0    0  501  0.00000000000E+00  0.00000000000E+00 -0.75849185117E+03  0.75849185118E+03  0.50400001928E-02 0. -1.
    10030    2    1    2    0    0  0.00000000000E+00  0.00000000000E+00 -0.43032146726E+03  0.10866622351E+04  0.99782676256E+03 0.  0.
        2    1    3    3  502    0  0.22956780834E+03 -0.20566188661E+03 -0.64241050109E+03  0.71252329235E+03  0.25500000920E-02 0. -1.
       -2    1    3    3    0  502 -0.22956780834E+03  0.20566188661E+03  0.21208903383E+03  0.37413894278E+03  0.25500000920E-02 0.  1.
</event>
<event>
 5   0  0.1293575E-03  0.1000139E+04  0.7818609E-02  0.9308393E-01
       -1   -1    0    0    0  501  0.00000000000E+00  0.00000000000E+00  0.12548444828E+04  0.12548444828E+04  0.50400001928E-02 0.  1.
        1   -1    0    0  501    0  0.00000000000E+00  0.00000000000E+00 -0.19928313810E+03  0.19928313817E+03  0.50400001928E-02 0. -1.
    10030    2    1    2    0    0  0.00000000000E+00  0.00000000000E+00  0.10555613447E+04  0.14541276210E+04  0.10001386832E+04 0.  0.
        4    1    3    3  502    0  0.21159086568E+03  0.76243926298E+02  0.11771566622E+04  0.11984503540E+04  0.12699999809E+01 0.  1.
       -4    1    3    3    0  502 -0.21159086568E+03 -0.76243926298E+02 -0.12159531746E+03  0.25567726701E+03  0.12699999809E+01 0. -1.
</event>
<event>
 5   0  0.1285769E-03  0.9989531E+03  0.7818609E-02  0.9309694E-01
       -1   -1    0    0    0  501  0.00000000000E+00  0.00000000000E+00  0.52979082029E+03  0.52979082031E+03  0.50400001928E-02 0. -1.
        1   -1    0    0  501    0  0.00000000000E+00  0.00000000000E+00 -0.47089684166E+03  0.47089684169E+03  0.50400001928E-02 0.  1.
    10030    2    1    2    0    0  0.00000000000E+00  0.00000000000E+00  0.58893978630E+02  0.10006876620E+04  0.99895310008E+03 0.  0.
        5    1    3    3  502    0 -0.68987617769E+02 -0.56266887040E+02  0.52175683287E+03  0.52931799198E+03  0.46999998093E+01 0. -1.
       -5    1    3    3    0  502  0.68987617769E+02  0.56266887040E+02 -0.46286285424E+03  0.47136967002E+03  0.46999998093E+01 0.  1.
</event>
<event>
 5   0  0.2277570E-03  0.9986775E+03  0.7818609E-02  0.9309996E-01
        2   -1    0    0  501    0  0.00000000000E+00  0.00000000000E+00  0.20803780882E+04  0.20803780882E+04  0.25500000920E-02 0. -1.
       -2   -1    0    0    0  501  0.00000000000E+00  0.00000000000E+00 -0.11985282665E+03  0.11985282668E+03  0.25500000920E-02 0.  1.
    10030    2    1    2    0    0  0.00000000000E+00  0.00000000000E+00  0.19605252616E+04  0.22002309149E+04  0.99867751435E+03 0.  0.
        3    1    3    3  502    0  0.32205223465E+03 -0.21791052878E+03  0.29008898729E+03  0.48513325092E+03  0.10100000352E+00 0.  1.
       -3    1    3    3    0  502 -0.32205223465E+03  0.21791052878E+03  0.16704362743E+04  0.17150976640E+04  0.10100000352E+00 0. -1.
</event>
<event>
 5   0  0.8680125E-04  0.9971657E+03  0.7818609E-02  0.9311659E-01
        3   -1    0    0  501    0  0.00000000000E+00  0.00000000000E+00  0.11037054075E+03  0.11037058697E+03  0.10100000352E+00 0. -1.
       -3   -1    0    0    0  501  0.00000000000E+00  0.00000000000E+00 -0.22522749317E+04  0.22522749339E+04  0.10100000352E+00 0.  1.
    10030    2    1    2    0    0  0.00000000000E+00  0.00000000000E+00 -0.21419043909E+04  0.23626455209E+04  0.99716570218E+03 0.  0.
        4    1    3    3  502    0 -0.34268618404E+03  0.16530260954E+03 -0.30750131091E+03  0.48920082028E+03  0.12699999809E+01 0. -1.
       -4    1    3    3    0  502  0.34268618404E+03 -0.16530260954E+03 -0.18344030800E+04  0.18734447006E+04  0.12699999809E+01 0.  1.
</event>
<event>
 5   0  0.2277570E-03  0.9958046E+03  0.7818609E-02  0.9313158E-01
        2   -1    0    0  501    0  0.00000000000E+00  0.00000000000E+00  0.18255043951E+04  0.18255043951E+04  0.25500000920E-02 0.  1.
       -2   -1    0    0    0  501  0.00000000000E+00  0.00000000000E+00 -0.13580174148E+03  0.13580174150E+03  0.25500000920E-02 0. -1.
    10030    2    1    2    0    0  0.00000000000E+00  0.00000000000E+00  0.16897026536E+04  0.19613061366E+04  0.99580455102E+03 0.  0.
        3    1    3    3  502    0  0.19632084220E+03  0.22360788546E+02 -0.55275893062E+02  0.20517629615E+03  0.10100000352E+00 0. -1.
       -3    1    3    3    0  502 -0.19632084220E+03 -0.22360788546E+02  0.17449785467E+04  0.17561298405E+04  0.10100000352E+00 0.  1.
</event>
<event>
 5   0  0.1293716E-03  0.9944049E+03  0.7818609E-02  0.9314703E-01
        1   -1    0    0  501    0  0.00000000000E+00  0.00000000000E+00  0.36736578114E+03  0.36736578117E+03  0.50400001928E-02 0.  1.
       -1   -1    0    0    0  501  0.00000000000E+00  0.00000000000E+00 -0.67292685616E+03  0.67292685618E+03  0.50400001928E-02 0. -1.
    10030    2    1    2    0    0  0.00000000000E+00  0.00000000000E+00 -0.30556107503E+03  0.10402926374E+04  0.99440494808E+03 0.  0.
        3    1    3    3  502    0 -0.21816695473E+03 -0.34933176068E+03 -0.44416698543E+03  0.60573411684E+03  0.10100000352E+00 0. -1.
       -3    1    3    3    0  502  0.21816695473E+03  0.34933176068E+03  0.13860591040E+03  0.43455852052E+03  0.10100000352E+00 0.  1.
</event>
<event>
 5   0  0.1293575E-03  0.9853530E+03  0.7818609E-02  0.9324757E-01
        1   -1    0    0  501    0  0.00000000000E+00  0.00000000000E+00  0.24183219015E+04  0.24183219015E+04  0.50400001928E-02 0.  1.
       -1   -1    0    0    0  501  0.00000000000E+00  0.00000000000E+00 -0.10037130004E+03  0.10037130017E+03  0.50400001928E-02 0. -1.
    10030    2    1    2    0    0  0.00000000000E+00  0.00000000000E+00  0.23179506014E+04  0.25186932016E+04  0.98535295877E+03 0.  0.
        4    1    3    3  502    0  0.36845181388E+03  0.10753576822E+03  0.36943294899E+03  0.53273163722E+03  0.12699999809E+01 0. -1.
       -4    1    3    3    0  502 -0.36845181388E+03 -0.10753576822E+03  0.19485176524E+04  0.19859615644E+04  0.12699999809E+01 0.  1.
</event>
<event>
 5   0  0.1285769E-03  0.1000126E+04  0.7818609E-02  0.9308407E-01
        1   -1    0    0  501    0  0.00000000000E+00  0.00000000000E+00  0.83322016247E+03  0.83322016248E+03  0.50400001928E-02 0. -1.
       -1   -1    0    0    0  501  0.00000000000E+00  0.00000000000E+00 -0.30011629425E+03  0.30011629429E+03  0.50400001928E-02 0.  1.
    10030    2    1    2    0    0  0.00000000000E+00  0.00000000000E+00  0.53310386822E+03  0.11333364568E+04  0.10001258870E+04 0.  0.
        5    1    3    3  502    0  0.23267182363E+03  0.51035635599E+02 -0.23166692962E+03  0.33231381237E+03  0.46999998093E+01 0.  1.
       -5    1    3    3    0  502 -0.23267182363E+03 -0.51035635599E+02  0.76477079784E+03  0.80102264440E+03  0.46999998093E+01 0. -1.
</event>
<event>
 5   0  0.2255142E-03  0.9958491E+03  0.7818609E-02  0.9313109E-01
       -2   -1    0    0    0  501  0.00000000000E+00  0.00000000000E+00  0.48879159500E+03  0.48879159501E+03  0.25500000920E-02 0. -1.
        2   -1    0    0  501    0  0.00000000000E+00  0.00000000000E+00 -0.50722816773E+03  0.50722816773E+03  0.25500000920E-02 0.  1.
    10030    2    1    2    0    0  0.00000000000E+00  0.00000000000E+00 -0.18436572722E+02  0.99601976274E+03  0.99584911536E+03 0.  0.
        4    1    3    3  502    0  0.21602834226E+03 -0.15141799699E+02 -0.45765851177E+03  0.50631062111E+03  0.12699999809E+01 0.  1.
       -4    1    3    3    0  502 -0.21602834226E+03  0.15141799699E+02  0.43922193905E+03  0.48970914163E+03  0.12699999809E+01 0. -1.
</event>
<event>
 5   0  0.2255142E-03  0.1001877E+04  0.7818609E-02  0.9306488E-01
       -2   -1    0    0    0  501  0.00000000000E+00  0.00000000000E+00  0.14943222779E+03  0.14943222781E+03  0.25500000920E-02 0. -1.
        2   -1    0    0  501    0  0.00000000000E+00  0.00000000000E+00 -0.16792856793E+04  0.16792856793E+04  0.25500000920E-02 0.  1.
    10030    2    1    2    0    0  0.00000000000E+00  0.00000000000E+00 -0.15298534515E+04  0.18287179071E+04  0.10018770387E+04 0.  0.
        4    1    3    3  502    0  0.70384754795E+02 -0.40149240696E+03 -0.23343253949E+03  0.46972601583E+03  0.12699999809E+01 0. -1.
       -4    1    3    3    0  502 -0.70384754795E+02  0.40149240696E+03 -0.12964209120E+04  0.13589918913E+04  0.12699999809E+01 0.  1.
</event>
<event>
 5   0  0.2277570E-03  0.9995566E+03  0.7818609E-02  0.9309031E-01
        2   -1    0    0  501    0  0.00000000000E+00  0.00000000000E+00  0.20294237215E+03  0.20294237217E+03  0.25500000920E-02 0. -1.
       -2   -1    0    0    0  501  0.00000000000E+00  0.00000000000E+00 -0.12307847184E+04  0.12307847185E+04  0.25500000920E-02 0.  1.
    10030    2    1    2    0    0  0.00000000000E+00  0.00000000000E+00 -0.10278423463E+04  0.14337270906E+04  0.99955664249E+03 0.  0.
        3    1    3    3  502    0  0.47126383829E+03 -0.99589250354E+02 -0.70513169679E+03  0.85394282249E+03  0.10100000352E+00 0.  1.
       -3    1    3    3    0  502 -0.47126383829E+03  0.99589250354E+02 -0.32271064951E+03  0.57978426813E+03  0.10100000352E+00 0. -1.
</event>
<event>
 5   0  0.1353789E-03  0.9858089E+03  0.7818609E-02  0.9324248E-01
        1   -1    0    0  501    0  0.00000000000E+00  0.00000000000E+00  0.58879231658E+03  0.58879231660E+03  0.50400001928E-02 0.  1.
       -1   -1    0    0    0  501  0.00000000000E+00  0.00000000000E+00 -0.41263242204E+03  0.41263242207E+03  0.50400001928E-02 0. -1.
    10030    2    1    2    0    0  0.00000000000E+00  0.00000000000E+00  0.17615989454E+03  0.10014247387E+04  0.98580890580E+03 0.  0.
        1    1    3    3  502    0  0.13117969330E+03  0.19638330823E+03 -0.35141676381E+03  0.42340082380E+03  0.50400001928E-02 0. -1.
       -1    1    3    3    0  502 -0.13117969330E+03 -0.19638330823E+03  0.52757665835E+03  0.57802391486E+03  0.50400001928E-02 0.  1.
</event>
<event>
 5   0  0.2255142E-03  0.1000892E+04  0.7818609E-02  0.9307567E-01
       -2   -1    0    0    0  501  0.00000000000E+00  0.00000000000E+00  0.83239943591E+03  0.83239943592E+03  0.25500000920E-02 0. -1.
        2   -1    0    0  501    0  0.00000000000E+00  0.00000000000E+00 -0.30087286265E+03  0.30087286266E+03  0.25500000920E-02 0.  1.
    10030    2    1    2    0    0  0.00000000000E+00  0.00000000000E+00  0.53152657326E+03  0.11332722986E+04  0.10008924041E+04 0.  0.
        4    1    3    3  502    0  0.31437381152E+03  0.15774457385E+03  0.66883983398E+03  0.75568682691E+03  0.12699999809E+01 0. -1.
       -4    1    3    3    0  502 -0.31437381152E+03 -0.15774457385E+03 -0.13731326072E+03  0.37758547167E+03  0.12699999809E+01 0.  1.
</event>
<event>
 5   0  0.1293575E-03  0.9972973E+03  0.7818609E-02  0.9311514E-01
        1   -1    0    0  501    0  0.00000000000E+00  0.00000000000E+00  0.47873603369E+03  0.47873603372E+03  0.50400001928E-02 0.  1.
       -1   -1    0    0    0  501  0.00000000000E+00  0.00000000000E+00 -0.51938946253E+03  0.51938946256E+03  0.50400001928E-02 0. -1.
    10030    2    1    2    0    0  0.00000000000E+00  0.00000000000E+00 -0.40653428843E+02  0.99812549627E+03  0.99729725009E+03 0.  0.
        4    1    3    3  502    0 -0.48662082413E+03  0.58190136400E+02 -0.11239724445E+03  0.50281276029E+03  0.12699999809E+01 0. -1.
       -4    1    3    3    0  502  0.48662082413E+03 -0.58190136400E+02  0.71743815607E+02  0.49531273598E+03  0.12699999809E+01 0.  1.
</event>
<event>
 5   0  0.2204862E-03  0.9973591E+03  0.7818609E-02  0.9311446E-01
        2   -1    0    0  501    0  0.00000000000E+00  0.00000000000E+00  0.32514262753E+03  0.32514262754E+03  0.25500000920E-02 0. -1.
       -2   -1    0    0    0  501  0.00000000000E+00  0.00000000000E+00 -0.76483751220E+03  0.76483751220E+03  0.25500000920E-02 0.  1.
    10030    2    1    2    0    0  0.00000000000E+00  0.00000000000E+00 -0.43969488467E+03  0.10899801397E+04  0.99735906945E+03 0.  0.
        1    1    3    3  502    0  0.34505814419E+03  0.35980955280E+03 -0.23337610203E+03  0.55044749267E+03  0.50400001928E-02 0. -1.
       -1    1    3    3    0  502 -0.34505814419E+03 -0.35980955280E+03 -0.20631878264E+03  0.53953264707E+03  0.50400001928E-02 0.  1.
</event>
<event>
 5   0  0.2264577E-03  0.9874972E+03  0.7818609E-02  0.9322365E-01
        2   -1    0    0  501    0  0.00000000000E+00  0.00000000000E+00  0.14006413058E+04  0.14006413058E+04  0.25500000920E-02 0.  1.
       -2   -1    0    0    0  501  0.00000000000E+00  0.00000000000E+00 -0.17405433315E+03  0.17405433317E+03  0.25500000920E-02 0. -1.
    10030    2    1    2    0    0  0.00000000000E+00  0.00000000000E+00  0.12265869726E+04  0.15746956389E+04  0.98749721715E+03 0.  0.
        5    1    3    3  502    0  0.26711948694E+03  0.18732199227E+03  0.22367920181E+02  0.32705467882E+03  0.46999998093E+01 0. -1.
       -5    1    3    3    0  502 -0.26711948694E+03 -0.18732199227E+03  0.12042190524E+04  0.12476409601E+04  0.46999998093E+01 0.  1.
</event>
<event>
 5   0  0.1293575E-03  0.1014619E+04  0.7818609E-02  0.9292654E-01
       -1   -1    0    0    0  501  0.00000000000E+00  0.00000000000E+00  0.18328494540E+03  0.18328494547E+03  0.50400001928E-02 0. -1.
        1   -1    0    0  501    0  0.00000000000E+00  0.00000000000E+00 -0.14041694085E+04  0.14041694085E+04  0.50400001928E-02 0.  1.
    10030    2    1    2    0    0  0.00000000000E+00  0.00000000000E+00 -0.12208844631E+04  0.15874543539E+04  0.10146193639E+04 0.  0.
        4    1    3    3  502    0 -0.40282120245E+03 -0.28066473869E+03 -0.81034087530E+03  0.94746586417E+03  0.12699999809E+01 0. -1.
       -4    1    3    3    0  502  0.40282120245E+03  0.28066473869E+03 -0.41054358777E+03  0.63998848977E+03  0.12699999809E+01 0.  1.
</event>
<event>
 5   0  0.1353789E-03  0.9514162E+03  0.7818609E-02  0.9363497E-01
       -1   -1    0    0    0  501  0.00000000000E+00  0.00000000000E+00  0.23596031135E+03  0.23596031141E+03  0.50400001928E-02 0. -1.
        1   -1    0    0  501    0  0.00000000000E+00  0.00000000000E+00 -0.95905191518E+03  0.95905191519E+03  0.50400001928E-02 0.  1.
    10030    2    1    2    0    0  0.00000000000E+00  0.00000000000E+00 -0.72309160382E+03  0.11950122266E+04  0.95141618348E+03 0.  0.
        1    1    3    3  502    0  0.23655006107E+03  0.26634968686E+03  0.34454236533E+02  0.35788990140E+03  0.50400001928E-02 0. -1.
       -1    1    3    3    0  502 -0.23655006107E+03 -0.26634968686E+03 -0.75754584036E+03  0.83712232520E+03  0.50400001928E-02 0.  1.
</event>
<event>
 5   0  0.1293575E-03  0.1001933E+04  0.7818609E-02  0.9306427E-01
       -1   -1    0    0    0  501  0.00000000000E+00  0.00000000000E+00  0.60077227590E+03  0.60077227592E+03  0.50400001928E-02 0. -1.
        1   -1    0    0  501    0  0.00000000000E+00  0.00000000000E+00 -0.41774130614E+03  0.41774130617E+03  0.50400001928E-02 0.  1.
    10030    2    1    2    0    0  0.00000000000E+00  0.00000000000E+00  0.18303096976E+03  0.10185135821E+04  0.10019329224E+04 0.  0.
        4    1    3    3  502    0 -0.45646196233E+03 -0.12018973811E+03  0.26211005946E+03  0.53991331931E+03  0.12699999809E+01 0. -1.
       -4    1    3    3    0  502  0.45646196233E+03  0.12018973811E+03 -0.79079089697E+02  0.47860026278E+03  0.12699999809E+01 0.  1.
</event>
<event>
 5   0  0.2255142E-03  0.1000299E+04  0.7818609E-02  0.9308217E-01
        2   -1    0    0  501    0  0.00000000000E+00  0.00000000000E+00  0.44563874796E+03  0.44563874797E+03  0.25500000920E-02 0.  1.
       -2   -1    0    0    0  501  0.00000000000E+00  0.00000000000E+00 -0.56132798392E+03  0.56132798393E+03  0.25500000920E-02 0. -1.
    10030    2    1    2    0    0  0.00000000000E+00  0.00000000000E+00 -0.11568923596E+03  0.10069667319E+04  0.10002989552E+04 0.  0.
        4    1    3    3  502    0  0.45792745840E+03 -0.17861515307E+03 -0.15091062194E+03  0.51417561084E+03  0.12699999809E+01 0. -1.
       -4    1    3    3    0  502 -0.45792745840E+03  0.17861515307E+03  0.35221385976E+02  0.49279112106E+03  0.12699999809E+01 0.  1.
</event>
<event>
 5   0  0.1353789E-03  0.9976413E+03  0.7818609E-02  0.9311136E-01
       -1   -1    0    0    0  501  0.00000000000E+00  0.00000000000E+00  0.33160739208E+03  0.33160739212E+03  0.50400001928E-02 0. -1.
        1   -1    0    0  501    0  0.00000000000E+00  0.00000000000E+00 -0.75035129351E+03  0.75035129353E+03  0.50400001928E-02 0.  1.
    10030    2    1    2    0    0  0.00000000000E+00  0.00000000000E+00 -0.41874390142E+03  0.10819586856E+04  0.99764128948E+03 0.  0.
        1    1    3    3  502    0  0.24430333512E+02  0.11167980167E+03 -0.73595237169E+03  0.74477856623E+03  0.50400001928E-02 0.  1.
       -1    1    3    3    0  502 -0.24430333512E+02 -0.11167980167E+03  0.31720847027E+03  0.33718011942E+03  0.50400001928E-02 0. -1.
</event>
<event>
 5   0  0.2204862E-03  0.1000161E+04  0.7818609E-02  0.9308368E-01
       -2   -1    0    0    0  501  0.00000000000E+00  0.00000000000E+00  0.72745880453E+03  0.72745880453E+03  0.25500000920E-02 0. -1.
        2   -1    0    0  501    0  0.00000000000E+00  0.00000000000E+00 -0.34377265330E+03  0.34377265331E+03  0.25500000920E-02 0.  1.
    10030    2    1    2    0    0  0.00000000000E+00  0.00000000000E+00  0.38368615123E+03  0.10712314578E+04  0.10001608739E+04 0.  0.
        1    1    3    3  502    0  0.45944181453E+03 -0.18730235144E+03  0.12485698125E+03  0.51162312066E+03  0.50400001928E-02 0. -1.
       -1    1    3    3    0  502 -0.45944181453E+03  0.18730235144E+03  0.25882916997E+03  0.55960833719E+03  0.50400001928E-02 0.  1.
</event>
<event>
 5   0  0.8680125E-04  0.1000758E+04  0.7818609E-02  0.9307713E-01
       -3   -1    0    0    0  501  0.00000000000E+00  0.00000000000E+00  0.92684628071E+03  0.92684628621E+03  0.10100000352E+00 0.  1.
        3   -1    0    0  501    0  0.00000000000E+00  0.00000000000E+00 -0.27014119863E+03  0.27014121751E+03  0.10100000352E+00 0. -1.
    10030    2    1    2    0    0  0.00000000000E+00  0.00000000000E+00  0.65670508207E+03  0.11969875037E+04  0.10007584720E+04 0.  0.
        2    1    3    3  502    0  0.64800725167E+02 -0.51288903290E+02 -0.26192211320E+03  0.27465046691E+03  0.25500000920E-02 0. -1.
       -2    1    3    3    0  502 -0.64800725167E+02  0.51288903290E+02  0.91862719527E+03  0.92233703682E+03  0.25500000920E-02 0.  1.
</event>
<event>
 5   0  0.1285769E-03  0.1001598E+04  0.7818609E-02  0.9306794E-01
        1   -1    0    0  501    0  0.00000000000E+00  0.00000000000E+00  0.93575313811E+03  0.93575313812E+03  0.50400001928E-02 0. -1.
       -1   -1    0    0    0  501  0.00000000000E+00  0.00000000000E+00 -0.26801903434E+03  0.26801903439E+03  0.50400001928E-02 0.  1.
    10030    2    1    2    0    0  0.00000000000E+00  0.00000000000E+00  0.66773410377E+03  0.12037721725E+04  0.10015980281E+04 0.  0.
        5    1    3    3  502    0 -0.12096851971E+03 -0.16304632559E+03 -0.21631334435E+03  0.29670025277E+03  0.46999998093E+01 0.  1.
       -5    1    3    3    0  502  0.12096851971E+03  0.16304632559E+03  0.88404744812E+03  0.90707191974E+03  0.46999998093E+01 0. -1.
</event>
<event>
 5   0  0.2277570E-03  0.1000613E+04  0.7818609E-02  0.9307872E-01
        2   -1    0    0  501    0  0.00000000000E+00  0.00000000000E+00  0.11285551078E+04  0.11285551078E+04  0.25500000920E-02 0.  1.
       -2   -1    0    0    0  501  0.00000000000E+00  0.00000000000E+00 -0.22179400852E+03  0.22179400854E+03  0.25500000920E-02 0. -1.
    10030    2    1    2    0    0  0.00000000000E+00  0.00000000000E+00  0.90676109923E+03  0.13503491163E+04  0.10006133343E+04 0.  0.
        3    1    3    3  502    0  0.39133610408E+03 -0.40888071660E+02  0.87040443619E+03  0.95520661299E+03  0.10100000352E+00 0.  1.
       -3    1    3    3    0  502 -0.39133610408E+03  0.40888071660E+02  0.36356663038E+02  0.39514250330E+03  0.10100000352E+00 0. -1.
</event>
<event>
 5   0  0.1353789E-03  0.9934641E+03  0.7818609E-02  0.9315742E-01
        1   -1    0    0  501    0  0.00000000000E+00  0.00000000000E+00  0.78936243524E+03  0.78936243526E+03  0.50400001928E-02 0.  1.
       -1   -1    0    0    0  501  0.00000000000E+00  0.00000000000E+00 -0.31258484478E+03  0.31258484482E+03  0.50400001928E-02 0. -1.
    10030    2    1    2    0    0  0.00000000000E+00  0.00000000000E+00  0.47677759047E+03  0.11019472801E+04  0.99346410972E+03 0.  0.
        1    1    3    3  502    0 -0.73239894438E+02 -0.47716416657E+03  0.10859375349E+03  0.49481544774E+03  0.50400001928E-02 0.  1.
       -1    1    3    3    0  502  0.73239894438E+02  0.47716416657E+03  0.36818383698E+03  0.60713183234E+03  0.50400001928E-02 0. -1.
</event>
<event>
 5   0  0.1285769E-03  0.9977765E+03  0.7818609E-02  0.9310987E-01
       -1   -1    0    0    0  501  0.00000000000E+00  0.00000000000E+00  0.17471416490E+03  0.17471416497E+03  0.50400001928E-02 0. -1.
        1   -1    0    0  501    0  0.00000000000E+00  0.00000000000E+00 -0.14245524721E+04  0.14245524721E+04  0.50400001928E-02 0.  1.
    10030    2    1    2    0    0  0.00000000000E+00  0.00000000000E+00 -0.12498383072E+04  0.15992666371E+04  0.99777651924E+03 0.  0.
        5    1    3    3  502    0  0.22739283963E+03  0.25354918937E+03 -0.12091782670E+04  0.12562359915E+04  0.46999998093E+01 0.  1.
       -5    1    3    3    0  502 -0.22739283963E+03 -0.25354918937E+03 -0.40660040207E+02  0.34303064559E+03  0.46999998093E+01 0. -1.
</event>
<event>
 5   0  0.8680125E-04  0.1001256E+04  0.7818609E-02  0.9307168E-01
       -3   -1    0    0    0  501  0.00000000000E+00  0.00000000000E+00  0.59355972724E+03  0.59355973583E+03  0.10100000352E+00 0. -1.
        3   -1    0    0  501    0  0.00000000000E+00  0.00000000000E+00 -0.42224667101E+03  0.42224668309E+03  0.10100000352E+00 0.  1.
    10030    2    1    2    0    0  0.00000000000E+00  0.00000000000E+00  0.17131305623E+03  0.10158064189E+04  0.10012564694E+04 0.  0.
        1    1    3    3  502    0 -0.33078564788E+03  0.11873704637E+03 -0.27605069581E+03  0.44690224625E+03  0.50400001928E-02 0.  1.
       -1    1    3    3    0  502  0.33078564788E+03 -0.11873704637E+03  0.44736375204E+03  0.56890417267E+03  0.50400001928E-02 0. -1.
</event>
<event>
 5   0  0.2264577E-03  0.9837960E+03  0.7818609E-02  0.9326498E-01
        2   -1    0    0  501    0  0.00000000000E+00  0.00000000000E+00  0.30956371768E+03  0.30956371769E+03  0.25500000920E-02 0. -1.
       -2   -1    0    0    0  501  0.00000000000E+00  0.00000000000E+00 -0.78162784717E+03  0.78162784718E+03  0.25500000920E-02 0.  1.
    10030    2    1    2    0    0  0.00000000000E+00  0.00000000000E+00 -0.47206412949E+03  0.10911915649E+04  0.98379595897E+03 0.  0.
        5    1    3    3  502    0  0.32736683281E+03 -0.13462793385E+03  0.14278911973E+03  0.38171264913E+03  0.46999998093E+01 0. -1.
       -5    1    3    3    0  502 -0.32736683281E+03  0.13462793385E+03 -0.61485324923E+03  0.70947891574E+03  0.46999998093E+01 0.  1.
</event>
<event>
 5   0  0.1353789E-03  0.9950279E+03  0.7818609E-02  0.9314015E-01
        1   -1    0    0  501    0  0.00000000000E+00  0.00000000000E+00  0.55132669377E+03  0.55132669379E+03  0.50400001928E-02 0. -1.
       -1   -1    0    0    0  501  0.00000000000E+00  0.00000000000E+00 -0.44895364516E+03  0.44895364519E+03  0.50400001928E-02 0.  1.
    10030    2    1    2    0    0  0.00000000000E+00  0.00000000000E+00  0.10237304861E+03  0.10002803390E+04  0.99502789684E+03 0.  0.
        1    1    3    3  502    0  0.37557985428E+03 -0.14918017149E+03  0.34289958617E+03  0.52999535538E+03  0.50400001928E-02 0. -1.
       -1    1    3    3    0  502 -0.37557985428E+03  0.14918017149E+03 -0.24052653756E+03  0.47028498360E+03  0.50400001928E-02 0.  1.
</event>
<event>
 5   0  0.1285769E-03  0.9515685E+03  0.7818609E-02  0.9363319E-01
       -1   -1    0    0    0  501  0.00000000000E+00  0.00000000000E+00  0.16951803980E+03  0.16951803988E+03  0.50400001928E-02 0.  1.
        1   -1    0    0  501    0  0.00000000000E+00  0.00000000000E+00 -0.13353780629E+04  0.13353780629E+04  0.50400001928E-02 0. -1.
    10030    2    1    2    0    0  0.00000000000E+00  0.00000000000E+00 -0.11658600231E+04  0.15048961028E+04  0.95156854021E+03 0.  0.
        5    1    3    3  502    0 -0.37481943290E+03  0.27578053399E+03 -0.73952204959E+03  0.87376167348E+03  0.46999998093E+01 0.  1.
       -5    1    3    3    0  502  0.37481943290E+03 -0.27578053399E+03 -0.42633797350E+03  0.63113442930E+03  0.46999998093E+01 0. -1.
</event>
<event>
 5   0  0.1293716E-03  0.1000374E+04  0.7818609E-02  0.9308134E-01
        1   -1    0    0  501    0  0.00000000000E+00  0.00000000000E+00  0.85353253646E+03  0.85353253647E+03  0.50400001928E-02 0. -1.
       -1   -1    0    0    0  501  0.00000000000E+00  0.00000000000E+00 -0.29311966545E+03  0.29311966550E+03  0.50400001928E-02 0.  1.
    10030    2    1    2    0    0  0.00000000000E+00  0.00000000000E+00  0.56041287101E+03  0.11466522020E+04  0.10003742731E+04 0.  0.
        3    1    3    3  502    0 -0.10038836935E+03  0.42868364235E+03  0.55227373762E+03  0.70629581719E+03  0.10100000352E+00 0. -1.
       -3    1    3    3    0  502  0.10038836935E+03 -0.42868364235E+03  0.81391333854E+01  0.44035638478E+03  0.10100000352E+00 0.  1.
</event>
<event>
 5   0  0.2255142E-03  0.9965700E+03  0.7818609E-02  0.9312315E-01
        2   -1    0    0  501    0  0.00000000000E+00  0.00000000000E+00  0.26089866726E+03  0.26089866727E+03  0.25500000920E-02 0. -1.
       -2   -1    0    0    0  501  0.00000000000E+00  0.00000000000E+00 -0.95166432411E+03  0.95166432412E+03  0.25500000920E-02 0.  1.
    10030    2    1    2    0    0  0.00000000000E+00  0.00000000000E+00 -0.69076565686E+03  0.12125629914E+04  0.99657002533E+03 0.  0.
        4    1    3    3  502    0  0.18568725501E+03 -0.22503141810E+03 -0.83687119807E+03  0.88626966035E+03  0.12699999809E+01 0.  1.
       -4    1    3    3    0  502 -0.18568725501E+03  0.22503141810E+03  0.14610554121E+03  0.32629333103E+03  0.12699999809E+01 0. -1.
</event>
<event>
 5   0  0.1249195E-03  0.1000631E+04  0.7818609E-02  0.9307853E-01
        1   -1    0    0  501    0  0.00000000000E+00  0.00000000000E+00  0.69551927576E+03  0.69551927577E+03  0.50400001928E-02 0. -1.
       -1   -1    0    0    0  501  0.00000000000E+00  0.00000000000E+00 -0.35989761166E+03  0.35989761170E+03  0.50400001928E-02 0.  1.
    10030    2    1    2    0    0  0.00000000000E+00  0.00000000000E+00  0.33562166409E+03  0.10554168875E+04  0.10006312532E+04 0.  0.
        2    1    3    3  502    0 -0.17063252376E+03  0.36047492902E+03  0.48644010434E+03  0.62903227877E+03  0.25500000920E-02 0. -1.
       -2    1    3    3    0  502  0.17063252376E+03 -0.36047492902E+03 -0.15081844024E+03  0.42638460871E+03  0.25500000920E-02 0.  1.
</event>
<event>
 5   0  0.8680125E-04  0.9959071E+03  0.7818609E-02  0.9313045E-01
        3   -1    0    0  501    0  0.00000000000E+00  0.00000000000E+00  0.35630534674E+03  0.35630536106E+03  0.10100000352E+00 0. -1.
       -3   -1    0    0    0  501  0.00000000000E+00  0.00000000000E+00 -0.69591359007E+03  0.69591359739E+03  0.10100000352E+00 0.  1.
    10030    2    1    2    0    0  0.00000000000E+00  0.00000000000E+00 -0.33960824332E+03  0.10522189584E+04  0.99590711293E+03 0.  0.
        2    1    3    3  502    0  0.82534679531E+02  0.23436626936E+03  0.28612609628E+03  0.37895601924E+03  0.25500000920E-02 0. -1.
       -2    1    3    3    0  502 -0.82534679531E+02 -0.23436626936E+03 -0.62573433961E+03  0.67326293921E+03  0.25500000920E-02 0.  1.
</event>
<event>
 5   0  0.2204862E-03  0.9997648E+03  0.7818609E-02  0.9308803E-01
       -2   -1    0    0    0  501  0.00000000000E+00  0.00000000000E+00  0.19485128922E+03  0.19485128924E+03  0.25500000920E-02 0.  1.
        2   -1    0    0  501    0  0.00000000000E+00  0.00000000000E+00 -0.12824261647E+04  0.12824261647E+04  0.25500000920E-02 0. -1.
    10030    2    1    2    0    0  0.00000000000E+00  0.00000000000E+00 -0.10875748754E+04  0.14772774539E+04  0.99976475539E+03 0.  0.
        1    1    3    3  502    0 -0.23308958673E+02  0.12969421523E+03  0.16872589983E+03  0.21408485775E+03  0.50400001928E-02 0.  1.
       -1    1    3    3    0  502  0.23308958673E+02 -0.12969421523E+03 -0.12563007753E+04  0.12631925961E+04  0.50400001928E-02 0. -1.
</event>
<event>
 5   0  0.2255142E-03  0.9973742E+03  0.7818609E-02  0.9311429E-01
        2   -1    0    0  501    0  0.00000000000E+00  0.00000000000E+00  0.99528662395E+03  0.99528662395E+03  0.25500000920E-02 0. -1.
       -2   -1    0    0    0  501  0.00000000000E+00  0.00000000000E+00 -0.24986655759E+03  0.24986655760E+03  0.25500000920E-02 0.  1.
    10030    2    1    2    0    0  0.00000000000E+00  0.00000000000E+00  0.74542006636E+03  0.12451531816E+04  0.99737423779E+03 0.  0.
        4    1    3    3  502    0  0.21049437436E+03 -0.44853212485E+03  0.30210706740E+03  0.58030960852E+03  0.12699999809E+01 0.  1.
       -4    1    3    3    0  502 -0.21049437436E+03  0.44853212485E+03  0.44331299895E+03  0.66484357303E+03  0.12699999809E+01 0. -1.
</event>
<event>
 5   0  0.2255142E-03  0.1000016E+04  0.7818609E-02  0.9308527E-01
        2   -1    0    0  501    0  0.00000000000E+00  0.00000000000E+00  0.19010225802E+04  0.19010225803E+04  0.25500000920E-02 0.  1.
       -2   -1    0    0    0  501  0.00000000000E+00  0.00000000000E+00 -0.13151235890E+03  0.13151235892E+03  0.25500000920E-02 0. -1.
    10030    2    1    2    0    0  0.00000000000E+00  0.00000000000E+00  0.17695102214E+04  0.20325349392E+04  0.10000159276E+04 0.  0.
        4    1    3    3  502    0 -0.10365165738E+03 -0.34104958939E+03  0.17207999658E+03  0.39581766841E+03  0.12699999809E+01 0. -1.
       -4    1    3    3    0  502  0.10365165738E+03  0.34104958939E+03  0.15974302248E+04  0.16367172708E+04  0.12699999809E+01 0.  1.
</event>
<event>
 5   0  0.2255142E-03  0.9872712E+03  0.7818609E-02  0.9322617E-01
        2   -1    0    0  501    0  0.00000000000E+00  0.00000000000E+00  0.20107898498E+04  0.20107898498E+04  0.25500000920E-02 0. -1.
       -2   -1    0    0    0  501  0.00000000000E+00  0.00000000000E+00 -0.12118428410E+03  0.12118428413E+03  0.25500000920E-02 0.  1.
    10030    2    1    2    0    0  0.00000000000E+00  0.00000000000E+00  0.18896055657E+04  0.21319741339E+04  0.98727124632E+03 0.  0.
        4    1    3    3  502    0  0.31625244667E+03  0.34588976798E+03  0.12794787108E+04  0.13626161330E+04  0.12699999809E+01 0. -1.
       -4    1    3    3    0  502 -0.31625244667E+03 -0.34588976798E+03  0.61012685488E+03  0.76935800091E+03  0.12699999809E+01 0.  1.
</event>
<event>
 5   0  0.2277570E-03  0.9971176E+03  0.7818609E-02  0.9311712E-01
       -2   -1    0    0    0  501  0.00000000000E+00  0.00000000000E+00  0.25390029274E+03  0.25390029275E+03  0.25500000920E-02 0. -1.
        2   -1    0    0  501    0  0.00000000000E+00  0.00000000000E+00 -0.97897046548E+03  0.97897046548E+03  0.25500000920E-02 0.  1.
    10030    2    1    2    0    0  0.00000000000E+00  0.00000000000E+00 -0.72507017274E+03  0.12328707582E+04  0.99711762151E+03 0.  0.
        3    1    3    3  502    0  0.42521038421E+03 -0.22756634645E+03 -0.20628103129E+03  0.52453997650E+03  0.10100000352E+00 0. -1.
       -3    1    3    3    0  502 -0.42521038421E+03  0.22756634645E+03 -0.51878914145E+03  0.70833078174E+03  0.10100000352E+00 0.  1.
</event>
<event>
 5   0  0.1293716E-03  0.9881587E+03  0.7818609E-02  0.9321628E-01
        1   -1    0    0  501    0  0.00000000000E+00  0.00000000000E+00  0.19991101889E+03  0.19991101895E+03  0.50400001928E-02 0.  1.
       -1   -1    0    0    0  501  0.00000000000E+00  0.00000000000E+00 -0.12211154176E+04  0.12211154176E+04  0.50400001928E-02 0. -1.
    10030    2    1    2    0    0  0.00000000000E+00  0.00000000000E+00 -0.10212043987E+04  0.14210264365E+04  0.98815874708E+03 0.  0.
        3    1    3    3  502    0  0.42394858585E+02  0.14899200606E+03 -0.11852912872E+04  0.11953708160E+04  0.10100000352E+00 0. -1.
       -3    1    3    3    0  502 -0.42394858585E+02 -0.14899200606E+03  0.16408688853E+03  0.22565562057E+03  0.10100000352E+00 0.  1.
</event>
<event>
 5   0  0.1293575E-03  0.1007058E+04  0.7818609E-02  0.9300837E-01
        1   -1    0    0  501    0  0.00000000000E+00  0.00000000000E+00  0.51952881647E+03  0.51952881649E+03  0.50400001928E-02 0.  1.
       -1   -1    0    0    0  501  0.00000000000E+00  0.00000000000E+00 -0.48802218384E+03  0.48802218386E+03  0.50400001928E-02 0. -1.
    10030    2    1    2    0    0  0.00000000000E+00  0.00000000000E+00  0.31506632629E+02  0.10075510004E+04  0.10070582656E+04 0.  0.
        4    1    3    3  502    0 -0.14878409443E+03  0.47192431907E+03  0.10902287992E+03  0.50669208690E+03  0.12699999809E+01 0.  1.
       -4    1    3    3    0  502  0.14878409443E+03 -0.47192431907E+03 -0.77516247287E+02  0.50085891345E+03  0.12699999809E+01 0. -1.
</event>
<event>
 5   0  0.2277570E-03  0.1001311E+04  0.7818609E-02  0.9307108E-01
        2   -1    0    0  501    0  0.00000000000E+00  0.00000000000E+00  0.15345257105E+04  0.15345257105E+04  0.25500000920E-02 0. -1.
       -2   -1    0    0    0  501  0.00000000000E+00  0.00000000000E+00 -0.16334421180E+03  0.16334421182E+03  0.25500000920E-02 0.  1.
    10030    2    1    2    0    0  0.00000000000E+00  0.00000000000E+00  0.13711814988E+04  0.16978699224E+04  0.10013109261E+04 0.  0.
        3    1    3    3  502    0 -0.48565103068E+03 -0.23013911879E+02  0.48303849581E+03  0.68535593846E+03  0.10100000352E+00 0.  1.
       -3    1    3    3    0  502  0.48565103068E+03  0.23013911879E+02  0.88814300294E+03  0.10125139839E+04  0.10100000352E+00 0. -1.
</event>
<event>
 5   0  0.2284843E-03  0.1000448E+04  0.7818609E-02  0.9308053E-01
        2   -1    0    0  501    0  0.00000000000E+00  0.00000000000E+00  0.20563196810E+04  0.20563196810E+04  0.25500000920E-02 0. -1.
       -2   -1    0    0    0  501  0.00000000000E+00  0.00000000000E+00 -0.12168548487E+03  0.12168548490E+03  0.25500000920E-02 0.  1.
    10030    2    1    2    0    0  0.00000000000E+00  0.00000000000E+00  0.19346341961E+04  0.21780051659E+04  0.10004484144E+04 0.  0.
        2    1    3    3  502    0  0.42051217239E+03 -0.21609466782E+03  0.61160852133E+03  0.77304099242E+03  0.25500000920E-02 0.  1.
       -2    1    3    3    0  502 -0.42051217239E+03  0.21609466782E+03  0.13230256748E+04  0.14049641735E+04  0.25500000920E-02 0. -1.
</event>
<event>
 5   0  0.1353789E-03  0.9753459E+03  0.7818609E-02  0.9336006E-01
       -1   -1    0    0    0  501  0.00000000000E+00  0.00000000000E+00  0.17139552430E+03  0.17139552437E+03  0.50400001928E-02 0.  1.
        1   -1    0    0  501    0  0.00000000000E+00  0.00000000000E+00 -0.13875795401E+04  0.13875795401E+04  0.50400001928E-02 0. -1.
    10030    2    1    2    0    0  0.00000000000E+00  0.00000000000E+00 -0.12161840158E+04  0.15589750645E+04  0.97534593423E+03 0.  0.
        1    1    3    3  502    0  0.13750311072E+03  0.26626704594E+03  0.68585754872E+01  0.29975370772E+03  0.50400001928E-02 0.  1.
       -1    1    3    3    0  502 -0.13750311072E+03 -0.26626704594E+03 -0.12230425913E+04  0.12592213568E+04  0.50400001928E-02 0. -1.
</event>
<event>
 5   0  0.2204862E-03  0.9910190E+03  0.7818609E-02  0.9318450E-01
       -2   -1    0    0    0  501  0.00000000000E+00  0.00000000000E+00  0.45351822712E+03  0.45351822713E+03  0.25500000920E-02 0.  1.
        2   -1    0    0  501    0  0.00000000000E+00  0.00000000000E+00 -0.54138870035E+03  0.54138870036E+03  0.25500000920E-02 0. -1.
    10030    2    1    2    0    0  0.00000000000E+00  0.00000000000E+00 -0.87870473230E+02  0.99490692749E+03  0.99101895759E+03 0.  0.
        1    1    3    3  502    0  0.42320924936E+03  0.17107444889E+02  0.21423296078E+03  0.47465197242E+03  0.50400001928E-02 0.  1.
       -1    1    3    3    0  502 -0.42320924936E+03 -0.17107444889E+02 -0.30210343401E+03  0.52025495507E+03  0.50400001928E-02 0. -1.
</event>
<event>
 5   0  0.1249195E-03  0.9989441E+03  0.7818609E-02  0.9309704E-01
       -1   -1    0    0    0  501  0.00000000000E+00  0.00000000000E+00  0.13143024336E+03  0.13143024346E+03  0.50400001928E-02 0.  1.
        1   -1    0    0  501    0  0.00000000000E+00  0.00000000000E+00 -0.18981348216E+04  0.18981348216E+04  0.50400001928E-02 0. -1.
    10030    2    1    2    0    0  0.00000000000E+00  0.00000000000E+00 -0.17667045783E+04  0.20295650651E+04  0.99894408580E+03 0.  0.
        2    1    3    3  502    0  0.19938286995E+02 -0.42423865091E+03 -0.34929313601E+03  0.54989241046E+03  0.25500000920E-02 0.  1.
       -2    1    3    3    0  502 -0.19938286995E+02  0.42423865091E+03 -0.14174114423E+04  0.14796726546E+04  0.25500000920E-02 0. -1.
</event>
<event>
 5   0  0.2264577E-03  0.1001376E+04  0.7818609E-02  0.9307037E-01
       -2   -1    0    0    0  501  0.00000000000E+00  0.00000000000E+00  0.75255216871E+03  0.75255216871E+03  0.25500000920E-02 0. -1.
        2   -1    0    0  501    0  0.00000000000E+00  0.00000000000E+00 -0.33311753204E+03  0.33311753205E+03  0.25500000920E-02 0.  1.
    10030    2    1    2    0    0  0.00000000000E+00  0.00000000000E+00  0.41943463667E+03  0.10856697008E+04  0.10013756961E+04 0.  0.
        5    1    3    3  502    0  0.12786439108E+03 -0.47276603317E+03  0.32243643560E+03  0.58638244314E+03  0.46999998093E+01 0. -1.
       -5    1    3    3    0  502 -0.12786439108E+03  0.47276603317E+03  0.96998201072E+02  0.49928725763E+03  0.46999998093E+01 0.  1.
</event>
<event>
 5   0  0.1249195E-03  0.9959851E+03  0.7818609E-02  0.9312959E-01
       -1   -1    0    0    0  501  0.00000000000E+00  0.00000000000E+00  0.24919857087E+03  0.24919857092E+03  0.50400001928E-02 0.  1.
        1   -1    0    0  501    0  0.00000000000E+00  0.00000000000E+00 -0.99517657168E+03  0.99517657169E+03  0.50400001928E-02 0. -1.
    10030    2    1    2    0    0  0.00000000000E+00  0.00000000000E+00 -0.74597800081E+03  0.12443751426E+04  0.99598509922E+03 0.  0.
        2    1    3    3  502    0 -0.47295838528E+03 -0.99977122680E+01 -0.56737674933E+03  0.73871913752E+03  0.25500000920E-02 0. -1.
       -2    1    3    3    0  502  0.47295838528E+03  0.99977122680E+01 -0.17860125148E+03  0.50565600509E+03  0.25500000920E-02 0.  1.
</event>
<event>
 5   0  0.1293716E-03  0.1003802E+04  0.7818609E-02  0.9304384E-01
       -1   -1    0    0    0  501  0.00000000000E+00  0.00000000000E+00  0.81675459561E+03  0.81675459563E+03  0.50400001928E-02 0.  1.
        1   -1    0    0  501    0  0.00000000000E+00  0.00000000000E+00 -0.30842164401E+03  0.30842164405E+03  0.50400001928E-02 0. -1.
    10030    2    1    2    0    0  0.00000000000E+00  0.00000000000E+00  0.50833295161E+03  0.11251762397E+04  0.10038023613E+04 0.  0.
        3    1    3    3  502    0 -0.21637303239E+03  0.34129654745E+03 -0.79489879995E+02  0.41184860527E+03  0.10100000352E+00 0. -1.
       -3    1    3    3    0  502  0.21637303239E+03 -0.34129654745E+03  0.58782283160E+03  0.71332763440E+03  0.10100000352E+00 0.  1.
</event>
<event>
 5   0  0.1285769E-03  0.1001832E+04  0.7818609E-02  0.9306537E-01
        1   -1    0    0  501    0  0.00000000000E+00  0.00000000000E+00  0.53770291985E+03  0.53770291987E+03  0.50400001928E-02 0. -1.
       -1   -1    0    0    0  501  0.00000000000E+00  0.00000000000E+00 -0.46664611633E+03  0.46664611635E+03  0.50400001928E-02 0.  1.
    10030    2    1    2    0    0  0.00000000000E+00  0.00000000000E+00  0.71056803520E+02  0.10043490362E+04  0.10018322800E+04 0.  0.
        5    1    3    3  502    0  0.31817066811E+03 -0.18733522809E+03 -0.30380060451E+03  0.47816729188E+03  0.46999998093E+01 0.  1.
       -5    1    3    3    0  502 -0.31817066811E+03  0.18733522809E+03  0.37485740803E+03  0.52618174434E+03  0.46999998093E+01 0. -1.
</event>
<event>
 5   0  0.2204862E-03  0.1000482E+04  0.7818609E-02  0.9308016E-01
       -2   -1    0    0    0  501  0.00000000000E+00  0.00000000000E+00  0.15808591102E+03  0.15808591104E+03  0.25500000920E-02 0.  1.
        2   -1    0    0  501    0  0.00000000000E+00  0.00000000000E+00 -0.15829448283E+04  0.15829448283E+04  0.25500000920E-02 0. -1.
    10030    2    1    2    0    0  0.00000000000E+00  0.00000000000E+00 -0.14248589173E+04  0.17410307394E+04  0.10004824342E+04 0.  0.
        1    1    3    3  502    0  0.18970342574E+03 -0.14654123560E+03 -0.14764894411E+04  0.14958217785E+04  0.50400001928E-02 0. -1.
       -1    1    3    3    0  502 -0.18970342574E+03  0.14654123560E+03  0.51630523781E+02  0.24520896084E+03  0.50400001928E-02 0.  1.
</event>
<event>
 5   0  0.1293716E-03  0.1003028E+04  0.7818609E-02  0.9305231E-01
       -1   -1    0    0    0  501  0.00000000000E+00  0.00000000000E+00  0.53221639947E+03  0.53221639949E+03  0.50400001928E-02 0. -1.
        1   -1    0    0  501    0  0.00000000000E+00  0.00000000000E+00 -0.47258228741E+03  0.47258228744E+03  0.50400001928E-02 0.  1.
    10030    2    1    2    0    0  0.00000000000E+00  0.00000000000E+00  0.59634112057E+02  0.10047986869E+04  0.10030275041E+04 0.  0.
        3    1    3    3  502    0 -0.15059251008E+03 -0.39262878065E+03  0.30357707878E+03  0.51864681282E+03  0.10100000352E+00 0. -1.
       -3    1    3    3    0  502  0.15059251008E+03  0.39262878065E+03 -0.24394296673E+03  0.48615187411E+03  0.10100000352E+00 0.  1.
</event>
<event>
 5   0  0.2284843E-03  0.9981161E+03  0.7818609E-02  0.9310613E-01
        2   -1    0    0  501    0  0.00000000000E+00  0.00000000000E+00  0.10806417075E+04  0.10806417075E+04  0.25500000920E-02 0. -1.
       -2   -1    0    0    0  501  0.00000000000E+00  0.00000000000E+00 -0.23047318591E+03  0.23047318593E+03  0.25500000920E-02 0.  1.
    10030    2    1    2    0    0  0.00000000000E+00  0.00000000000E+00  0.85016852154E+03  0.13111148934E+04  0.99811609977E+03 0.  0.
        2    1    3    3  502    0  0.19574170294E+03  0.16845996539E+03 -0.13587441278E+03  0.29181403370E+03  0.25500000920E-02 0.  1.
       -2    1    3    3    0  502 -0.19574170294E+03 -0.16845996539E+03  0.98604293433E+03  0.10193008597E+04  0.25500000920E-02 0. -1.
</event>
<event>
 5   0  0.1293575E-03  0.9994018E+03  0.7818609E-02  0.9309201E-01
       -1   -1    0    0    0  501  0.00000000000E+00  0.00000000000E+00  0.21317011604E+03  0.21317011610E+03  0.50400001928E-02 0. -1.
        1   -1    0    0  501    0  0.00000000000E+00  0.00000000000E+00 -0.11713696488E+04  0.11713696488E+04  0.50400001928E-02 0.  1.
    10030    2    1    2    0    0  0.00000000000E+00  0.00000000000E+00 -0.95819953279E+03  0.13845397649E+04  0.99940182914E+03 0.  0.
        4    1    3    3  502    0 -0.56669970814E+02 -0.40191243977E+03 -0.88289200493E+03  0.97172269712E+03  0.12699999809E+01 0.  1.
       -4    1    3    3    0  502  0.56669970814E+02  0.40191243977E+03 -0.75307527862E+02  0.41281706783E+03  0.12699999809E+01 0. -1.
</event>
<event>
 5   0  0.1285769E-03  0.1006448E+04  0.7818609E-02  0.9301501E-01
       -1   -1    0    0    0  501  0.00000000000E+00  0.00000000000E+00  0.45962585313E+03  0.45962585316E+03  0.50400001928E-02 0. -1.
        1   -1    0    0  501    0  0.00000000000E+00  0.00000000000E+00 -0.55095788458E+03  0.55095788460E+03  0.50400001928E-02 0.  1.
    10030    2    1    2    0    0  0.00000000000E+00  0.00000000000E+00 -0.91332031453E+02  0.10105837378E+04  0.10064481860E+04 0.  0.
        5    1    3    3  502    0  0.46016211980E+03 -0.15824803553E+03 -0.17433615827E+03  0.51692050000E+03  0.46999998093E+01 0.  1.
       -5    1    3    3    0  502 -0.46016211980E+03  0.15824803553E+03  0.83004126814E+02  0.49366323776E+03  0.46999998093E+01 0. -1.
</event>
<event>
 5   0  0.2264577E-03  0.1001475E+04  0.7818609E-02  0.9306929E-01
        2   -1    0    0  501    0  0.00000000000E+00  0.00000000000E+00  0.71138880099E+03  0.71138880100E+03  0.25500000920E-02 0.  1.
       -2   -1    0    0    0  501  0.00000000000E+00  0.00000000000E+00 -0.35246258762E+03  0.35246258763E+03  0.25500000920E-02 0. -1.
    10030    2    1    2    0    0  0.00000000000E+00  0.00000000000E+00  0.35892621338E+03  0.10638513886E+04  0.10014747877E+04 0.  0.
        5    1    3    3  502    0 -0.25950893154E+02 -0.47898127436E+03  0.33200119484E+03  0.58338957260E+03  0.46999998093E+01 0. -1.
       -5    1    3    3    0  502  0.25950893154E+02  0.47898127436E+03  0.26925018533E+02  0.48046181603E+03  0.46999998093E+01 0.  1.
</event>
<event>
 5   0  0.1285769E-03  0.1000938E+04  0.7818609E-02  0.9307516E-01
       -1   -1    0    0    0  501  0.00000000000E+00  0.00000000000E+00  0.31797194736E+03  0.31797194740E+03  0.50400001928E-02 0. -1.
        1   -1    0    0  501    0  0.00000000000E+00  0.00000000000E+00 -0.78770873550E+03  0.78770873552E+03  0.50400001928E-02 0.  1.
    10030    2    1    2    0    0  0.00000000000E+00  0.00000000000E+00 -0.46973678814E+03  0.11056806829E+04  0.10009381212E+04 0.  0.
        5    1    3    3  502    0  0.34663054980E+02  0.45413517754E+03 -0.57860698047E+01  0.45551712972E+03  0.46999998093E+01 0. -1.
       -5    1    3    3    0  502 -0.34663054980E+02 -0.45413517754E+03 -0.46395071834E+03  0.65016355320E+03  0.46999998093E+01 0.  1.
</event>
<event>
 5   0  0.1249195E-03  0.9993764E+03  0.7818609E-02  0.9309229E-01
       -1   -1    0    0    0  501  0.00000000000E+00  0.00000000000E+00  0.30070159974E+03  0.30070159978E+03  0.50400001928E-02 0. -1.
        1   -1    0    0  501    0  0.00000000000E+00  0.00000000000E+00 -0.83035234303E+03  0.83035234305E+03  0.50400001928E-02 0.  1.
    10030    2    1    2    0    0  0.00000000000E+00  0.00000000000E+00 -0.52965074329E+03  0.11310539428E+04  0.99937636139E+03 0.  0.
        2    1    3    3  502    0 -0.34821004938E+03 -0.21206292492E+03 -0.59179888345E+03  0.71864235964E+03  0.25500000920E-02 0.  1.
       -2    1    3    3    0  502  0.34821004938E+03  0.21206292492E+03  0.62148140158E+02  0.41241158318E+03  0.25500000920E-02 0. -1.
</event>
<event>
 5   0  0.2204862E-03  0.1002985E+04  0.7818609E-02  0.9305277E-01
       -2   -1    0    0    0  501  0.00000000000E+00  0.00000000000E+00  0.58561517943E+03  0.58561517943E+03  0.25500000920E-02 0.  1.
        2   -1    0    0  501    0  0.00000000000E+00  0.00000000000E+00 -0.42945404394E+03  0.42945404395E+03  0.25500000920E-02 0. -1.
    10030    2    1    2    0    0  0.00000000000E+00  0.00000000000E+00  0.15616113548E+03  0.10150692234E+04  0.10029851584E+04 0.  0.
        1    1    3    3  502    0  0.28943901673E+03 -0.40269578052E+03  0.15351699924E+03  0.51913996680E+03  0.50400001928E-02 0.  1.
       -1    1    3    3    0  502 -0.28943901673E+03  0.40269578052E+03  0.26441362425E+01  0.49592925658E+03  0.50400001928E-02 0. -1.
</event>
<event>
 5   0  0.1293575E-03  0.9897837E+03  0.7818609E-02  0.9319821E-01
       -1   -1    0    0    0  501  0.00000000000E+00  0.00000000000E+00  0.43772967914E+03  0.43772967917E+03  0.50400001928E-02 0. -1.
        1   -1    0    0  501    0  0.00000000000E+00  0.00000000000E+00 -0.55951866204E+03  0.55951866206E+03  0.50400001928E-02 0.  1.
    10030    2    1    2    0    0  0.00000000000E+00  0.00000000000E+00 -0.12178898289E+03  0.99724834123E+03  0.98978366209E+03 0.  0.
        4    1    3    3  502    0  0.12295896704E+03  0.19220379902E+03 -0.50335917276E+03  0.55266018279E+03  0.12699999809E+01 0.  1.
       -4    1    3    3    0  502 -0.12295896704E+03 -0.19220379902E+03  0.38157018987E+03  0.44458815844E+03  0.12699999809E+01 0. -1.
</event>
<event>
 5   0  0.2204862E-03  0.1010607E+04  0.7818609E-02  0.9296987E-01
       -2   -1    0    0    0  501  0.00000000000E+00  0.00000000000E+00  0.21033872542E+03  0.21033872543E+03  0.25500000920E-02 0. -1.
        2   -1    0    0  501    0  0.00000000000E+00  0.00000000000E+00 -0.12139063023E+04  0.12139063023E+04  0.25500000920E-02 0.  1.
    10030    2    1    2    0    0  0.00000000000E+00  0.00000000000E+00 -0.10035675769E+04  0.14242450278E+04  0.10106067572E+04 0.  0.
        1    1    3    3  502    0  0.28462776775E+03  0.22275781095E+03 -0.99944223593E+03  0.10627882157E+04  0.50400001928E-02 0.  1.
       -1    1    3    3    0  502 -0.28462776775E+03 -0.22275781095E+03 -0.41253409922E+01  0.36145681205E+03  0.50400001928E-02 0. -1.
</event>
<event>
 5   0  0.2204862E-03  0.9902676E+03  0.7818609E-02  0.9319284E-01
       -2   -1    0    0    0  501  0.00000000000E+00  0.00000000000E+00  0.76648476279E+02  0.76648476322E+02  0.25500000920E-02 0.  1.
        2   -1    0    0  501    0  0.00000000000E+00  0.00000000000E+00 -0.31984654020E+04  0.31984654020E+04  0.25500000920E-02 0. -1.
    10030    2    1    2    0    0  0.00000000000E+00  0.00000000000E+00 -0.31218169257E+04  0.32751138783E+04  0.99026763971E+03 0.  0.
        1    1    3    3  502    0 -0.35989258563E+03  0.33827227915E+03 -0.16757957426E+04  0.17470667357E+04  0.50400001928E-02 0. -1.
       -1    1    3    3    0  502  0.35989258563E+03 -0.33827227915E+03 -0.14460211831E+04  0.15280471426E+04  0.50400001928E-02 0.  1.
</event>
<event>
 5   0  0.1293575E-03  0.9911322E+03  0.7818609E-02  0.9318325E-01
        1   -1    0    0  501    0  0.00000000000E+00  0.00000000000E+00  0.28644178098E+03  0.28644178102E+03  0.50400001928E-02 0.  1.
       -1   -1    0    0    0  501  0.00000000000E+00  0.00000000000E+00 -0.85736711545E+03  0.85736711546E+03  0.50400001928E-02 0. -1.
    10030    2    1    2    0    0  0.00000000000E+00  0.00000000000E+00 -0.57092533447E+03  0.11438088965E+04  0.99113220820E+03 0.  0.
        4    1    3    3  502    0 -0.21782987197E+03  0.33611870257E+03 -0.62223462476E+03  0.74000214628E+03  0.12699999809E+01 0. -1.
       -4    1    3    3    0  502  0.21782987197E+03 -0.33611870257E+03  0.51309290292E+02  0.40380675020E+03  0.12699999809E+01 0.  1.
</event>
<event>
 5   0  0.1293716E-03  0.9999026E+03  0.7818609E-02  0.9308652E-01
       -1   -1    0    0    0  501  0.00000000000E+00  0.00000000000E+00  0.90111233553E+02  0.90111233694E+02  0.50400001928E-02 0.  1.
        1   -1    0    0  501    0  0.00000000000E+00  0.00000000000E+00 -0.27738085398E+04  0.27738085398E+04  0.50400001928E-02 0. -1.
    10030    2    1    2    0    0  0.00000000000E+00  0.00000000000E+00 -0.26836973062E+04  0.28639197735E+04  0.99990261399E+03 0.  0.
        3    1    3    3  502    0 -0.40607156221E+03  0.76867316312E+02 -0.21476440205E+04  0.21870476783E+04  0.10100000352E+00 0. -1.
       -3    1    3    3    0  502  0.40607156221E+03 -0.76867316312E+02 -0.53605328572E+03  0.67687209522E+03  0.10100000352E+00 0.  1.
</event>
<event>
 5   0  0.8680125E-04  0.9990853E+03  0.7818609E-02  0.9309549E-01
       -3   -1    0    0    0  501  0.00000000000E+00  0.00000000000E+00  0.11728797812E+03  0.11728802161E+03  0.10100000352E+00 0. -1.
        3   -1    0    0  501    0  0.00000000000E+00  0.00000000000E+00 -0.21276075377E+04  0.21276075401E+04  0.10100000352E+00 0.  1.
    10030    2    1    2    0    0  0.00000000000E+00  0.00000000000E+00 -0.20103195595E+04  0.22448955617E+04  0.99908525728E+03 0.  0.
        5    1    3    3  502    0  0.71642298192E+02 -0.16111181143E+03 -0.20553085795E+04  0.20628633211E+04  0.46999998093E+01 0.  1.
       -5    1    3    3    0  502 -0.71642298192E+02  0.16111181143E+03  0.44989019981E+02  0.18203224052E+03  0.46999998093E+01 0. -1.
</event>
<event>
 5   0  0.2255142E-03  0.1001694E+04  0.7818609E-02  0.9306688E-01
       -2   -1    0    0    0  501  0.00000000000E+00  0.00000000000E+00  0.43052375930E+03  0.43052375931E+03  0.25500000920E-02 0. -1.
        2   -1    0    0  501    0  0.00000000000E+00  0.00000000000E+00 -0.58265760545E+03  0.58265760546E+03  0.25500000920E-02 0.  1.
    10030    2    1    2    0    0  0.00000000000E+00  0.00000000000E+00 -0.15213384615E+03  0.10131813648E+04  0.10016944498E+04 0.  0.
        4    1    3    3  502    0  0.51161426803E+02  0.14641284318E+03  0.40562116204E+03  0.43426299893E+03  0.12699999809E+01 0. -1.
       -4    1    3    3    0  502 -0.51161426803E+02 -0.14641284318E+03 -0.55775500820E+03  0.57891836584E+03  0.12699999809E+01 0.  1.
</event>
<event>
 5   0  0.1293575E-03  0.9981054E+03  0.7818609E-02  0.9310625E-01
       -1   -1    0    0    0  501  0.00000000000E+00  0.00000000000E+00  0.42693572445E+03  0.42693572448E+03  0.50400001928E-02 0.  1.
        1   -1    0    0  501    0  0.00000000000E+00  0.00000000000E+00 -0.58335153254E+03  0.58335153256E+03  0.50400001928E-02 0. -1.
    10030    2    1    2    0    0  0.00000000000E+00  0.00000000000E+00 -0.15641580810E+03  0.10102872570E+04  0.99810542365E+03 0.  0.
        4    1    3    3  502    0 -0.10156228457E+03 -0.44942493445E+03 -0.27226194759E+03  0.53518767770E+03  0.12699999809E+01 0.  1.
       -4    1    3    3    0  502  0.10156228457E+03  0.44942493445E+03  0.11584613949E+03  0.47509957934E+03  0.12699999809E+01 0. -1.
</event>
<event>
 5   0  0.1353789E-03  0.9995404E+03  0.7818609E-02  0.9309049E-01
        1   -1    0    0  501    0  0.00000000000E+00  0.00000000000E+00  0.81047589130E+03  0.81047589132E+03  0.50400001928E-02 0.  1.
       -1   -1    0    0    0  501  0.00000000000E+00  0.00000000000E+00 -0.30817727267E+03  0.30817727271E+03  0.50400001928E-02 0. -1.
    10030    2    1    2    0    0  0.00000000000E+00  0.00000000000E+00  0.50229861863E+03  0.11186531640E+04  0.99954039394E+03 0.  0.
        1    1    3    3  502    0  0.89295213940E+02  0.34096445043E+02 -0.29785233236E+03  0.31281338641E+03  0.50400001928E-02 0. -1.
       -1    1    3    3    0  502 -0.89295213940E+02 -0.34096445043E+02  0.80015095099E+03  0.80583977762E+03  0.50400001928E-02 0.  1.
</event>
<event>
 5   0  0.1285769E-03  0.1000526E+04  0.7818609E-02  0.9307968E-01
        1   -1    0    0  501    0  0.00000000000E+00  0.00000000000E+00  0.30705729542E+03  0.30705729546E+03  0.50400001928E-02 0.  1.
       -1   -1    0    0    0  501  0.00000000000E+00  0.00000000000E+00 -0.81503736932E+03  0.81503736933E+03  0.50400001928E-02 0. -1.
    10030    2    1    2    0    0  0.00000000000E+00  0.00000000000E+00 -0.50798007390E+03  0.11220946648E+04  0.10005262022E+04 0.  0.
        5    1    3    3  502    0 -0.20306698742E+03 -0.72691383568E+02 -0.76018609844E+03  0.79020581678E+03  0.46999998093E+01 0. -1.
       -5    1    3    3    0  502  0.20306698742E+03  0.72691383568E+02  0.25220602454E+03  0.33188884802E+03  0.46999998093E+01 0.  1.
</event>
<event>
 5   0  0.2255142E-03  0.9962557E+03  0.7818609E-02  0.9312661E-01
       -2   -1    0    0    0  501  0.00000000000E+00  0.00000000000E+00  0.25904198591E+03  0.25904198593E+03  0.25500000920E-02 0.  1.
        2   -1    0    0  501    0  0.00000000000E+00  0.00000000000E+00 -0.95788080996E+03  0.95788080997E+03  0.25500000920E-02 0. -1.
    10030    2    1    2    0    0  0.00000000000E+00  0.00000000000E+00 -0.69883882405E+03  0.12169227959E+04  0.99625568464E+03 0.  0.
        4    1    3    3  502    0 -0.23017367125E+03 -0.23210659905E+03 -0.80854017661E+03  0.87211938537E+03  0.12699999809E+01 0. -1.
       -4    1    3    3    0  502  0.23017367125E+03  0.23210659905E+03  0.10970135256E+03  0.34480341052E+03  0.12699999809E+01 0.  1.
</event>
<event>
 5   0  0.2284843E-03  0.9981719E+03  0.7818609E-02  0.9310552E-01
       -2   -1    0    0    0  501  0.00000000000E+00  0.00000000000E+00  0.75168830169E+03  0.75168830169E+03  0.25500000920E-02 0.  1.
        2   -1    0    0  501    0  0.00000000000E+00  0.00000000000E+00 -0.33136979294E+03  0.33136979295E+03  0.25500000920E-02 0. -1.
    10030    2    1    2    0    0  0.00000000000E+00  0.00000000000E+00  0.42031850874E+03  0.10830580946E+04  0.99817192286E+03 0.  0.
        2    1    3    3  502    0 -0.28816785296E+03  0.36279775892E+03  0.41147431173E+03  0.61965638427E+03  0.25500000920E-02 0.  1.
       -2    1    3    3    0  502  0.28816785296E+03 -0.36279775892E+03  0.88441970171E+01  0.46340171038E+03  0.25500000920E-02 0. -1.
</event>
<event>
 5   0  0.1285769E-03  0.1002950E+04  0.7818609E-02  0.9305315E-01
        1   -1    0    0  501    0  0.00000000000E+00  0.00000000000E+00  0.12281017230E+04  0.12281017230E+04  0.50400001928E-02 0.  1.
       -1   -1    0    0    0  501  0.00000000000E+00  0.00000000000E+00 -0.20476904012E+03  0.20476904018E+03  0.50400001928E-02 0. -1.
    10030    2    1    2    0    0  0.00000000000E+00  0.00000000000E+00  0.10233326829E+04  0.14328707632E+04  0.10029500706E+04 0.  0.
        5    1    3    3  502    0 -0.19325514684E+03 -0.12352435550E+03  0.11487401407E+04  0.11714229890E+04  0.46999998093E+01 0.  1.
       -5    1    3    3    0  502  0.19325514684E+03  0.12352435550E+03 -0.12540745781E+03  0.26144777424E+03  0.46999998093E+01 0. -1.
</event>
<event>
 5   0  0.1353789E-03  0.9983467E+03  0.7818609E-02  0.9310360E-01
        1   -1    0    0  501    0  0.00000000000E+00  0.00000000000E+00  0.16697458337E+03  0.16697458344E+03  0.50400001928E-02 0.  1.
       -1   -1    0    0    0  501  0.00000000000E+00  0.00000000000E+00 -0.14922870887E+04  0.14922870887E+04  0.50400001928E-02 0. -1.
    10030    2    1    2    0    0  0.00000000000E+00  0.00000000000E+00 -0.13253125053E+04  0.16592616721E+04  0.99834666318E+03 0.  0.
        1    1    3    3  502    0 -0.10733305769E+03  0.10133059145E+03  0.12987267703E+03  0.19660922231E+03  0.50400001928E-02 0.  1.
       -1    1    3    3    0  502  0.10733305769E+03 -0.10133059145E+03 -0.14551851823E+04  0.14626524498E+04  0.50400001928E-02 0. -1.
</event>
<event>
 5   0  0.2277570E-03  0.1001979E+04  0.7818609E-02  0.9306376E-01
        2   -1    0    0  501    0  0.00000000000E+00  0.00000000000E+00  0.28402796074E+03  0.28402796075E+03  0.25500000920E-02 0.  1.
       -2   -1    0    0    0  501  0.00000000000E+00  0.00000000000E+00 -0.88368300837E+03  0.88368300837E+03  0.25500000920E-02 0. -1.
    10030    2    1    2    0    0  0.00000000000E+00  0.00000000000E+00 -0.59965504763E+03  0.11677109691E+04  0.10019794066E+04 0.  0.
        3    1    3    3  502    0 -0.21474565190E+03  0.79546631052E+01  0.22758926031E+03  0.31301094754E+03  0.10100000352E+00 0.  1.
       -3    1    3    3    0  502  0.21474565190E+03 -0.79546631052E+01 -0.82724430793E+03  0.85470002158E+03  0.10100000352E+00 0. -1.
</event>
<event>
 5   0  0.2255142E-03  0.9975956E+03  0.7818609E-02  0.9311186E-01
       -2   -1    0    0    0  501  0.00000000000E+00  0.00000000000E+00  0.18641024544E+03  0.18641024546E+03  0.25500000920E-02 0.  1.
        2   -1    0    0  501    0  0.00000000000E+00  0.00000000000E+00 -0.13346866047E+04  0.13346866047E+04  0.25500000920E-02 0. -1.
    10030    2    1    2    0    0  0.00000000000E+00  0.00000000000E+00 -0.11482763593E+04  0.15210968502E+04  0.99759562467E+03 0.  0.
        4    1    3    3  502    0  0.35628956645E+03 -0.25544335823E+03 -0.93690386559E+03  0.10344003242E+04  0.12699999809E+01 0. -1.
       -4    1    3    3    0  502 -0.35628956645E+03  0.25544335823E+03 -0.21137249367E+03  0.48669652598E+03  0.12699999809E+01 0.  1.
</event>
<event>
 5   0  0.2255142E-03  0.9999430E+03  0.7818609E-02  0.9308607E-01
       -2   -1    0    0    0  501  0.00000000000E+00  0.00000000000E+00  0.47441164208E+03  0.47441164208E+03  0.25500000920E-02 0. -1.
        2   -1    0    0  501    0  0.00000000000E+00  0.00000000000E+00 -0.52690847908E+03  0.52690847908E+03  0.25500000920E-02 0.  1.
    10030    2    1    2    0    0  0.00000000000E+00  0.00000000000E+00 -0.52496836999E+02  0.10013201212E+04  0.99994303196E+03 0.  0.
        4    1    3    3  502    0  0.38587844154E+03 -0.12277751392E+03  0.26740176814E+03  0.48526467837E+03  0.12699999809E+01 0. -1.
       -4    1    3    3    0  502 -0.38587844154E+03  0.12277751392E+03 -0.31989860514E+03  0.51605544280E+03  0.12699999809E+01 0.  1.
</event>
<event>
 5   0  0.1293716E-03  0.1001095E+04  0.7818609E-02  0.9307345E-01
       -1   -1    0    0    0  501  0.00000000000E+00  0.00000000000E+00  0.27498848493E+03  0.27498848497E+03  0.50400001928E-02 0. -1.
        1   -1    0    0  501    0  0.00000000000E+00  0.00000000000E+00 -0.91112056408E+03  0.91112056410E+03  0.50400001928E-02 0.  1.
    10030    2    1    2    0    0  0.00000000000E+00  0.00000000000E+00 -0.63613207916E+03  0.11861090491E+04  0.10010947279E+04 0.  0.
        3    1    3    3  502    0  0.16640518299E+03 -0.45798996017E+03 -0.18244690340E+03  0.52031948964E+03  0.10100000352E+00 0. -1.
       -3    1    3    3    0  502 -0.16640518299E+03  0.45798996017E+03 -0.45368517576E+03  0.66578955943E+03  0.10100000352E+00 0.  1.
</event>
<event>
 5   0  0.1293716E-03  0.9983742E+03  0.7818609E-02  0.9310330E-01
        1   -1    0    0  501    0  0.00000000000E+00  0.00000000000E+00  0.60419672114E+03  0.60419672116E+03  0.50400001928E-02 0.  1.
       -1   -1    0    0    0  501  0.00000000000E+00  0.00000000000E+00 -0.41242817536E+03  0.41242817539E+03  0.50400001928E-02 0. -1.
    10030    2    1    2    0    0  0.00000000000E+00  0.00000000000E+00  0.19176854578E+03  0.10166248965E+04  0.99837418092E+03 0.  0.
        3    1    3    3  502    0 -0.44812478360E+03  0.21570099976E+03  0.52145624107E+02  0.50006191546E+03  0.10100000352E+00 0. -1.
       -3    1    3    3    0  502  0.44812478360E+03 -0.21570099976E+03  0.13962292168E+03  0.51656298109E+03  0.10100000352E+00 0.  1.
</event>
<event>
 5   0  0.1353789E-03  0.1000885E+04  0.7818609E-02  0.9307575E-01
        1   -1    0    0  501    0  0.00000000000E+00  0.00000000000E+00  0.66948507926E+03  0.66948507928E+03  0.50400001928E-02 0. -1.
       -1   -1    0    0    0  501  0.00000000000E+00  0.00000000000E+00 -0.37408264872E+03  0.37408264875E+03  0.50400001928E-02 0.  1.
    10030    2    1    2    0    0  0.00000000000E+00  0.00000000000E+00  0.29540243054E+03  0.10435677280E+04  0.10008851118E+04 0.  0.
        1    1    3    3  502    0  0.27985520125E+03  0.41141025071E+03  0.20351363266E+03  0.53758266970E+03  0.50400001928E-02 0. -1.
       -1    1    3    3    0  502 -0.27985520125E+03 -0.41141025071E+03  0.91888797881E+02  0.50598505833E+03  0.50400001928E-02 0.  1.
</event>
<event>
 5   0  0.1249195E-03  0.1002087E+04  0.7818609E-02  0.9306259E-01
        1   -1    0    0  501    0  0.00000000000E+00  0.00000000000E+00  0.11128364362E+04  0.11128364362E+04  0.50400001928E-02 0. -1.
       -1   -1    0    0    0  501  0.00000000000E+00  0.00000000000E+00 -0.22558987847E+03  0.22558987852E+03  0.50400001928E-02 0.  1.
    10030    2    1    2    0    0  0.00000000000E+00  0.00000000000E+00  0.88724655777E+03  0.13384263148E+04  0.10020870949E+04 0.  0.
        2    1    3    3  502    0 -0.30953030928E+03 -0.63953215650E+02 -0.75638990098E+02  0.32499274297E+03  0.25500000920E-02 0.  1.
       -2    1    3    3    0  502  0.30953030928E+03  0.63953215650E+02  0.96288554787E+03  0.10134335718E+04  0.25500000920E-02 0. -1.
</event>
<event>
 5   0  0.2277570E-03  0.9943420E+03  0.7818609E-02  0.9314772E-01
        2   -1    0    0  501    0  0.00000000000E+00  0.00000000000E+00  0.17057402876E+04  0.17057402876E+04  0.25500000920E-02 0.  1.
       -2   -1    0    0    0  501  0.00000000000E+00  0.00000000000E+00 -0.14491010236E+03  0.14491010238E+03  0.25500000920E-02 0. -1.
    10030    2    1    2    0    0  0.00000000000E+00  0.00000000000E+00  0.15608301853E+04  0.18506503900E+04  0.99434199288E+03 0.  0.
        3    1    3    3  502    0  0.22102464663E+03 -0.42696010223E+03  0.54475572651E+03  0.72657114936E+03  0.10100000352E+00 0. -1.
       -3    1    3    3    0  502 -0.22102464663E+03  0.42696010223E+03  0.10160744588E+04  0.11240792407E+04  0.10100000352E+00 0.  1.
</event>
<event>
 5   0  0.2277570E-03  0.1001215E+04  0.7818609E-02  0.9307213E-01
        2   -1    0    0  501    0  0.00000000000E+00  0.00000000000E+00  0.18689085229E+04  0.18689085229E+04  0.25500000920E-02 0.  1.
       -2   -1    0    0    0  501  0.00000000000E+00  0.00000000000E+00 -0.13409316532E+03  0.13409316534E+03  0.25500000920E-02 0. -1.
    10030    2    1    2    0    0  0.00000000000E+00  0.00000000000E+00  0.17348153576E+04  0.20030016883E+04  0.10012149810E+04 0.  0.
        3    1    3    3  502    0 -0.21150545512E+03 -0.24500840850E+03  0.16314167500E+04  0.16632150493E+04  0.10100000352E+00 0.  1.
       -3    1    3    3    0  502  0.21150545512E+03  0.24500840850E+03  0.10339860762E+03  0.33978663900E+03  0.10100000352E+00 0. -1.
</event>
<event>
 5   0  0.1293716E-03  0.1012357E+04  0.7818609E-02  0.9295095E-01
        1   -1    0    0  501    0  0.00000000000E+00  0.00000000000E+00  0.52426099115E+03  0.52426099118E+03  0.50400001928E-02 0. -1.
       -1   -1    0    0    0  501  0.00000000000E+00  0.00000000000E+00 -0.48871946104E+03  0.48871946106E+03  0.50400001928E-02 0.  1.
    10030    2    1    2    0    0  0.00000000000E+00  0.00000000000E+00  0.35541530113E+02  0.10129804522E+04  0.10123567535E+04 0.  0.
        3    1    3    3  502    0  0.30193001161E+03 -0.32502083492E+03  0.26167545428E+03  0.51504788963E+03  0.10100000352E+00 0. -1.
       -3    1    3    3    0  502 -0.30193001161E+03  0.32502083492E+03 -0.22613392416E+03  0.49793256261E+03  0.10100000352E+00 0.  1.
</event>
<event>
 5   0  0.2284843E-03  0.1006544E+04  0.7818609E-02  0.9301396E-01
        2   -1    0    0  501    0  0.00000000000E+00  0.00000000000E+00  0.13497079023E+04  0.13497079023E+04  0.25500000920E-02 0.  1.
       -2   -1    0    0    0  501  0.00000000000E+00  0.00000000000E+00 -0.18765753403E+03  0.18765753405E+03  0.25500000920E-02 0. -1.
    10030    2    1    2    0    0  0.00000000000E+00  0.00000000000E+00  0.11620503683E+04  0.15373654364E+04  0.10065442993E+04 0.  0.
        2    1    3    3  502    0  0.13980214480E+03  0.47452281038E+03  0.72239000586E+03  0.87553632582E+03  0.25500000920E-02 0.  1.
       -2    1    3    3    0  502 -0.13980214480E+03 -0.47452281038E+03  0.43966036242E+03  0.66182911054E+03  0.25500000920E-02 0. -1.
</event>
<event>
 5   0  0.2204862E-03  0.9994776E+03  0.7818609E-02  0.9309118E-01
       -2   -1    0    0    0  501  0.00000000000E+00  0.00000000000E+00  0.34837118546E+03  0.34837118546E+03  0.25500000920E-02 0. -1.
        2   -1    0    0  501    0  0.00000000000E+00  0.00000000000E+00 -0.71687571895E+03  0.71687571896E+03  0.25500000920E-02 0.  1.
    10030    2    1    2    0    0  0.00000000000E+00  0.00000000000E+00 -0.36850453350E+03  0.10652469044E+04  0.99947755161E+03 0.  0.
        1    1    3    3  502    0  0.28665773331E+03 -0.27096069734E+03  0.14277148721E+03  0.41949499777E+03  0.50400001928E-02 0. -1.
       -1    1    3    3    0  502 -0.28665773331E+03  0.27096069734E+03 -0.51127602071E+03  0.64575190665E+03  0.50400001928E-02 0.  1.
</event>
<event>
 5   0  0.2255142E-03  0.9988434E+03  0.7818609E-02  0.9309814E-01
       -2   -1    0    0    0  501  0.00000000000E+00  0.00000000000E+00  0.19310749445E+03  0.19310749447E+03  0.25500000920E-02 0. -1.
        2   -1    0    0  501    0  0.00000000000E+00  0.00000000000E+00 -0.12916226563E+04  0.12916226563E+04  0.25500000920E-02 0.  1.
    10030    2    1    2    0    0  0.00000000000E+00  0.00000000000E+00 -0.10985151619E+04  0.14847301508E+04  0.99884336101E+03 0.  0.
        4    1    3    3  502    0  0.23383505472E+03 -0.39928456980E+03 -0.26992607865E+03  0.53569459707E+03  0.12699999809E+01 0. -1.
       -4    1    3    3    0  502 -0.23383505472E+03  0.39928456980E+03 -0.82858908325E+03  0.94903555375E+03  0.12699999809E+01 0.  1.
</event>
<event>
 5   0  0.1285769E-03  0.1006000E+04  0.7818609E-02  0.9301989E-01
       -1   -1    0    0    0  501  0.00000000000E+00  0.00000000000E+00  0.27542800160E+03  0.27542800165E+03  0.50400001928E-02 0. -1.
        1   -1    0    0  501    0  0.00000000000E+00  0.00000000000E+00 -0.91860278754E+03  0.91860278756E+03  0.50400001928E-02 0.  1.
    10030    2    1    2    0    0  0.00000000000E+00  0.00000000000E+00 -0.64317478594E+03  0.11940307892E+04  0.10059998610E+04 0.  0.
        5    1    3    3  502    0 -0.91325771560E+02 -0.21466412644E+03  0.20730799764E+03  0.31212141806E+03  0.46999998093E+01 0. -1.
       -5    1    3    3    0  502  0.91325771560E+02  0.21466412644E+03 -0.85048278358E+03  0.88190937114E+03  0.46999998093E+01 0.  1.
</event>
<event>
 5   0  0.2204862E-03  0.1003706E+04  0.7818609E-02  0.9304490E-01
        2   -1    0    0  501    0  0.00000000000E+00  0.00000000000E+00  0.84194274810E+03  0.84194274810E+03  0.25500000920E-02 0.  1.
       -2   -1    0    0    0  501  0.00000000000E+00  0.00000000000E+00 -0.29913719128E+03  0.29913719129E+03  0.25500000920E-02 0. -1.
    10030    2    1    2    0    0  0.00000000000E+00  0.00000000000E+00  0.54280555681E+03  0.11410799394E+04  0.10037059109E+04 0.  0.
        1    1    3    3  502    0  0.20025796026E+03 -0.12874892458E+03  0.77365717120E+03  0.80945966842E+03  0.50400001928E-02 0.  1.
       -1    1    3    3    0  502 -0.20025796026E+03  0.12874892458E+03 -0.23085161439E+03  0.33162027097E+03  0.50400001928E-02 0. -1.
</event>
<event>
 5   0  0.2277570E-03  0.1001573E+04  0.7818609E-02  0.9306822E-01
       -2   -1    0    0    0  501  0.00000000000E+00  0.00000000000E+00  0.11608270338E+04  0.11608270338E+04  0.25500000920E-02 0. -1.
        2   -1    0    0  501    0  0.00000000000E+00  0.00000000000E+00 -0.21604160837E+03  0.21604160839E+03  0.25500000920E-02 0.  1.
    10030    2    1    2    0    0  0.00000000000E+00  0.00000000000E+00  0.94478542544E+03  0.13768686422E+04  0.10015726423E+04 0.  0.
        3    1    3    3  502    0  0.20831964651E+03  0.16171506604E+02 -0.15325493254E+03  0.25912482956E+03  0.10100000352E+00 0.  1.
       -3    1    3    3    0  502 -0.20831964651E+03 -0.16171506604E+02  0.10980403580E+04  0.11177438126E+04  0.10100000352E+00 0. -1.
</event>
<event>
 5   0  0.1293575E-03  0.1000961E+04  0.7818609E-02  0.9307492E-01
        1   -1    0    0  501    0  0.00000000000E+00  0.00000000000E+00  0.62704284997E+03  0.62704284999E+03  0.50400001928E-02 0. -1.
       -1   -1    0    0    0  501  0.00000000000E+00  0.00000000000E+00 -0.39946319901E+03  0.39946319905E+03  0.50400001928E-02 0.  1.
    10030    2    1    2    0    0  0.00000000000E+00  0.00000000000E+00  0.22757965095E+03  0.10265060490E+04  0.10009606242E+04 0.  0.
        4    1    3    3  502    0 -0.33164488543E+03  0.20172550112E+03 -0.21017971571E+03  0.44142794840E+03  0.12699999809E+01 0.  1.
       -4    1    3    3    0  502  0.33164488543E+03 -0.20172550112E+03  0.43775936667E+03  0.58507810063E+03  0.12699999809E+01 0. -1.
</event>
<event>
 5   0  0.2264577E-03  0.1000629E+04  0.7818609E-02  0.9307855E-01
        2   -1    0    0  501    0  0.00000000000E+00  0.00000000000E+00  0.72940619489E+03  0.72940619490E+03  0.25500000920E-02 0.  1.
       -2   -1    0    0    0  501  0.00000000000E+00  0.00000000000E+00 -0.34317600843E+03  0.34317600844E+03  0.25500000920E-02 0. -1.
    10030    2    1    2    0    0  0.00000000000E+00  0.00000000000E+00  0.38623018647E+03  0.10725822033E+04  0.10006292150E+04 0.  0.
        5    1    3    3  502    0 -0.17139496975E+01  0.13052987875E+03 -0.32457487743E+03  0.34987416013E+03  0.46999998093E+01 0. -1.
       -5    1    3    3    0  502  0.17139496975E+01 -0.13052987875E+03  0.71080506389E+03  0.72270804321E+03  0.46999998093E+01 0.  1.
</event>
<event>
 5   0  0.2284843E-03  0.1001094E+04  0.7818609E-02  0.9307345E-01
        2   -1    0    0  501    0  0.00000000000E+00  0.00000000000E+00  0.82192432119E+03  0.82192432120E+03  0.25500000920E-02 0.  1.
       -2   -1    0    0    0  501  0.00000000000E+00  0.00000000000E+00 -0.30483038381E+03  0.30483038382E+03  0.25500000920E-02 0. -1.
    10030    2    1    2    0    0  0.00000000000E+00  0.00000000000E+00  0.51709393738E+03  0.11267547050E+04  0.10010944137E+04 0.  0.
        2    1    3    3  502    0 -0.32866659678E+03 -0.25586766401E+03 -0.53889583287E+02  0.41999295294E+03  0.25500000920E-02 0. -1.
       -2    1    3    3    0  502  0.32866659678E+03  0.25586766401E+03  0.57098352067E+03  0.70676175208E+03  0.25500000920E-02 0.  1.
</event>
<event>
 5   0  0.2284843E-03  0.9999120E+03  0.7818609E-02  0.9308641E-01
       -2   -1    0    0    0  501  0.00000000000E+00  0.00000000000E+00  0.25539184199E+03  0.25539184200E+03  0.25500000920E-02 0.  1.
        2   -1    0    0  501    0  0.00000000000E+00  0.00000000000E+00 -0.97871578305E+03  0.97871578305E+03  0.25500000920E-02 0. -1.
    10030    2    1    2    0    0  0.00000000000E+00  0.00000000000E+00 -0.72332394105E+03  0.12341076251E+04  0.99991204939E+03 0.  0.
        2    1    3    3  502    0  0.80304769055E+02 -0.14809846756E+03  0.21930393616E+03  0.27654335727E+03  0.25500000920E-02 0.  1.
       -2    1    3    3    0  502 -0.80304769055E+02  0.14809846756E+03 -0.94262787721E+03  0.95756426778E+03  0.25500000920E-02 0. -1.
</event>
<event>
 5   0  0.1293716E-03  0.1001285E+04  0.7818609E-02  0.9307137E-01
       -1   -1    0    0    0  501  0.00000000000E+00  0.00000000000E+00  0.17426722373E+03  0.17426722380E+03  0.50400001928E-02 0. -1.
        1   -1    0    0  501    0  0.00000000000E+00  0.00000000000E+00 -0.14382665417E+04  0.14382665417E+04  0.50400001928E-02 0.  1.
    10030    2    1    2    0    0  0.00000000000E+00  0.00000000000E+00 -0.12639993179E+04  0.16125337655E+04  0.10012846094E+04 0.  0.
        3    1    3    3  502    0 -0.18244928287E+03  0.23180049863E+03  0.19439872007E+02  0.29563005735E+03  0.10100000352E+00 0. -1.
       -3    1    3    3    0  502  0.18244928287E+03 -0.23180049863E+03 -0.12834391900E+04  0.13169037081E+04  0.10100000352E+00 0.  1.
</event>
<event>
 5   0  0.1249195E-03  0.1005031E+04  0.7818609E-02  0.9303044E-01
        1   -1    0    0  501    0  0.00000000000E+00  0.00000000000E+00  0.52673373522E+03  0.52673373524E+03  0.50400001928E-02 0. -1.
       -1   -1    0    0    0  501  0.00000000000E+00  0.00000000000E+00 -0.47941049468E+03  0.47941049471E+03  0.50400001928E-02 0.  1.
    10030    2    1    2    0    0  0.00000000000E+00  0.00000000000E+00  0.47323240533E+02  0.10061442299E+04  0.10050307072E+04 0.  0.
        2    1    3    3  502    0  0.26765907607E+03  0.31228808247E+03  0.31269667843E+03  0.51666666253E+03  0.25500000920E-02 0. -1.
       -2    1    3    3    0  502 -0.26765907607E+03 -0.31228808247E+03 -0.26537343790E+03  0.48947756742E+03  0.25500000920E-02 0.  1.
</event>
<event>
 5   0  0.2204862E-03  0.9912700E+03  0.7818609E-02  0.9318172E-01
       -2   -1    0    0    0  501  0.00000000000E+00  0.00000000000E+00  0.40096301199E+03  0.40096301200E+03  0.25500000920E-02 0. -1.
        2   -1    0    0  501    0  0.00000000000E+00  0.00000000000E+00 -0.61266008616E+03  0.61266008617E+03  0.25500000920E-02 0.  1.
    10030    2    1    2    0    0  0.00000000000E+00  0.00000000000E+00 -0.21169707417E+03  0.10136230982E+04  0.99126996017E+03 0.  0.
        1    1    3    3  502    0 -0.10059957164E+03  0.30732847533E+03 -0.48992867313E+03  0.58702740170E+03  0.50400001928E-02 0.  1.
       -1    1    3    3    0  502  0.10059957164E+03 -0.30732847533E+03  0.27823159896E+03  0.42659569647E+03  0.50400001928E-02 0. -1.
</event>
<event>
 5   0  0.8680125E-04  0.9712202E+03  0.7818609E-02  0.9340686E-01
        4   -1    0    0  501    0  0.00000000000E+00  0.00000000000E+00  0.40283923131E+03  0.40284123323E+03  0.12699999809E+01 0. -1.
       -4   -1    0    0    0  501  0.00000000000E+00  0.00000000000E+00 -0.58538364853E+03  0.58538502617E+03  0.12699999809E+01 0.  1.
    10030    2    1    2    0    0  0.00000000000E+00  0.00000000000E+00 -0.18254441721E+03  0.98822625939E+03  0.97122019929E+03 0.  0.
        5    1    3    3  502    0  0.11133320441E+03 -0.47240925754E+03 -0.10668638894E+03  0.49696042559E+03  0.46999998093E+01 0.  1.
       -5    1    3    3    0  502 -0.11133320441E+03  0.47240925754E+03 -0.75858028274E+02  0.49126583381E+03  0.46999998093E+01 0. -1.
</event>
<event>
 5   0  0.1285769E-03  0.9965298E+03  0.7818609E-02  0.9312359E-01
        1   -1    0    0  501    0  0.00000000000E+00  0.00000000000E+00  0.12385481845E+04  0.12385481845E+04  0.50400001928E-02 0.  1.
       -1   -1    0    0    0  501  0.00000000000E+00  0.00000000000E+00 -0.20045075299E+03  0.20045075305E+03  0.50400001928E-02 0. -1.
    10030    2    1    2    0    0  0.00000000000E+00  0.00000000000E+00  0.10380974315E+04  0.14389989376E+04  0.99652981140E+03 0.  0.
        5    1    3    3  502    0  0.20221882138E+02 -0.22800192403E+03 -0.12000035914E+03  0.25848786833E+03  0.46999998093E+01 0. -1.
       -5    1    3    3    0  502 -0.20221882138E+02  0.22800192403E+03  0.11580977907E+04  0.11805110693E+04  0.46999998093E+01 0.  1.
</event>
<event>
 5   0  0.2264577E-03  0.9999586E+03  0.7818609E-02  0.9308590E-01
       -2   -1    0    0    0  501  0.00000000000E+00  0.00000000000E+00  0.50163397518E+03  0.50163397519E+03  0.25500000920E-02 0.  1.
        2   -1    0    0  501    0  0.00000000000E+00  0.00000000000E+00 -0.49833007167E+03  0.49833007167E+03  0.25500000920E-02 0. -1.
    10030    2    1    2    0    0  0.00000000000E+00  0.00000000000E+00  0.33039035173E+01  0.99996404686E+03  0.99995858876E+03 0.  0.
        5    1    3    3  502    0 -0.34047147808E+03  0.29696882075E+03 -0.21246576683E+03  0.49927457371E+03  0.46999998093E+01 0. -1.
       -5    1    3    3    0  502  0.34047147808E+03 -0.29696882075E+03  0.21576967034E+03  0.50068947315E+03  0.46999998093E+01 0.  1.
</event>
<event>
 5   0  0.1249195E-03  0.9962653E+03  0.7818609E-02  0.9312650E-01
       -1   -1    0    0    0  501  0.00000000000E+00  0.00000000000E+00  0.61622956727E+03  0.61622956729E+03  0.50400001928E-02 0. -1.
        1   -1    0    0  501    0  0.00000000000E+00  0.00000000000E+00 -0.40266837112E+03  0.40266837115E+03  0.50400001928E-02 0.  1.
    10030    2    1    2    0    0  0.00000000000E+00  0.00000000000E+00  0.21356119615E+03  0.10188979384E+04  0.99626533838E+03 0.  0.
        2    1    3    3  502    0  0.13552799283E+03 -0.21519455468E+03 -0.33127164748E+03  0.41763313762E+03  0.25500000920E-02 0.  1.
       -2    1    3    3    0  502 -0.13552799283E+03  0.21519455468E+03  0.54483284363E+03  0.60126480082E+03  0.25500000920E-02 0. -1.
</event>
<event>
 5   0  0.1293716E-03  0.9910174E+03  0.7818609E-02  0.9318452E-01
       -1   -1    0    0    0  501  0.00000000000E+00  0.00000000000E+00  0.19651293989E+03  0.19651293996E+03  0.50400001928E-02 0.  1.
        1   -1    0    0  501    0  0.00000000000E+00  0.00000000000E+00 -0.12494285132E+04  0.12494285132E+04  0.50400001928E-02 0. -1.
    10030    2    1    2    0    0  0.00000000000E+00  0.00000000000E+00 -0.10529155733E+04  0.14459414532E+04  0.99101739717E+03 0.  0.
        3    1    3    3  502    0  0.49465133947E+03 -0.92744765514E+01 -0.56675752942E+03  0.75231646992E+03  0.10100000352E+00 0.  1.
       -3    1    3    3    0  502 -0.49465133947E+03  0.92744765514E+01 -0.48615804392E+03  0.69362498328E+03  0.10100000352E+00 0. -1.
</event>
<event>
 5   0  0.1293716E-03  0.9987570E+03  0.7818609E-02  0.9309909E-01
        1   -1    0    0  501    0  0.00000000000E+00  0.00000000000E+00  0.55493379080E+03  0.55493379083E+03  0.50400001928E-02 0.  1.
       -1   -1    0    0    0  501  0.00000000000E+00  0.00000000000E+00 -0.44938498110E+03  0.44938498113E+03  0.50400001928E-02 0. -1.
    10030    2    1    2    0    0  0.00000000000E+00  0.00000000000E+00  0.10554880970E+03  0.10043187720E+04  0.99875704978E+03 0.  0.
        3    1    3    3  502    0  0.29407152684E+03  0.39987295236E+03  0.10787424472E+03  0.50795009972E+03  0.10100000352E+00 0. -1.
       -3    1    3    3    0  502 -0.29407152684E+03 -0.39987295236E+03 -0.23254350182E+01  0.49636867224E+03  0.10100000352E+00 0.  1.
</event>
<event>
 5   0  0.2284843E-03  0.1001155E+04  0.7818609E-02  0.9307279E-01
       -2   -1    0    0    0  501  0.00000000000E+00  0.00000000000E+00  0.26081585807E+03  0.26081585808E+03  0.25500000920E-02 0. -1.
        2   -1    0    0  501    0  0.00000000000E+00  0.00000000000E+00 -0.96074591149E+03  0.96074591150E+03  0.25500000920E-02 0.  1.
    10030    2    1    2    0    0  0.00000000000E+00  0.00000000000E+00 -0.69993005343E+03  0.12215617696E+04  0.10011548717E+04 0.  0.
        2    1    3    3  502    0  0.27097307852E+03 -0.30804648968E+03 -0.15716669225E-01  0.41026704638E+03  0.25500000920E-02 0. -1.
       -2    1    3    3    0  502 -0.27097307852E+03  0.30804648968E+03 -0.69991433676E+03  0.81129472320E+03  0.25500000920E-02 0.  1.
</event>
<event>
 5   0  0.2277570E-03  0.9982712E+03  0.7818609E-02  0.9310443E-01
        2   -1    0    0  501    0  0.00000000000E+00  0.00000000000E+00  0.75987731955E+03  0.75987731955E+03  0.25500000920E-02 0.  1.
       -2   -1    0    0    0  501  0.00000000000E+00  0.00000000000E+00 -0.32786393894E+03  0.32786393895E+03  0.25500000920E-02 0. -1.
    10030    2    1    2    0    0  0.00000000000E+00  0.00000000000E+00  0.43201338060E+03  0.10877412585E+04  0.99827124792E+03 0.  0.
        3    1    3    3  502    0  0.41060737553E+03  0.23160190636E+03  0.39471349040E+03  0.61484681798E+03  0.10100000352E+00 0.  1.
       -3    1    3    3    0  502 -0.41060737553E+03 -0.23160190636E+03  0.37299890201E+02  0.47289444053E+03  0.10100000352E+00 0. -1.
</event>
<event>
 5   0  0.1353789E-03  0.1000443E+04  0.7818609E-02  0.9308059E-01
        1   -1    0    0  501    0  0.00000000000E+00  0.00000000000E+00  0.71410676051E+03  0.71410676053E+03  0.50400001928E-02 0.  1.
       -1   -1    0    0    0  501  0.00000000000E+00  0.00000000000E+00 -0.35039800140E+03  0.35039800143E+03  0.50400001928E-02 0. -1.
    10030    2    1    2    0    0  0.00000000000E+00  0.00000000000E+00  0.36370875912E+03  0.10645047620E+04  0.10004430652E+04 0.  0.
        1    1    3    3  502    0  0.21020166191E+03 -0.18983494295E+02  0.66441017443E+03  0.69712695517E+03  0.50400001928E-02 0.  1.
       -1    1    3    3    0  502 -0.21020166191E+03  0.18983494295E+02 -0.30070141531E+03  0.36737780679E+03  0.50400001928E-02 0. -1.
</event>
<event>
 5   0  0.2204862E-03  0.9944416E+03  0.7818609E-02  0.9314662E-01
        2   -1    0    0  501    0  0.00000000000E+00  0.00000000000E+00  0.46487465784E+03  0.46487465785E+03  0.25500000920E-02 0.  1.
       -2   -1    0    0    0  501  0.00000000000E+00  0.00000000000E+00 -0.53181764308E+03  0.53181764309E+03  0.25500000920E-02 0. -1.
    10030    2    1    2    0    0  0.00000000000E+00  0.00000000000E+00 -0.66942985236E+02  0.99669230094E+03  0.99444164207E+03 0.  0.
        1    1    3    3  502    0 -0.71899439029E+02 -0.73679653394E+02  0.45407608261E+03  0.46559994575E+03  0.50400001928E-02 0.  1.
       -1    1    3    3    0  502  0.71899439029E+02  0.73679653394E+02 -0.52101906785E+03  0.53109235519E+03  0.50400001928E-02 0. -1.
</event>
<event>
 5   0  0.2204862E-03  0.9946284E+03  0.7818609E-02  0.9314456E-01
       -2   -1    0    0    0  501  0.00000000000E+00  0.00000000000E+00  0.16616886429E+03  0.16616886431E+03  0.25500000920E-02 0. -1.
        2   -1    0    0  501    0  0.00000000000E+00  0.00000000000E+00 -0.14883738997E+04  0.14883738997E+04  0.25500000920E-02 0.  1.
    10030    2    1    2    0    0  0.00000000000E+00  0.00000000000E+00 -0.13222050354E+04  0.16545427640E+04  0.99462837395E+03 0.  0.
        1    1    3    3  502    0 -0.10659101179E+03 -0.22917165788E+03  0.51363739931E+02  0.25791379640E+03  0.50400001928E-02 0. -1.
       -1    1    3    3    0  502  0.10659101179E+03  0.22917165788E+03 -0.13735687753E+04  0.13966289676E+04  0.50400001928E-02 0.  1.
</event>
<event>
 5   0  0.2264577E-03  0.9966962E+03  0.7818609E-02  0.9312176E-01
        2   -1    0    0  501    0  0.00000000000E+00  0.00000000000E+00  0.57848301058E+03  0.57848301058E+03  0.25500000920E-02 0. -1.
       -2   -1    0    0    0  501  0.00000000000E+00  0.00000000000E+00 -0.42931392025E+03  0.42931392025E+03  0.25500000920E-02 0.  1.
    10030    2    1    2    0    0  0.00000000000E+00  0.00000000000E+00  0.14916909033E+03  0.10077969308E+04  0.99669616047E+03 0.  0.
        5    1    3    3  502    0 -0.18727964848E+03 -0.14943202525E+03  0.51640089646E+03  0.56929392476E+03  0.46999998093E+01 0. -1.
       -5    1    3    3    0  502  0.18727964848E+03  0.14943202525E+03 -0.36723180613E+03  0.43850300607E+03  0.46999998093E+01 0.  1.
</event>
<event>
 5   0  0.2277570E-03  0.1003325E+04  0.7818609E-02  0.9304905E-01
       -2   -1    0    0    0  501  0.00000000000E+00  0.00000000000E+00  0.21866878757E+03  0.21866878758E+03  0.25500000920E-02 0. -1.
        2   -1    0    0  501    0  0.00000000000E+00  0.00000000000E+00 -0.11508977434E+04  0.11508977434E+04  0.25500000920E-02 0.  1.
    10030    2    1    2    0    0  0.00000000000E+00  0.00000000000E+00 -0.93222895587E+03  0.13695665310E+04  0.10033252996E+04 0.  0.
        3    1    3    3  502    0  0.45653044923E+03 -0.16684247764E+03 -0.29666986706E+03  0.56944664688E+03  0.10100000352E+00 0.  1.
       -3    1    3    3    0  502 -0.45653044923E+03  0.16684247764E+03 -0.63555908881E+03  0.80011988414E+03  0.10100000352E+00 0. -1.
</event>
<event>
 5   0  0.1293575E-03  0.9915813E+03  0.7818609E-02  0.9317827E-01
       -1   -1    0    0    0  501  0.00000000000E+00  0.00000000000E+00  0.32319999050E+03  0.32319999054E+03  0.50400001928E-02 0. -1.
        1   -1    0    0  501    0  0.00000000000E+00  0.00000000000E+00 -0.76054570808E+03  0.76054570810E+03  0.50400001928E-02 0.  1.
    10030    2    1    2    0    0  0.00000000000E+00  0.00000000000E+00 -0.43734571759E+03  0.10837456986E+04  0.99158129401E+03 0.  0.
        4    1    3    3  502    0 -0.25135191181E+03  0.27596222662E+03 -0.57530499634E+03  0.68579179479E+03  0.12699999809E+01 0. -1.
       -4    1    3    3    0  502  0.25135191181E+03 -0.27596222662E+03  0.13795927875E+03  0.39795390385E+03  0.12699999809E+01 0.  1.
</event>
<event>
 5   0  0.1353789E-03  0.1005811E+04  0.7818609E-02  0.9302194E-01
       -1   -1    0    0    0  501  0.00000000000E+00  0.00000000000E+00  0.13659902052E+03  0.13659902061E+03  0.50400001928E-02 0.  1.
        1   -1    0    0  501    0  0.00000000000E+00  0.00000000000E+00 -0.18515055019E+04  0.18515055019E+04  0.50400001928E-02 0. -1.
    10030    2    1    2    0    0  0.00000000000E+00  0.00000000000E+00 -0.17149064814E+04  0.19881045225E+04  0.10058107936E+04 0.  0.
        1    1    3    3  502    0  0.46132558015E+03 -0.99091926615E-01 -0.12532340142E+04  0.13354462906E+04  0.50400001928E-02 0. -1.
       -1    1    3    3    0  502 -0.46132558015E+03  0.99091926615E-01 -0.46167246722E+03  0.65265823195E+03  0.50400001928E-02 0.  1.
</event>
<event>
 5   0  0.1353789E-03  0.9988411E+03  0.7818609E-02  0.9309817E-01
       -1   -1    0    0    0  501  0.00000000000E+00  0.00000000000E+00  0.25944337978E+03  0.25944337983E+03  0.50400001928E-02 0. -1.
        1   -1    0    0  501    0  0.00000000000E+00  0.00000000000E+00 -0.96136921281E+03  0.96136921282E+03  0.50400001928E-02 0.  1.
    10030    2    1    2    0    0  0.00000000000E+00  0.00000000000E+00 -0.70192583303E+03  0.12208125926E+04  0.99884108411E+03 0.  0.
        1    1    3    3  502    0  0.21326226161E+02 -0.35712288312E+03 -0.77686952403E+03  0.85528814967E+03  0.50400001928E-02 0.  1.
       -1    1    3    3    0  502 -0.21326226161E+02  0.35712288312E+03  0.74943691004E+02  0.36552444298E+03  0.50400001928E-02 0. -1.
</event>
<event>
 5   0  0.2264577E-03  0.1001934E+04  0.7818609E-02  0.9306426E-01
        2   -1    0    0  501    0  0.00000000000E+00  0.00000000000E+00  0.73432705648E+03  0.73432705648E+03  0.25500000920E-02 0.  1.
       -2   -1    0    0    0  501  0.00000000000E+00  0.00000000000E+00 -0.34176617128E+03  0.34176617129E+03  0.25500000920E-02 0. -1.
    10030    2    1    2    0    0  0.00000000000E+00  0.00000000000E+00  0.39256088520E+03  0.10760932278E+04  0.10019344221E+04 0.  0.
        5    1    3    3  502    0 -0.16449313454E+03 -0.39394467352E+03 -0.85217515787E+02  0.43535561568E+03  0.46999998093E+01 0. -1.
       -5    1    3    3    0  502  0.16449313454E+03  0.39394467352E+03  0.47777840098E+03  0.64073761209E+03  0.46999998093E+01 0.  1.
</event>
<event>
 5   0  0.2204862E-03  0.1010505E+04  0.7818609E-02  0.9297097E-01
        2   -1    0    0  501    0  0.00000000000E+00  0.00000000000E+00  0.29429801969E+04  0.29429801969E+04  0.25500000920E-02 0.  1.
       -2   -1    0    0    0  501  0.00000000000E+00  0.00000000000E+00 -0.86742104963E+02  0.86742105000E+02  0.25500000920E-02 0. -1.
    10030    2    1    2    0    0  0.00000000000E+00  0.00000000000E+00  0.28562380919E+04  0.30297223019E+04  0.10105054126E+04 0.  0.
        1    1    3    3  502    0  0.13790206937E+03 -0.12347106637E+03  0.18576430909E+02  0.18603002117E+03  0.50400001928E-02 0. -1.
       -1    1    3    3    0  502 -0.13790206937E+03  0.12347106637E+03  0.28376616610E+04  0.28436922807E+04  0.50400001928E-02 0.  1.
</event>
<event>
 5   0  0.1285769E-03  0.1005216E+04  0.7818609E-02  0.9302843E-01
        1   -1    0    0  501    0  0.00000000000E+00  0.00000000000E+00  0.24540776036E+03  0.24540776042E+03  0.50400001928E-02 0. -1.
       -1   -1    0    0    0  501  0.00000000000E+00  0.00000000000E+00 -0.10293666090E+04  0.10293666090E+04  0.50400001928E-02 0.  1.
    10030    2    1    2    0    0  0.00000000000E+00  0.00000000000E+00 -0.78395884860E+03  0.12747743694E+04  0.10052155075E+04 0.  0.
        5    1    3    3  502    0  0.19125796848E+03 -0.44294148438E+03 -0.21346274562E+03  0.52760326275E+03  0.46999998093E+01 0. -1.
       -5    1    3    3    0  502 -0.19125796848E+03  0.44294148438E+03 -0.57049610298E+03  0.74717110665E+03  0.46999998093E+01 0.  1.
</event>
<event>
 5   0  0.1293716E-03  0.1002168E+04  0.7818609E-02  0.9306171E-01
       -1   -1    0    0    0  501  0.00000000000E+00  0.00000000000E+00  0.83080554375E+03  0.83080554376E+03  0.50400001928E-02 0.  1.
        1   -1    0    0  501    0  0.00000000000E+00  0.00000000000E+00 -0.30221865011E+03  0.30221865015E+03  0.50400001928E-02 0. -1.
    10030    2    1    2    0    0  0.00000000000E+00  0.00000000000E+00  0.52858689363E+03  0.11330241939E+04  0.10021675109E+04 0.  0.
        3    1    3    3  502    0  0.39652437639E+03  0.28581625760E+03  0.13961005580E+03  0.50834387187E+03  0.10100000352E+00 0. -1.
       -3    1    3    3    0  502 -0.39652437639E+03 -0.28581625760E+03  0.38897683784E+03  0.62468032205E+03  0.10100000352E+00 0.  1.
</event>
<event>
 5   0  0.2204862E-03  0.9557715E+03  0.7818609E-02  0.9358430E-01
        2   -1    0    0  501    0  0.00000000000E+00  0.00000000000E+00  0.15882550620E+03  0.15882550622E+03  0.25500000920E-02 0.  1.
       -2   -1    0    0    0  501  0.00000000000E+00  0.00000000000E+00 -0.14378973704E+04  0.14378973704E+04  0.25500000920E-02 0. -1.
    10030    2    1    2    0    0  0.00000000000E+00  0.00000000000E+00 -0.12790718642E+04  0.15967228767E+04  0.95577147425E+03 0.  0.
        1    1    3    3  502    0  0.38920305843E+03 -0.27602764718E+03 -0.68387784750E+03  0.83388200186E+03  0.50400001928E-02 0. -1.
       -1    1    3    3    0  502 -0.38920305843E+03  0.27602764718E+03 -0.59519401674E+03  0.76284087481E+03  0.50400001928E-02 0.  1.
</event>
<event>
 5   0  0.1353789E-03  0.1001789E+04  0.7818609E-02  0.9306585E-01
       -1   -1    0    0    0  501  0.00000000000E+00  0.00000000000E+00  0.14105368139E+03  0.14105368148E+03  0.50400001928E-02 0.  1.
        1   -1    0    0  501    0  0.00000000000E+00  0.00000000000E+00 -0.17787224847E+04  0.17787224847E+04  0.50400001928E-02 0. -1.
    10030    2    1    2    0    0  0.00000000000E+00  0.00000000000E+00 -0.16376688033E+04  0.19197761662E+04  0.10017891090E+04 0.  0.
        1    1    3    3  502    0  0.82376033959E+02  0.24646761852E+03 -0.16394323876E+04  0.16599007957E+04  0.50400001928E-02 0. -1.
       -1    1    3    3    0  502 -0.82376033959E+02 -0.24646761852E+03  0.17635842842E+01  0.25987537052E+03  0.50400001928E-02 0.  1.
</event>
<event>
 5   0  0.1249195E-03  0.1000350E+04  0.7818609E-02  0.9308161E-01
        1   -1    0    0  501    0  0.00000000000E+00  0.00000000000E+00  0.81316656891E+03  0.81316656893E+03  0.50400001928E-02 0. -1.
       -1   -1    0    0    0  501  0.00000000000E+00  0.00000000000E+00 -0.30765543046E+03  0.30765543050E+03  0.50400001928E-02 0.  1.
    10030    2    1    2    0    0  0.00000000000E+00  0.00000000000E+00  0.50551113845E+03  0.11208219994E+04  0.10003501603E+04 0.  0.
        2    1    3    3  502    0 -0.26783368521E+03  0.36467039008E+03  0.13876036759E+02  0.45267197918E+03  0.25500000920E-02 0. -1.
       -2    1    3    3    0  502  0.26783368521E+03 -0.36467039008E+03  0.49163510169E+03  0.66815002025E+03  0.25500000920E-02 0.  1.
</event>
<event>
 5   0  0.1293575E-03  0.9980109E+03  0.7818609E-02  0.9310729E-01
        1   -1    0    0  501    0  0.00000000000E+00  0.00000000000E+00  0.12359098542E+04  0.12359098542E+04  0.50400001928E-02 0. -1.
       -1   -1    0    0    0  501  0.00000000000E+00  0.00000000000E+00 -0.20147619774E+03  0.20147619781E+03  0.50400001928E-02 0.  1.
    10030    2    1    2    0    0  0.00000000000E+00  0.00000000000E+00  0.10344336565E+04  0.14373860521E+04  0.99801085813E+03 0.  0.
        4    1    3    3  502    0 -0.26460276460E+03 -0.22749384445E+03  0.34756058855E+01  0.34897244165E+03  0.12699999809E+01 0.  1.
       -4    1    3    3    0  502  0.26460276460E+03  0.22749384445E+03  0.10309580506E+04  0.10884136104E+04  0.12699999809E+01 0. -1.
</event>
<event>
 5   0  0.1249195E-03  0.9938088E+03  0.7818609E-02  0.9315361E-01
       -1   -1    0    0    0  501  0.00000000000E+00  0.00000000000E+00  0.34279453910E+03  0.34279453914E+03  0.50400001928E-02 0.  1.
        1   -1    0    0  501    0  0.00000000000E+00  0.00000000000E+00 -0.72029724862E+03  0.72029724864E+03  0.50400001928E-02 0. -1.
    10030    2    1    2    0    0  0.00000000000E+00  0.00000000000E+00 -0.37750270952E+03  0.10630917878E+04  0.99380876105E+03 0.  0.
        2    1    3    3  502    0 -0.29345322957E+03 -0.13765702993E+03  0.21413463451E+03  0.38848152792E+03  0.25500000920E-02 0.  1.
       -2    1    3    3    0  502  0.29345322957E+03  0.13765702993E+03 -0.59163734403E+03  0.67461025985E+03  0.25500000920E-02 0. -1.
</event>
<event>
 5   0  0.1353789E-03  0.1006945E+04  0.7818609E-02  0.9300960E-01
       -1   -1    0    0    0  501  0.00000000000E+00  0.00000000000E+00  0.33121900052E+03  0.33121900055E+03  0.50400001928E-02 0.  1.
        1   -1    0    0  501    0  0.00000000000E+00  0.00000000000E+00 -0.76530775988E+03  0.76530775990E+03  0.50400001928E-02 0. -1.
    10030    2    1    2    0    0  0.00000000000E+00  0.00000000000E+00 -0.43408875937E+03  0.10965267605E+04  0.10069448274E+04 0.  0.
        1    1    3    3  502    0 -0.17667243676E+03 -0.42073145450E+02  0.29430650377E+03  0.34583177654E+03  0.50400001928E-02 0.  1.
       -1    1    3    3    0  502  0.17667243676E+03  0.42073145450E+02 -0.72839526314E+03  0.75069498391E+03  0.50400001928E-02 0. -1.
</event>
<event>
 5   0  0.1293716E-03  0.9997812E+03  0.7818609E-02  0.9308785E-01
        1   -1    0    0  501    0  0.00000000000E+00  0.00000000000E+00  0.10290502796E+04  0.10290502797E+04  0.50400001928E-02 0. -1.
       -1   -1    0    0    0  501  0.00000000000E+00  0.00000000000E+00 -0.24283616651E+03  0.24283616656E+03  0.50400001928E-02 0.  1.
    10030    2    1    2    0    0  0.00000000000E+00  0.00000000000E+00  0.78621411313E+03  0.12718864462E+04  0.99978122626E+03 0.  0.
        3    1    3    3  502    0 -0.45231063145E+03  0.62638405531E+02  0.13431566682E+03  0.47597183291E+03  0.10100000352E+00 0.  1.
       -3    1    3    3    0  502  0.45231063145E+03 -0.62638405531E+02  0.65189844631E+03  0.79591461331E+03  0.10100000352E+00 0. -1.
</event>
<event>
 5   0  0.1293575E-03  0.9999562E+03  0.7818609E-02  0.9308593E-01
       -1   -1    0    0    0  501  0.00000000000E+00  0.00000000000E+00  0.19173821255E+03  0.19173821262E+03  0.50400001928E-02 0. -1.
        1   -1    0    0  501    0  0.00000000000E+00  0.00000000000E+00 -0.13037469582E+04  0.13037469582E+04  0.50400001928E-02 0.  1.
    10030    2    1    2    0    0  0.00000000000E+00  0.00000000000E+00 -0.11120087456E+04  0.14954851708E+04  0.99995622190E+03 0.  0.
        4    1    3    3  502    0  0.43554924872E+03 -0.14997900006E+03 -0.84669437091E+03  0.96389305379E+03  0.12699999809E+01 0. -1.
       -4    1    3    3    0  502 -0.43554924872E+03  0.14997900006E+03 -0.26531437469E+03  0.53159211698E+03  0.12699999809E+01 0.  1.
</event>
<event>
 5   0  0.2264577E-03  0.9993462E+03  0.7818609E-02  0.9309262E-01
        2   -1    0    0  501    0  0.00000000000E+00  0.00000000000E+00  0.55575840820E+03  0.55575840821E+03  0.25500000920E-02 0. -1.
       -2   -1    0    0    0  501  0.00000000000E+00  0.00000000000E+00 -0.44924771872E+03  0.44924771873E+03  0.25500000920E-02 0.  1.
    10030    2    1    2    0    0  0.00000000000E+00  0.00000000000E+00  0.10651068948E+03  0.10050061269E+04  0.99934618037E+03 0.  0.
        5    1    3    3  502    0 -0.36415977314E+03  0.10700210822E+03  0.38004081605E+03  0.53713583329E+03  0.46999998093E+01 0. -1.
       -5    1    3    3    0  502  0.36415977314E+03 -0.10700210822E+03 -0.27353012657E+03  0.46787029365E+03  0.46999998093E+01 0.  1.
</event>
<event>
 5   0  0.1249195E-03  0.1001678E+04  0.7818609E-02  0.9306707E-01
        1   -1    0    0  501    0  0.00000000000E+00  0.00000000000E+00  0.44197015133E+03  0.44197015136E+03  0.50400001928E-02 0. -1.
       -1   -1    0    0    0  501  0.00000000000E+00  0.00000000000E+00 -0.56754861594E+03  0.56754861597E+03  0.50400001928E-02 0.  1.
    10030    2    1    2    0    0  0.00000000000E+00  0.00000000000E+00 -0.12557846461E+03  0.10095187673E+04  0.10016776881E+04 0.  0.
        2    1    3    3  502    0 -0.41778942657E+02 -0.18053063038E+03 -0.53173013446E+03  0.56309299805E+03  0.25500000920E-02 0.  1.
       -2    1    3    3    0  502  0.41778942657E+02  0.18053063038E+03  0.40615166985E+03  0.44642576928E+03  0.25500000920E-02 0. -1.
</event>
<event>
 5   0  0.1293716E-03  0.1001539E+04  0.7818609E-02  0.9306858E-01
        1   -1    0    0  501    0  0.00000000000E+00  0.00000000000E+00  0.14957008266E+04  0.14957008266E+04  0.50400001928E-02 0.  1.
       -1   -1    0    0    0  501  0.00000000000E+00  0.00000000000E+00 -0.16766074829E+03  0.16766074837E+03  0.50400001928E-02 0. -1.
    10030    2    1    2    0    0  0.00000000000E+00  0.00000000000E+00  0.13280400783E+04  0.16633615750E+04  0.10015394548E+04 0.  0.
        3    1    3    3  502    0  0.45480622538E+03  0.13892281761E+03  0.40341622055E+03  0.62361278779E+03  0.10100000352E+00 0.  1.
       -3    1    3    3    0  502 -0.45480622538E+03 -0.13892281761E+03  0.92462385775E+03  0.10397487872E+04  0.10100000352E+00 0. -1.
</event>
<event>
 5   0  0.1249195E-03  0.9995759E+03  0.7818609E-02  0.9309010E-01
        1   -1    0    0  501    0  0.00000000000E+00  0.00000000000E+00  0.30304649131E+03  0.30304649136E+03  0.50400001928E-02 0.  1.
       -1   -1    0    0    0  501  0.00000000000E+00  0.00000000000E+00 -0.82425631201E+03  0.82425631202E+03  0.50400001928E-02 0. -1.
    10030    2    1    2    0    0  0.00000000000E+00  0.00000000000E+00 -0.52120982069E+03  0.11273028034E+04  0.99957587672E+03 0.  0.
        2    1    3    3  502    0 -0.19044772060E+03  0.45414648098E+03 -0.35675526445E+03  0.60810663472E+03  0.25500000920E-02 0.  1.
       -2    1    3    3    0  502  0.19044772060E+03 -0.45414648098E+03 -0.16445455625E+03  0.51919616866E+03  0.25500000920E-02 0. -1.
</event>
<event>
 5   0  0.2204862E-03  0.9972204E+03  0.7818609E-02  0.9311599E-01
        2   -1    0    0  501    0  0.00000000000E+00  0.00000000000E+00  0.68919127149E+03  0.68919127149E+03  0.25500000920E-02 0.  1.
       -2   -1    0    0    0  501  0.00000000000E+00  0.00000000000E+00 -0.36073025526E+03  0.36073025527E+03  0.25500000920E-02 0. -1.
    10030    2    1    2    0    0  0.00000000000E+00  0.00000000000E+00  0.32846101623E+03  0.10499215268E+04  0.99722042357E+03 0.  0.
        1    1    3    3  502    0 -0.13392180749E+03  0.22667668447E+03 -0.28157916825E+03  0.38549215014E+03  0.50400001928E-02 0.  1.
       -1    1    3    3    0  502  0.13392180749E+03 -0.22667668447E+03  0.61004018448E+03  0.66442937662E+03  0.50400001928E-02 0. -1.
</event>
<event>
 5   0  0.8680125E-04  0.1009201E+04  0.7818609E-02  0.9298510E-01
        3   -1    0    0  501    0  0.00000000000E+00  0.00000000000E+00  0.39670218236E+03  0.39670219522E+03  0.10100000352E+00 0. -1.
       -3   -1    0    0    0  501  0.00000000000E+00  0.00000000000E+00 -0.64184617704E+03  0.64184618498E+03  0.10100000352E+00 0.  1.
    10030    2    1    2    0    0  0.00000000000E+00  0.00000000000E+00 -0.24514399467E+03  0.10385483802E+04  0.10092012485E+04 0.  0.
        5    1    3    3  502    0 -0.25373324714E+03 -0.12576441498E+03  0.30718726535E+03  0.41783173021E+03  0.46999998093E+01 0. -1.
       -5    1    3    3    0  502  0.25373324714E+03  0.12576441498E+03 -0.55233126002E+03  0.62071664999E+03  0.46999998093E+01 0.  1.
</event>
<event>
 5   0  0.1353789E-03  0.1002934E+04  0.7818609E-02  0.9305333E-01
        1   -1    0    0  501    0  0.00000000000E+00  0.00000000000E+00  0.17750019864E+04  0.17750019864E+04  0.50400001928E-02 0.  1.
       -1   -1    0    0    0  501  0.00000000000E+00  0.00000000000E+00 -0.14167255739E+03  0.14167255748E+03  0.50400001928E-02 0. -1.
    10030    2    1    2    0    0  0.00000000000E+00  0.00000000000E+00  0.16333294291E+04  0.19166745439E+04  0.10029338381E+04 0.  0.
        1    1    3    3  502    0 -0.19018560655E+03 -0.30790493288E+03  0.14800366651E+04  0.15236418683E+04  0.50400001928E-02 0.  1.
       -1    1    3    3    0  502  0.19018560655E+03  0.30790493288E+03  0.15329276394E+03  0.39303267566E+03  0.50400001928E-02 0. -1.
</event>
<event>
 5   0  0.2284843E-03  0.1009805E+04  0.7818609E-02  0.9297856E-01
        2   -1    0    0  501    0  0.00000000000E+00  0.00000000000E+00  0.30462175145E+03  0.30462175146E+03  0.25500000920E-02 0. -1.
       -2   -1    0    0    0  501  0.00000000000E+00  0.00000000000E+00 -0.83686213730E+03  0.83686213730E+03  0.25500000920E-02 0.  1.
    10030    2    1    2    0    0  0.00000000000E+00  0.00000000000E+00 -0.53224038585E+03  0.11414838888E+04  0.10098047534E+04 0.  0.
        2    1    3    3  502    0  0.44707338976E+03 -0.15970591772E+03 -0.46042357280E+03  0.66133989928E+03  0.25500000920E-02 0.  1.
       -2    1    3    3    0  502 -0.44707338976E+03  0.15970591772E+03 -0.71816813057E+02  0.48014398948E+03  0.25500000920E-02 0. -1.
</event>
<event>
 5   0  0.1285769E-03  0.9956395E+03  0.7818609E-02  0.9313340E-01
        1   -1    0    0  501    0  0.00000000000E+00  0.00000000000E+00  0.70482007184E+03  0.70482007186E+03  0.50400001928E-02 0.  1.
       -1   -1    0    0    0  501  0.00000000000E+00  0.00000000000E+00 -0.35161383405E+03  0.35161383409E+03  0.50400001928E-02 0. -1.
    10030    2    1    2    0    0  0.00000000000E+00  0.00000000000E+00  0.35320623779E+03  0.10564339059E+04  0.99563946850E+03 0.  0.
        5    1    3    3  502    0 -0.22810423605E+03 -0.15248568474E+03 -0.26411271795E+03  0.38086880200E+03  0.46999998093E+01 0. -1.
       -5    1    3    3    0  502  0.22810423605E+03  0.15248568474E+03  0.61731895574E+03  0.67556510395E+03  0.46999998093E+01 0.  1.
</event>
<event>
 5   0  0.1293575E-03  0.9908908E+03  0.7818609E-02  0.9318592E-01
       -1   -1    0    0    0  501  0.00000000000E+00  0.00000000000E+00  0.18947591928E+03  0.18947591935E+03  0.50400001928E-02 0. -1.
        1   -1    0    0  501    0  0.00000000000E+00  0.00000000000E+00 -0.12955005934E+04  0.12955005934E+04  0.50400001928E-02 0.  1.
    10030    2    1    2    0    0  0.00000000000E+00  0.00000000000E+00 -0.11060246741E+04  0.14849765128E+04  0.99089084347E+03 0.  0.
        4    1    3    3  502    0 -0.19777625343E+03 -0.37575928107E+03 -0.17048318120E+03  0.45757689157E+03  0.12699999809E+01 0. -1.
       -4    1    3    3    0  502  0.19777625343E+03  0.37575928107E+03 -0.93554149292E+03  0.10273996212E+04  0.12699999809E+01 0.  1.
</event>
<event>
 5   0  0.1293716E-03  0.9937927E+03  0.7818609E-02  0.9315379E-01
        1   -1    0    0  501    0  0.00000000000E+00  0.00000000000E+00  0.12619386521E+04  0.12619386522E+04  0.50400001928E-02 0.  1.
       -1   -1    0    0    0  501  0.00000000000E+00  0.00000000000E+00 -0.19565607814E+03  0.19565607820E+03  0.50400001928E-02 0. -1.
    10030    2    1    2    0    0  0.00000000000E+00  0.00000000000E+00  0.10662825740E+04  0.14575947304E+04  0.99379266970E+03 0.  0.
        3    1    3    3  502    0  0.38218756874E+02  0.17307142011E+03  0.12139986535E+04  0.12268688320E+04  0.10100000352E+00 0.  1.
       -3    1    3    3    0  502 -0.38218756874E+02 -0.17307142011E+03 -0.14771607954E+03  0.23072589840E+03  0.10100000352E+00 0. -1.
</event>
<event>
 5   0  0.8680125E-04  0.1001127E+04  0.7818609E-02  0.9307309E-01
       -3   -1    0    0    0  501  0.00000000000E+00  0.00000000000E+00  0.10471875479E+04  0.10471875528E+04  0.10100000352E+00 0.  1.
        3   -1    0    0  501    0  0.00000000000E+00  0.00000000000E+00 -0.23927323439E+03  0.23927325571E+03  0.10100000352E+00 0. -1.
    10030    2    1    2    0    0  0.00000000000E+00  0.00000000000E+00  0.80791431353E+03  0.12864608085E+04  0.10011273015E+04 0.  0.
        1    1    3    3  502    0  0.21883685634E+03 -0.44966072994E+03  0.37581489987E+03  0.62555669666E+03  0.50400001928E-02 0.  1.
       -1    1    3    3    0  502 -0.21883685634E+03  0.44966072994E+03  0.43209941366E+03  0.66090411184E+03  0.50400001928E-02 0. -1.
</event>
<event>
 5   0  0.2277570E-03  0.9966525E+03  0.7818609E-02  0.9312224E-01
        2   -1    0    0  501    0  0.00000000000E+00  0.00000000000E+00  0.58795972517E+03  0.58795972517E+03  0.25500000920E-02 0.  1.
       -2   -1    0    0    0  501  0.00000000000E+00  0.00000000000E+00 -0.42235725382E+03  0.42235725382E+03  0.25500000920E-02 0. -1.
    10030    2    1    2    0    0  0.00000000000E+00  0.00000000000E+00  0.16560247135E+03  0.10103169790E+04  0.99665250691E+03 0.  0.
        3    1    3    3  502    0  0.13123897415E+03  0.10291138579E+03 -0.39322685918E+03  0.42713205762E+03  0.10100000352E+00 0. -1.
       -3    1    3    3    0  502 -0.13123897415E+03 -0.10291138579E+03  0.55882933053E+03  0.58318492138E+03  0.10100000352E+00 0.  1.
</event>
<event>
 5   0  0.2255142E-03  0.1002347E+04  0.7818609E-02  0.9305974E-01
       -2   -1    0    0    0  501  0.00000000000E+00  0.00000000000E+00  0.28525814355E+03  0.28525814356E+03  0.25500000920E-02 0. -1.
        2   -1    0    0  501    0  0.00000000000E+00  0.00000000000E+00 -0.88051784611E+03  0.88051784611E+03  0.25500000920E-02 0.  1.
    10030    2    1    2    0    0  0.00000000000E+00  0.00000000000E+00 -0.59525970256E+03  0.11657759897E+04  0.10023470181E+04 0.  0.
        4    1    3    3  502    0 -0.12799195323E+03 -0.24162792734E+02  0.26522627308E+03  0.29548666548E+03  0.12699999809E+01 0. -1.
       -4    1    3    3    0  502  0.12799195323E+03  0.24162792734E+02 -0.86048597563E+03  0.87028932420E+03  0.12699999809E+01 0.  1.
</event>
<event>
 5   0  0.1293575E-03  0.9997697E+03  0.7818609E-02  0.9308797E-01
        1   -1    0    0  501    0  0.00000000000E+00  0.00000000000E+00  0.49645137889E+03  0.49645137891E+03  0.50400001928E-02 0. -1.
       -1   -1    0    0    0  501  0.00000000000E+00  0.00000000000E+00 -0.50334209401E+03  0.50334209403E+03  0.50400001928E-02 0.  1.
    10030    2    1    2    0    0  0.00000000000E+00  0.00000000000E+00 -0.68907151208E+01  0.99979347295E+03  0.99976972678E+03 0.  0.
        4    1    3    3  502    0 -0.39802067084E+02  0.16231310092E+03 -0.47457597651E+03  0.50314383397E+03  0.12699999809E+01 0.  1.
       -4    1    3    3    0  502  0.39802067084E+02 -0.16231310092E+03  0.46768526139E+03  0.49664963898E+03  0.12699999809E+01 0. -1.
</event>
<event>
 5   0  0.1285769E-03  0.1007265E+04  0.7818609E-02  0.9300613E-01
        1   -1    0    0  501    0  0.00000000000E+00  0.00000000000E+00  0.18454014202E+04  0.18454014202E+04  0.50400001928E-02 0.  1.
       -1   -1    0    0    0  501  0.00000000000E+00  0.00000000000E+00 -0.13744739065E+03  0.13744739074E+03  0.50400001928E-02 0. -1.
    10030    2    1    2    0    0  0.00000000000E+00  0.00000000000E+00  0.17079540296E+04  0.19828488110E+04  0.10072648311E+04 0.  0.
        5    1    3    3  502    0  0.43645137920E+03  0.47143168700E+02  0.13398185427E+04  0.14099106717E+04  0.46999998093E+01 0.  1.
       -5    1    3    3    0  502 -0.43645137920E+03 -0.47143168700E+02  0.36813548689E+03  0.57293813930E+03  0.46999998093E+01 0. -1.
</event>
<event>
 5   0  0.2277570E-03  0.9989794E+03  0.7818609E-02  0.9309665E-01
       -2   -1    0    0    0  501  0.00000000000E+00  0.00000000000E+00  0.72357573244E+03  0.72357573245E+03  0.25500000920E-02 0. -1.
        2   -1    0    0  501    0  0.00000000000E+00  0.00000000000E+00 -0.34480141967E+03  0.34480141968E+03  0.25500000920E-02 0.  1.
    10030    2    1    2    0    0  0.00000000000E+00  0.00000000000E+00  0.37877431278E+03  0.10683771521E+04  0.99897935873E+03 0.  0.
        3    1    3    3  502    0 -0.86937414005E+02 -0.29627003226E+03 -0.23051502376E+03  0.38531964958E+03  0.10100000352E+00 0.  1.
       -3    1    3    3    0  502  0.86937414005E+02  0.29627003226E+03  0.60928933654E+03  0.68305750255E+03  0.10100000352E+00 0. -1.
</event>
<event>
 5   0  0.1293575E-03  0.1001254E+04  0.7818609E-02  0.9307171E-01
        1   -1    0    0  501    0  0.00000000000E+00  0.00000000000E+00  0.66088950558E+03  0.66088950560E+03  0.50400001928E-02 0. -1.
       -1   -1    0    0    0  501  0.00000000000E+00  0.00000000000E+00 -0.37922723710E+03  0.37922723713E+03  0.50400001928E-02 0.  1.
    10030    2    1    2    0    0  0.00000000000E+00  0.00000000000E+00  0.28166226848E+03  0.10401167427E+04  0.10012538165E+04 0.  0.
        4    1    3    3  502    0 -0.59806060435E+02 -0.26089476867E+03 -0.29865340761E+03  0.40104652593E+03  0.12699999809E+01 0.  1.
       -4    1    3    3    0  502  0.59806060435E+02  0.26089476867E+03  0.58031567609E+03  0.63907021680E+03  0.12699999809E+01 0. -1.
</event>
<event>
 5   0  0.2277570E-03  0.9832348E+03  0.7818609E-02  0.9327126E-01
        2   -1    0    0  501    0  0.00000000000E+00  0.00000000000E+00  0.95217758831E+03  0.95217758832E+03  0.25500000920E-02 0. -1.
       -2   -1    0    0    0  501  0.00000000000E+00  0.00000000000E+00 -0.25382625553E+03  0.25382625555E+03  0.25500000920E-02 0.  1.
    10030    2    1    2    0    0  0.00000000000E+00  0.00000000000E+00  0.69835133278E+03  0.12060038439E+04  0.98323480787E+03 0.  0.
        3    1    3    3  502    0 -0.42914651109E+03 -0.20683081679E+03  0.49810109835E+03  0.68923902177E+03  0.10100000352E+00 0.  1.
       -3    1    3    3    0  502  0.42914651109E+03  0.20683081679E+03  0.20025023443E+03  0.51676482209E+03  0.10100000352E+00 0. -1.
</event>
<event>
 5   0  0.1285769E-03  0.9989637E+03  0.7818609E-02  0.9309682E-01
       -1   -1    0    0    0  501  0.00000000000E+00  0.00000000000E+00  0.16785012128E+03  0.16785012135E+03  0.50400001928E-02 0.  1.
        1   -1    0    0  501    0  0.00000000000E+00  0.00000000000E+00 -0.14863386007E+04  0.14863386007E+04  0.50400001928E-02 0. -1.
    10030    2    1    2    0    0  0.00000000000E+00  0.00000000000E+00 -0.13184884794E+04  0.16541887220E+04  0.99896369193E+03 0.  0.
        5    1    3    3  502    0  0.49057744408E+03 -0.90363165596E+02 -0.70075080969E+03  0.86017760819E+03  0.46999998093E+01 0. -1.
       -5    1    3    3    0  502 -0.49057744408E+03  0.90363165596E+02 -0.61773766969E+03  0.79401111383E+03  0.46999998093E+01 0.  1.
</event>
<event>
 5   0  0.1249195E-03  0.1000505E+04  0.7818609E-02  0.9307991E-01
       -1   -1    0    0    0  501  0.00000000000E+00  0.00000000000E+00  0.98922821057E+03  0.98922821058E+03  0.50400001928E-02 0.  1.
        1   -1    0    0  501    0  0.00000000000E+00  0.00000000000E+00 -0.25297774999E+03  0.25297775004E+03  0.50400001928E-02 0. -1.
    10030    2    1    2    0    0  0.00000000000E+00  0.00000000000E+00  0.73625046058E+03  0.12422059606E+04  0.10005053263E+04 0.  0.
        2    1    3    3  502    0  0.39361532560E+03 -0.29140617311E+03  0.49475495106E+03  0.69615590486E+03  0.25500000920E-02 0.  1.
       -2    1    3    3    0  502 -0.39361532560E+03  0.29140617311E+03  0.24149550952E+03  0.54605005576E+03  0.25500000920E-02 0. -1.
</event>
<event>
 5   0  0.2264577E-03  0.9932985E+03  0.7818609E-02  0.9315926E-01
        2   -1    0    0  501    0  0.00000000000E+00  0.00000000000E+00  0.10554717042E+04  0.10554717042E+04  0.25500000920E-02 0. -1.
       -2   -1    0    0    0  501  0.00000000000E+00  0.00000000000E+00 -0.23369691224E+03  0.23369691225E+03  0.25500000920E-02 0.  1.
    10030    2    1    2    0    0  0.00000000000E+00  0.00000000000E+00  0.82177479198E+03  0.12891686165E+04  0.99329850145E+03 0.  0.
        5    1    3    3  502    0 -0.14770611236E+03  0.23202129076E+02  0.10255376675E+04  0.10363903859E+04  0.46999998093E+01 0. -1.
       -5    1    3    3    0  502  0.14770611236E+03 -0.23202129076E+02 -0.20376287554E+03  0.25277823061E+03  0.46999998093E+01 0.  1.
</event>
<event>
 5   0  0.1353789E-03  0.1006724E+04  0.7818609E-02  0.9301201E-01
        1   -1    0    0  501    0  0.00000000000E+00  0.00000000000E+00  0.70853145168E+03  0.70853145169E+03  0.50400001928E-02 0. -1.
       -1   -1    0    0    0  501  0.00000000000E+00  0.00000000000E+00 -0.35760336824E+03  0.35760336828E+03  0.50400001928E-02 0.  1.
    10030    2    1    2    0    0  0.00000000000E+00  0.00000000000E+00  0.35092808344E+03  0.10661348200E+04  0.10067238621E+04 0.  0.
        1    1    3    3  502    0  0.11735820989E+03  0.14238115907E+03  0.67142637554E+03  0.69631797455E+03  0.50400001928E-02 0. -1.
       -1    1    3    3    0  502 -0.11735820989E+03 -0.14238115907E+03 -0.32049829211E+03  0.36981684542E+03  0.50400001928E-02 0.  1.
</event>
<event>
 5   0  0.1353789E-03  0.1001630E+04  0.7818609E-02  0.9306759E-01
       -1   -1    0    0    0  501  0.00000000000E+00  0.00000000000E+00  0.93097017154E+03  0.93097017156E+03  0.50400001928E-02 0. -1.
        1   -1    0    0  501    0  0.00000000000E+00  0.00000000000E+00 -0.26941313275E+03  0.26941313280E+03  0.50400001928E-02 0.  1.
    10030    2    1    2    0    0  0.00000000000E+00  0.00000000000E+00  0.66155703879E+03  0.12003833044E+04  0.10016298527E+04 0.  0.
        1    1    3    3  502    0  0.29690119205E+03 -0.35709260025E+03  0.55546464836E+03  0.72402100701E+03  0.50400001928E-02 0. -1.
       -1    1    3    3    0  502 -0.29690119205E+03  0.35709260025E+03  0.10609239043E+03  0.47636229734E+03  0.50400001928E-02 0.  1.
</event>
<event>
 5   0  0.2264577E-03  0.9980498E+03  0.7818609E-02  0.9310686E-01
        2   -1    0    0  501    0  0.00000000000E+00  0.00000000000E+00  0.75331540160E+03  0.75331540160E+03  0.25500000920E-02 0. -1.
       -2   -1    0    0    0  501  0.00000000000E+00  0.00000000000E+00 -0.33057317031E+03  0.33057317032E+03  0.25500000920E-02 0.  1.
    10030    2    1    2    0    0  0.00000000000E+00  0.00000000000E+00  0.42274223129E+03  0.10838885719E+04  0.99804981951E+03 0.  0.
        5    1    3    3  502    0 -0.19670952665E+03  0.67879511918E+01 -0.28661118052E+03  0.34771938823E+03  0.46999998093E+01 0.  1.
       -5    1    3    3    0  502  0.19670952665E+03 -0.67879511918E+01  0.70935341181E+03  0.73616918368E+03  0.46999998093E+01 0. -1.
</event>
<event>
 5   0  0.1293575E-03  0.9974472E+03  0.7818609E-02  0.9311349E-01
       -1   -1    0    0    0  501  0.00000000000E+00  0.00000000000E+00  0.63115156273E+03  0.63115156275E+03  0.50400001928E-02 0.  1.
        1   -1    0    0  501    0  0.00000000000E+00  0.00000000000E+00 -0.39408163899E+03  0.39408163902E+03  0.50400001928E-02 0. -1.
    10030    2    1    2    0    0  0.00000000000E+00  0.00000000000E+00  0.23706992374E+03  0.10252332018E+04  0.99744722631E+03 0.  0.
        4    1    3    3  502    0 -0.15757506945E+03 -0.17766225782E+03 -0.33223615470E+03  0.40838248708E+03  0.12699999809E+01 0. -1.
       -4    1    3    3    0  502  0.15757506945E+03  0.17766225782E+03  0.56930607844E+03  0.61685071469E+03  0.12699999809E+01 0.  1.
</event>
<event>
 5   0  0.1353789E-03  0.1000721E+04  0.7818609E-02  0.9307754E-01
       -1   -1    0    0    0  501  0.00000000000E+00  0.00000000000E+00  0.82281516632E+03  0.82281516634E+03  0.50400001928E-02 0.  1.
        1   -1    0    0  501    0  0.00000000000E+00  0.00000000000E+00 -0.30427349089E+03  0.30427349093E+03  0.50400001928E-02 0. -1.
    10030    2    1    2    0    0  0.00000000000E+00  0.00000000000E+00  0.51854167544E+03  0.11270886573E+04  0.10007214259E+04 0.  0.
        1    1    3    3  502    0  0.18814620406E+03  0.30584531759E+03  0.65172674686E+03  0.74410221408E+03  0.50400001928E-02 0.  1.
       -1    1    3    3    0  502 -0.18814620406E+03 -0.30584531759E+03 -0.13318507143E+03  0.38298644319E+03  0.50400001928E-02 0. -1.
</event>
<event>
 5   0  0.2264577E-03  0.1000553E+04  0.7818609E-02  0.9307939E-01
        2   -1    0    0  501    0  0.00000000000E+00  0.00000000000E+00  0.40881071796E+03  0.40881071797E+03  0.25500000920E-02 0.  1.
       -2   -1    0    0    0  501  0.00000000000E+00  0.00000000000E+00 -0.61220610596E+03  0.61220610597E+03  0.25500000920E-02 0. -1.
    10030    2    1    2    0    0  0.00000000000E+00  0.00000000000E+00 -0.20339538800E+03  0.10210168239E+04  0.10005526827E+04 0.  0.
        5    1    3    3  502    0  0.14209677615E+03 -0.99084851405E+02 -0.58059896786E+03  0.60590969050E+03  0.46999998093E+01 0. -1.
       -5    1    3    3    0  502 -0.14209677615E+03  0.99084851405E+02  0.37720357986E+03  0.41510713344E+03  0.46999998093E+01 0.  1.
</event>
<event>
 5   0  0.1285769E-03  0.9957888E+03  0.7818609E-02  0.9313176E-01
       -1   -1    0    0    0  501  0.00000000000E+00  0.00000000000E+00  0.35701918775E+03  0.35701918778E+03  0.50400001928E-02 0. -1.
        1   -1    0    0  501    0  0.00000000000E+00  0.00000000000E+00 -0.69435715331E+03  0.69435715333E+03  0.50400001928E-02 0.  1.
    10030    2    1    2    0    0  0.00000000000E+00  0.00000000000E+00 -0.33733796556E+03  0.10513763411E+04  0.99578878666E+03 0.  0.
        5    1    3    3  502    0  0.35135937492E+03 -0.23646225214E+03 -0.44502222261E+03  0.61435712386E+03  0.46999998093E+01 0.  1.
       -5    1    3    3    0  502 -0.35135937492E+03  0.23646225214E+03  0.10768425705E+03  0.43701921725E+03  0.46999998093E+01 0. -1.
</event>
<event>
 5   0  0.2277570E-03  0.1006592E+04  0.7818609E-02  0.9301344E-01
        2   -1    0    0  501    0  0.00000000000E+00  0.00000000000E+00  0.20098775937E+03  0.20098775939E+03  0.25500000920E-02 0. -1.
       -2   -1    0    0    0  501  0.00000000000E+00  0.00000000000E+00 -0.12603104585E+04  0.12603104585E+04  0.25500000920E-02 0.  1.
    10030    2    1    2    0    0  0.00000000000E+00  0.00000000000E+00 -0.10593226992E+04  0.14612982179E+04  0.10065922217E+04 0.  0.
        3    1    3    3  502    0 -0.31940398059E+03 -0.32748924150E+03 -0.83431284418E+03  0.95149673583E+03  0.10100000352E+00 0.  1.
       -3    1    3    3    0  502  0.31940398059E+03  0.32748924150E+03 -0.22500985499E+03  0.50980148211E+03  0.10100000352E+00 0. -1.
</event>
<event>
 5   0  0.1249195E-03  0.9913010E+03  0.7818609E-02  0.9318138E-01
       -1   -1    0    0    0  501  0.00000000000E+00  0.00000000000E+00  0.56211372605E+03  0.56211372608E+03  0.50400001928E-02 0.  1.
        1   -1    0    0  501    0  0.00000000000E+00  0.00000000000E+00 -0.43704573626E+03  0.43704573629E+03  0.50400001928E-02 0. -1.
    10030    2    1    2    0    0  0.00000000000E+00  0.00000000000E+00  0.12506798980E+03  0.99915946236E+03  0.99130097809E+03 0.  0.
        2    1    3    3  502    0  0.31048903761E+02  0.25060036576E+03  0.49241809836E+03  0.55338970115E+03  0.25500000920E-02 0.  1.
       -2    1    3    3    0  502 -0.31048903761E+02 -0.25060036576E+03 -0.36735010856E+03  0.44576976121E+03  0.25500000920E-02 0. -1.
</event>
<event>
 5   0  0.1293575E-03  0.1011256E+04  0.7818609E-02  0.9296285E-01
        1   -1    0    0  501    0  0.00000000000E+00  0.00000000000E+00  0.93376669344E+03  0.93376669345E+03  0.50400001928E-02 0.  1.
       -1   -1    0    0    0  501  0.00000000000E+00  0.00000000000E+00 -0.27379400935E+03  0.27379400939E+03  0.50400001928E-02 0. -1.
    10030    2    1    2    0    0  0.00000000000E+00  0.00000000000E+00  0.65997268409E+03  0.12075607028E+04  0.10112561037E+04 0.  0.
        4    1    3    3  502    0  0.42455274409E+03  0.81964662036E+02  0.17011098365E+02  0.43272881659E+03  0.12699999809E+01 0. -1.
       -4    1    3    3    0  502 -0.42455274409E+03 -0.81964662036E+02  0.64296158572E+03  0.77483188625E+03  0.12699999809E+01 0.  1.
</event>
<event>
 5   0  0.1353789E-03  0.9648897E+03  0.7818609E-02  0.9347914E-01
        1   -1    0    0  501    0  0.00000000000E+00  0.00000000000E+00  0.49801603017E+03  0.49801603020E+03  0.50400001928E-02 0. -1.
       -1   -1    0    0    0  501  0.00000000000E+00  0.00000000000E+00 -0.46736055153E+03  0.46736055155E+03  0.50400001928E-02 0.  1.
    10030    2    1    2    0    0  0.00000000000E+00  0.00000000000E+00  0.30655478645E+02  0.96537658175E+03  0.96488972749E+03 0.  0.
        1    1    3    3  502    0  0.21193154095E+03  0.34247249479E+03  0.28107549986E+03  0.49112709595E+03  0.50400001928E-02 0. -1.
       -1    1    3    3    0  502 -0.21193154095E+03 -0.34247249479E+03 -0.25042002121E+03  0.47424948580E+03  0.50400001928E-02 0.  1.
</event>
<event>
 5   0  0.1293575E-03  0.1002804E+04  0.7818609E-02  0.9305475E-01
       -1   -1    0    0    0  501  0.00000000000E+00  0.00000000000E+00  0.12972879391E+03  0.12972879401E+03  0.50400001928E-02 0.  1.
        1   -1    0    0  501    0  0.00000000000E+00  0.00000000000E+00 -0.19379192244E+04  0.19379192244E+04  0.50400001928E-02 0. -1.
    10030    2    1    2    0    0  0.00000000000E+00  0.00000000000E+00 -0.18081904305E+04  0.20676480184E+04  0.10028039166E+04 0.  0.
        4    1    3    3  502    0 -0.49462832289E+03  0.81388054993E+02 -0.88140366523E+03  0.10139798949E+04  0.12699999809E+01 0.  1.
       -4    1    3    3    0  502  0.49462832289E+03 -0.81388054993E+02 -0.92678676523E+03  0.10536681235E+04  0.12699999809E+01 0. -1.
</event>
<event>
 5   0  0.2284843E-03  0.1000576E+04  0.7818609E-02  0.9307913E-01
        2   -1    0    0  501    0  0.00000000000E+00  0.00000000000E+00  0.23634380678E+04  0.23634380678E+04  0.25500000920E-02 0.  1.
       -2   -1    0    0    0  501  0.00000000000E+00  0.00000000000E+00 -0.10590005992E+03  0.10590005995E+03  0.25500000920E-02 0. -1.
    10030    2    1    2    0    0  0.00000000000E+00  0.00000000000E+00  0.22575380079E+04  0.24693381278E+04  0.10005763000E+04 0.  0.
        2    1    3    3  502    0 -0.35324937036E+03  0.33419950380E+03  0.14188284698E+04  0.14998495434E+04  0.25500000920E-02 0. -1.
       -2    1    3    3    0  502  0.35324937036E+03 -0.33419950380E+03  0.83870953812E+03  0.96948858443E+03  0.25500000920E-02 0.  1.
</event>
<event>
 5   0  0.2204862E-03  0.9983900E+03  0.7818609E-02  0.9310312E-01
        2   -1    0    0  501    0  0.00000000000E+00  0.00000000000E+00  0.66546188014E+03  0.66546188014E+03  0.25500000920E-02 0.  1.
       -2   -1    0    0    0  501  0.00000000000E+00  0.00000000000E+00 -0.37447023305E+03  0.37447023305E+03  0.25500000920E-02 0. -1.
    10030    2    1    2    0    0  0.00000000000E+00  0.00000000000E+00  0.29099164709E+03  0.10399321132E+04  0.99839003470E+03 0.  0.
        1    1    3    3  502    0  0.38620634194E+02 -0.49720808977E+03  0.12248056668E+03  0.51352597516E+03  0.50400001928E-02 0. -1.
       -1    1    3    3    0  502 -0.38620634194E+02  0.49720808977E+03  0.16851108041E+03  0.52640613804E+03  0.50400001928E-02 0.  1.
</event>
<event>
 5   0  0.2277570E-03  0.9951591E+03  0.7818609E-02  0.9313870E-01
        2   -1    0    0  501    0  0.00000000000E+00  0.00000000000E+00  0.97250946037E+03  0.97250946037E+03  0.25500000920E-02 0. -1.
       -2   -1    0    0    0  501  0.00000000000E+00  0.00000000000E+00 -0.25458408075E+03  0.25458408076E+03  0.25500000920E-02 0.  1.
    10030    2    1    2    0    0  0.00000000000E+00  0.00000000000E+00  0.71792537962E+03  0.12270935411E+04  0.99515913701E+03 0.  0.
        3    1    3    3  502    0 -0.44355106382E+03 -0.87185008413E+01  0.63680390201E+03  0.77610101036E+03  0.10100000352E+00 0. -1.
       -3    1    3    3    0  502  0.44355106382E+03  0.87185008413E+01  0.81121477616E+02  0.45099253077E+03  0.10100000352E+00 0.  1.
</event>
<event>
 5   0  0.2204862E-03  0.1002818E+04  0.7818609E-02  0.9305459E-01
       -2   -1    0    0    0  501  0.00000000000E+00  0.00000000000E+00  0.40846615841E+03  0.40846615842E+03  0.25500000920E-02 0. -1.
        2   -1    0    0  501    0  0.00000000000E+00  0.00000000000E+00 -0.61550075421E+03  0.61550075422E+03  0.25500000920E-02 0.  1.
    10030    2    1    2    0    0  0.00000000000E+00  0.00000000000E+00 -0.20703459580E+03  0.10239669126E+04  0.10028184852E+04 0.  0.
        1    1    3    3  502    0 -0.11198393634E+03 -0.48785532614E+03 -0.73434011094E+02  0.50590095400E+03  0.50400001928E-02 0. -1.
       -1    1    3    3    0  502  0.11198393634E+03  0.48785532614E+03 -0.13360058471E+03  0.51806595864E+03  0.50400001928E-02 0.  1.
</event>
<event>
 5   0  0.2255142E-03  0.1005429E+04  0.7818609E-02  0.9302610E-01
        2   -1    0    0  501    0  0.00000000000E+00  0.00000000000E+00  0.56172221289E+03  0.56172221290E+03  0.25500000920E-02 0.  1.
       -2   -1    0    0    0  501  0.00000000000E+00  0.00000000000E+00 -0.44990542181E+03  0.44990542181E+03  0.25500000920E-02 0. -1.
    10030    2    1    2    0    0  0.00000000000E+00  0.00000000000E+00  0.11181679108E+03  0.10116276347E+04  0.10054290012E+04 0.  0.
        4    1    3    3  502    0 -0.45672664114E+03  0.20631953247E+03  0.16253716828E+02  0.50143072345E+03  0.12699999809E+01 0.  1.
       -4    1    3    3    0  502  0.45672664114E+03 -0.20631953247E+03  0.95563074256E+02  0.51019691127E+03  0.12699999809E+01 0. -1.
</event>
<event>
 5   0  0.1293716E-03  0.1000655E+04  0.7818609E-02  0.9307827E-01
       -1   -1    0    0    0  501  0.00000000000E+00  0.00000000000E+00  0.87276351919E+03  0.87276351920E+03  0.50400001928E-02 0.  1.
        1   -1    0    0  501    0  0.00000000000E+00  0.00000000000E+00 -0.28682170430E+03  0.28682170435E+03  0.50400001928E-02 0. -1.
    10030    2    1    2    0    0  0.00000000000E+00  0.00000000000E+00  0.58594181488E+03  0.11595852236E+04  0.10006548257E+04 0.  0.
        3    1    3    3  502    0  0.28794894254E+02  0.82878474003E+02 -0.27783728832E+03  0.29136155610E+03  0.10100000352E+00 0. -1.
       -3    1    3    3    0  502 -0.28794894254E+02 -0.82878474003E+02  0.86377910321E+03  0.86822366745E+03  0.10100000352E+00 0.  1.
</event>
<event>
 5   0  0.1353789E-03  0.1003002E+04  0.7818609E-02  0.9305259E-01
        1   -1    0    0  501    0  0.00000000000E+00  0.00000000000E+00  0.10670835982E+04  0.10670835982E+04  0.50400001928E-02 0. -1.
       -1   -1    0    0    0  501  0.00000000000E+00  0.00000000000E+00 -0.23569195844E+03  0.23569195849E+03  0.50400001928E-02 0.  1.
    10030    2    1    2    0    0  0.00000000000E+00  0.00000000000E+00  0.83139163974E+03  0.13027755567E+04  0.10030015416E+04 0.  0.
        1    1    3    3  502    0  0.21926174878E+03  0.34160248594E+03  0.33165980485E+02  0.40726889786E+03  0.50400001928E-02 0.  1.
       -1    1    3    3    0  502 -0.21926174878E+03 -0.34160248594E+03  0.79822565926E+03  0.89550665882E+03  0.50400001928E-02 0. -1.
</event>
<event>
 5   0  0.1285769E-03  0.1000357E+04  0.7818609E-02  0.9308153E-01
       -1   -1    0    0    0  501  0.00000000000E+00  0.00000000000E+00  0.83723594038E+03  0.83723594040E+03  0.50400001928E-02 0. -1.
        1   -1    0    0  501    0  0.00000000000E+00  0.00000000000E+00 -0.29881513397E+03  0.29881513402E+03  0.50400001928E-02 0.  1.
    10030    2    1    2    0    0  0.00000000000E+00  0.00000000000E+00  0.53842080641E+03  0.11360510744E+04  0.10003574756E+04 0.  0.
        5    1    3    3  502    0 -0.97021632394E+02  0.40987071536E+03  0.57551786697E+03  0.71319710155E+03  0.46999998093E+01 0. -1.
       -5    1    3    3    0  502  0.97021632394E+02 -0.40987071536E+03 -0.37097060562E+02  0.42285397286E+03  0.46999998093E+01 0.  1.
</event>
<event>
 5   0  0.1353789E-03  0.9980686E+03  0.7818609E-02  0.9310666E-01
        1   -1    0    0  501    0  0.00000000000E+00  0.00000000000E+00  0.86043181220E+03  0.86043181222E+03  0.50400001928E-02 0. -1.
       -1   -1    0    0    0  501  0.00000000000E+00  0.00000000000E+00 -0.28943053775E+03  0.28943053780E+03  0.50400001928E-02 0.  1.
    10030    2    1    2    0    0  0.00000000000E+00  0.00000000000E+00  0.57100127445E+03  0.11498623500E+04  0.99806861916E+03 0.  0.
        1    1    3    3  502    0 -0.66752360214E+02 -0.49296880134E+03  0.23998041736E+03  0.55232664016E+03  0.50400001928E-02 0.  1.
       -1    1    3    3    0  502  0.66752360214E+02  0.49296880134E+03  0.33102085709E+03  0.59753570985E+03  0.50400001928E-02 0. -1.
</event>
<event>
 5   0  0.1293575E-03  0.9918416E+03  0.7818609E-02  0.9317538E-01
        1   -1    0    0  501    0  0.00000000000E+00  0.00000000000E+00  0.69106748327E+03  0.69106748329E+03  0.50400001928E-02 0. -1.
       -1   -1    0    0    0  501  0.00000000000E+00  0.00000000000E+00 -0.35588046851E+03  0.35588046855E+03  0.50400001928E-02 0.  1.
    10030    2    1    2    0    0  0.00000000000E+00  0.00000000000E+00  0.33518701475E+03  0.10469479518E+04  0.99184155942E+03 0.  0.
        4    1    3    3  502    0  0.33799612837E+03  0.15777179675E+03 -0.17737024795E+03  0.41303164577E+03  0.12699999809E+01 0.  1.
       -4    1    3    3    0  502 -0.33799612837E+03 -0.15777179675E+03  0.51255726271E+03  0.63391630607E+03  0.12699999809E+01 0. -1.
</event>
<event>
 5   0  0.1293716E-03  0.1003511E+04  0.7818609E-02  0.9304702E-01
        1   -1    0    0  501    0  0.00000000000E+00  0.00000000000E+00  0.10346936845E+04  0.10346936845E+04  0.50400001928E-02 0. -1.
       -1   -1    0    0    0  501  0.00000000000E+00  0.00000000000E+00 -0.24331723468E+03  0.24331723473E+03  0.50400001928E-02 0.  1.
    10030    2    1    2    0    0  0.00000000000E+00  0.00000000000E+00  0.79137644985E+03  0.12780109193E+04  0.10035114471E+04 0.  0.
        3    1    3    3  502    0  0.11746956500E+03  0.25603538790E+03 -0.13310744370E+03  0.31156190449E+03  0.10100000352E+00 0.  1.
       -3    1    3    3    0  502 -0.11746956500E+03 -0.25603538790E+03  0.92448389355E+03  0.96644901479E+03  0.10100000352E+00 0. -1.
</event>
<event>
 5   0  0.2255142E-03  0.9983421E+03  0.7818609E-02  0.9310365E-01
       -2   -1    0    0    0  501  0.00000000000E+00  0.00000000000E+00  0.27532503171E+03  0.27532503173E+03  0.25500000920E-02 0.  1.
        2   -1    0    0  501    0  0.00000000000E+00  0.00000000000E+00 -0.90500938998E+03  0.90500938998E+03  0.25500000920E-02 0. -1.
    10030    2    1    2    0    0  0.00000000000E+00  0.00000000000E+00 -0.62968435826E+03  0.11803344217E+04  0.99834210370E+03 0.  0.
        4    1    3    3  502    0 -0.40622115274E+03  0.23879006555E+01  0.28122698027E+02  0.40720243866E+03  0.12699999809E+01 0.  1.
       -4    1    3    3    0  502  0.40622115274E+03 -0.23879006555E+01 -0.65780705629E+03  0.77313198305E+03  0.12699999809E+01 0. -1.
</event>
<event>
 5   0  0.1249195E-03  0.1000166E+04  0.7818609E-02  0.9308362E-01
        1   -1    0    0  501    0  0.00000000000E+00  0.00000000000E+00  0.13694546175E+04  0.13694546175E+04  0.50400001928E-02 0.  1.
       -1   -1    0    0    0  501  0.00000000000E+00  0.00000000000E+00 -0.18261515252E+03  0.18261515259E+03  0.50400001928E-02 0. -1.
    10030    2    1    2    0    0  0.00000000000E+00  0.00000000000E+00  0.11868394650E+04  0.15520697701E+04  0.10001663140E+04 0.  0.
        2    1    3    3  502    0 -0.27825712078E+03  0.34424681789E+03  0.23230989639E+03  0.49990077502E+03  0.25500000920E-02 0. -1.
       -2    1    3    3    0  502  0.27825712078E+03 -0.34424681789E+03  0.95452956858E+03  0.10521689951E+04  0.25500000920E-02 0.  1.
</event>
<event>
 5   0  0.1293716E-03  0.1006386E+04  0.7818609E-02  0.9301568E-01
        1   -1    0    0  501    0  0.00000000000E+00  0.00000000000E+00  0.54219914361E+03  0.54219914363E+03  0.50400001928E-02 0.  1.
       -1   -1    0    0    0  501  0.00000000000E+00  0.00000000000E+00 -0.46699292619E+03  0.46699292622E+03  0.50400001928E-02 0. -1.
    10030    2    1    2    0    0  0.00000000000E+00  0.00000000000E+00  0.75206217422E+02  0.10091920699E+04  0.10063859392E+04 0.  0.
        3    1    3    3  502    0  0.18452972306E+03  0.31758238876E+03 -0.30729392289E+03  0.47889388969E+03  0.10100000352E+00 0. -1.
       -3    1    3    3    0  502 -0.18452972306E+03 -0.31758238876E+03  0.38250014031E+03  0.53029818016E+03  0.10100000352E+00 0.  1.
</event>
<event>
 5   0  0.2264577E-03  0.9968824E+03  0.7818609E-02  0.9311971E-01
        2   -1    0    0  501    0  0.00000000000E+00  0.00000000000E+00  0.95290999065E+03  0.95290999065E+03  0.25500000920E-02 0. -1.
       -2   -1    0    0    0  501  0.00000000000E+00  0.00000000000E+00 -0.26072098812E+03  0.26072098814E+03  0.25500000920E-02 0.  1.
    10030    2    1    2    0    0  0.00000000000E+00  0.00000000000E+00  0.69218900253E+03  0.12136309788E+04  0.99688240904E+03 0.  0.
        5    1    3    3  502    0  0.16055865689E+03  0.13608906541E+03 -0.20393739064E+03  0.29310725908E+03  0.46999998093E+01 0.  1.
       -5    1    3    3    0  502 -0.16055865689E+03 -0.13608906541E+03  0.89612639317E+03  0.92052371971E+03  0.46999998093E+01 0. -1.
</event>
<event>
 5   0  0.1249195E-03  0.9986560E+03  0.7818609E-02  0.9310020E-01
        1   -1    0    0  501    0  0.00000000000E+00  0.00000000000E+00  0.13248672127E+03  0.13248672136E+03  0.50400001928E-02 0. -1.
       -1   -1    0    0    0  501  0.00000000000E+00  0.00000000000E+00 -0.18819128464E+04  0.18819128464E+04  0.50400001928E-02 0.  1.
    10030    2    1    2    0    0  0.00000000000E+00  0.00000000000E+00 -0.17494261251E+04  0.20143995677E+04  0.99865602252E+03 0.  0.
        2    1    3    3  502    0  0.27942534657E+03 -0.38525033751E+03 -0.11795045090E+04  0.12718990658E+04  0.25500000920E-02 0.  1.
       -2    1    3    3    0  502 -0.27942534657E+03  0.38525033751E+03 -0.56992161612E+03  0.74250050195E+03  0.25500000920E-02 0. -1.
</event>
<event>
 5   0  0.1293716E-03  0.9944519E+03  0.7818609E-02  0.9314651E-01
        1   -1    0    0  501    0  0.00000000000E+00  0.00000000000E+00  0.72627370429E+03  0.72627370430E+03  0.50400001928E-02 0.  1.
       -1   -1    0    0    0  501  0.00000000000E+00  0.00000000000E+00 -0.34041389091E+03  0.34041389095E+03  0.50400001928E-02 0. -1.
    10030    2    1    2    0    0  0.00000000000E+00  0.00000000000E+00  0.38585981338E+03  0.10666875953E+04  0.99445192457E+03 0.  0.
        3    1    3    3  502    0 -0.17893730831E+03 -0.36845008947E+03 -0.10943173186E+03  0.42396856354E+03  0.10100000352E+00 0. -1.
       -3    1    3    3    0  502  0.17893730831E+03  0.36845008947E+03  0.49529154524E+03  0.64271903171E+03  0.10100000352E+00 0.  1.
</event>
<event>
 5   0  0.1285769E-03  0.9994180E+03  0.7818609E-02  0.9309183E-01
       -1   -1    0    0    0  501  0.00000000000E+00  0.00000000000E+00  0.26521177768E+03  0.26521177773E+03  0.50400001928E-02 0. -1.
        1   -1    0    0  501    0  0.00000000000E+00  0.00000000000E+00 -0.94154607684E+03  0.94154607685E+03  0.50400001928E-02 0.  1.
    10030    2    1    2    0    0  0.00000000000E+00  0.00000000000E+00 -0.67633429916E+03  0.12067578546E+04  0.99941804835E+03 0.  0.
        5    1    3    3  502    0 -0.27061582401E+03 -0.13840552152E+03 -0.81705581184E+03  0.87177480020E+03  0.46999998093E+01 0.  1.
       -5    1    3    3    0  502  0.27061582401E+03  0.13840552152E+03  0.14072151268E+03  0.33498305438E+03  0.46999998093E+01 0. -1.
</event>
<event>
 5   0  0.2284843E-03  0.1002607E+04  0.7818609E-02  0.9305690E-01
        2   -1    0    0  501    0  0.00000000000E+00  0.00000000000E+00  0.80578892325E+03  0.80578892326E+03  0.25500000920E-02 0.  1.
       -2   -1    0    0    0  501  0.00000000000E+00  0.00000000000E+00 -0.31187464591E+03  0.31187464592E+03  0.25500000920E-02 0. -1.
    10030    2    1    2    0    0  0.00000000000E+00  0.00000000000E+00  0.49391427734E+03  0.11176635692E+04  0.10026068724E+04 0.  0.
        2    1    3    3  502    0  0.39709007675E+03  0.28574530264E+03  0.12497277048E+03  0.50492484629E+03  0.25500000920E-02 0.  1.
       -2    1    3    3    0  502 -0.39709007675E+03 -0.28574530264E+03  0.36894150686E+03  0.61273872289E+03  0.25500000920E-02 0. -1.
</event>
<event>
 5   0  0.2284843E-03  0.1009234E+04  0.7818609E-02  0.9298474E-01
       -2   -1    0    0    0  501  0.00000000000E+00  0.00000000000E+00  0.55475145344E+03  0.55475145345E+03  0.25500000920E-02 0.  1.
        2   -1    0    0  501    0  0.00000000000E+00  0.00000000000E+00 -0.45901359294E+03  0.45901359295E+03  0.25500000920E-02 0. -1.
    10030    2    1    2    0    0  0.00000000000E+00  0.00000000000E+00  0.95737860502E+02  0.10137650464E+04  0.10092342797E+04 0.  0.
        2    1    3    3  502    0 -0.29306314456E+03  0.41063629148E+03  0.59334516748E+02  0.50796530931E+03  0.25500000920E-02 0. -1.
       -2    1    3    3    0  502  0.29306314456E+03 -0.41063629148E+03  0.36403343753E+02  0.50579973708E+03  0.25500000920E-02 0.  1.
</event>
<event>
 5   0  0.2264577E-03  0.1002843E+04  0.7818609E-02  0.9305433E-01
       -2   -1    0    0    0  501  0.00000000000E+00  0.00000000000E+00  0.26149312788E+03  0.26149312789E+03  0.25500000920E-02 0. -1.
        2   -1    0    0  501    0  0.00000000000E+00  0.00000000000E+00 -0.96149118580E+03  0.96149118580E+03  0.25500000920E-02 0.  1.
    10030    2    1    2    0    0  0.00000000000E+00  0.00000000000E+00 -0.69999805792E+03  0.12229843137E+04  0.10028426349E+04 0.  0.
        5    1    3    3  502    0 -0.47243790558E+03  0.14778909727E+03 -0.44727080181E+03  0.66716748426E+03  0.46999998093E+01 0.  1.
       -5    1    3    3    0  502  0.47243790558E+03 -0.14778909727E+03 -0.25272725612E+03  0.55581682943E+03  0.46999998093E+01 0. -1.
</event>
<event>
 5   0  0.2255142E-03  0.9969450E+03  0.7818609E-02  0.9311902E-01
        2   -1    0    0  501    0  0.00000000000E+00  0.00000000000E+00  0.32131587628E+03  0.32131587629E+03  0.25500000920E-02 0.  1.
       -2   -1    0    0    0  501  0.00000000000E+00  0.00000000000E+00 -0.77330396628E+03  0.77330396628E+03  0.25500000920E-02 0. -1.
    10030    2    1    2    0    0  0.00000000000E+00  0.00000000000E+00 -0.45198809000E+03  0.10946198426E+04  0.99694501667E+03 0.  0.
        4    1    3    3  502    0 -0.28235903051E+03  0.12192994460E+03 -0.65670187625E+03  0.72515688004E+03  0.12699999809E+01 0. -1.
       -4    1    3    3    0  502  0.28235903051E+03 -0.12192994460E+03  0.20471378626E+03  0.36946296253E+03  0.12699999809E+01 0.  1.
</event>
<event>
 5   0  0.1353789E-03  0.1000246E+04  0.7818609E-02  0.9308275E-01
        1   -1    0    0  501    0  0.00000000000E+00  0.00000000000E+00  0.51789602973E+03  0.51789602975E+03  0.50400001928E-02 0.  1.
       -1   -1    0    0    0  501  0.00000000000E+00  0.00000000000E+00 -0.48295963000E+03  0.48295963003E+03  0.50400001928E-02 0. -1.
    10030    2    1    2    0    0  0.00000000000E+00  0.00000000000E+00  0.34936399724E+02  0.10008556598E+04  0.10002457197E+04 0.  0.
        1    1    3    3  502    0 -0.39402157421E+03  0.28623150510E+03 -0.96361441858E+02  0.49645443190E+03  0.50400001928E-02 0. -1.
       -1    1    3    3    0  502  0.39402157421E+03 -0.28623150510E+03  0.13129784158E+03  0.50440122788E+03  0.50400001928E-02 0.  1.
</event>
<event>
 5   0  0.2255142E-03  0.9993719E+03  0.7818609E-02  0.9309234E-01
       -2   -1    0    0    0  501  0.00000000000E+00  0.00000000000E+00  0.17263399292E+03  0.17263399294E+03  0.25500000920E-02 0. -1.
        2   -1    0    0  501    0  0.00000000000E+00  0.00000000000E+00 -0.14463318795E+04  0.14463318795E+04  0.25500000920E-02 0.  1.
    10030    2    1    2    0    0  0.00000000000E+00  0.00000000000E+00 -0.12736978866E+04  0.16189658725E+04  0.99937189768E+03 0.  0.
        4    1    3    3  502    0  0.80648627197E+01  0.34581083100E+03 -0.12210192246E+04  0.12690704207E+04  0.12699999809E+01 0.  1.
       -4    1    3    3    0  502 -0.80648627197E+01 -0.34581083100E+03 -0.52678661983E+02  0.34989545178E+03  0.12699999809E+01 0. -1.
</event>
<event>
 5   0  0.1293575E-03  0.9998110E+03  0.7818609E-02  0.9308752E-01
        1   -1    0    0  501    0  0.00000000000E+00  0.00000000000E+00  0.42901035051E+03  0.42901035054E+03  0.50400001928E-02 0. -1.
       -1   -1    0    0    0  501  0.00000000000E+00  0.00000000000E+00 -0.58251629410E+03  0.58251629413E+03  0.50400001928E-02 0.  1.
    10030    2    1    2    0    0  0.00000000000E+00  0.00000000000E+00 -0.15350594359E+03  0.10115266447E+04  0.99981102122E+03 0.  0.
        4    1    3    3  502    0 -0.21541473268E+03  0.26516212804E+03  0.29247476014E+03  0.44973054090E+03  0.12699999809E+01 0. -1.
       -4    1    3    3    0  502  0.21541473268E+03 -0.26516212804E+03 -0.44598070373E+03  0.56179610376E+03  0.12699999809E+01 0.  1.
</event>
<event>
 5   0  0.2204862E-03  0.9998766E+03  0.7818609E-02  0.9308680E-01
       -2   -1    0    0    0  501  0.00000000000E+00  0.00000000000E+00  0.41760816336E+03  0.41760816337E+03  0.25500000920E-02 0. -1.
        2   -1    0    0  501    0  0.00000000000E+00  0.00000000000E+00 -0.59849959028E+03  0.59849959029E+03  0.25500000920E-02 0.  1.
    10030    2    1    2    0    0  0.00000000000E+00  0.00000000000E+00 -0.18089142692E+03  0.10161077537E+04  0.99987662174E+03 0.  0.
        1    1    3    3  502    0  0.32006619685E+03 -0.28730172417E+02  0.29874706138E+03  0.43876827583E+03  0.50400001928E-02 0. -1.
       -1    1    3    3    0  502 -0.32006619685E+03  0.28730172417E+02 -0.47963848830E+03  0.57733947782E+03  0.50400001928E-02 0.  1.
</event>
<event>
 5   0  0.1293716E-03  0.9962152E+03  0.7818609E-02  0.9312706E-01
        1   -1    0    0  501    0  0.00000000000E+00  0.00000000000E+00  0.12142471577E+04  0.12142471577E+04  0.50400001928E-02 0. -1.
       -1   -1    0    0    0  501  0.00000000000E+00  0.00000000000E+00 -0.20433332353E+03  0.20433332359E+03  0.50400001928E-02 0.  1.
    10030    2    1    2    0    0  0.00000000000E+00  0.00000000000E+00  0.10099138341E+04  0.14185804813E+04  0.99621515219E+03 0.  0.
        3    1    3    3  502    0  0.12992080161E+03 -0.32964928991E+03  0.64391205024E+01  0.35438614745E+03  0.10100000352E+00 0.  1.
       -3    1    3    3    0  502 -0.12992080161E+03  0.32964928991E+03  0.10034747136E+04  0.10641943338E+04  0.10100000352E+00 0. -1.
</event>
<event>
 5   0  0.2277570E-03  0.9973255E+03  0.7818609E-02  0.9311483E-01
       -2   -1    0    0    0  501  0.00000000000E+00  0.00000000000E+00  0.11194125929E+03  0.11194125931E+03  0.25500000920E-02 0. -1.
        2   -1    0    0  501    0  0.00000000000E+00  0.00000000000E+00 -0.22213839252E+04  0.22213839252E+04  0.25500000920E-02 0.  1.
    10030    2    1    2    0    0  0.00000000000E+00  0.00000000000E+00 -0.21094426659E+04  0.23333251845E+04  0.99732545135E+03 0.  0.
        3    1    3    3  502    0 -0.77371874669E+02  0.33668013318E+02 -0.22045602361E+04  0.22061744689E+04  0.10100000352E+00 0.  1.
       -3    1    3    3    0  502  0.77371874669E+02 -0.33668013318E+02  0.95117570255E+02  0.12715071562E+03  0.10100000352E+00 0. -1.
</event>
<event>
 5   0  0.1285769E-03  0.1002754E+04  0.7818609E-02  0.9305530E-01
       -1   -1    0    0    0  501  0.00000000000E+00  0.00000000000E+00  0.31528638562E+03  0.31528638566E+03  0.50400001928E-02 0. -1.
        1   -1    0    0  501    0  0.00000000000E+00  0.00000000000E+00 -0.79730322373E+03  0.79730322375E+03  0.50400001928E-02 0.  1.
    10030    2    1    2    0    0  0.00000000000E+00  0.00000000000E+00 -0.48201683811E+03  0.11125896094E+04  0.10027539114E+04 0.  0.
        5    1    3    3  502    0 -0.12514950317E+03 -0.25858295459E+03 -0.69690301155E+03  0.75380596976E+03  0.46999998093E+01 0.  1.
       -5    1    3    3    0  502  0.12514950317E+03  0.25858295459E+03  0.21488617344E+03  0.35878363965E+03  0.46999998093E+01 0. -1.
</event>
<event>
 5   0  0.2204862E-03  0.9993195E+03  0.7818609E-02  0.9309291E-01
        2   -1    0    0  501    0  0.00000000000E+00  0.00000000000E+00  0.21038530811E+04  0.21038530811E+04  0.25500000920E-02 0.  1.
       -2   -1    0    0    0  501  0.00000000000E+00  0.00000000000E+00 -0.11866792210E+03  0.11866792213E+03  0.25500000920E-02 0. -1.
    10030    2    1    2    0    0  0.00000000000E+00  0.00000000000E+00  0.19851851590E+04  0.22225210032E+04  0.99931951561E+03 0.  0.
        1    1    3    3  502    0 -0.45346287486E+03 -0.20980057720E+03  0.98397534920E+03  0.11035634775E+04  0.50400001928E-02 0.  1.
       -1    1    3    3    0  502  0.45346287486E+03  0.20980057720E+03  0.10012098098E+04  0.11189575257E+04  0.50400001928E-02 0. -1.
</event>
<event>
 5   0  0.2277570E-03  0.9984032E+03  0.7818609E-02  0.9310298E-01
        2   -1    0    0  501    0  0.00000000000E+00  0.00000000000E+00  0.73992869604E+03  0.73992869604E+03  0.25500000920E-02 0.  1.
       -2   -1    0    0    0  501  0.00000000000E+00  0.00000000000E+00 -0.33679222932E+03  0.33679222933E+03  0.25500000920E-02 0. -1.
    10030    2    1    2    0    0  0.00000000000E+00  0.00000000000E+00  0.40313646672E+03  0.10767209254E+04  0.99840319528E+03 0.  0.
        3    1    3    3  502    0 -0.21066820554E+03  0.10730583847E+02 -0.28636731881E+03  0.35567188494E+03  0.10100000352E+00 0. -1.
       -3    1    3    3    0  502  0.21066820554E+03 -0.10730583847E+02  0.68950378552E+03  0.72104904043E+03  0.10100000352E+00 0.  1.
</event>
<event>
 5   0  0.1285769E-03  0.1002179E+04  0.7818609E-02  0.9306158E-01
        1   -1    0    0  501    0  0.00000000000E+00  0.00000000000E+00  0.80828670352E+03  0.80828670354E+03  0.50400001928E-02 0.  1.
       -1   -1    0    0    0  501  0.00000000000E+00  0.00000000000E+00 -0.31064544565E+03  0.31064544569E+03  0.50400001928E-02 0. -1.
    10030    2    1    2    0    0  0.00000000000E+00  0.00000000000E+00  0.49764125787E+03  0.11189321492E+04  0.10021787930E+04 0.  0.
        5    1    3    3  502    0 -0.20848235872E+03  0.44213827310E+03  0.12591767727E+03  0.50480540596E+03  0.46999998093E+01 0. -1.
       -5    1    3    3    0  502  0.20848235872E+03 -0.44213827310E+03  0.37172358060E+03  0.61412674327E+03  0.46999998093E+01 0.  1.
</event>
<event>
 5   0  0.1293575E-03  0.1003945E+04  0.7818609E-02  0.9304229E-01
       -1   -1    0    0    0  501  0.00000000000E+00  0.00000000000E+00  0.11031258969E+04  0.11031258969E+04  0.50400001928E-02 0.  1.
        1   -1    0    0  501    0  0.00000000000E+00  0.00000000000E+00 -0.22842025449E+03  0.22842025455E+03  0.50400001928E-02 0. -1.
    10030    2    1    2    0    0  0.00000000000E+00  0.00000000000E+00  0.87470564237E+03  0.13315461514E+04  0.10039448155E+04 0.  0.
        4    1    3    3  502    0  0.38875200057E+03 -0.20289007530E+03  0.76137052375E+03  0.87862346198E+03  0.12699999809E+01 0.  1.
       -4    1    3    3    0  502 -0.38875200057E+03  0.20289007530E+03  0.11333511863E+03  0.45292268945E+03  0.12699999809E+01 0. -1.
</event>
<event>
 5   0  0.1249195E-03  0.1005666E+04  0.7818609E-02  0.9302352E-01
        1   -1    0    0  501    0  0.00000000000E+00  0.00000000000E+00  0.95658408864E+03  0.95658408865E+03  0.50400001928E-02 0. -1.
       -1   -1    0    0    0  501  0.00000000000E+00  0.00000000000E+00 -0.26431655039E+03  0.26431655044E+03  0.50400001928E-02 0.  1.
    10030    2    1    2    0    0  0.00000000000E+00  0.00000000000E+00  0.69226753825E+03  0.12209006391E+04  0.10056659615E+04 0.  0.
        2    1    3    3  502    0 -0.38482922494E+03  0.16856258951E+03  0.68155144339E+03  0.80063677716E+03  0.25500000920E-02 0. -1.
       -2    1    3    3    0  502  0.38482922494E+03 -0.16856258951E+03  0.10716094864E+02  0.42026386193E+03  0.25500000920E-02 0.  1.
</event>
<event>
 5   0  0.2255142E-03  0.1001987E+04  0.7818609E-02  0.9306368E-01
        2   -1    0    0  501    0  0.00000000000E+00  0.00000000000E+00  0.26800100713E+04  0.26800100713E+04  0.25500000920E-02 0. -1.
       -2   -1    0    0    0  501  0.00000000000E+00  0.00000000000E+00 -0.93654349294E+02  0.93654349328E+02  0.25500000920E-02 0.  1.
    10030    2    1    2    0    0  0.00000000000E+00  0.00000000000E+00  0.25863557220E+04  0.27736644206E+04  0.10019872242E+04 0.  0.
        4    1    3    3  502    0 -0.43683423452E+03  0.42102808180E+02  0.19621129751E+04  0.20105933788E+04  0.12699999809E+01 0. -1.
       -4    1    3    3    0  502  0.43683423452E+03 -0.42102808180E+02  0.62424274687E+03  0.76307104179E+03  0.12699999809E+01 0.  1.
</event>
<event>
 5   0  0.2204862E-03  0.1002916E+04  0.7818609E-02  0.9305352E-01
       -2   -1    0    0    0  501  0.00000000000E+00  0.00000000000E+00  0.26777931369E+03  0.26777931370E+03  0.25500000920E-02 0. -1.
        2   -1    0    0  501    0  0.00000000000E+00  0.00000000000E+00 -0.93905819865E+03  0.93905819865E+03  0.25500000920E-02 0.  1.
    10030    2    1    2    0    0  0.00000000000E+00  0.00000000000E+00 -0.67127888496E+03  0.12068375124E+04  0.10029164670E+04 0.  0.
        1    1    3    3  502    0  0.24096376513E+03 -0.19769069055E+03  0.13706361630E+03  0.34048726874E+03  0.50400001928E-02 0. -1.
       -1    1    3    3    0  502 -0.24096376513E+03  0.19769069055E+03 -0.80834250126E+03  0.86635024361E+03  0.50400001928E-02 0.  1.
</event>
<event>
 5   0  0.1353789E-03  0.1000186E+04  0.7818609E-02  0.9308340E-01
       -1   -1    0    0    0  501  0.00000000000E+00  0.00000000000E+00  0.95325206328E+02  0.95325206461E+02  0.50400001928E-02 0.  1.
        1   -1    0    0  501    0  0.00000000000E+00  0.00000000000E+00 -0.26235794960E+04  0.26235794960E+04  0.50400001928E-02 0. -1.
    10030    2    1    2    0    0  0.00000000000E+00  0.00000000000E+00 -0.25282542896E+04  0.27189047024E+04  0.10001864965E+04 0.  0.
        1    1    3    3  502    0 -0.49025872572E+03 -0.92122343826E+02 -0.11678976868E+04  0.12699705316E+04  0.50400001928E-02 0. -1.
       -1    1    3    3    0  502  0.49025872572E+03  0.92122343826E+02 -0.13603566028E+04  0.14489341708E+04  0.50400001928E-02 0.  1.
</event>
<event>
 5   0  0.2264577E-03  0.9971945E+03  0.7818609E-02  0.9311627E-01
       -2   -1    0    0    0  501  0.00000000000E+00  0.00000000000E+00  0.45760491603E+03  0.45760491604E+03  0.25500000920E-02 0.  1.
        2   -1    0    0  501    0  0.00000000000E+00  0.00000000000E+00 -0.54326170165E+03  0.54326170166E+03  0.25500000920E-02 0. -1.
    10030    2    1    2    0    0  0.00000000000E+00  0.00000000000E+00 -0.85656785620E+02  0.10008666177E+04  0.99719451537E+03 0.  0.
        5    1    3    3  502    0 -0.40361226355E+03  0.12563482405E+03 -0.30816939335E+03  0.52314188639E+03  0.46999998093E+01 0. -1.
       -5    1    3    3    0  502  0.40361226355E+03 -0.12563482405E+03  0.22251260773E+03  0.47772473130E+03  0.46999998093E+01 0.  1.
</event>
<event>
 5   0  0.1293575E-03  0.9986380E+03  0.7818609E-02  0.9310040E-01
        1   -1    0    0  501    0  0.00000000000E+00  0.00000000000E+00  0.10325996186E+04  0.10325996186E+04  0.50400001928E-02 0.  1.
       -1   -1    0    0    0  501  0.00000000000E+00  0.00000000000E+00 -0.24144835165E+03  0.24144835170E+03  0.50400001928E-02 0. -1.
    10030    2    1    2    0    0  0.00000000000E+00  0.00000000000E+00  0.79115126694E+03  0.12740479703E+04  0.99863802423E+03 0.  0.
        4    1    3    3  502    0 -0.75320009409E+02  0.47893678558E+03  0.24320434650E+03  0.54240530552E+03  0.12699999809E+01 0. -1.
       -4    1    3    3    0  502  0.75320009409E+02 -0.47893678558E+03  0.54794692044E+03  0.73164266477E+03  0.12699999809E+01 0.  1.
</event>
<event>
 5   0  0.1293716E-03  0.9960560E+03  0.7818609E-02  0.9312881E-01
       -1   -1    0    0    0  501  0.00000000000E+00  0.00000000000E+00  0.15203541420E+03  0.15203541428E+03  0.50400001928E-02 0.  1.
        1   -1    0    0  501    0  0.00000000000E+00  0.00000000000E+00 -0.16314087934E+04  0.16314087935E+04  0.50400001928E-02 0. -1.
    10030    2    1    2    0    0  0.00000000000E+00  0.00000000000E+00 -0.14793733792E+04  0.17834442077E+04  0.99605604606E+03 0.  0.
        3    1    3    3  502    0 -0.13290981501E+03 -0.59347542463E+02  0.11309942362E+03  0.18433295839E+03  0.10100000352E+00 0.  1.
       -3    1    3    3    0  502  0.13290981501E+03  0.59347542463E+02 -0.15924728029E+04  0.15991112494E+04  0.10100000352E+00 0. -1.
</event>
<event>
 5   0  0.8680125E-04  0.9983999E+03  0.7818609E-02  0.9310302E-01
        3   -1    0    0  501    0  0.00000000000E+00  0.00000000000E+00  0.23922052831E+03  0.23922054964E+03  0.10100000352E+00 0.  1.
       -3   -1    0    0    0  501  0.00000000000E+00  0.00000000000E+00 -0.10417189981E+04  0.10417190030E+04  0.10100000352E+00 0. -1.
    10030    2    1    2    0    0  0.00000000000E+00  0.00000000000E+00 -0.80249846978E+03  0.12809395526E+04  0.99839989156E+03 0.  0.
        1    1    3    3  502    0  0.30700632508E+03  0.53158644775E+02 -0.90165225850E+03  0.95396830159E+03  0.50400001928E-02 0. -1.
       -1    1    3    3    0  502 -0.30700632508E+03 -0.53158644775E+02  0.99153788727E+02  0.32697125103E+03  0.50400001928E-02 0.  1.
</event>
<event>
 5   0  0.1249195E-03  0.9952906E+03  0.7818609E-02  0.9313725E-01
       -1   -1    0    0    0  501  0.00000000000E+00  0.00000000000E+00  0.57271748244E+03  0.57271748246E+03  0.50400001928E-02 0.  1.
        1   -1    0    0  501    0  0.00000000000E+00  0.00000000000E+00 -0.43241361450E+03  0.43241361452E+03  0.50400001928E-02 0. -1.
    10030    2    1    2    0    0  0.00000000000E+00  0.00000000000E+00  0.14030386795E+03  0.10051310970E+04  0.99529058409E+03 0.  0.
        2    1    3    3  502    0 -0.19780463219E+02  0.58306603813E+02 -0.42855225773E+03  0.43295261217E+03  0.25500000920E-02 0. -1.
       -2    1    3    3    0  502  0.19780463219E+02 -0.58306603813E+02  0.56885612567E+03  0.57217848482E+03  0.25500000920E-02 0.  1.
</event>
<event>
 5   0  0.8680125E-04  0.9984878E+03  0.7818609E-02  0.9310205E-01
       -3   -1    0    0    0  501  0.00000000000E+00  0.00000000000E+00  0.87919090131E+03  0.87919090711E+03  0.10100000352E+00 0. -1.
        3   -1    0    0  501    0  0.00000000000E+00  0.00000000000E+00 -0.28349298268E+03  0.28349300067E+03  0.10100000352E+00 0.  1.
    10030    2    1    2    0    0  0.00000000000E+00  0.00000000000E+00  0.59569791863E+03  0.11626839078E+04  0.99848778618E+03 0.  0.
        3    1    3    3  502    0 -0.32030519430E+03 -0.29735987470E+03  0.57883057953E+03  0.72530211814E+03  0.10100000352E+00 0. -1.
       -3    1    3    3    0  502  0.32030519430E+03  0.29735987470E+03  0.16867339094E+02  0.43738178964E+03  0.10100000352E+00 0.  1.
</event>
<event>
 5   0  0.2255142E-03  0.9963997E+03  0.7818609E-02  0.9312502E-01
       -2   -1    0    0    0  501  0.00000000000E+00  0.00000000000E+00  0.41472294625E+03  0.41472294626E+03  0.25500000920E-02 0.  1.
        2   -1    0    0  501    0  0.00000000000E+00  0.00000000000E+00 -0.59847931242E+03  0.59847931243E+03  0.25500000920E-02 0. -1.
    10030    2    1    2    0    0  0.00000000000E+00  0.00000000000E+00 -0.18375636617E+03  0.10132022587E+04  0.99639972646E+03 0.  0.
        4    1    3    3  502    0 -0.43689204594E+03  0.45496056354E+02 -0.33091013871E+03  0.54995243772E+03  0.12699999809E+01 0. -1.
       -4    1    3    3    0  502  0.43689204594E+03 -0.45496056354E+02  0.14715377254E+03  0.46324982096E+03  0.12699999809E+01 0.  1.
</event>
<event>
 5   0  0.1353789E-03  0.9987787E+03  0.7818609E-02  0.9309885E-01
       -1   -1    0    0    0  501  0.00000000000E+00  0.00000000000E+00  0.42080614704E+03  0.42080614707E+03  0.50400001928E-02 0.  1.
        1   -1    0    0  501    0  0.00000000000E+00  0.00000000000E+00 -0.59264756275E+03  0.59264756277E+03  0.50400001928E-02 0. -1.
    10030    2    1    2    0    0  0.00000000000E+00  0.00000000000E+00 -0.17184141571E+03  0.10134537098E+04  0.99877872917E+03 0.  0.
        1    1    3    3  502    0 -0.92702535340E+02 -0.88947151211E+02 -0.57559219221E+03  0.58975565070E+03  0.50400001928E-02 0. -1.
       -1    1    3    3    0  502  0.92702535340E+02  0.88947151211E+02  0.40375077651E+03  0.42369805914E+03  0.50400001928E-02 0.  1.
</event>
<event>
 5   0  0.1293716E-03  0.1000371E+04  0.7818609E-02  0.9308138E-01
        1   -1    0    0  501    0  0.00000000000E+00  0.00000000000E+00  0.47330533124E+03  0.47330533126E+03  0.50400001928E-02 0.  1.
       -1   -1    0    0    0  501  0.00000000000E+00  0.00000000000E+00 -0.52859264737E+03  0.52859264740E+03  0.50400001928E-02 0. -1.
    10030    2    1    2    0    0  0.00000000000E+00  0.00000000000E+00 -0.55287316135E+02  0.10018979787E+04  0.10003713672E+04 0.  0.
        3    1    3    3  502    0  0.25596720674E+03 -0.37577468425E+03 -0.23643213546E+03  0.51247047635E+03  0.10100000352E+00 0. -1.
       -3    1    3    3    0  502 -0.25596720674E+03  0.37577468425E+03  0.18114481932E+03  0.48942750231E+03  0.10100000352E+00 0.  1.
</event>
<event>
 5   0  0.2284843E-03  0.1003030E+04  0.7818609E-02  0.9305228E-01
        2   -1    0    0  501    0  0.00000000000E+00  0.00000000000E+00  0.10621537718E+04  0.10621537718E+04  0.25500000920E-02 0.  1.
       -2   -1    0    0    0  501  0.00000000000E+00  0.00000000000E+00 -0.23679925461E+03  0.23679925462E+03  0.25500000920E-02 0. -1.
    10030    2    1    2    0    0  0.00000000000E+00  0.00000000000E+00  0.82535451721E+03  0.12989530264E+04  0.10030298529E+04 0.  0.
        2    1    3    3  502    0  0.17168759620E+03 -0.31150488654E+03 -0.45194433644E+02  0.35854492308E+03  0.25500000920E-02 0. -1.
       -2    1    3    3    0  502 -0.17168759620E+03  0.31150488654E+03  0.87054895085E+03  0.94040810336E+03  0.25500000920E-02 0.  1.
</event>
<event>
 5   0  0.2255142E-03  0.9993066E+03  0.7818609E-02  0.9309306E-01
       -2   -1    0    0    0  501  0.00000000000E+00  0.00000000000E+00  0.59226607051E+03  0.59226607052E+03  0.25500000920E-02 0. -1.
        2   -1    0    0  501    0  0.00000000000E+00  0.00000000000E+00 -0.42152239411E+03  0.42152239412E+03  0.25500000920E-02 0.  1.
    10030    2    1    2    0    0  0.00000000000E+00  0.00000000000E+00  0.17074367640E+03  0.10137884646E+04  0.99930658358E+03 0.  0.
        4    1    3    3  502    0  0.18819932212E+03  0.32327602505E+03  0.42142054949E+03  0.56349202803E+03  0.12699999809E+01 0. -1.
       -4    1    3    3    0  502 -0.18819932212E+03 -0.32327602505E+03 -0.25067687308E+03  0.45029643661E+03  0.12699999809E+01 0.  1.
</event>
<event>
 5   0  0.1285769E-03  0.1015688E+04  0.7818609E-02  0.9291504E-01
        1   -1    0    0  501    0  0.00000000000E+00  0.00000000000E+00  0.50872002490E+03  0.50872002492E+03  0.50400001928E-02 0.  1.
       -1   -1    0    0    0  501  0.00000000000E+00  0.00000000000E+00 -0.50696938218E+03  0.50696938221E+03  0.50400001928E-02 0. -1.
    10030    2    1    2    0    0  0.00000000000E+00  0.00000000000E+00  0.17506427127E+01  0.10156894071E+04  0.10156878984E+04 0.  0.
        5    1    3    3  502    0  0.28826916200E+03  0.86339490055E+02 -0.40818490227E+03  0.50713964718E+03  0.46999998093E+01 0. -1.
       -5    1    3    3    0  502 -0.28826916200E+03 -0.86339490055E+02  0.40993554499E+03  0.50854975995E+03  0.46999998093E+01 0.  1.
</event>
<event>
 5   0  0.2255142E-03  0.1002649E+04  0.7818609E-02  0.9305644E-01
        2   -1    0    0  501    0  0.00000000000E+00  0.00000000000E+00  0.28894881683E+03  0.28894881684E+03  0.25500000920E-02 0.  1.
       -2   -1    0    0    0  501  0.00000000000E+00  0.00000000000E+00 -0.86979571015E+03  0.86979571015E+03  0.25500000920E-02 0. -1.
    10030    2    1    2    0    0  0.00000000000E+00  0.00000000000E+00 -0.58084689332E+03  0.11587445270E+04  0.10026493731E+04 0.  0.
        4    1    3    3  502    0 -0.42688679538E+03  0.22338424156E+03 -0.13032083320E+03  0.49911720859E+03  0.12699999809E+01 0.  1.
       -4    1    3    3    0  502  0.42688679538E+03 -0.22338424156E+03 -0.45052606011E+03  0.65962731841E+03  0.12699999809E+01 0. -1.
</event>
<event>
 5   0  0.1249195E-03  0.1004661E+04  0.7818609E-02  0.9303447E-01
       -1   -1    0    0    0  501  0.00000000000E+00  0.00000000000E+00  0.25133238439E+03  0.25133238444E+03  0.50400001928E-02 0. -1.
        1   -1    0    0  501    0  0.00000000000E+00  0.00000000000E+00 -0.10039935723E+04  0.10039935723E+04  0.50400001928E-02 0.  1.
    10030    2    1    2    0    0  0.00000000000E+00  0.00000000000E+00 -0.75266118789E+03  0.12553259567E+04  0.10046613329E+04 0.  0.
        2    1    3    3  502    0 -0.33737021631E+01 -0.45837917632E+03 -0.11960970825E+03  0.47373973178E+03  0.25500000920E-02 0. -1.
       -2    1    3    3    0  502  0.33737021631E+01  0.45837917632E+03 -0.63305147964E+03  0.78158622495E+03  0.25500000920E-02 0.  1.
</event>
<event>
 5   0  0.2264577E-03  0.1001865E+04  0.7818609E-02  0.9306502E-01
       -2   -1    0    0    0  501  0.00000000000E+00  0.00000000000E+00  0.62743662471E+03  0.62743662472E+03  0.25500000920E-02 0. -1.
        2   -1    0    0  501    0  0.00000000000E+00  0.00000000000E+00 -0.39993430017E+03  0.39993430018E+03  0.25500000920E-02 0.  1.
    10030    2    1    2    0    0  0.00000000000E+00  0.00000000000E+00  0.22750232454E+03  0.10273709249E+04  0.10018651155E+04 0.  0.
        5    1    3    3  502    0  0.25743426975E+03 -0.42238924675E+03  0.19466663697E+03  0.53160348810E+03  0.46999998093E+01 0.  1.
       -5    1    3    3    0  502 -0.25743426975E+03  0.42238924675E+03  0.32835687567E+02  0.49576743680E+03  0.46999998093E+01 0. -1.
</event>
<event>
 5   0  0.1249195E-03  0.9957826E+03  0.7818609E-02  0.9313182E-01
       -1   -1    0    0    0  501  0.00000000000E+00  0.00000000000E+00  0.27816113095E+03  0.27816113100E+03  0.50400001928E-02 0. -1.
        1   -1    0    0  501    0  0.00000000000E+00  0.00000000000E+00 -0.89119482343E+03  0.89119482344E+03  0.50400001928E-02 0.  1.
    10030    2    1    2    0    0  0.00000000000E+00  0.00000000000E+00 -0.61303369248E+03  0.11693559544E+04  0.99578262691E+03 0.  0.
        2    1    3    3  502    0 -0.25532404058E+03 -0.41857107999E+03 -0.40823965306E+03  0.63800605721E+03  0.25500000920E-02 0.  1.
       -2    1    3    3    0  502  0.25532404058E+03  0.41857107999E+03 -0.20479403942E+03  0.53134989723E+03  0.25500000920E-02 0. -1.
</event>
<event>
 5   0  0.2277570E-03  0.9998635E+03  0.7818609E-02  0.9308695E-01
        2   -1    0    0  501    0  0.00000000000E+00  0.00000000000E+00  0.24793269374E+04  0.24793269374E+04  0.25500000920E-02 0.  1.
       -2   -1    0    0    0  501  0.00000000000E+00  0.00000000000E+00 -0.10080628361E+03  0.10080628364E+03  0.25500000920E-02 0. -1.
    10030    2    1    2    0    0  0.00000000000E+00  0.00000000000E+00  0.23785206538E+04  0.25801332211E+04  0.99986345961E+03 0.  0.
        3    1    3    3  502    0 -0.45970907338E+03 -0.16773708848E+03  0.92529845828E+03  0.10467308203E+04  0.10100000352E+00 0. -1.
       -3    1    3    3    0  502  0.45970907338E+03  0.16773708848E+03  0.14532221956E+04  0.15334024008E+04  0.10100000352E+00 0.  1.
</event>
<event>
 5   0  0.8680125E-04  0.1000332E+04  0.7818609E-02  0.9308181E-01
        4   -1    0    0  501    0  0.00000000000E+00  0.00000000000E+00  0.58597947263E+03  0.58598084887E+03  0.12699999809E+01 0.  1.
       -4   -1    0    0    0  501  0.00000000000E+00  0.00000000000E+00 -0.42691652734E+03  0.42691841634E+03  0.12699999809E+01 0. -1.
    10030    2    1    2    0    0  0.00000000000E+00  0.00000000000E+00  0.15906294529E+03  0.10128992652E+04  0.10003318954E+04 0.  0.
        3    1    3    3  502    0 -0.80785670211E+02 -0.37467976918E+03 -0.24583820540E+03  0.45535446345E+03  0.10100000352E+00 0. -1.
       -3    1    3    3    0  502  0.80785670211E+02  0.37467976918E+03  0.40490115069E+03  0.55754480177E+03  0.10100000352E+00 0.  1.
</event>
<event>
 5   0  0.2284843E-03  0.9984330E+03  0.7818609E-02  0.9310265E-01
       -2   -1    0    0    0  501  0.00000000000E+00  0.00000000000E+00  0.17463814522E+03  0.17463814524E+03  0.25500000920E-02 0.  1.
        2   -1    0    0  501    0  0.00000000000E+00  0.00000000000E+00 -0.14270485482E+04  0.14270485482E+04  0.25500000920E-02 0. -1.
    10030    2    1    2    0    0  0.00000000000E+00  0.00000000000E+00 -0.12524104030E+04  0.16016866934E+04  0.99843299548E+03 0.  0.
        2    1    3    3  502    0 -0.34241497432E+03  0.33527258317E+03 -0.40183843956E+03  0.62540375053E+03  0.25500000920E-02 0.  1.
       -2    1    3    3    0  502  0.34241497432E+03 -0.33527258317E+03 -0.85057196341E+03  0.97628294290E+03  0.25500000920E-02 0. -1.
</event>
<event>
 5   0  0.8680125E-04  0.1000541E+04  0.7818609E-02  0.9307952E-01
       -3   -1    0    0    0  501  0.00000000000E+00  0.00000000000E+00  0.36185975043E+03  0.36185976452E+03  0.10100000352E+00 0.  1.
        3   -1    0    0  501    0  0.00000000000E+00  0.00000000000E+00 -0.69162246742E+03  0.69162247480E+03  0.10100000352E+00 0. -1.
    10030    2    1    2    0    0  0.00000000000E+00  0.00000000000E+00 -0.32976271699E+03  0.10534822393E+04  0.10005405434E+04 0.  0.
        2    1    3    3  502    0  0.34074125510E+02  0.22102093091E+03  0.30630054138E+03  0.37925099814E+03  0.25500000920E-02 0.  1.
       -2    1    3    3    0  502 -0.34074125510E+02 -0.22102093091E+03 -0.63606325837E+03  0.67423124118E+03  0.25500000920E-02 0. -1.
</event>
<event>
 5   0  0.2255142E-03  0.1002490E+04  0.7818609E-02  0.9305818E-01
       -2   -1    0    0    0  501  0.00000000000E+00  0.00000000000E+00  0.55097116664E+03  0.55097116664E+03  0.25500000920E-02 0.  1.
        2   -1    0    0  501    0  0.00000000000E+00  0.00000000000E+00 -0.45600697434E+03  0.45600697434E+03  0.25500000920E-02 0. -1.
    10030    2    1    2    0    0  0.00000000000E+00  0.00000000000E+00  0.94964192302E+02  0.10069781410E+04  0.10024902885E+04 0.  0.
        4    1    3    3  502    0 -0.40311744862E+03  0.29019120865E+03  0.11509215980E+03  0.50986511266E+03  0.12699999809E+01 0. -1.
       -4    1    3    3    0  502  0.40311744862E+03 -0.29019120865E+03 -0.20127967496E+02  0.49711302833E+03  0.12699999809E+01 0.  1.
</event>
<event>
 5   0  0.2264577E-03  0.9989043E+03  0.7818609E-02  0.9309747E-01
        2   -1    0    0  501    0  0.00000000000E+00  0.00000000000E+00  0.16767847243E+04  0.16767847243E+04  0.25500000920E-02 0.  1.
       -2   -1    0    0    0  501  0.00000000000E+00  0.00000000000E+00 -0.14876833490E+03  0.14876833492E+03  0.25500000920E-02 0. -1.
    10030    2    1    2    0    0  0.00000000000E+00  0.00000000000E+00  0.15280163894E+04  0.18255530592E+04  0.99890434264E+03 0.  0.
        5    1    3    3  502    0  0.41533963737E+03 -0.27715101013E+03  0.78323531600E+03  0.92886993008E+03  0.46999998093E+01 0.  1.
       -5    1    3    3    0  502 -0.41533963737E+03  0.27715101013E+03  0.74478107339E+03  0.89668312912E+03  0.46999998093E+01 0. -1.
</event>
<event>
 5   0  0.1293575E-03  0.9979637E+03  0.7818609E-02  0.9310781E-01
       -1   -1    0    0    0  501  0.00000000000E+00  0.00000000000E+00  0.23968547430E+03  0.23968547436E+03  0.50400001928E-02 0.  1.
        1   -1    0    0  501    0  0.00000000000E+00  0.00000000000E+00 -0.10387901360E+04  0.10387901360E+04  0.50400001928E-02 0. -1.
    10030    2    1    2    0    0  0.00000000000E+00  0.00000000000E+00 -0.79910466173E+03  0.12784756104E+04  0.99796373982E+03 0.  0.
        4    1    3    3  502    0 -0.10795836351E+03  0.44620351524E+02  0.22191919065E+03  0.25079019937E+03  0.12699999809E+01 0.  1.
       -4    1    3    3    0  502  0.10795836351E+03 -0.44620351524E+02 -0.10210238524E+04  0.10276854110E+04  0.12699999809E+01 0. -1.
</event>
<event>
 5   0  0.8680125E-04  0.9994001E+03  0.7818609E-02  0.9309203E-01
        4   -1    0    0  501    0  0.00000000000E+00  0.00000000000E+00  0.90776591123E+03  0.90776679962E+03  0.12699999809E+01 0. -1.
       -4   -1    0    0    0  501  0.00000000000E+00  0.00000000000E+00 -0.27506859963E+03  0.27507153143E+03  0.12699999809E+01 0.  1.
    10030    2    1    2    0    0  0.00000000000E+00  0.00000000000E+00  0.63269731160E+03  0.11828383310E+04  0.99940013473E+03 0.  0.
        5    1    3    3  502    0  0.32593622968E+03  0.30557909149E+03  0.58117022715E+03  0.73307157216E+03  0.46999998093E+01 0. -1.
       -5    1    3    3    0  502 -0.32593622968E+03 -0.30557909149E+03  0.51527084447E+02  0.44976675889E+03  0.46999998093E+01 0.  1.
</event>
<event>
 5   0  0.2264577E-03  0.1000096E+04  0.7818609E-02  0.9308440E-01
       -2   -1    0    0    0  501  0.00000000000E+00  0.00000000000E+00  0.30214103371E+03  0.30214103372E+03  0.25500000920E-02 0.  1.
        2   -1    0    0  501    0  0.00000000000E+00  0.00000000000E+00 -0.82758629907E+03  0.82758629907E+03  0.25500000920E-02 0. -1.
    10030    2    1    2    0    0  0.00000000000E+00  0.00000000000E+00 -0.52544526536E+03  0.11297273328E+04  0.10000955552E+04 0.  0.
        5    1    3    3  502    0 -0.21537954963E+03 -0.40631070562E+03 -0.48451082218E+03  0.66801913648E+03  0.46999998093E+01 0. -1.
       -5    1    3    3    0  502  0.21537954963E+03  0.40631070562E+03 -0.40934443181E+02  0.46170819631E+03  0.46999998093E+01 0.  1.
</event>
<event>
 5   0  0.1293716E-03  0.1002914E+04  0.7818609E-02  0.9305354E-01
        1   -1    0    0  501    0  0.00000000000E+00  0.00000000000E+00  0.47678397770E+03  0.47678397773E+03  0.50400001928E-02 0. -1.
       -1   -1    0    0    0  501  0.00000000000E+00  0.00000000000E+00 -0.52740700054E+03  0.52740700057E+03  0.50400001928E-02 0.  1.
    10030    2    1    2    0    0  0.00000000000E+00  0.00000000000E+00 -0.50623022845E+02  0.10041909783E+04  0.10029141690E+04 0.  0.
        3    1    3    3  502    0  0.24848145786E+03  0.40116069456E+03  0.14456962891E+03  0.49353148386E+03  0.10100000352E+00 0. -1.
       -3    1    3    3    0  502 -0.24848145786E+03 -0.40116069456E+03 -0.19519265175E+03  0.51065949444E+03  0.10100000352E+00 0.  1.
</event>
<event>
 5   0  0.2204862E-03  0.9990733E+03  0.7818609E-02  0.9309562E-01
       -2   -1    0    0    0  501  0.00000000000E+00  0.00000000000E+00  0.33739728815E+03  0.33739728816E+03  0.25500000920E-02 0.  1.
        2   -1    0    0  501    0  0.00000000000E+00  0.00000000000E+00 -0.73959349591E+03  0.73959349592E+03  0.25500000920E-02 0. -1.
    10030    2    1    2    0    0  0.00000000000E+00  0.00000000000E+00 -0.40219620776E+03  0.10769907841E+04  0.99907325029E+03 0.  0.
        1    1    3    3  502    0  0.25190767583E+03  0.37249540195E+03  0.33414951592E+02  0.45091779808E+03  0.50400001928E-02 0.  1.
       -1    1    3    3    0  502 -0.25190767583E+03 -0.37249540195E+03 -0.43561115935E+03  0.62607298599E+03  0.50400001928E-02 0. -1.
</event>
<event>
 5   0  0.1353789E-03  0.1002689E+04  0.7818609E-02  0.9305601E-01
       -1   -1    0    0    0  501  0.00000000000E+00  0.00000000000E+00  0.45963630350E+03  0.45963630353E+03  0.50400001928E-02 0. -1.
        1   -1    0    0  501    0  0.00000000000E+00  0.00000000000E+00 -0.54683731511E+03  0.54683731514E+03  0.50400001928E-02 0.  1.
    10030    2    1    2    0    0  0.00000000000E+00  0.00000000000E+00 -0.87201011615E+02  0.10064736187E+04  0.10026889491E+04 0.  0.
        1    1    3    3  502    0  0.44106649853E+03  0.93163059000E+02 -0.26380784177E+03  0.52231560296E+03  0.50400001928E-02 0. -1.
       -1    1    3    3    0  502 -0.44106649853E+03 -0.93163059000E+02  0.17660683015E+03  0.48415801570E+03  0.50400001928E-02 0.  1.
</event>
<event>
 5   0  0.2204862E-03  0.9986529E+03  0.7818609E-02  0.9310023E-01
        2   -1    0    0  501    0  0.00000000000E+00  0.00000000000E+00  0.12662594349E+04  0.12662594349E+04  0.25500000920E-02 0.  1.
       -2   -1    0    0    0  501  0.00000000000E+00  0.00000000000E+00 -0.19690034611E+03  0.19690034613E+03  0.25500000920E-02 0. -1.
    10030    2    1    2    0    0  0.00000000000E+00  0.00000000000E+00  0.10693590887E+04  0.14631597810E+04  0.99865293473E+03 0.  0.
        1    1    3    3  502    0  0.20900805939E+03  0.45324128429E+03  0.51320195250E+03  0.71588286385E+03  0.50400001928E-02 0.  1.
       -1    1    3    3    0  502 -0.20900805939E+03 -0.45324128429E+03  0.55615713625E+03  0.74727691715E+03  0.50400001928E-02 0. -1.
</event>
<event>
 5   0  0.2204862E-03  0.1000451E+04  0.7818609E-02  0.9308050E-01
       -2   -1    0    0    0  501  0.00000000000E+00  0.00000000000E+00  0.91450554442E+03  0.91450554442E+03  0.25500000920E-02 0. -1.
        2   -1    0    0  501    0  0.00000000000E+00  0.00000000000E+00 -0.27361849206E+03  0.27361849207E+03  0.25500000920E-02 0.  1.
    10030    2    1    2    0    0  0.00000000000E+00  0.00000000000E+00  0.64088705236E+03  0.11881240365E+04  0.10004511543E+04 0.  0.
        1    1    3    3  502    0  0.19240886232E+03  0.43133322918E+03  0.12473956461E+03  0.48849716878E+03  0.50400001928E-02 0. -1.
       -1    1    3    3    0  502 -0.19240886232E+03 -0.43133322918E+03  0.51614748775E+03  0.69962686772E+03  0.50400001928E-02 0.  1.
</event>
<event>
 5   0  0.2264577E-03  0.9838048E+03  0.7818609E-02  0.9326488E-01
        2   -1    0    0  501    0  0.00000000000E+00  0.00000000000E+00  0.60718501207E+03  0.60718501207E+03  0.25500000920E-02 0.  1.
       -2   -1    0    0    0  501  0.00000000000E+00  0.00000000000E+00 -0.39850784635E+03  0.39850784636E+03  0.25500000920E-02 0. -1.
    10030    2    1    2    0    0  0.00000000000E+00  0.00000000000E+00  0.20867716572E+03  0.10056928584E+04  0.98380484142E+03 0.  0.
        5    1    3    3  502    0 -0.14089668879E+03  0.32631072670E+03  0.45192606711E+03  0.57496941432E+03  0.46999998093E+01 0.  1.
       -5    1    3    3    0  502  0.14089668879E+03 -0.32631072670E+03 -0.24324890139E+03  0.43072344410E+03  0.46999998093E+01 0. -1.
</event>
<event>
 5   0  0.2277570E-03  0.1002964E+04  0.7818609E-02  0.9305300E-01
        2   -1    0    0  501    0  0.00000000000E+00  0.00000000000E+00  0.10524261064E+04  0.10524261064E+04  0.25500000920E-02 0.  1.
       -2   -1    0    0    0  501  0.00000000000E+00  0.00000000000E+00 -0.23895667847E+03  0.23895667848E+03  0.25500000920E-02 0. -1.
    10030    2    1    2    0    0  0.00000000000E+00  0.00000000000E+00  0.81346942791E+03  0.12913827849E+04  0.10029641005E+04 0.  0.
        3    1    3    3  502    0 -0.10847736559E+03 -0.47910926421E+03  0.27688053574E+03  0.56389348921E+03  0.10100000352E+00 0. -1.
       -3    1    3    3    0  502  0.10847736559E+03  0.47910926421E+03  0.53658889216E+03  0.72748929565E+03  0.10100000352E+00 0.  1.
</event>
<event>
 5   0  0.1249195E-03  0.9950740E+03  0.7818609E-02  0.9313964E-01
        1   -1    0    0  501    0  0.00000000000E+00  0.00000000000E+00  0.56248219877E+03  0.56248219879E+03  0.50400001928E-02 0.  1.
       -1   -1    0    0    0  501  0.00000000000E+00  0.00000000000E+00 -0.44009050606E+03  0.44009050609E+03  0.50400001928E-02 0. -1.
    10030    2    1    2    0    0  0.00000000000E+00  0.00000000000E+00  0.12239169271E+03  0.10025727049E+04  0.99507401841E+03 0.  0.
        2    1    3    3  502    0 -0.35927495959E+02 -0.24448763146E+03 -0.37388943776E+03  0.44817217514E+03  0.25500000920E-02 0. -1.
       -2    1    3    3    0  502  0.35927495959E+02  0.24448763146E+03  0.49628113047E+03  0.55440052973E+03  0.25500000920E-02 0.  1.
</event>
<event>
 5   0  0.1293716E-03  0.9983934E+03  0.7818609E-02  0.9310309E-01
        1   -1    0    0  501    0  0.00000000000E+00  0.00000000000E+00  0.52452654604E+03  0.52452654606E+03  0.50400001928E-02 0. -1.
       -1   -1    0    0    0  501  0.00000000000E+00  0.00000000000E+00 -0.47509009935E+03  0.47509009937E+03  0.50400001928E-02 0.  1.
    10030    2    1    2    0    0  0.00000000000E+00  0.00000000000E+00  0.49436446693E+02  0.99961664544E+03  0.99839344728E+03 0.  0.
        3    1    3    3  502    0  0.37192507147E+03 -0.33210341539E+03  0.48756415524E+02  0.50099714126E+03  0.10100000352E+00 0. -1.
       -3    1    3    3    0  502 -0.37192507147E+03  0.33210341539E+03  0.68003116825E+00  0.49861950417E+03  0.10100000352E+00 0.  1.
</event>
<event>
 5   0  0.8680125E-04  0.9994247E+03  0.7818609E-02  0.9309176E-01
       -3   -1    0    0    0  501  0.00000000000E+00  0.00000000000E+00  0.94999953025E+03  0.94999953562E+03  0.10100000352E+00 0.  1.
        3   -1    0    0  501    0  0.00000000000E+00  0.00000000000E+00 -0.26285533113E+03  0.26285535053E+03  0.10100000352E+00 0. -1.
    10030    2    1    2    0    0  0.00000000000E+00  0.00000000000E+00  0.68714419912E+03  0.12128548862E+04  0.99942474679E+03 0.  0.
        2    1    3    3  502    0  0.37951216932E+02 -0.45218938613E+03  0.59754099489E+03  0.75031378527E+03  0.25500000920E-02 0.  1.
       -2    1    3    3    0  502 -0.37951216932E+02  0.45218938613E+03  0.89603204236E+02  0.46254110089E+03  0.25500000920E-02 0. -1.
</event>
<event>
 5   0  0.8680125E-04  0.1001225E+04  0.7818609E-02  0.9307202E-01
        3   -1    0    0  501    0  0.00000000000E+00  0.00000000000E+00  0.40180106596E+03  0.40180107866E+03  0.10100000352E+00 0. -1.
       -3   -1    0    0    0  501  0.00000000000E+00  0.00000000000E+00 -0.62372416532E+03  0.62372417349E+03  0.10100000352E+00 0.  1.
    10030    2    1    2    0    0  0.00000000000E+00  0.00000000000E+00 -0.22192309935E+03  0.10255252521E+04  0.10012253397E+04 0.  0.
        5    1    3    3  502    0 -0.49230090166E+03 -0.33247785025E+02 -0.19742210074E+03  0.53147264167E+03  0.46999998093E+01 0.  1.
       -5    1    3    3    0  502  0.49230090166E+03  0.33247785025E+02 -0.24500998609E+02  0.49405261048E+03  0.46999998093E+01 0. -1.
</event>
<event>
 5   0  0.1249195E-03  0.1003090E+04  0.7818609E-02  0.9305163E-01
       -1   -1    0    0    0  501  0.00000000000E+00  0.00000000000E+00  0.67356987645E+03  0.67356987647E+03  0.50400001928E-02 0. -1.
        1   -1    0    0  501    0  0.00000000000E+00  0.00000000000E+00 -0.37345374269E+03  0.37345374272E+03  0.50400001928E-02 0.  1.
    10030    2    1    2    0    0  0.00000000000E+00  0.00000000000E+00  0.30011613376E+03  0.10470236192E+04  0.10030896099E+04 0.  0.
        2    1    3    3  502    0 -0.37503725907E+03  0.93814384941E+02 -0.18345661491E+03  0.42791402649E+03  0.25500000920E-02 0.  1.
       -2    1    3    3    0  502  0.37503725907E+03 -0.93814384941E+02  0.48357274867E+03  0.61910959270E+03  0.25500000920E-02 0. -1.
</event>
<event>
 5   0  0.1353789E-03  0.1000677E+04  0.7818609E-02  0.9307802E-01
       -1   -1    0    0    0  501  0.00000000000E+00  0.00000000000E+00  0.48725755687E+03  0.48725755689E+03  0.50400001928E-02 0. -1.
        1   -1    0    0  501    0  0.00000000000E+00  0.00000000000E+00 -0.51377082248E+03  0.51377082251E+03  0.50400001928E-02 0.  1.
    10030    2    1    2    0    0  0.00000000000E+00  0.00000000000E+00 -0.26513265619E+02  0.10010283794E+04  0.10006772023E+04 0.  0.
        1    1    3    3  502    0  0.24114889310E+02 -0.29729969865E+03  0.38859328842E+03  0.48987078146E+03  0.50400001928E-02 0. -1.
       -1    1    3    3    0  502 -0.24114889310E+02  0.29729969865E+03 -0.41510655404E+03  0.51115759794E+03  0.50400001928E-02 0.  1.
</event>
<event>
 5   0  0.2204862E-03  0.9965001E+03  0.7818609E-02  0.9312392E-01
        2   -1    0    0  501    0  0.00000000000E+00  0.00000000000E+00  0.24356623883E+03  0.24356623884E+03  0.25500000920E-02 0. -1.
       -2   -1    0    0    0  501  0.00000000000E+00  0.00000000000E+00 -0.10192426353E+04  0.10192426353E+04  0.25500000920E-02 0.  1.
    10030    2    1    2    0    0  0.00000000000E+00  0.00000000000E+00 -0.77567639649E+03  0.12628088742E+04  0.99650006553E+03 0.  0.
        1    1    3    3  502    0  0.71795839803E+02  0.24444416023E+03 -0.93045773606E+03  0.96470678898E+03  0.50400001928E-02 0.  1.
       -1    1    3    3    0  502 -0.71795839803E+02 -0.24444416023E+03  0.15478133958E+03  0.29810208518E+03  0.50400001928E-02 0. -1.
</event>
<event>
 5   0  0.1293716E-03  0.1001973E+04  0.7818609E-02  0.9306383E-01
        1   -1    0    0  501    0  0.00000000000E+00  0.00000000000E+00  0.39837058734E+03  0.39837058737E+03  0.50400001928E-02 0. -1.
       -1   -1    0    0    0  501  0.00000000000E+00  0.00000000000E+00 -0.63003561688E+03  0.63003561690E+03  0.50400001928E-02 0.  1.
    10030    2    1    2    0    0  0.00000000000E+00  0.00000000000E+00 -0.23166502954E+03  0.10284062043E+04  0.10019733704E+04 0.  0.
        3    1    3    3  502    0  0.23645534320E+03 -0.31387068317E+03 -0.43477398398E+03  0.58604979518E+03  0.10100000352E+00 0. -1.
       -3    1    3    3    0  502 -0.23645534320E+03  0.31387068317E+03  0.20310895444E+03  0.44235640909E+03  0.10100000352E+00 0.  1.
</event>
<event>
 5   0  0.2284843E-03  0.1024386E+04  0.7818609E-02  0.9282196E-01
       -2   -1    0    0    0  501  0.00000000000E+00  0.00000000000E+00  0.20058995736E+03  0.20058995737E+03  0.25500000920E-02 0. -1.
        2   -1    0    0  501    0  0.00000000000E+00  0.00000000000E+00 -0.13078495886E+04  0.13078495886E+04  0.25500000920E-02 0.  1.
    10030    2    1    2    0    0  0.00000000000E+00  0.00000000000E+00 -0.11072596312E+04  0.15084395459E+04  0.10243856563E+04 0.  0.
        2    1    3    3  502    0 -0.41821584308E+03 -0.24135695929E+03 -0.80518628444E+03  0.93887306164E+03  0.25500000920E-02 0.  1.
       -2    1    3    3    0  502  0.41821584308E+03  0.24135695929E+03 -0.30207334676E+03  0.56956648429E+03  0.25500000920E-02 0. -1.
</event>
<event>
 5   0  0.1285769E-03  0.1029540E+04  0.7818609E-02  0.9276727E-01
        1   -1    0    0  501    0  0.00000000000E+00  0.00000000000E+00  0.47871710507E+03  0.47871710510E+03  0.50400001928E-02 0.  1.
       -1   -1    0    0    0  501  0.00000000000E+00  0.00000000000E+00 -0.55353779745E+03  0.55353779748E+03  0.50400001928E-02 0. -1.
    10030    2    1    2    0    0  0.00000000000E+00  0.00000000000E+00 -0.74820692381E+02  0.10322549026E+04  0.10295397262E+04 0.  0.
        5    1    3    3  502    0  0.87139887593E+02 -0.23366122644E+03  0.41408267613E+03  0.48340198740E+03  0.46999998093E+01 0.  1.
       -5    1    3    3    0  502 -0.87139887593E+02  0.23366122644E+03 -0.48890336852E+03  0.54885291517E+03  0.46999998093E+01 0. -1.
</event>
<event>
 5   0  0.2255142E-03  0.9319527E+03  0.7818609E-02  0.9386497E-01
       -2   -1    0    0    0  501  0.00000000000E+00  0.00000000000E+00  0.17874183562E+03  0.17874183564E+03  0.25500000920E-02 0.  1.
        2   -1    0    0  501    0  0.00000000000E+00  0.00000000000E+00 -0.12147908885E+04  0.12147908885E+04  0.25500000920E-02 0. -1.
    10030    2    1    2    0    0  0.00000000000E+00  0.00000000000E+00 -0.10360490529E+04  0.13935327241E+04  0.93195268833E+03 0.  0.
        4    1    3    3  502    0  0.35260019405E+03 -0.11088097623E+03 -0.93746520214E+02  0.38132861247E+03  0.12699999809E+01 0.  1.
       -4    1    3    3    0  502 -0.35260019405E+03  0.11088097623E+03 -0.94230253264E+03  0.10122041117E+04  0.12699999809E+01 0. -1.
</event>
<event>
 5   0  0.2204862E-03  0.9971372E+03  0.7818609E-02  0.9311690E-01
       -2   -1    0    0    0  501  0.00000000000E+00  0.00000000000E+00  0.25286778988E+03  0.25286778989E+03  0.25500000920E-02 0.  1.
        2   -1    0    0  501    0  0.00000000000E+00  0.00000000000E+00 -0.98300627454E+03  0.98300627455E+03  0.25500000920E-02 0. -1.
    10030    2    1    2    0    0  0.00000000000E+00  0.00000000000E+00 -0.73013848467E+03  0.12358740644E+04  0.99713715022E+03 0.  0.
        1    1    3    3  502    0  0.32354163202E+03  0.24683480318E+03 -0.80725390608E+01  0.40702797647E+03  0.50400001928E-02 0.  1.
       -1    1    3    3    0  502 -0.32354163202E+03 -0.24683480318E+03 -0.72206594561E+03  0.82884608797E+03  0.50400001928E-02 0. -1.
</event>
<event>
 5   0  0.2204862E-03  0.9973298E+03  0.7818609E-02  0.9311478E-01
       -2   -1    0    0    0  501  0.00000000000E+00  0.00000000000E+00  0.23215499833E+03  0.23215499835E+03  0.25500000920E-02 0. -1.
        2   -1    0    0  501    0  0.00000000000E+00  0.00000000000E+00 -0.10711234414E+04  0.10711234414E+04  0.25500000920E-02 0.  1.
    10030    2    1    2    0    0  0.00000000000E+00  0.00000000000E+00 -0.83896844307E+03  0.13032784398E+04  0.99732975643E+03 0.  0.
        1    1    3    3  502    0 -0.19848385099E+03 -0.32815100235E+03 -0.29803084184E+01  0.38352027548E+03  0.50400001928E-02 0. -1.
       -1    1    3    3    0  502  0.19848385099E+03  0.32815100235E+03 -0.83598813466E+03  0.91975816428E+03  0.50400001928E-02 0.  1.
</event>
<event>
 5   0  0.1293575E-03  0.9994202E+03  0.7818609E-02  0.9309181E-01
       -1   -1    0    0    0  501  0.00000000000E+00  0.00000000000E+00  0.12839110078E+03  0.12839110088E+03  0.50400001928E-02 0. -1.
        1   -1    0    0  501    0  0.00000000000E+00  0.00000000000E+00 -0.19449183506E+04  0.19449183506E+04  0.50400001928E-02 0.  1.
    10030    2    1    2    0    0  0.00000000000E+00  0.00000000000E+00 -0.18165272499E+04  0.20733094515E+04  0.99942024809E+03 0.  0.
        4    1    3    3  502    0 -0.47449000956E+03 -0.12791094783E+03 -0.10961944518E+04  0.12013100636E+04  0.12699999809E+01 0. -1.
       -4    1    3    3    0  502  0.47449000956E+03  0.12791094783E+03 -0.72033279802E+03  0.87199938793E+03  0.12699999809E+01 0.  1.
</event>
<event>
 5   0  0.2255142E-03  0.1001191E+04  0.7818609E-02  0.9307240E-01
       -2   -1    0    0    0  501  0.00000000000E+00  0.00000000000E+00  0.41015556212E+03  0.41015556213E+03  0.25500000920E-02 0. -1.
        2   -1    0    0  501    0  0.00000000000E+00  0.00000000000E+00 -0.61097709826E+03  0.61097709827E+03  0.25500000920E-02 0.  1.
    10030    2    1    2    0    0  0.00000000000E+00  0.00000000000E+00 -0.20082153614E+03  0.10211326604E+04  0.10011906016E+04 0.  0.
        4    1    3    3  502    0 -0.14143689693E+03  0.45352116726E+03 -0.26137765749E+03  0.54222295940E+03  0.12699999809E+01 0.  1.
       -4    1    3    3    0  502  0.14143689693E+03 -0.45352116726E+03  0.60556121347E+02  0.47890970099E+03  0.12699999809E+01 0. -1.
</event>
<event>
 5   0  0.2255142E-03  0.1003031E+04  0.7818609E-02  0.9305226E-01
        2   -1    0    0  501    0  0.00000000000E+00  0.00000000000E+00  0.24324706888E+04  0.24324706888E+04  0.25500000920E-02 0.  1.
       -2   -1    0    0    0  501  0.00000000000E+00  0.00000000000E+00 -0.10340020688E+03  0.10340020691E+03  0.25500000920E-02 0. -1.
    10030    2    1    2    0    0  0.00000000000E+00  0.00000000000E+00  0.23290704819E+04  0.25358708957E+04  0.10030313505E+04 0.  0.
        4    1    3    3  502    0 -0.18055267846E+03  0.20054290738E+02  0.23463602473E+04  0.23533825587E+04  0.12699999809E+01 0.  1.
       -4    1    3    3    0  502  0.18055267846E+03 -0.20054290738E+02 -0.17289765397E+02  0.18248833706E+03  0.12699999809E+01 0. -1.
</event>
<event>
 5   0  0.8680125E-04  0.1025552E+04  0.7818609E-02  0.9280955E-01
        4   -1    0    0  501    0  0.00000000000E+00  0.00000000000E+00  0.29805119909E+03  0.29805390482E+03  0.12699999809E+01 0. -1.
       -4   -1    0    0    0  501  0.00000000000E+00  0.00000000000E+00 -0.88218756959E+03  0.88218848373E+03  0.12699999809E+01 0.  1.
    10030    2    1    2    0    0  0.00000000000E+00  0.00000000000E+00 -0.58413637050E+03  0.11802423886E+04  0.10255519472E+04 0.  0.
        5    1    3    3  502    0  0.49755350480E+03 -0.94228159315E+02 -0.19943713810E+03  0.54427538820E+03  0.46999998093E+01 0. -1.
       -5    1    3    3    0  502 -0.49755350480E+03  0.94228159315E+02 -0.38469923239E+03  0.63596700036E+03  0.46999998093E+01 0.  1.
</event>
<event>
 5   0  0.2204862E-03  0.1001039E+04  0.7818609E-02  0.9307406E-01
        2   -1    0    0  501    0  0.00000000000E+00  0.00000000000E+00  0.52802704063E+03  0.52802704064E+03  0.25500000920E-02 0. -1.
       -2   -1    0    0    0  501  0.00000000000E+00  0.00000000000E+00 -0.47444529857E+03  0.47444529858E+03  0.25500000920E-02 0.  1.
    10030    2    1    2    0    0  0.00000000000E+00  0.00000000000E+00  0.53581742062E+02  0.10024723392E+04  0.10010393538E+04 0.  0.
        1    1    3    3  502    0  0.43341201375E+03  0.19939447812E+03  0.17838727663E+03  0.50933893632E+03  0.50400001928E-02 0. -1.
       -1    1    3    3    0  502 -0.43341201375E+03 -0.19939447812E+03 -0.12480553456E+03  0.49313340290E+03  0.50400001928E-02 0.  1.
</event>
<event>
 5   0  0.1293716E-03  0.1002047E+04  0.7818609E-02  0.9306303E-01
        1   -1    0    0  501    0  0.00000000000E+00  0.00000000000E+00  0.76362942622E+03  0.76362942624E+03  0.50400001928E-02 0.  1.
       -1   -1    0    0    0  501  0.00000000000E+00  0.00000000000E+00 -0.32872528062E+03  0.32872528066E+03  0.50400001928E-02 0. -1.
    10030    2    1    2    0    0  0.00000000000E+00  0.00000000000E+00  0.43490414560E+03  0.10923547069E+04  0.10020465008E+04 0.  0.
        3    1    3    3  502    0  0.29576202856E+03 -0.55925109745E+02  0.65407554993E+03  0.72001224341E+03  0.10100000352E+00 0.  1.
       -3    1    3    3    0  502 -0.29576202856E+03  0.55925109745E+02 -0.21917140433E+03  0.37234246349E+03  0.10100000352E+00 0. -1.
</event>
<event>
 5   0  0.1285769E-03  0.1002393E+04  0.7818609E-02  0.9305924E-01
        1   -1    0    0  501    0  0.00000000000E+00  0.00000000000E+00  0.15804360867E+04  0.15804360867E+04  0.50400001928E-02 0. -1.
       -1   -1    0    0    0  501  0.00000000000E+00  0.00000000000E+00 -0.15894222503E+03  0.15894222511E+03  0.50400001928E-02 0.  1.
    10030    2    1    2    0    0  0.00000000000E+00  0.00000000000E+00  0.14214938617E+04  0.17393783118E+04  0.10023931927E+04 0.  0.
        5    1    3    3  502    0 -0.14802599678E+03  0.51725780309E+02  0.15367374310E+04  0.15447236886E+04  0.46999998093E+01 0. -1.
       -5    1    3    3    0  502  0.14802599678E+03 -0.51725780309E+02 -0.11524356937E+03  0.19465462324E+03  0.46999998093E+01 0.  1.
</event>
<event>
 5   0  0.1285769E-03  0.9983148E+03  0.7818609E-02  0.9310395E-01
       -1   -1    0    0    0  501  0.00000000000E+00  0.00000000000E+00  0.54164058966E+03  0.54164058968E+03  0.50400001928E-02 0. -1.
        1   -1    0    0  501    0  0.00000000000E+00  0.00000000000E+00 -0.46000634313E+03  0.46000634316E+03  0.50400001928E-02 0.  1.
    10030    2    1    2    0    0  0.00000000000E+00  0.00000000000E+00  0.81634246522E+02  0.10016469328E+04  0.99831479397E+03 0.  0.
        5    1    3    3  502    0 -0.41304703298E+03 -0.10048089074E+03 -0.22165065867E+03  0.47943233656E+03  0.46999998093E+01 0.  1.
       -5    1    3    3    0  502  0.41304703298E+03  0.10048089074E+03  0.30328490519E+03  0.52221459628E+03  0.46999998093E+01 0. -1.
</event>
<event>
 5   0  0.1249195E-03  0.9983943E+03  0.7818609E-02  0.9310308E-01
        1   -1    0    0  501    0  0.00000000000E+00  0.00000000000E+00  0.69894063873E+03  0.69894063875E+03  0.50400001928E-02 0.  1.
       -1   -1    0    0    0  501  0.00000000000E+00  0.00000000000E+00 -0.35653642847E+03  0.35653642850E+03  0.50400001928E-02 0. -1.
    10030    2    1    2    0    0  0.00000000000E+00  0.00000000000E+00  0.34240421027E+03  0.10554770673E+04  0.99839430902E+03 0.  0.
        2    1    3    3  502    0  0.17387767744E+03 -0.37535947874E+03  0.46658661784E+03  0.62356335440E+03  0.25500000920E-02 0.  1.
       -2    1    3    3    0  502 -0.17387767744E+03  0.37535947874E+03 -0.12418240758E+03  0.43191371285E+03  0.25500000920E-02 0. -1.
</event>
<event>
 5   0  0.2277570E-03  0.9999492E+03  0.7818609E-02  0.9308601E-01
       -2   -1    0    0    0  501  0.00000000000E+00  0.00000000000E+00  0.24303503698E+03  0.24303503699E+03  0.25500000920E-02 0. -1.
        2   -1    0    0  501    0  0.00000000000E+00  0.00000000000E+00 -0.10285537551E+04  0.10285537551E+04  0.25500000920E-02 0.  1.
    10030    2    1    2    0    0  0.00000000000E+00  0.00000000000E+00 -0.78551871812E+03  0.12715887921E+04  0.99994919854E+03 0.  0.
        3    1    3    3  502    0 -0.45917091099E+03  0.10739519586E+03 -0.60403352453E+03  0.76630813812E+03  0.10100000352E+00 0. -1.
       -3    1    3    3    0  502  0.45917091099E+03 -0.10739519586E+03 -0.18148519359E+03  0.50528065398E+03  0.10100000352E+00 0.  1.
</event>
<event>
 5   0  0.2264577E-03  0.1000791E+04  0.7818609E-02  0.9307677E-01
       -2   -1    0    0    0  501  0.00000000000E+00  0.00000000000E+00  0.32562360420E+03  0.32562360421E+03  0.25500000920E-02 0. -1.
        2   -1    0    0  501    0  0.00000000000E+00  0.00000000000E+00 -0.76897300562E+03  0.76897300562E+03  0.25500000920E-02 0.  1.
    10030    2    1    2    0    0  0.00000000000E+00  0.00000000000E+00 -0.44334940142E+03  0.10945966098E+04  0.10007912102E+04 0.  0.
        5    1    3    3  502    0 -0.28869591500E+03 -0.14683759426E+03 -0.63882537400E+03  0.71625872343E+03  0.46999998093E+01 0.  1.
       -5    1    3    3    0  502  0.28869591500E+03  0.14683759426E+03  0.19547597258E+03  0.37833788640E+03  0.46999998093E+01 0. -1.
</event>
<event>
 5   0  0.2284843E-03  0.9984818E+03  0.7818609E-02  0.9310211E-01
       -2   -1    0    0    0  501  0.00000000000E+00  0.00000000000E+00  0.35505239566E+03  0.35505239567E+03  0.25500000920E-02 0. -1.
        2   -1    0    0  501    0  0.00000000000E+00  0.00000000000E+00 -0.70198512034E+03  0.70198512034E+03  0.25500000920E-02 0.  1.
    10030    2    1    2    0    0  0.00000000000E+00  0.00000000000E+00 -0.34693272468E+03  0.10570375160E+04  0.99848184501E+03 0.  0.
        2    1    3    3  502    0  0.22149863299E+03  0.40185136353E+03 -0.38171373903E+03  0.59686811052E+03  0.25500000920E-02 0.  1.
       -2    1    3    3    0  502 -0.22149863299E+03 -0.40185136353E+03  0.34781014357E+02  0.46016940549E+03  0.25500000920E-02 0. -1.
</event>
<event>
 5   0  0.1249195E-03  0.9987284E+03  0.7818609E-02  0.9309941E-01
       -1   -1    0    0    0  501  0.00000000000E+00  0.00000000000E+00  0.33986225216E+03  0.33986225220E+03  0.50400001928E-02 0.  1.
        1   -1    0    0  501    0  0.00000000000E+00  0.00000000000E+00 -0.73372249677E+03  0.73372249678E+03  0.50400001928E-02 0. -1.
    10030    2    1    2    0    0  0.00000000000E+00  0.00000000000E+00 -0.39386024460E+03  0.10735847490E+04  0.99872835194E+03 0.  0.
        2    1    3    3  502    0  0.23059174452E+03  0.67855631997E+02 -0.66744428387E+03  0.70940736640E+03  0.25500000920E-02 0. -1.
       -2    1    3    3    0  502 -0.23059174452E+03 -0.67855631997E+02  0.27358403926E+03  0.36417738258E+03  0.25500000920E-02 0.  1.
</event>
<event>
 5   0  0.2204862E-03  0.9981932E+03  0.7818609E-02  0.9310529E-01
        2   -1    0    0  501    0  0.00000000000E+00  0.00000000000E+00  0.97167088268E+03  0.97167088269E+03  0.25500000920E-02 0.  1.
       -2   -1    0    0    0  501  0.00000000000E+00  0.00000000000E+00 -0.25635984624E+03  0.25635984626E+03  0.25500000920E-02 0. -1.
    10030    2    1    2    0    0  0.00000000000E+00  0.00000000000E+00  0.71531103644E+03  0.12280307289E+04  0.99819316386E+03 0.  0.
        1    1    3    3  502    0  0.20538942175E+03 -0.35746337791E+03  0.70373203638E+03  0.81560018402E+03  0.50400001928E-02 0.  1.
       -1    1    3    3    0  502 -0.20538942175E+03  0.35746337791E+03  0.11579000056E+02  0.41243054492E+03  0.50400001928E-02 0. -1.
</event>
<event>
 5   0  0.8680125E-04  0.9999214E+03  0.7818609E-02  0.9308631E-01
       -3   -1    0    0    0  501  0.00000000000E+00  0.00000000000E+00  0.52715155522E+03  0.52715156490E+03  0.10100000352E+00 0. -1.
        3   -1    0    0  501    0  0.00000000000E+00  0.00000000000E+00 -0.47417238617E+03  0.47417239693E+03  0.10100000352E+00 0.  1.
    10030    2    1    2    0    0  0.00000000000E+00  0.00000000000E+00  0.52979169051E+02  0.10013239618E+04  0.99992143900E+03 0.  0.
        4    1    3    3  502    0 -0.28272853428E+03 -0.38925776736E+03 -0.10972353613E+03  0.49345506465E+03  0.12699999809E+01 0.  1.
       -4    1    3    3    0  502  0.28272853428E+03  0.38925776736E+03  0.16270270518E+03  0.50786889718E+03  0.12699999809E+01 0. -1.
</event>
<event>
 5   0  0.8680125E-04  0.9991416E+03  0.7818609E-02  0.9309487E-01
       -4   -1    0    0    0  501  0.00000000000E+00  0.00000000000E+00  0.53689202848E+03  0.53689353055E+03  0.12699999809E+01 0. -1.
        4   -1    0    0  501    0  0.00000000000E+00  0.00000000000E+00 -0.46484084840E+03  0.46484258330E+03  0.12699999809E+01 0.  1.
    10030    2    1    2    0    0  0.00000000000E+00  0.00000000000E+00  0.72051180072E+02  0.10017361138E+04  0.99914156616E+03 0.  0.
        5    1    3    3  502    0  0.47684187524E+03 -0.14214230939E+03 -0.84321694554E+01  0.49767037443E+03  0.46999998093E+01 0.  1.
       -5    1    3    3    0  502 -0.47684187524E+03  0.14214230939E+03  0.80483349528E+02  0.50406573941E+03  0.46999998093E+01 0. -1.
</event>
<event>
 5   0  0.1353789E-03  0.9944773E+03  0.7818609E-02  0.9314623E-01
        1   -1    0    0  501    0  0.00000000000E+00  0.00000000000E+00  0.22216458093E+03  0.22216458098E+03  0.50400001928E-02 0. -1.
       -1   -1    0    0    0  501  0.00000000000E+00  0.00000000000E+00 -0.11128969876E+04  0.11128969877E+04  0.50400001928E-02 0.  1.
    10030    2    1    2    0    0  0.00000000000E+00  0.00000000000E+00 -0.89073240672E+03  0.13350615686E+04  0.99447733594E+03 0.  0.
        1    1    3    3  502    0  0.21009835710E+03 -0.45048618246E+03 -0.42800862958E+03  0.65595007986E+03  0.50400001928E-02 0. -1.
       -1    1    3    3    0  502 -0.21009835710E+03  0.45048618246E+03 -0.46272377714E+03  0.67911148879E+03  0.50400001928E-02 0.  1.
</event>
<event>
 5   0  0.1293716E-03  0.9629944E+03  0.7818609E-02  0.9350090E-01
        1   -1    0    0  501    0  0.00000000000E+00  0.00000000000E+00  0.88005122066E+03  0.88005122067E+03  0.50400001928E-02 0.  1.
       -1   -1    0    0    0  501  0.00000000000E+00  0.00000000000E+00 -0.26343868957E+03  0.26343868962E+03  0.50400001928E-02 0. -1.
    10030    2    1    2    0    0  0.00000000000E+00  0.00000000000E+00  0.61661253109E+03  0.11434899103E+04  0.96299437249E+03 0.  0.
        3    1    3    3  502    0  0.11172124844E+03  0.29647554605E+03 -0.12222593461E+03  0.33958588906E+03  0.10100000352E+00 0. -1.
       -3    1    3    3    0  502 -0.11172124844E+03 -0.29647554605E+03  0.73883846569E+03  0.80390402123E+03  0.10100000352E+00 0.  1.
</event>
<event>
 5   0  0.1249195E-03  0.9992302E+03  0.7818609E-02  0.9309390E-01
        1   -1    0    0  501    0  0.00000000000E+00  0.00000000000E+00  0.11794612641E+04  0.11794612641E+04  0.50400001928E-02 0.  1.
       -1   -1    0    0    0  501  0.00000000000E+00  0.00000000000E+00 -0.21163495070E+03  0.21163495076E+03  0.50400001928E-02 0. -1.
    10030    2    1    2    0    0  0.00000000000E+00  0.00000000000E+00  0.96782631340E+03  0.13910962149E+04  0.99923015674E+03 0.  0.
        2    1    3    3  502    0 -0.90594489270E+02 -0.10658890586E+03 -0.18381488034E+03  0.23099018719E+03  0.25500000920E-02 0. -1.
       -2    1    3    3    0  502  0.90594489270E+02  0.10658890586E+03  0.11516411937E+04  0.11601060277E+04  0.25500000920E-02 0.  1.
</event>
<event>
 5   0  0.1293716E-03  0.9903764E+03  0.7818609E-02  0.9319163E-01
       -1   -1    0    0    0  501  0.00000000000E+00  0.00000000000E+00  0.20115978822E+03  0.20115978828E+03  0.50400001928E-02 0. -1.
        1   -1    0    0  501    0  0.00000000000E+00  0.00000000000E+00 -0.12189878701E+04  0.12189878701E+04  0.50400001928E-02 0.  1.
    10030    2    1    2    0    0  0.00000000000E+00  0.00000000000E+00 -0.10178280819E+04  0.14201476584E+04  0.99037637661E+03 0.  0.
        3    1    3    3  502    0  0.11463473816E+02  0.22847910348E+03  0.12084396604E+03  0.25872260490E+03  0.10100000352E+00 0. -1.
       -3    1    3    3    0  502 -0.11463473816E+02 -0.22847910348E+03 -0.11386720479E+04  0.11614250535E+04  0.10100000352E+00 0.  1.
</event>
<event>
 5   0  0.1293575E-03  0.1000997E+04  0.7818609E-02  0.9307452E-01
        1   -1    0    0  501    0  0.00000000000E+00  0.00000000000E+00  0.28739433122E+03  0.28739433127E+03  0.50400001928E-02 0. -1.
       -1   -1    0    0    0  501  0.00000000000E+00  0.00000000000E+00 -0.87162057061E+03  0.87162057063E+03  0.50400001928E-02 0.  1.
    10030    2    1    2    0    0  0.00000000000E+00  0.00000000000E+00 -0.58422623939E+03  0.11590149019E+04  0.10009971249E+04 0.  0.
        4    1    3    3  502    0  0.26407503960E+03  0.26920941426E+02 -0.78340193146E+03  0.82715207957E+03  0.12699999809E+01 0.  1.
       -4    1    3    3    0  502 -0.26407503960E+03 -0.26920941426E+02  0.19917569207E+03  0.33186282232E+03  0.12699999809E+01 0. -1.
</event>
<event>
 5   0  0.1249195E-03  0.1002781E+04  0.7818609E-02  0.9305500E-01
        1   -1    0    0  501    0  0.00000000000E+00  0.00000000000E+00  0.79233206904E+03  0.79233206906E+03  0.50400001928E-02 0.  1.
       -1   -1    0    0    0  501  0.00000000000E+00  0.00000000000E+00 -0.31728162570E+03  0.31728162574E+03  0.50400001928E-02 0. -1.
    10030    2    1    2    0    0  0.00000000000E+00  0.00000000000E+00  0.47505044334E+03  0.11096136948E+04  0.10027809471E+04 0.  0.
        2    1    3    3  502    0  0.14119342458E+03 -0.45605752968E+03  0.40703979647E+03  0.62737982869E+03  0.25500000920E-02 0. -1.
       -2    1    3    3    0  502 -0.14119342458E+03  0.45605752968E+03  0.68010646874E+02  0.48223386611E+03  0.25500000920E-02 0.  1.
</event>
<event>
 5   0  0.2284843E-03  0.1014648E+04  0.7818609E-02  0.9292623E-01
        2   -1    0    0  501    0  0.00000000000E+00  0.00000000000E+00  0.75119927941E+03  0.75119927942E+03  0.25500000920E-02 0.  1.
       -2   -1    0    0    0  501  0.00000000000E+00  0.00000000000E+00 -0.34262250553E+03  0.34262250554E+03  0.25500000920E-02 0. -1.
    10030    2    1    2    0    0  0.00000000000E+00  0.00000000000E+00  0.40857677388E+03  0.10938217850E+04  0.10146482726E+04 0.  0.
        2    1    3    3  502    0 -0.14904030429E+03  0.32067612914E+03 -0.18787117524E+03  0.40042698535E+03  0.25500000920E-02 0. -1.
       -2    1    3    3    0  502  0.14904030429E+03 -0.32067612914E+03  0.59644794912E+03  0.69339479961E+03  0.25500000920E-02 0.  1.
</event>
<event>
 5   0  0.1249195E-03  0.9991196E+03  0.7818609E-02  0.9309511E-01
       -1   -1    0    0    0  501  0.00000000000E+00  0.00000000000E+00  0.17309262238E+03  0.17309262246E+03  0.50400001928E-02 0.  1.
        1   -1    0    0  501    0  0.00000000000E+00  0.00000000000E+00 -0.14417715022E+04  0.14417715022E+04  0.50400001928E-02 0. -1.
    10030    2    1    2    0    0  0.00000000000E+00  0.00000000000E+00 -0.12686788798E+04  0.16148641247E+04  0.99911963299E+03 0.  0.
        2    1    3    3  502    0  0.42537107128E+03  0.98655856604E+02 -0.24212253769E+03  0.49929635447E+03  0.25500000920E-02 0.  1.
       -2    1    3    3    0  502 -0.42537107128E+03 -0.98655856604E+02 -0.10265563421E+04  0.11155677702E+04  0.25500000920E-02 0. -1.
</event>
<event>
 5   0  0.1285769E-03  0.9992740E+03  0.7818609E-02  0.9309341E-01
       -1   -1    0    0    0  501  0.00000000000E+00  0.00000000000E+00  0.22985670995E+03  0.22985671000E+03  0.50400001928E-02 0. -1.
        1   -1    0    0  501    0  0.00000000000E+00  0.00000000000E+00 -0.10860554630E+04  0.10860554630E+04  0.50400001928E-02 0.  1.
    10030    2    1    2    0    0  0.00000000000E+00  0.00000000000E+00 -0.85619875304E+03  0.13159121730E+04  0.99927400764E+03 0.  0.
        5    1    3    3  502    0  0.22925525581E+03  0.39488410561E+03 -0.69514653619E+03  0.83171042194E+03  0.46999998093E+01 0.  1.
       -5    1    3    3    0  502 -0.22925525581E+03 -0.39488410561E+03 -0.16105221684E+03  0.48420175106E+03  0.46999998093E+01 0. -1.
</event>
<event>
 5   0  0.8680125E-04  0.9713733E+03  0.7818609E-02  0.9340512E-01
        3   -1    0    0  501    0  0.00000000000E+00  0.00000000000E+00  0.53611504233E+03  0.53611505184E+03  0.10100000352E+00 0. -1.
       -3   -1    0    0    0  501  0.00000000000E+00  0.00000000000E+00 -0.44000162378E+03  0.44000163537E+03  0.10100000352E+00 0.  1.
    10030    2    1    2    0    0  0.00000000000E+00  0.00000000000E+00  0.96113418555E+02  0.97611668721E+03  0.97137325361E+03 0.  0.
        2    1    3    3  502    0  0.44375256627E+03  0.75822602325E+02 -0.13511366385E+03  0.47002245613E+03  0.25500000920E-02 0.  1.
       -2    1    3    3    0  502 -0.44375256627E+03 -0.75822602325E+02  0.23122708240E+03  0.50609423109E+03  0.25500000920E-02 0. -1.
</event>
<event>
 5   0  0.2277570E-03  0.1001150E+04  0.7818609E-02  0.9307284E-01
        2   -1    0    0  501    0  0.00000000000E+00  0.00000000000E+00  0.13540907216E+03  0.13540907219E+03  0.25500000920E-02 0. -1.
       -2   -1    0    0    0  501  0.00000000000E+00  0.00000000000E+00 -0.18505080603E+04  0.18505080603E+04  0.25500000920E-02 0.  1.
    10030    2    1    2    0    0  0.00000000000E+00  0.00000000000E+00 -0.17150989881E+04  0.19859171325E+04  0.10011504972E+04 0.  0.
        3    1    3    3  502    0 -0.11293749468E+03  0.47389551729E+03 -0.10858289974E+04  0.11901077517E+04  0.10100000352E+00 0.  1.
       -3    1    3    3    0  502  0.11293749468E+03 -0.47389551729E+03 -0.62926999078E+03  0.79580938076E+03  0.10100000352E+00 0. -1.
</event>
<event>
 5   0  0.2277570E-03  0.1027650E+04  0.7818609E-02  0.9278728E-01
        2   -1    0    0  501    0  0.00000000000E+00  0.00000000000E+00  0.58217112844E+03  0.58217112845E+03  0.25500000920E-02 0. -1.
       -2   -1    0    0    0  501  0.00000000000E+00  0.00000000000E+00 -0.45350236273E+03  0.45350236274E+03  0.25500000920E-02 0.  1.
    10030    2    1    2    0    0  0.00000000000E+00  0.00000000000E+00  0.12866876571E+03  0.10356734912E+04  0.10276497113E+04 0.  0.
        3    1    3    3  502    0  0.31979871199E+03  0.39240563862E+03  0.15312775279E+03  0.52886815019E+03  0.10100000352E+00 0. -1.
       -3    1    3    3    0  502 -0.31979871199E+03 -0.39240563862E+03 -0.24458987082E+02  0.50680534100E+03  0.10100000352E+00 0.  1.
</event>
<event>
 5   0  0.2255142E-03  0.1000999E+04  0.7818609E-02  0.9307450E-01
       -2   -1    0    0    0  501  0.00000000000E+00  0.00000000000E+00  0.20237183898E+03  0.20237183900E+03  0.25500000920E-02 0. -1.
        2   -1    0    0  501    0  0.00000000000E+00  0.00000000000E+00 -0.12378180599E+04  0.12378180599E+04  0.25500000920E-02 0.  1.
    10030    2    1    2    0    0  0.00000000000E+00  0.00000000000E+00 -0.10354462209E+04  0.14401898989E+04  0.10009985357E+04 0.  0.
        4    1    3    3  502    0 -0.48005528839E+03 -0.11281517843E+03 -0.64079800126E+03  0.80858149603E+03  0.12699999809E+01 0.  1.
       -4    1    3    3    0  502  0.48005528839E+03  0.11281517843E+03 -0.39464821964E+03  0.63160840286E+03  0.12699999809E+01 0. -1.
</event>
<event>
 5   0  0.2277570E-03  0.9988409E+03  0.7818609E-02  0.9309817E-01
       -2   -1    0    0    0  501  0.00000000000E+00  0.00000000000E+00  0.12375683891E+03  0.12375683894E+03  0.25500000920E-02 0.  1.
        2   -1    0    0  501    0  0.00000000000E+00  0.00000000000E+00 -0.20154101849E+04  0.20154101849E+04  0.25500000920E-02 0. -1.
    10030    2    1    2    0    0  0.00000000000E+00  0.00000000000E+00 -0.18916533460E+04  0.21391670238E+04  0.99884091550E+03 0.  0.
        3    1    3    3  502    0 -0.29384181001E+03 -0.19379458125E+03 -0.17045917221E+04  0.17405551696E+04  0.10100000352E+00 0. -1.
       -3    1    3    3    0  502  0.29384181001E+03  0.19379458125E+03 -0.18706162389E+03  0.39861185427E+03  0.10100000352E+00 0.  1.
</event>
<event>
 5   0  0.2204862E-03  0.1018334E+04  0.7818609E-02  0.9288662E-01
        2   -1    0    0  501    0  0.00000000000E+00  0.00000000000E+00  0.15344838678E+04  0.15344838678E+04  0.25500000920E-02 0.  1.
       -2   -1    0    0    0  501  0.00000000000E+00  0.00000000000E+00 -0.16894993774E+03  0.16894993775E+03  0.25500000920E-02 0. -1.
    10030    2    1    2    0    0  0.00000000000E+00  0.00000000000E+00  0.13655339301E+04  0.17034338056E+04  0.10183338430E+04 0.  0.
        1    1    3    3  502    0  0.22632240338E+03 -0.27635334258E+03  0.12897249580E+04  0.13382763046E+04  0.50400001928E-02 0.  1.
       -1    1    3    3    0  502 -0.22632240338E+03  0.27635334258E+03  0.75808972094E+02  0.36515750095E+03  0.50400001928E-02 0. -1.
</event>
<event>
 5   0  0.2264577E-03  0.9598880E+03  0.7818609E-02  0.9353667E-01
       -2   -1    0    0    0  501  0.00000000000E+00  0.00000000000E+00  0.64898885836E+03  0.64898885836E+03  0.25500000920E-02 0.  1.
        2   -1    0    0  501    0  0.00000000000E+00  0.00000000000E+00 -0.35493100205E+03  0.35493100206E+03  0.25500000920E-02 0. -1.
    10030    2    1    2    0    0  0.00000000000E+00  0.00000000000E+00  0.29405785631E+03  0.10039198604E+04  0.95988804727E+03 0.  0.
        5    1    3    3  502    0  0.10912219011E+03 -0.22607257663E+02 -0.34118761771E+03  0.35895657252E+03  0.46999998093E+01 0. -1.
       -5    1    3    3    0  502 -0.10912219011E+03  0.22607257663E+02  0.63524547403E+03  0.64496328790E+03  0.46999998093E+01 0.  1.
</event>
<event>
 5   0  0.2264577E-03  0.9990475E+03  0.7818609E-02  0.9309590E-01
       -2   -1    0    0    0  501  0.00000000000E+00  0.00000000000E+00  0.31816708321E+03  0.31816708322E+03  0.25500000920E-02 0.  1.
        2   -1    0    0  501    0  0.00000000000E+00  0.00000000000E+00 -0.78425455158E+03  0.78425455159E+03  0.25500000920E-02 0. -1.
    10030    2    1    2    0    0  0.00000000000E+00  0.00000000000E+00 -0.46608746838E+03  0.11024216348E+04  0.99904751274E+03 0.  0.
        5    1    3    3  502    0 -0.39085196895E+03  0.15375974206E+03  0.65291228286E+02  0.42507923308E+03  0.46999998093E+01 0.  1.
       -5    1    3    3    0  502  0.39085196895E+03 -0.15375974206E+03 -0.53137869666E+03  0.67734240172E+03  0.46999998093E+01 0. -1.
</event>
<event>
 5   0  0.1293716E-03  0.1004763E+04  0.7818609E-02  0.9303337E-01
       -1   -1    0    0    0  501  0.00000000000E+00  0.00000000000E+00  0.47561726109E+03  0.47561726112E+03  0.50400001928E-02 0.  1.
        1   -1    0    0  501    0  0.00000000000E+00  0.00000000000E+00 -0.53065154286E+03  0.53065154289E+03  0.50400001928E-02 0. -1.
    10030    2    1    2    0    0  0.00000000000E+00  0.00000000000E+00 -0.55034281771E+02  0.10062688040E+04  0.10047627251E+04 0.  0.
        3    1    3    3  502    0  0.37869207429E+03 -0.38857979048E+02  0.30079949798E+03  0.48517829491E+03  0.10100000352E+00 0.  1.
       -3    1    3    3    0  502 -0.37869207429E+03  0.38857979048E+02 -0.35583377975E+03  0.52109050910E+03  0.10100000352E+00 0. -1.
</event>
<event>
 5   0  0.1353789E-03  0.9966640E+03  0.7818609E-02  0.9312211E-01
        1   -1    0    0  501    0  0.00000000000E+00  0.00000000000E+00  0.56016531384E+03  0.56016531387E+03  0.50400001928E-02 0. -1.
       -1   -1    0    0    0  501  0.00000000000E+00  0.00000000000E+00 -0.44332409236E+03  0.44332409239E+03  0.50400001928E-02 0.  1.
    10030    2    1    2    0    0  0.00000000000E+00  0.00000000000E+00  0.11684122148E+03  0.10034894063E+04  0.99666399425E+03 0.  0.
        1    1    3    3  502    0 -0.47391876287E+03  0.41626660387E+02 -0.90929324349E+02  0.48435515349E+03  0.50400001928E-02 0.  1.
       -1    1    3    3    0  502  0.47391876287E+03 -0.41626660387E+02  0.20777054583E+03  0.51913425277E+03  0.50400001928E-02 0. -1.
</event>
<event>
 5   0  0.1293716E-03  0.1000785E+04  0.7818609E-02  0.9307684E-01
       -1   -1    0    0    0  501  0.00000000000E+00  0.00000000000E+00  0.41566331620E+03  0.41566331623E+03  0.50400001928E-02 0.  1.
        1   -1    0    0  501    0  0.00000000000E+00  0.00000000000E+00 -0.60239301819E+03  0.60239301821E+03  0.50400001928E-02 0. -1.
    10030    2    1    2    0    0  0.00000000000E+00  0.00000000000E+00 -0.18672970198E+03  0.10180563344E+04  0.10007850511E+04 0.  0.
        3    1    3    3  502    0  0.58819366633E+02  0.15686326261E+02  0.41188248978E+03  0.41635678728E+03  0.10100000352E+00 0.  1.
       -3    1    3    3    0  502 -0.58819366633E+02 -0.15686326261E+02 -0.59861219177E+03  0.60169954716E+03  0.10100000352E+00 0. -1.
</event>
<event>
 5   0  0.1353789E-03  0.9859824E+03  0.7818609E-02  0.9324054E-01
        1   -1    0    0  501    0  0.00000000000E+00  0.00000000000E+00  0.35561369324E+03  0.35561369328E+03  0.50400001928E-02 0. -1.
       -1   -1    0    0    0  501  0.00000000000E+00  0.00000000000E+00 -0.68343921272E+03  0.68343921274E+03  0.50400001928E-02 0.  1.
    10030    2    1    2    0    0  0.00000000000E+00  0.00000000000E+00 -0.32782551948E+03  0.10390529060E+04  0.98598243913E+03 0.  0.
        1    1    3    3  502    0 -0.41809509708E+03  0.18739202022E+03  0.27874880399E+02  0.45901665375E+03  0.50400001928E-02 0. -1.
       -1    1    3    3    0  502  0.41809509708E+03 -0.18739202022E+03 -0.35570039988E+03  0.58003625226E+03  0.50400001928E-02 0.  1.
</event>
<event>
 5   0  0.1293575E-03  0.1000415E+04  0.7818609E-02  0.9308090E-01
       -1   -1    0    0    0  501  0.00000000000E+00  0.00000000000E+00  0.10630916155E+03  0.10630916167E+03  0.50400001928E-02 0.  1.
        1   -1    0    0  501    0  0.00000000000E+00  0.00000000000E+00 -0.23535847323E+04  0.23535847323E+04  0.50400001928E-02 0. -1.
    10030    2    1    2    0    0  0.00000000000E+00  0.00000000000E+00 -0.22472755708E+04  0.24598938940E+04  0.10004151532E+04 0.  0.
        4    1    3    3  502    0  0.26325112713E+03 -0.40728926695E+03 -0.14249907530E+04  0.15052527900E+04  0.12699999809E+01 0.  1.
       -4    1    3    3    0  502 -0.26325112713E+03  0.40728926695E+03 -0.82228481783E+03  0.95464110399E+03  0.12699999809E+01 0. -1.
</event>
<event>
 5   0  0.2255142E-03  0.9986254E+03  0.7818609E-02  0.9310054E-01
       -2   -1    0    0    0  501  0.00000000000E+00  0.00000000000E+00  0.41370835660E+03  0.41370835660E+03  0.25500000920E-02 0.  1.
        2   -1    0    0  501    0  0.00000000000E+00  0.00000000000E+00 -0.60263026189E+03  0.60263026189E+03  0.25500000920E-02 0. -1.
    10030    2    1    2    0    0  0.00000000000E+00  0.00000000000E+00 -0.18892190529E+03  0.10163386185E+04  0.99862540582E+03 0.  0.
        4    1    3    3  502    0 -0.24195296272E+03  0.12792626234E+03 -0.51948698337E+03  0.58717518983E+03  0.12699999809E+01 0. -1.
       -4    1    3    3    0  502  0.24195296272E+03 -0.12792626234E+03  0.33056507808E+03  0.42916342867E+03  0.12699999809E+01 0.  1.
</event>
<event>
 5   0  0.2264577E-03  0.9904341E+03  0.7818609E-02  0.9319099E-01
       -2   -1    0    0    0  501  0.00000000000E+00  0.00000000000E+00  0.70757701675E+03  0.70757701675E+03  0.25500000920E-02 0.  1.
        2   -1    0    0  501    0  0.00000000000E+00  0.00000000000E+00 -0.34659114504E+03  0.34659114505E+03  0.25500000920E-02 0. -1.
    10030    2    1    2    0    0  0.00000000000E+00  0.00000000000E+00  0.36098587170E+03  0.10541681618E+04  0.99043410371E+03 0.  0.
        5    1    3    3  502    0 -0.15001571700E+03 -0.27545595392E+03 -0.22735875649E+03  0.38742069130E+03  0.46999998093E+01 0. -1.
       -5    1    3    3    0  502  0.15001571700E+03  0.27545595392E+03  0.58834462819E+03  0.66674747050E+03  0.46999998093E+01 0.  1.
</event>
<event>
 5   0  0.1293575E-03  0.1047923E+04  0.7818609E-02  0.9257491E-01
       -1   -1    0    0    0  501  0.00000000000E+00  0.00000000000E+00  0.77540126619E+03  0.77540126621E+03  0.50400001928E-02 0. -1.
        1   -1    0    0  501    0  0.00000000000E+00  0.00000000000E+00 -0.35405601194E+03  0.35405601198E+03  0.50400001928E-02 0.  1.
    10030    2    1    2    0    0  0.00000000000E+00  0.00000000000E+00  0.42134525425E+03  0.11294572782E+04  0.10479226689E+04 0.  0.
        4    1    3    3  502    0  0.24460574244E+03 -0.43154102270E+03  0.39254497408E+03  0.63257631403E+03  0.12699999809E+01 0. -1.
       -4    1    3    3    0  502 -0.24460574244E+03  0.43154102270E+03  0.28800280179E+02  0.49688096415E+03  0.12699999809E+01 0.  1.
</event>
<event>
 5   0  0.2277570E-03  0.1003162E+04  0.7818609E-02  0.9305084E-01
        2   -1    0    0  501    0  0.00000000000E+00  0.00000000000E+00  0.24904754658E+04  0.24904754658E+04  0.25500000920E-02 0. -1.
       -2   -1    0    0    0  501  0.00000000000E+00  0.00000000000E+00 -0.10101820167E+03  0.10101820170E+03  0.25500000920E-02 0.  1.
    10030    2    1    2    0    0  0.00000000000E+00  0.00000000000E+00  0.23894572642E+04  0.25914936675E+04  0.10031617076E+04 0.  0.
        3    1    3    3  502    0 -0.38778087113E+03 -0.71726069496E+02  0.39404464499E+03  0.55748526932E+03  0.10100000352E+00 0.  1.
       -3    1    3    3    0  502  0.38778087113E+03  0.71726069496E+02  0.19954126192E+04  0.20340083982E+04  0.10100000352E+00 0. -1.
</event>
<event>
 5   0  0.2204862E-03  0.9983125E+03  0.7818609E-02  0.9310398E-01
       -2   -1    0    0    0  501  0.00000000000E+00  0.00000000000E+00  0.36746820446E+03  0.36746820447E+03  0.25500000920E-02 0. -1.
        2   -1    0    0  501    0  0.00000000000E+00  0.00000000000E+00 -0.67803679166E+03  0.67803679167E+03  0.25500000920E-02 0.  1.
    10030    2    1    2    0    0  0.00000000000E+00  0.00000000000E+00 -0.31056858720E+03  0.10455049961E+04  0.99831250097E+03 0.  0.
        1    1    3    3  502    0  0.39272175297E+03  0.16234133178E+03  0.11895686088E+03  0.44128881476E+03  0.50400001928E-02 0.  1.
       -1    1    3    3    0  502 -0.39272175297E+03 -0.16234133178E+03 -0.42952544808E+03  0.60421618137E+03  0.50400001928E-02 0. -1.
</event>
<event>
 5   0  0.2284843E-03  0.1014637E+04  0.7818609E-02  0.9292635E-01
        2   -1    0    0  501    0  0.00000000000E+00  0.00000000000E+00  0.43580836867E+03  0.43580836868E+03  0.25500000920E-02 0.  1.
       -2   -1    0    0    0  501  0.00000000000E+00  0.00000000000E+00 -0.59056236438E+03  0.59056236439E+03  0.25500000920E-02 0. -1.
    10030    2    1    2    0    0  0.00000000000E+00  0.00000000000E+00 -0.15475399571E+03  0.10263707331E+04  0.10146369215E+04 0.  0.
        2    1    3    3  502    0 -0.48207633052E+03  0.15133532760E+03 -0.31330797740E+02  0.50624261844E+03  0.25500000920E-02 0. -1.
       -2    1    3    3    0  502  0.48207633052E+03 -0.15133532760E+03 -0.12342319797E+03  0.52012811463E+03  0.25500000920E-02 0.  1.
</event>
<event>
 5   0  0.8680125E-04  0.1007265E+04  0.7818609E-02  0.9300612E-01
        4   -1    0    0  501    0  0.00000000000E+00  0.00000000000E+00  0.54090674476E+03  0.54090823568E+03  0.12699999809E+01 0. -1.
       -4   -1    0    0    0  501  0.00000000000E+00  0.00000000000E+00 -0.46892415749E+03  0.46892587727E+03  0.12699999809E+01 0.  1.
    10030    2    1    2    0    0  0.00000000000E+00  0.00000000000E+00  0.71982587273E+02  0.10098341130E+04  0.10072653289E+04 0.  0.
        5    1    3    3  502    0 -0.13113250138E+03 -0.16831892417E+03  0.49333091680E+03  0.53751695473E+03  0.46999998093E+01 0. -1.
       -5    1    3    3    0  502  0.13113250138E+03  0.16831892417E+03 -0.42134832953E+03  0.47231715822E+03  0.46999998093E+01 0.  1.
</event>
<event>
 5   0  0.1293575E-03  0.9983055E+03  0.7818609E-02  0.9310405E-01
       -1   -1    0    0    0  501  0.00000000000E+00  0.00000000000E+00  0.16430604500E+03  0.16430604508E+03  0.50400001928E-02 0. -1.
        1   -1    0    0  501    0  0.00000000000E+00  0.00000000000E+00 -0.15163986080E+04  0.15163986080E+04  0.50400001928E-02 0.  1.
    10030    2    1    2    0    0  0.00000000000E+00  0.00000000000E+00 -0.13520925630E+04  0.16807046531E+04  0.99830548029E+03 0.  0.
        4    1    3    3  502    0 -0.27834628068E+03  0.36193737566E+03 -0.33649928612E+03  0.56719370442E+03  0.12699999809E+01 0. -1.
       -4    1    3    3    0  502  0.27834628068E+03 -0.36193737566E+03 -0.10155932769E+04  0.11135109487E+04  0.12699999809E+01 0.  1.
</event>
<event>
 5   0  0.2264577E-03  0.9959727E+03  0.7818609E-02  0.9312973E-01
       -2   -1    0    0    0  501  0.00000000000E+00  0.00000000000E+00  0.18873435310E+03  0.18873435312E+03  0.25500000920E-02 0.  1.
        2   -1    0    0  501    0  0.00000000000E+00  0.00000000000E+00 -0.13139653970E+04  0.13139653970E+04  0.25500000920E-02 0. -1.
    10030    2    1    2    0    0  0.00000000000E+00  0.00000000000E+00 -0.11252310439E+04  0.15026997501E+04  0.99597270890E+03 0.  0.
        5    1    3    3  502    0  0.46905896097E+03  0.15054994275E+03 -0.67231842991E+03  0.83349610396E+03  0.46999998093E+01 0. -1.
       -5    1    3    3    0  502 -0.46905896097E+03 -0.15054994275E+03 -0.45291261400E+03  0.66920364617E+03  0.46999998093E+01 0.  1.
</event>
<event>
 5   0  0.8680125E-04  0.9983771E+03  0.7818609E-02  0.9310327E-01
        4   -1    0    0  501    0  0.00000000000E+00  0.00000000000E+00  0.35835264946E+03  0.35835489989E+03  0.12699999809E+01 0. -1.
       -4   -1    0    0    0  501  0.00000000000E+00  0.00000000000E+00 -0.69536928360E+03  0.69537044335E+03  0.12699999809E+01 0.  1.
    10030    2    1    2    0    0  0.00000000000E+00  0.00000000000E+00 -0.33701663414E+03  0.10537253432E+04  0.99837712679E+03 0.  0.
        3    1    3    3  502    0  0.10982727410E+03  0.25113849092E+03 -0.60883813985E+03  0.66769488728E+03  0.10100000352E+00 0.  1.
       -3    1    3    3    0  502 -0.10982727410E+03 -0.25113849092E+03  0.27182150571E+03  0.38603045596E+03  0.10100000352E+00 0. -1.
</event>
<event>
 5   0  0.1285769E-03  0.9995989E+03  0.7818609E-02  0.9308985E-01
       -1   -1    0    0    0  501  0.00000000000E+00  0.00000000000E+00  0.22950904422E+03  0.22950904427E+03  0.50400001928E-02 0. -1.
        1   -1    0    0  501    0  0.00000000000E+00  0.00000000000E+00 -0.10884081055E+04  0.10884081055E+04  0.50400001928E-02 0.  1.
    10030    2    1    2    0    0  0.00000000000E+00  0.00000000000E+00 -0.85889906126E+03  0.13179171498E+04  0.99959892767E+03 0.  0.
        5    1    3    3  502    0  0.13043372339E+03  0.42252699083E+03 -0.12240331355E+03  0.45885365352E+03  0.46999998093E+01 0. -1.
       -5    1    3    3    0  502 -0.13043372339E+03 -0.42252699083E+03 -0.73649574771E+03  0.85906349624E+03  0.46999998093E+01 0.  1.
</event>
<event>
 5   0  0.1293575E-03  0.9906379E+03  0.7818609E-02  0.9318873E-01
       -1   -1    0    0    0  501  0.00000000000E+00  0.00000000000E+00  0.25731475674E+03  0.25731475679E+03  0.50400001928E-02 0. -1.
        1   -1    0    0  501    0  0.00000000000E+00  0.00000000000E+00 -0.95346591736E+03  0.95346591737E+03  0.50400001928E-02 0.  1.
    10030    2    1    2    0    0  0.00000000000E+00  0.00000000000E+00 -0.69615116062E+03  0.12107806742E+04  0.99063787657E+03 0.  0.
        4    1    3    3  502    0  0.18523365723E+03 -0.23268678452E+03 -0.83218183663E+03  0.88373235177E+03  0.12699999809E+01 0.  1.
       -4    1    3    3    0  502 -0.18523365723E+03  0.23268678452E+03  0.13603067601E+03  0.32704832239E+03  0.12699999809E+01 0. -1.
</event>
<event>
 5   0  0.1293716E-03  0.1001189E+04  0.7818609E-02  0.9307242E-01
        1   -1    0    0  501    0  0.00000000000E+00  0.00000000000E+00  0.16083433366E+04  0.16083433366E+04  0.50400001928E-02 0. -1.
       -1   -1    0    0    0  501  0.00000000000E+00  0.00000000000E+00 -0.15580932971E+03  0.15580932979E+03  0.50400001928E-02 0.  1.
    10030    2    1    2    0    0  0.00000000000E+00  0.00000000000E+00  0.14525340069E+04  0.17641526664E+04  0.10011890876E+04 0.  0.
        3    1    3    3  502    0  0.25590985559E+03  0.34635859312E+03  0.11759914144E+04  0.12523617473E+04  0.10100000352E+00 0. -1.
       -3    1    3    3    0  502 -0.25590985559E+03 -0.34635859312E+03  0.27654259256E+03  0.51179091914E+03  0.10100000352E+00 0.  1.
</event>
<event>
 5   0  0.8680125E-04  0.1007810E+04  0.7818609E-02  0.9300020E-01
        3   -1    0    0  501    0  0.00000000000E+00  0.00000000000E+00  0.86185956796E+03  0.86185957388E+03  0.10100000352E+00 0. -1.
       -3   -1    0    0    0  501  0.00000000000E+00  0.00000000000E+00 -0.29461928306E+03  0.29461930037E+03  0.10100000352E+00 0.  1.
    10030    2    1    2    0    0  0.00000000000E+00  0.00000000000E+00  0.56724028491E+03  0.11564788743E+04  0.10078104215E+04 0.  0.
        1    1    3    3  502    0 -0.13818730474E+03  0.66011242828E+02  0.83450833616E+03  0.84844409275E+03  0.50400001928E-02 0. -1.
       -1    1    3    3    0  502  0.13818730474E+03 -0.66011242828E+02 -0.26726805125E+03  0.30803478151E+03  0.50400001928E-02 0.  1.
</event>
<event>
 5   0  0.1285769E-03  0.9996775E+03  0.7818609E-02  0.9308899E-01
        1   -1    0    0  501    0  0.00000000000E+00  0.00000000000E+00  0.36569671636E+03  0.36569671639E+03  0.50400001928E-02 0. -1.
       -1   -1    0    0    0  501  0.00000000000E+00  0.00000000000E+00 -0.68318577288E+03  0.68318577290E+03  0.50400001928E-02 0.  1.
    10030    2    1    2    0    0  0.00000000000E+00  0.00000000000E+00 -0.31748905652E+03  0.10488824893E+04  0.99967753567E+03 0.  0.
        5    1    3    3  502    0  0.12067830179E+03  0.43791272005E+03  0.60052358504E+02  0.45821302761E+03  0.46999998093E+01 0. -1.
       -5    1    3    3    0  502 -0.12067830179E+03 -0.43791272005E+03 -0.37754141502E+03  0.59066946168E+03  0.46999998093E+01 0.  1.
</event>
<event>
 5   0  0.1353789E-03  0.9998308E+03  0.7818609E-02  0.9308730E-01
       -1   -1    0    0    0  501  0.00000000000E+00  0.00000000000E+00  0.65195461216E+03  0.65195461218E+03  0.50400001928E-02 0.  1.
        1   -1    0    0  501    0  0.00000000000E+00  0.00000000000E+00 -0.38333253092E+03  0.38333253095E+03  0.50400001928E-02 0. -1.
    10030    2    1    2    0    0  0.00000000000E+00  0.00000000000E+00  0.26862208125E+03  0.10352871431E+04  0.99983080879E+03 0.  0.
        1    1    3    3  502    0  0.47993022135E+02  0.45626454029E+02 -0.37877105520E+03  0.38451607998E+03  0.50400001928E-02 0. -1.
       -1    1    3    3    0  502 -0.47993022135E+02 -0.45626454029E+02  0.64739313645E+03  0.65077106315E+03  0.50400001928E-02 0.  1.
</event>
<event>
 5   0  0.8680125E-04  0.1001875E+04  0.7818609E-02  0.9306491E-01
        3   -1    0    0  501    0  0.00000000000E+00  0.00000000000E+00  0.40705501747E+03  0.40705503000E+03  0.10100000352E+00 0. -1.
       -3   -1    0    0    0  501  0.00000000000E+00  0.00000000000E+00 -0.61647228647E+03  0.61647229474E+03  0.10100000352E+00 0.  1.
    10030    2    1    2    0    0  0.00000000000E+00  0.00000000000E+00 -0.20941726900E+03  0.10235273247E+04  0.10018745390E+04 0.  0.
        2    1    3    3  502    0 -0.46247224966E+03 -0.66191939707E+02 -0.28938096519E+03  0.54954826686E+03  0.25500000920E-02 0.  1.
       -2    1    3    3    0  502  0.46247224966E+03  0.66191939707E+02  0.79963696193E+02  0.47397905788E+03  0.25500000920E-02 0. -1.
</event>
<event>
 5   0  0.2204862E-03  0.9947108E+03  0.7818609E-02  0.9314365E-01
       -2   -1    0    0    0  501  0.00000000000E+00  0.00000000000E+00  0.18575562997E+03  0.18575562999E+03  0.25500000920E-02 0. -1.
        2   -1    0    0  501    0  0.00000000000E+00  0.00000000000E+00 -0.13316549019E+04  0.13316549019E+04  0.25500000920E-02 0.  1.
    10030    2    1    2    0    0  0.00000000000E+00  0.00000000000E+00 -0.11458992719E+04  0.15174105319E+04  0.99471080263E+03 0.  0.
        1    1    3    3  502    0 -0.57658954011E+02  0.25579168680E+03  0.71749761423E+02  0.27184916830E+03  0.50400001928E-02 0. -1.
       -1    1    3    3    0  502  0.57658954011E+02 -0.25579168680E+03 -0.12176490333E+04  0.12455613636E+04  0.50400001928E-02 0.  1.
</event>
<event>
 5   0  0.1353789E-03  0.1001570E+04  0.7818609E-02  0.9306825E-01
       -1   -1    0    0    0  501  0.00000000000E+00  0.00000000000E+00  0.37637472820E+03  0.37637472823E+03  0.50400001928E-02 0.  1.
        1   -1    0    0  501    0  0.00000000000E+00  0.00000000000E+00 -0.66631834720E+03  0.66631834722E+03  0.50400001928E-02 0. -1.
    10030    2    1    2    0    0  0.00000000000E+00  0.00000000000E+00 -0.28994361900E+03  0.10426930755E+04  0.10015695420E+04 0.  0.
        1    1    3    3  502    0  0.29425344048E+03 -0.38785073998E+03 -0.26714488672E+03  0.55531943444E+03  0.50400001928E-02 0. -1.
       -1    1    3    3    0  502 -0.29425344048E+03  0.38785073998E+03 -0.22798732276E+02  0.48737364101E+03  0.50400001928E-02 0.  1.
</event>
<event>
 5   0  0.2204862E-03  0.9996735E+03  0.7818609E-02  0.9308903E-01
       -2   -1    0    0    0  501  0.00000000000E+00  0.00000000000E+00  0.32100522069E+03  0.32100522070E+03  0.25500000920E-02 0.  1.
        2   -1    0    0  501    0  0.00000000000E+00  0.00000000000E+00 -0.77829511126E+03  0.77829511127E+03  0.25500000920E-02 0. -1.
    10030    2    1    2    0    0  0.00000000000E+00  0.00000000000E+00 -0.45728989057E+03  0.10993003320E+04  0.99967353463E+03 0.  0.
        1    1    3    3  502    0 -0.32345243912E+03 -0.21326964441E+03  0.11863048806E+03  0.40518960293E+03  0.50400001928E-02 0.  1.
       -1    1    3    3    0  502  0.32345243912E+03  0.21326964441E+03 -0.57592037863E+03  0.69411072903E+03  0.50400001928E-02 0. -1.
</event>
<event>
 5   0  0.2264577E-03  0.1000647E+04  0.7818609E-02  0.9307836E-01
       -2   -1    0    0    0  501  0.00000000000E+00  0.00000000000E+00  0.22838520617E+03  0.22838520619E+03  0.25500000920E-02 0. -1.
        2   -1    0    0  501    0  0.00000000000E+00  0.00000000000E+00 -0.10960577691E+04  0.10960577691E+04  0.25500000920E-02 0.  1.
    10030    2    1    2    0    0  0.00000000000E+00  0.00000000000E+00 -0.86767256297E+03  0.13244429753E+04  0.10006465502E+04 0.  0.
        5    1    3    3  502    0  0.45766315012E+03 -0.74001806202E+02 -0.68276029613E+03  0.82529724237E+03  0.46999998093E+01 0.  1.
       -5    1    3    3    0  502 -0.45766315012E+03  0.74001806202E+02 -0.18491226684E+03  0.49914573295E+03  0.46999998093E+01 0. -1.
</event>
<event>
 5   0  0.1249195E-03  0.9980444E+03  0.7818609E-02  0.9310692E-01
       -1   -1    0    0    0  501  0.00000000000E+00  0.00000000000E+00  0.34533982932E+03  0.34533982935E+03  0.50400001928E-02 0.  1.
        1   -1    0    0  501    0  0.00000000000E+00  0.00000000000E+00 -0.72109590214E+03  0.72109590216E+03  0.50400001928E-02 0. -1.
    10030    2    1    2    0    0  0.00000000000E+00  0.00000000000E+00 -0.37575607283E+03  0.10664357315E+04  0.99804435933E+03 0.  0.
        2    1    3    3  502    0  0.75812910881E+02 -0.22967301345E+02  0.33857872851E+03  0.34772208701E+03  0.25500000920E-02 0.  1.
       -2    1    3    3    0  502 -0.75812910881E+02  0.22967301345E+02 -0.71433480134E+03  0.71871364451E+03  0.25500000920E-02 0. -1.
</event>
<event>
 5   0  0.1353789E-03  0.1000314E+04  0.7818609E-02  0.9308200E-01
       -1   -1    0    0    0  501  0.00000000000E+00  0.00000000000E+00  0.16708252945E+03  0.16708252953E+03  0.50400001928E-02 0.  1.
        1   -1    0    0  501    0  0.00000000000E+00  0.00000000000E+00 -0.14972078048E+04  0.14972078048E+04  0.50400001928E-02 0. -1.
    10030    2    1    2    0    0  0.00000000000E+00  0.00000000000E+00 -0.13301252753E+04  0.16642903343E+04  0.10003144850E+04 0.  0.
        1    1    3    3  502    0 -0.31039912703E+03 -0.39011078726E+03 -0.59803072710E+03  0.77857227987E+03  0.50400001928E-02 0. -1.
       -1    1    3    3    0  502  0.31039912703E+03  0.39011078726E+03 -0.73209454822E+03  0.88571805443E+03  0.50400001928E-02 0.  1.
</event>
<event>
 5   0  0.2284843E-03  0.9996989E+03  0.7818609E-02  0.9308875E-01
        2   -1    0    0  501    0  0.00000000000E+00  0.00000000000E+00  0.82196608195E+03  0.82196608195E+03  0.25500000920E-02 0.  1.
       -2   -1    0    0    0  501  0.00000000000E+00  0.00000000000E+00 -0.30396570013E+03  0.30396570014E+03  0.25500000920E-02 0. -1.
    10030    2    1    2    0    0  0.00000000000E+00  0.00000000000E+00  0.51800038182E+03  0.11259317821E+04  0.99969894587E+03 0.  0.
        2    1    3    3  502    0  0.24516295990E+03  0.40164753919E+03  0.69117896558E+02  0.47560793336E+03  0.25500000920E-02 0. -1.
       -2    1    3    3    0  502 -0.24516295990E+03 -0.40164753919E+03  0.44888248526E+03  0.65032384873E+03  0.25500000920E-02 0.  1.
</event>
<event>
 5   0  0.1293716E-03  0.9817077E+03  0.7818609E-02  0.9328838E-01
       -1   -1    0    0    0  501  0.00000000000E+00  0.00000000000E+00  0.93995565340E+03  0.93995565341E+03  0.50400001928E-02 0. -1.
        1   -1    0    0  501    0  0.00000000000E+00  0.00000000000E+00 -0.25632858971E+03  0.25632858976E+03  0.50400001928E-02 0.  1.
    10030    2    1    2    0    0  0.00000000000E+00  0.00000000000E+00  0.68362706368E+03  0.11962842432E+04  0.98170771020E+03 0.  0.
        3    1    3    3  502    0  0.28339207163E+03 -0.14454183090E+03 -0.11370218441E+03  0.33783369293E+03  0.10100000352E+00 0.  1.
       -3    1    3    3    0  502 -0.28339207163E+03  0.14454183090E+03  0.79732924810E+03  0.85845055024E+03  0.10100000352E+00 0. -1.
</event>
<event>
 5   0  0.1293716E-03  0.1004732E+04  0.7818609E-02  0.9303370E-01
       -1   -1    0    0    0  501  0.00000000000E+00  0.00000000000E+00  0.31359359665E+03  0.31359359670E+03  0.50400001928E-02 0.  1.
        1   -1    0    0  501    0  0.00000000000E+00  0.00000000000E+00 -0.80477282866E+03  0.80477282868E+03  0.50400001928E-02 0. -1.
    10030    2    1    2    0    0  0.00000000000E+00  0.00000000000E+00 -0.49117923201E+03  0.11183664254E+04  0.10047320157E+04 0.  0.
        3    1    3    3  502    0 -0.21496619781E+02 -0.11124407863E+03 -0.79036526374E+03  0.79844512023E+03  0.10100000352E+00 0. -1.
       -3    1    3    3    0  502  0.21496619781E+02  0.11124407863E+03  0.29918603174E+03  0.31992130514E+03  0.10100000352E+00 0.  1.
</event>
<event>
 5   0  0.2284843E-03  0.1000704E+04  0.7818609E-02  0.9307773E-01
       -2   -1    0    0    0  501  0.00000000000E+00  0.00000000000E+00  0.10358160373E+03  0.10358160376E+03  0.25500000920E-02 0. -1.
        2   -1    0    0  501    0  0.00000000000E+00  0.00000000000E+00 -0.24169549753E+04  0.24169549753E+04  0.25500000920E-02 0.  1.
    10030    2    1    2    0    0  0.00000000000E+00  0.00000000000E+00 -0.23133733715E+04  0.25205365790E+04  0.10007038973E+04 0.  0.
        2    1    3    3  502    0 -0.33342769265E+03 -0.37141825287E+03 -0.12448983668E+04  0.13412298418E+04  0.25500000920E-02 0. -1.
       -2    1    3    3    0  502  0.33342769265E+03  0.37141825287E+03 -0.10684750047E+04  0.11793067373E+04  0.25500000920E-02 0.  1.
</event>
<event>
 5   0  0.1285769E-03  0.9981088E+03  0.7818609E-02  0.9310621E-01
        1   -1    0    0  501    0  0.00000000000E+00  0.00000000000E+00  0.10833389143E+04  0.10833389143E+04  0.50400001928E-02 0. -1.
       -1   -1    0    0    0  501  0.00000000000E+00  0.00000000000E+00 -0.22989602868E+03  0.22989602874E+03  0.50400001928E-02 0.  1.
    10030    2    1    2    0    0  0.00000000000E+00  0.00000000000E+00  0.85344288565E+03  0.13132349431E+04  0.99810884008E+03 0.  0.
        5    1    3    3  502    0  0.29640080280E+03  0.40101905974E+03  0.40163622225E+03  0.64031513116E+03  0.46999998093E+01 0. -1.
       -5    1    3    3    0  502 -0.29640080280E+03 -0.40101905974E+03  0.45180666340E+03  0.67291981191E+03  0.46999998093E+01 0.  1.
</event>
<event>
 5   0  0.2277570E-03  0.9983845E+03  0.7818609E-02  0.9310318E-01
        2   -1    0    0  501    0  0.00000000000E+00  0.00000000000E+00  0.55663724220E+03  0.55663724221E+03  0.25500000920E-02 0.  1.
       -2   -1    0    0    0  501  0.00000000000E+00  0.00000000000E+00 -0.44767554448E+03  0.44767554449E+03  0.25500000920E-02 0. -1.
    10030    2    1    2    0    0  0.00000000000E+00  0.00000000000E+00  0.10896169772E+03  0.10043127867E+04  0.99838445598E+03 0.  0.
        3    1    3    3  502    0  0.24333728697E+03  0.71780138684E+02  0.48694928252E+03  0.54907653154E+03  0.10100000352E+00 0.  1.
       -3    1    3    3    0  502 -0.24333728697E+03 -0.71780138684E+02 -0.37798758480E+03  0.45523625515E+03  0.10100000352E+00 0. -1.
</event>
<event>
 5   0  0.2277570E-03  0.1000843E+04  0.7818609E-02  0.9307621E-01
       -2   -1    0    0    0  501  0.00000000000E+00  0.00000000000E+00  0.25271337282E+03  0.25271337284E+03  0.25500000920E-02 0.  1.
        2   -1    0    0  501    0  0.00000000000E+00  0.00000000000E+00 -0.99093172467E+03  0.99093172467E+03  0.25500000920E-02 0. -1.
    10030    2    1    2    0    0  0.00000000000E+00  0.00000000000E+00 -0.73821835184E+03  0.12436450975E+04  0.10008430414E+04 0.  0.
        3    1    3    3  502    0 -0.31145811397E+03 -0.17944799499E+03  0.63511017828E+02  0.36502246403E+03  0.10100000352E+00 0.  1.
       -3    1    3    3    0  502  0.31145811397E+03  0.17944799499E+03 -0.80172936967E+03  0.87862263347E+03  0.10100000352E+00 0. -1.
</event>
<event>
 5   0  0.2284843E-03  0.9960062E+03  0.7818609E-02  0.9312936E-01
        2   -1    0    0  501    0  0.00000000000E+00  0.00000000000E+00  0.38627399056E+03  0.38627399057E+03  0.25500000920E-02 0. -1.
       -2   -1    0    0    0  501  0.00000000000E+00  0.00000000000E+00 -0.64204969001E+03  0.64204969001E+03  0.25500000920E-02 0.  1.
    10030    2    1    2    0    0  0.00000000000E+00  0.00000000000E+00 -0.25577569945E+03  0.10283236806E+04  0.99600621666E+03 0.  0.
        2    1    3    3  502    0 -0.19040238924E+03  0.46546303946E+02 -0.60054958281E+03  0.63172733807E+03  0.25500000920E-02 0.  1.
       -2    1    3    3    0  502  0.19040238924E+03 -0.46546303946E+02  0.34477388337E+03  0.39659634252E+03  0.25500000920E-02 0. -1.
</event>
<event>
 5   0  0.1293575E-03  0.1000054E+04  0.7818609E-02  0.9308485E-01
       -1   -1    0    0    0  501  0.00000000000E+00  0.00000000000E+00  0.37586009526E+03  0.37586009529E+03  0.50400001928E-02 0. -1.
        1   -1    0    0  501    0  0.00000000000E+00  0.00000000000E+00 -0.66521307975E+03  0.66521307977E+03  0.50400001928E-02 0.  1.
    10030    2    1    2    0    0  0.00000000000E+00  0.00000000000E+00 -0.28935298449E+03  0.10410731751E+04  0.10000541016E+04 0.  0.
        4    1    3    3  502    0 -0.47232656531E+03 -0.57641878303E+01  0.26062422427E+02  0.47308188817E+03  0.12699999809E+01 0. -1.
       -4    1    3    3    0  502  0.47232656531E+03  0.57641878303E+01 -0.31541540692E+03  0.56799128689E+03  0.12699999809E+01 0.  1.
</event>
<event>
 5   0  0.2204862E-03  0.1001189E+04  0.7818609E-02  0.9307241E-01
        2   -1    0    0  501    0  0.00000000000E+00  0.00000000000E+00  0.15155388941E+04  0.15155388941E+04  0.25500000920E-02 0. -1.
       -2   -1    0    0    0  501  0.00000000000E+00  0.00000000000E+00 -0.16535038956E+03  0.16535038958E+03  0.25500000920E-02 0.  1.
    10030    2    1    2    0    0  0.00000000000E+00  0.00000000000E+00  0.13501885045E+04  0.16808892837E+04  0.10011891860E+04 0.  0.
        1    1    3    3  502    0 -0.34891795475E+03 -0.30821315031E+03  0.36617861554E+03  0.59230554925E+03  0.50400001928E-02 0.  1.
       -1    1    3    3    0  502  0.34891795475E+03  0.30821315031E+03  0.98400988899E+03  0.10885837344E+04  0.50400001928E-02 0. -1.
</event>
<event>
 5   0  0.2284843E-03  0.9942467E+03  0.7818609E-02  0.9314877E-01
       -2   -1    0    0    0  501  0.00000000000E+00  0.00000000000E+00  0.60803868385E+03  0.60803868386E+03  0.25500000920E-02 0.  1.
        2   -1    0    0  501    0  0.00000000000E+00  0.00000000000E+00 -0.40644064762E+03  0.40644064763E+03  0.25500000920E-02 0. -1.
    10030    2    1    2    0    0  0.00000000000E+00  0.00000000000E+00  0.20159803623E+03  0.10144793315E+04  0.99424672280E+03 0.  0.
        2    1    3    3  502    0  0.33865365565E+03 -0.30348112729E+03  0.30574595756E+03  0.54796686367E+03  0.25500000920E-02 0.  1.
       -2    1    3    3    0  502 -0.33865365565E+03  0.30348112729E+03 -0.10414792133E+03  0.46651246782E+03  0.25500000920E-02 0. -1.
</event>
<event>
 5   0  0.2204862E-03  0.1000644E+04  0.7818609E-02  0.9307838E-01
        2   -1    0    0  501    0  0.00000000000E+00  0.00000000000E+00  0.15107456244E+04  0.15107456244E+04  0.25500000920E-02 0.  1.
       -2   -1    0    0    0  501  0.00000000000E+00  0.00000000000E+00 -0.16569451522E+03  0.16569451523E+03  0.25500000920E-02 0. -1.
    10030    2    1    2    0    0  0.00000000000E+00  0.00000000000E+00  0.13450511092E+04  0.16764401397E+04  0.10006443202E+04 0.  0.
        1    1    3    3  502    0 -0.14125099389E+03 -0.46366153556E+03  0.46469707339E+03  0.67147392568E+03  0.50400001928E-02 0. -1.
       -1    1    3    3    0  502  0.14125099389E+03  0.46366153556E+03  0.88035403584E+03  0.10049662140E+04  0.50400001928E-02 0.  1.
</event>
<event>
 5   0  0.2277570E-03  0.9993058E+03  0.7818609E-02  0.9309307E-01
        2   -1    0    0  501    0  0.00000000000E+00  0.00000000000E+00  0.13140681955E+03  0.13140681958E+03  0.25500000920E-02 0.  1.
       -2   -1    0    0    0  501  0.00000000000E+00  0.00000000000E+00 -0.18998482065E+04  0.18998482065E+04  0.25500000920E-02 0. -1.
    10030    2    1    2    0    0  0.00000000000E+00  0.00000000000E+00 -0.17684413870E+04  0.20312550261E+04  0.99930578000E+03 0.  0.
        3    1    3    3  502    0  0.23829963230E+03  0.41267423624E+03 -0.57887215193E+03  0.74978644859E+03  0.10100000352E+00 0.  1.
       -3    1    3    3    0  502 -0.23829963230E+03 -0.41267423624E+03 -0.11895692351E+04  0.12814685775E+04  0.10100000352E+00 0. -1.
</event>
<event>
 5   0  0.1249195E-03  0.1002224E+04  0.7818609E-02  0.9306108E-01
       -1   -1    0    0    0  501  0.00000000000E+00  0.00000000000E+00  0.60747902894E+03  0.60747902896E+03  0.50400001928E-02 0.  1.
        1   -1    0    0  501    0  0.00000000000E+00  0.00000000000E+00 -0.41336978047E+03  0.41336978051E+03  0.50400001928E-02 0. -1.
    10030    2    1    2    0    0  0.00000000000E+00  0.00000000000E+00  0.19410924846E+03  0.10208488095E+04  0.10022244716E+04 0.  0.
        2    1    3    3  502    0  0.42156516729E+02  0.49678660310E+03  0.14838324340E+03  0.52018428259E+03  0.25500000920E-02 0.  1.
       -2    1    3    3    0  502 -0.42156516729E+02 -0.49678660310E+03  0.45726005058E+02  0.50066452687E+03  0.25500000920E-02 0. -1.
</event>
<event>
 5   0  0.2277570E-03  0.1000834E+04  0.7818609E-02  0.9307631E-01
        2   -1    0    0  501    0  0.00000000000E+00  0.00000000000E+00  0.18278764999E+04  0.18278764999E+04  0.25500000920E-02 0.  1.
       -2   -1    0    0    0  501  0.00000000000E+00  0.00000000000E+00 -0.13699884531E+03  0.13699884534E+03  0.25500000920E-02 0. -1.
    10030    2    1    2    0    0  0.00000000000E+00  0.00000000000E+00  0.16908776546E+04  0.19648753453E+04  0.10008335923E+04 0.  0.
        3    1    3    3  502    0  0.17305912403E+03  0.41222973040E+03  0.40410663629E+03  0.60264831763E+03  0.10100000352E+00 0. -1.
       -3    1    3    3    0  502 -0.17305912403E+03 -0.41222973040E+03  0.12867710183E+04  0.13622270276E+04  0.10100000352E+00 0.  1.
</event>
<event>
 5   0  0.2255142E-03  0.1007547E+04  0.7818609E-02  0.9300306E-01
        2   -1    0    0  501    0  0.00000000000E+00  0.00000000000E+00  0.13840386201E+04  0.13840386201E+04  0.25500000920E-02 0.  1.
       -2   -1    0    0    0  501  0.00000000000E+00  0.00000000000E+00 -0.18336748487E+03  0.18336748489E+03  0.25500000920E-02 0. -1.
    10030    2    1    2    0    0  0.00000000000E+00  0.00000000000E+00  0.12006711353E+04  0.15674061050E+04  0.10075468838E+04 0.  0.
        4    1    3    3  502    0 -0.23967356258E+03 -0.39019591142E+03  0.27368355085E+03  0.53347967608E+03  0.12699999809E+01 0. -1.
       -4    1    3    3    0  502  0.23967356258E+03  0.39019591142E+03  0.92698758441E+03  0.10339264289E+04  0.12699999809E+01 0.  1.
</event>
<event>
 5   0  0.1353789E-03  0.9992094E+03  0.7818609E-02  0.9309412E-01
        1   -1    0    0  501    0  0.00000000000E+00  0.00000000000E+00  0.64896277474E+03  0.64896277476E+03  0.50400001928E-02 0.  1.
       -1   -1    0    0    0  501  0.00000000000E+00  0.00000000000E+00 -0.38462125589E+03  0.38462125593E+03  0.50400001928E-02 0. -1.
    10030    2    1    2    0    0  0.00000000000E+00  0.00000000000E+00  0.26434151885E+03  0.10335840307E+04  0.99920944247E+03 0.  0.
        1    1    3    3  502    0 -0.40339143021E+03  0.21707883302E+02 -0.17189586231E+03  0.43902626991E+03  0.50400001928E-02 0. -1.
       -1    1    3    3    0  502  0.40339143021E+03 -0.21707883302E+02  0.43623738116E+03  0.59455776079E+03  0.50400001928E-02 0.  1.
</event>
<event>
 5   0  0.1249195E-03  0.1002251E+04  0.7818609E-02  0.9306079E-01
       -1   -1    0    0    0  501  0.00000000000E+00  0.00000000000E+00  0.81912771671E+03  0.81912771673E+03  0.50400001928E-02 0.  1.
        1   -1    0    0  501    0  0.00000000000E+00  0.00000000000E+00 -0.30657836950E+03  0.30657836954E+03  0.50400001928E-02 0. -1.
    10030    2    1    2    0    0  0.00000000000E+00  0.00000000000E+00  0.51254934722E+03  0.11257060863E+04  0.10022511458E+04 0.  0.
        2    1    3    3  502    0 -0.52106552061E+02  0.27560064711E+03 -0.21015658252E+03  0.35048052533E+03  0.25500000920E-02 0. -1.
       -2    1    3    3    0  502  0.52106552061E+02 -0.27560064711E+03  0.72270592973E+03  0.77522556094E+03  0.25500000920E-02 0.  1.
</event>
<event>
 5   0  0.1285769E-03  0.9987089E+03  0.7818609E-02  0.9309962E-01
        1   -1    0    0  501    0  0.00000000000E+00  0.00000000000E+00  0.13468192038E+04  0.13468192038E+04  0.50400001928E-02 0. -1.
       -1   -1    0    0    0  501  0.00000000000E+00  0.00000000000E+00 -0.18514352644E+03  0.18514352651E+03  0.50400001928E-02 0.  1.
    10030    2    1    2    0    0  0.00000000000E+00  0.00000000000E+00  0.11616756774E+04  0.15319627303E+04  0.99870888036E+03 0.  0.
        5    1    3    3  502    0  0.31992661884E+03 -0.20812838668E+03  0.10747158706E+04  0.11404853175E+04  0.46999998093E+01 0. -1.
       -5    1    3    3    0  502 -0.31992661884E+03  0.20812838668E+03  0.86959806735E+02  0.39147741285E+03  0.46999998093E+01 0.  1.
</event>
<event>
 5   0  0.8680125E-04  0.9938362E+03  0.7818609E-02  0.9315331E-01
        3   -1    0    0  501    0  0.00000000000E+00  0.00000000000E+00  0.83448516151E+03  0.83448516763E+03  0.10100000352E+00 0. -1.
       -3   -1    0    0    0  501  0.00000000000E+00  0.00000000000E+00 -0.29590411940E+03  0.29590413664E+03  0.10100000352E+00 0.  1.
    10030    2    1    2    0    0  0.00000000000E+00  0.00000000000E+00  0.53858104211E+03  0.11303893043E+04  0.99383622407E+03 0.  0.
        2    1    3    3  502    0  0.47589705770E+03 -0.14187737410E+03  0.28965002074E+03  0.57489506288E+03  0.25500000920E-02 0.  1.
       -2    1    3    3    0  502 -0.47589705770E+03  0.14187737410E+03  0.24893102137E+03  0.55549424139E+03  0.25500000920E-02 0. -1.
</event>
<event>
 5   0  0.1293716E-03  0.9969474E+03  0.7818609E-02  0.9311899E-01
       -1   -1    0    0    0  501  0.00000000000E+00  0.00000000000E+00  0.70705127226E+03  0.70705127228E+03  0.50400001928E-02 0. -1.
        1   -1    0    0  501    0  0.00000000000E+00  0.00000000000E+00 -0.35142578736E+03  0.35142578740E+03  0.50400001928E-02 0.  1.
    10030    2    1    2    0    0  0.00000000000E+00  0.00000000000E+00  0.35562548489E+03  0.10584770597E+04  0.99694744112E+03 0.  0.
        3    1    3    3  502    0 -0.24257860897E+03 -0.43446756982E+03  0.14650395572E+03  0.51871945211E+03  0.10100000352E+00 0. -1.
       -3    1    3    3    0  502  0.24257860897E+03  0.43446756982E+03  0.20912152918E+03  0.53975760756E+03  0.10100000352E+00 0.  1.
</event>
<event>
 5   0  0.2255142E-03  0.1000574E+04  0.7818609E-02  0.9307916E-01
        2   -1    0    0  501    0  0.00000000000E+00  0.00000000000E+00  0.12113362435E+04  0.12113362435E+04  0.25500000920E-02 0. -1.
       -2   -1    0    0    0  501  0.00000000000E+00  0.00000000000E+00 -0.20662047036E+03  0.20662047038E+03  0.25500000920E-02 0.  1.
    10030    2    1    2    0    0  0.00000000000E+00  0.00000000000E+00  0.10047157731E+04  0.14179567139E+04  0.10005735643E+04 0.  0.
        4    1    3    3  502    0  0.14050072873E+03 -0.42318009135E+03  0.18087103457E+03  0.48118373677E+03  0.12699999809E+01 0.  1.
       -4    1    3    3    0  502 -0.14050072873E+03  0.42318009135E+03  0.82384473854E+03  0.93677297709E+03  0.12699999809E+01 0. -1.
</event>
<event>
 5   0  0.1353789E-03  0.9915299E+03  0.7818609E-02  0.9317884E-01
       -1   -1    0    0    0  501  0.00000000000E+00  0.00000000000E+00  0.76173166317E+03  0.76173166319E+03  0.50400001928E-02 0. -1.
        1   -1    0    0  501    0  0.00000000000E+00  0.00000000000E+00 -0.32266332138E+03  0.32266332142E+03  0.50400001928E-02 0.  1.
    10030    2    1    2    0    0  0.00000000000E+00  0.00000000000E+00  0.43906834179E+03  0.10843949846E+04  0.99152986535E+03 0.  0.
        1    1    3    3  502    0  0.31268816606E+02  0.30531559053E+03 -0.20627344409E+03  0.36978924062E+03  0.50400001928E-02 0.  1.
       -1    1    3    3    0  502 -0.31268816606E+02 -0.30531559053E+03  0.64534178588E+03  0.71460574399E+03  0.50400001928E-02 0. -1.
</event>
<event>
 5   0  0.2264577E-03  0.9991468E+03  0.7818609E-02  0.9309481E-01
        2   -1    0    0  501    0  0.00000000000E+00  0.00000000000E+00  0.49727367061E+03  0.49727367062E+03  0.25500000920E-02 0.  1.
       -2   -1    0    0    0  501  0.00000000000E+00  0.00000000000E+00 -0.50188377862E+03  0.50188377863E+03  0.25500000920E-02 0. -1.
    10030    2    1    2    0    0  0.00000000000E+00  0.00000000000E+00 -0.46101080109E+01  0.99915744924E+03  0.99914681368E+03 0.  0.
        5    1    3    3  502    0  0.97594940574E+02  0.41003700504E+03 -0.27044291319E+03  0.50081591151E+03  0.46999998093E+01 0. -1.
       -5    1    3    3    0  502 -0.97594940574E+02 -0.41003700504E+03  0.26583280518E+03  0.49834153774E+03  0.46999998093E+01 0.  1.
</event>
<event>
 5   0  0.2264577E-03  0.1000784E+04  0.7818609E-02  0.9307685E-01
       -2   -1    0    0    0  501  0.00000000000E+00  0.00000000000E+00  0.21790829408E+03  0.21790829409E+03  0.25500000920E-02 0. -1.
        2   -1    0    0  501    0  0.00000000000E+00  0.00000000000E+00 -0.11490712423E+04  0.11490712423E+04  0.25500000920E-02 0.  1.
    10030    2    1    2    0    0  0.00000000000E+00  0.00000000000E+00 -0.93116294824E+03  0.13669795364E+04  0.10007840011E+04 0.  0.
        5    1    3    3  502    0 -0.50240468995E+02  0.38300912107E+03 -0.31166742708E+02  0.38757392507E+03  0.46999998093E+01 0. -1.
       -5    1    3    3    0  502  0.50240468995E+02 -0.38300912107E+03 -0.89999620554E+03  0.97940561134E+03  0.46999998093E+01 0.  1.
</event>
<event>
 5   0  0.2264577E-03  0.9986273E+03  0.7818609E-02  0.9310052E-01
        2   -1    0    0  501    0  0.00000000000E+00  0.00000000000E+00  0.14098198165E+04  0.14098198165E+04  0.25500000920E-02 0.  1.
       -2   -1    0    0    0  501  0.00000000000E+00  0.00000000000E+00 -0.17684113980E+03  0.17684113982E+03  0.25500000920E-02 0. -1.
    10030    2    1    2    0    0  0.00000000000E+00  0.00000000000E+00  0.12329786767E+04  0.15866609563E+04  0.99862734447E+03 0.  0.
        5    1    3    3  502    0  0.22745156466E+02  0.33114401778E+03  0.23873995403E+02  0.33281490398E+03  0.46999998093E+01 0. -1.
       -5    1    3    3    0  502 -0.22745156466E+02 -0.33114401778E+03  0.12091046813E+04  0.12538460523E+04  0.46999998093E+01 0.  1.
</event>
<event>
 5   0  0.2284843E-03  0.9938332E+03  0.7818609E-02  0.9315334E-01
        2   -1    0    0  501    0  0.00000000000E+00  0.00000000000E+00  0.19777487525E+04  0.19777487525E+04  0.25500000920E-02 0. -1.
       -2   -1    0    0    0  501  0.00000000000E+00  0.00000000000E+00 -0.12485211291E+03  0.12485211294E+03  0.25500000920E-02 0.  1.
    10030    2    1    2    0    0  0.00000000000E+00  0.00000000000E+00  0.18528966396E+04  0.21026008654E+04  0.99383320651E+03 0.  0.
        2    1    3    3  502    0  0.18856375889E+03  0.60292860694E+02  0.18907162968E+04  0.19010522443E+04  0.25500000920E-02 0. -1.
       -2    1    3    3    0  502 -0.18856375889E+03 -0.60292860694E+02 -0.37819657265E+02  0.20154862118E+03  0.25500000920E-02 0.  1.
</event>
<event>
 5   0  0.1293575E-03  0.9961660E+03  0.7818609E-02  0.9312760E-01
       -1   -1    0    0    0  501  0.00000000000E+00  0.00000000000E+00  0.18397948535E+03  0.18397948542E+03  0.50400001928E-02 0.  1.
        1   -1    0    0  501    0  0.00000000000E+00  0.00000000000E+00 -0.13484476201E+04  0.13484476201E+04  0.50400001928E-02 0. -1.
    10030    2    1    2    0    0  0.00000000000E+00  0.00000000000E+00 -0.11644681348E+04  0.15324271056E+04  0.99616604889E+03 0.  0.
        4    1    3    3  502    0  0.18038116218E+03  0.35486644212E+03 -0.12171822380E+03  0.41627454199E+03  0.12699999809E+01 0.  1.
       -4    1    3    3    0  502 -0.18038116218E+03 -0.35486644212E+03 -0.10427499110E+04  0.11161525636E+04  0.12699999809E+01 0. -1.
</event>
<event>
 5   0  0.2204862E-03  0.1002846E+04  0.7818609E-02  0.9305429E-01
       -2   -1    0    0    0  501  0.00000000000E+00  0.00000000000E+00  0.14826645767E+03  0.14826645769E+03  0.25500000920E-02 0. -1.
        2   -1    0    0  501    0  0.00000000000E+00  0.00000000000E+00 -0.16957656845E+04  0.16957656845E+04  0.25500000920E-02 0.  1.
    10030    2    1    2    0    0  0.00000000000E+00  0.00000000000E+00 -0.15474992268E+04  0.18440321422E+04  0.10028462915E+04 0.  0.
        1    1    3    3  502    0 -0.45952213640E+03 -0.83333108667E+02 -0.11094004389E+04  0.12036919601E+04  0.50400001928E-02 0.  1.
       -1    1    3    3    0  502  0.45952213640E+03  0.83333108667E+02 -0.43809878790E+03  0.64034018211E+03  0.50400001928E-02 0. -1.
</event>
<event>
 5   0  0.2264577E-03  0.1000355E+04  0.7818609E-02  0.9308155E-01
        2   -1    0    0  501    0  0.00000000000E+00  0.00000000000E+00  0.88754741149E+03  0.88754741149E+03  0.25500000920E-02 0. -1.
       -2   -1    0    0    0  501  0.00000000000E+00  0.00000000000E+00 -0.28187526498E+03  0.28187526500E+03  0.25500000920E-02 0.  1.
    10030    2    1    2    0    0  0.00000000000E+00  0.00000000000E+00  0.60567214650E+03  0.11694226765E+04  0.10003552605E+04 0.  0.
        5    1    3    3  502    0 -0.31802419237E+03  0.85924428210E+02  0.74278245479E+03  0.81257015663E+03  0.46999998093E+01 0. -1.
       -5    1    3    3    0  502  0.31802419237E+03 -0.85924428210E+02 -0.13711030829E+03  0.35685251986E+03  0.46999998093E+01 0.  1.
</event>
<event>
 5   0  0.2255142E-03  0.1015932E+04  0.7818609E-02  0.9291242E-01
        2   -1    0    0  501    0  0.00000000000E+00  0.00000000000E+00  0.93194839360E+03  0.93194839360E+03  0.25500000920E-02 0. -1.
       -2   -1    0    0    0  501  0.00000000000E+00  0.00000000000E+00 -0.27687090326E+03  0.27687090327E+03  0.25500000920E-02 0.  1.
    10030    2    1    2    0    0  0.00000000000E+00  0.00000000000E+00  0.65507749034E+03  0.12088192969E+04  0.10159318747E+04 0.  0.
        4    1    3    3  502    0  0.20936663984E+02 -0.38998536522E+03 -0.58939257876E+02  0.39497136352E+03  0.12699999809E+01 0.  1.
       -4    1    3    3    0  502 -0.20936663984E+02  0.38998536522E+03  0.71401674821E+03  0.81384793335E+03  0.12699999809E+01 0. -1.
</event>
<event>
 5   0  0.2264577E-03  0.1003382E+04  0.7818609E-02  0.9304843E-01
       -2   -1    0    0    0  501  0.00000000000E+00  0.00000000000E+00  0.26612315004E+03  0.26612315005E+03  0.25500000920E-02 0.  1.
        2   -1    0    0  501    0  0.00000000000E+00  0.00000000000E+00 -0.94578041728E+03  0.94578041728E+03  0.25500000920E-02 0. -1.
    10030    2    1    2    0    0  0.00000000000E+00  0.00000000000E+00 -0.67965726724E+03  0.12119035673E+04  0.10033824075E+04 0.  0.
        5    1    3    3  502    0  0.28555846634E+03 -0.31088145507E+03 -0.66723662795E+03  0.78956806197E+03  0.46999998093E+01 0. -1.
       -5    1    3    3    0  502 -0.28555846634E+03  0.31088145507E+03 -0.12420639287E+02  0.42233550536E+03  0.46999998093E+01 0.  1.
</event>
<event>
 5   0  0.2264577E-03  0.1002295E+04  0.7818609E-02  0.9306031E-01
       -2   -1    0    0    0  501  0.00000000000E+00  0.00000000000E+00  0.22963508819E+03  0.22963508820E+03  0.25500000920E-02 0. -1.
        2   -1    0    0  501    0  0.00000000000E+00  0.00000000000E+00 -0.10936868355E+04  0.10936868355E+04  0.25500000920E-02 0.  1.
    10030    2    1    2    0    0  0.00000000000E+00  0.00000000000E+00 -0.86405174730E+03  0.13233219237E+04  0.10022951121E+04 0.  0.
        5    1    3    3  502    0 -0.32515256258E+03 -0.32826971331E+03 -0.17587026398E+03  0.49440634440E+03  0.46999998093E+01 0. -1.
       -5    1    3    3    0  502  0.32515256258E+03  0.32826971331E+03 -0.68818148332E+03  0.82891557930E+03  0.46999998093E+01 0.  1.
</event>
<event>
 5   0  0.1293575E-03  0.1008206E+04  0.7818609E-02  0.9299590E-01
       -1   -1    0    0    0  501  0.00000000000E+00  0.00000000000E+00  0.79804466046E+03  0.79804466048E+03  0.50400001928E-02 0.  1.
        1   -1    0    0  501    0  0.00000000000E+00  0.00000000000E+00 -0.31842825910E+03  0.31842825913E+03  0.50400001928E-02 0. -1.
    10030    2    1    2    0    0  0.00000000000E+00  0.00000000000E+00  0.47961640136E+03  0.11164729196E+04  0.10082062724E+04 0.  0.
        4    1    3    3  502    0 -0.43731776894E+03  0.21006719147E+03  0.39141611127E+03  0.62336445280E+03  0.12699999809E+01 0.  1.
       -4    1    3    3    0  502  0.43731776894E+03 -0.21006719147E+03  0.88200290098E+02  0.49310846681E+03  0.12699999809E+01 0. -1.
</event>
<event>
 5   0  0.1293716E-03  0.9954285E+03  0.7818609E-02  0.9313573E-01
        1   -1    0    0  501    0  0.00000000000E+00  0.00000000000E+00  0.59129939600E+03  0.59129939602E+03  0.50400001928E-02 0. -1.
       -1   -1    0    0    0  501  0.00000000000E+00  0.00000000000E+00 -0.41894087213E+03  0.41894087216E+03  0.50400001928E-02 0.  1.
    10030    2    1    2    0    0  0.00000000000E+00  0.00000000000E+00  0.17235852387E+03  0.10102402682E+04  0.99542852013E+03 0.  0.
        3    1    3    3  502    0 -0.86553019525E+02  0.46293696525E+03  0.24956360694E+03  0.53299536874E+03  0.10100000352E+00 0. -1.
       -3    1    3    3    0  502  0.86553019525E+02 -0.46293696525E+03 -0.77205083073E+02  0.47724489944E+03  0.10100000352E+00 0.  1.
</event>
<event>
 5   0  0.1285769E-03  0.9924544E+03  0.7818609E-02  0.9316860E-01
        1   -1    0    0  501    0  0.00000000000E+00  0.00000000000E+00  0.38815911926E+03  0.38815911929E+03  0.50400001928E-02 0. -1.
       -1   -1    0    0    0  501  0.00000000000E+00  0.00000000000E+00 -0.63438275079E+03  0.63438275081E+03  0.50400001928E-02 0.  1.
    10030    2    1    2    0    0  0.00000000000E+00  0.00000000000E+00 -0.24622363153E+03  0.10225418701E+04  0.99245443190E+03 0.  0.
        5    1    3    3  502    0  0.43349530994E+03 -0.23991515321E+03 -0.15117531713E+03  0.51802850403E+03  0.46999998093E+01 0.  1.
       -5    1    3    3    0  502 -0.43349530994E+03  0.23991515321E+03 -0.95048314403E+02  0.50451336608E+03  0.46999998093E+01 0. -1.
</event>
<event>
 5   0  0.2204862E-03  0.1003381E+04  0.7818609E-02  0.9304844E-01
       -2   -1    0    0    0  501  0.00000000000E+00  0.00000000000E+00  0.26840030229E+03  0.26840030230E+03  0.25500000920E-02 0.  1.
        2   -1    0    0  501    0  0.00000000000E+00  0.00000000000E+00 -0.93775366814E+03  0.93775366814E+03  0.25500000920E-02 0. -1.
    10030    2    1    2    0    0  0.00000000000E+00  0.00000000000E+00 -0.66935336585E+03  0.12061539704E+04  0.10033810204E+04 0.  0.
        1    1    3    3  502    0  0.33233684140E+03  0.36264946053E+03 -0.21609578728E+03  0.53727069219E+03  0.50400001928E-02 0. -1.
       -1    1    3    3    0  502 -0.33233684140E+03 -0.36264946053E+03 -0.45325757857E+03  0.66888327826E+03  0.50400001928E-02 0.  1.
</event>
<event>
 5   0  0.2264577E-03  0.1003137E+04  0.7818609E-02  0.9305111E-01
        2   -1    0    0  501    0  0.00000000000E+00  0.00000000000E+00  0.91324824678E+03  0.91324824679E+03  0.25500000920E-02 0. -1.
       -2   -1    0    0    0  501  0.00000000000E+00  0.00000000000E+00 -0.27546821686E+03  0.27546821687E+03  0.25500000920E-02 0.  1.
    10030    2    1    2    0    0  0.00000000000E+00  0.00000000000E+00  0.63778002992E+03  0.11887164637E+04  0.10031368124E+04 0.  0.
        5    1    3    3  502    0  0.14279581042E+03  0.22362526961E+03  0.82324593704E+03  0.86495946005E+03  0.46999998093E+01 0. -1.
       -5    1    3    3    0  502 -0.14279581042E+03 -0.22362526961E+03 -0.18546590712E+03  0.32375700361E+03  0.46999998093E+01 0.  1.
</event>
<event>
 5   0  0.1285769E-03  0.9879683E+03  0.7818609E-02  0.9321840E-01
        1   -1    0    0  501    0  0.00000000000E+00  0.00000000000E+00  0.44591597421E+03  0.44591597424E+03  0.50400001928E-02 0. -1.
       -1   -1    0    0    0  501  0.00000000000E+00  0.00000000000E+00 -0.54723392657E+03  0.54723392660E+03  0.50400001928E-02 0.  1.
    10030    2    1    2    0    0  0.00000000000E+00  0.00000000000E+00 -0.10131795236E+03  0.99314990083E+03  0.98796831834E+03 0.  0.
        5    1    3    3  502    0  0.41326579384E+02  0.36221201670E+03 -0.38571296863E+03  0.53075607898E+03  0.46999998093E+01 0.  1.
       -5    1    3    3    0  502 -0.41326579384E+02 -0.36221201670E+03  0.28439501627E+03  0.46239382185E+03  0.46999998093E+01 0. -1.
</event>
<event>
 5   0  0.1353789E-03  0.9964096E+03  0.7818609E-02  0.9312491E-01
       -1   -1    0    0    0  501  0.00000000000E+00  0.00000000000E+00  0.15569289547E+03  0.15569289556E+03  0.50400001928E-02 0.  1.
        1   -1    0    0  501    0  0.00000000000E+00  0.00000000000E+00 -0.15942154483E+04  0.15942154483E+04  0.50400001928E-02 0. -1.
    10030    2    1    2    0    0  0.00000000000E+00  0.00000000000E+00 -0.14385225528E+04  0.17499083439E+04  0.99640959296E+03 0.  0.
        1    1    3    3  502    0  0.42668695287E+03 -0.53121256166E+02 -0.27732166591E+03  0.51165508891E+03  0.50400001928E-02 0.  1.
       -1    1    3    3    0  502 -0.42668695287E+03  0.53121256166E+02 -0.11612008869E+04  0.12382532550E+04  0.50400001928E-02 0. -1.
</event>
<event>
 5   0  0.2255142E-03  0.9976728E+03  0.7818609E-02  0.9311101E-01
       -2   -1    0    0    0  501  0.00000000000E+00  0.00000000000E+00  0.46345471230E+03  0.46345471231E+03  0.25500000920E-02 0. -1.
        2   -1    0    0  501    0  0.00000000000E+00  0.00000000000E+00 -0.53691926196E+03  0.53691926197E+03  0.25500000920E-02 0.  1.
    10030    2    1    2    0    0  0.00000000000E+00  0.00000000000E+00 -0.73464549656E+02  0.10003739743E+04  0.99767281628E+03 0.  0.
        4    1    3    3  502    0  0.23372442945E+03 -0.39545198384E+03  0.15828535223E+03  0.48586546087E+03  0.12699999809E+01 0. -1.
       -4    1    3    3    0  502 -0.23372442945E+03  0.39545198384E+03 -0.23174990188E+03  0.51450851340E+03  0.12699999809E+01 0.  1.
</event>
<event>
 5   0  0.1353789E-03  0.1001715E+04  0.7818609E-02  0.9306666E-01
       -1   -1    0    0    0  501  0.00000000000E+00  0.00000000000E+00  0.10946130952E+03  0.10946130964E+03  0.50400001928E-02 0. -1.
        1   -1    0    0  501    0  0.00000000000E+00  0.00000000000E+00 -0.22917520809E+04  0.22917520809E+04  0.50400001928E-02 0.  1.
    10030    2    1    2    0    0  0.00000000000E+00  0.00000000000E+00 -0.21822907714E+04  0.24012133905E+04  0.10017148976E+04 0.  0.
        1    1    3    3  502    0  0.26411976157E+02  0.33384464328E+02  0.10511706097E+03  0.11340948583E+03  0.50400001928E-02 0. -1.
       -1    1    3    3    0  502 -0.26411976157E+02 -0.33384464328E+02 -0.22874078323E+04  0.22878039047E+04  0.50400001928E-02 0.  1.
</event>
<event>
 5   0  0.2255142E-03  0.1002426E+04  0.7818609E-02  0.9305888E-01
       -2   -1    0    0    0  501  0.00000000000E+00  0.00000000000E+00  0.25533160315E+03  0.25533160316E+03  0.25500000920E-02 0.  1.
        2   -1    0    0  501    0  0.00000000000E+00  0.00000000000E+00 -0.98387573461E+03  0.98387573462E+03  0.25500000920E-02 0. -1.
    10030    2    1    2    0    0  0.00000000000E+00  0.00000000000E+00 -0.72854413146E+03  0.12392073378E+04  0.10024261940E+04 0.  0.
        4    1    3    3  502    0  0.12768120511E+03 -0.34592828965E+03  0.55391136343E+02  0.37287888463E+03  0.12699999809E+01 0.  1.
       -4    1    3    3    0  502 -0.12768120511E+03  0.34592828965E+03 -0.78393526781E+03  0.86632845315E+03  0.12699999809E+01 0. -1.
</event>
<event>
 5   0  0.2204862E-03  0.9991377E+03  0.7818609E-02  0.9309491E-01
        2   -1    0    0  501    0  0.00000000000E+00  0.00000000000E+00  0.50021624069E+03  0.50021624070E+03  0.25500000920E-02 0.  1.
       -2   -1    0    0    0  501  0.00000000000E+00  0.00000000000E+00 -0.49892228890E+03  0.49892228890E+03  0.25500000920E-02 0. -1.
    10030    2    1    2    0    0  0.00000000000E+00  0.00000000000E+00  0.12939517989E+01  0.99913852960E+03  0.99913769173E+03 0.  0.
        1    1    3    3  502    0  0.10018952903E+03 -0.27304920636E+02  0.48930425028E+03  0.50020210894E+03  0.50400001928E-02 0.  1.
       -1    1    3    3    0  502 -0.10018952903E+03  0.27304920636E+02 -0.48801029848E+03  0.49893642067E+03  0.50400001928E-02 0. -1.
</event>
<event>
 5   0  0.8680125E-04  0.1003361E+04  0.7818609E-02  0.9304866E-01
        4   -1    0    0  501    0  0.00000000000E+00  0.00000000000E+00  0.61049952250E+03  0.61050084347E+03  0.12699999809E+01 0.  1.
       -4   -1    0    0    0  501  0.00000000000E+00  0.00000000000E+00 -0.41225566127E+03  0.41225761746E+03  0.12699999809E+01 0. -1.
    10030    2    1    2    0    0  0.00000000000E+00  0.00000000000E+00  0.19824386123E+03  0.10227584609E+04  0.10033614707E+04 0.  0.
        1    1    3    3  502    0 -0.33182718640E+03  0.34820044148E+03 -0.46220413145E+02  0.48320715609E+03  0.50400001928E-02 0. -1.
       -1    1    3    3    0  502  0.33182718640E+03 -0.34820044148E+03  0.24446427437E+03  0.53955130483E+03  0.50400001928E-02 0.  1.
</event>
<event>
 5   0  0.1353789E-03  0.1032063E+04  0.7818609E-02  0.9274061E-01
       -1   -1    0    0    0  501  0.00000000000E+00  0.00000000000E+00  0.52451844970E+03  0.52451844972E+03  0.50400001928E-02 0.  1.
        1   -1    0    0  501    0  0.00000000000E+00  0.00000000000E+00 -0.50768231393E+03  0.50768231396E+03  0.50400001928E-02 0. -1.
    10030    2    1    2    0    0  0.00000000000E+00  0.00000000000E+00  0.16836135769E+02  0.10322007637E+04  0.10320634482E+04 0.  0.
        1    1    3    3  502    0 -0.14073645501E+03  0.10940816890E+03  0.49274672753E+03  0.52400022396E+03  0.50400001928E-02 0.  1.
       -1    1    3    3    0  502  0.14073645501E+03 -0.10940816890E+03 -0.47591059177E+03  0.50820053972E+03  0.50400001928E-02 0. -1.
</event>
<event>
 5   0  0.1285769E-03  0.9896356E+03  0.7818609E-02  0.9319986E-01
        1   -1    0    0  501    0  0.00000000000E+00  0.00000000000E+00  0.15906858818E+04  0.15906858818E+04  0.50400001928E-02 0. -1.
       -1   -1    0    0    0  501  0.00000000000E+00  0.00000000000E+00 -0.15392396038E+03  0.15392396046E+03  0.50400001928E-02 0.  1.
    10030    2    1    2    0    0  0.00000000000E+00  0.00000000000E+00  0.14367619214E+04  0.17446098423E+04  0.98963563139E+03 0.  0.
        5    1    3    3  502    0  0.30141097892E+03 -0.22661207133E+03  0.15365070496E+03  0.40722504616E+03  0.46999998093E+01 0.  1.
       -5    1    3    3    0  502 -0.30141097892E+03  0.22661207133E+03  0.12831112164E+04  0.13373847961E+04  0.46999998093E+01 0. -1.
</event>
<event>
 5   0  0.2255142E-03  0.9989321E+03  0.7818609E-02  0.9309717E-01
        2   -1    0    0  501    0  0.00000000000E+00  0.00000000000E+00  0.10315636381E+04  0.10315636381E+04  0.25500000920E-02 0. -1.
       -2   -1    0    0    0  501  0.00000000000E+00  0.00000000000E+00 -0.24183319548E+03  0.24183319550E+03  0.25500000920E-02 0.  1.
    10030    2    1    2    0    0  0.00000000000E+00  0.00000000000E+00  0.78973044257E+03  0.12733968336E+04  0.99893209168E+03 0.  0.
        4    1    3    3  502    0  0.37440650537E+03 -0.23105968710E+03  0.93482876794E+02  0.44978825176E+03  0.12699999809E+01 0.  1.
       -4    1    3    3    0  502 -0.37440650537E+03  0.23105968710E+03  0.69624756577E+03  0.82360858180E+03  0.12699999809E+01 0. -1.
</event>
<event>
 5   0  0.1293575E-03  0.1000040E+04  0.7818609E-02  0.9308500E-01
       -1   -1    0    0    0  501  0.00000000000E+00  0.00000000000E+00  0.16758180261E+03  0.16758180269E+03  0.50400001928E-02 0. -1.
        1   -1    0    0  501    0  0.00000000000E+00  0.00000000000E+00 -0.14919294993E+04  0.14919294993E+04  0.50400001928E-02 0.  1.
    10030    2    1    2    0    0  0.00000000000E+00  0.00000000000E+00 -0.13243476967E+04  0.16595113020E+04  0.10000404690E+04 0.  0.
        4    1    3    3  502    0  0.37258463187E+02 -0.37832234989E+01 -0.14895962565E+04  0.14900674905E+04  0.12699999809E+01 0.  1.
       -4    1    3    3    0  502 -0.37258463187E+02  0.37832234989E+01  0.16524855979E+03  0.16944381155E+03  0.12699999809E+01 0. -1.
</event>
<event>
 5   0  0.2255142E-03  0.1000724E+04  0.7818609E-02  0.9307751E-01
       -2   -1    0    0    0  501  0.00000000000E+00  0.00000000000E+00  0.21213276856E+03  0.21213276858E+03  0.25500000920E-02 0. -1.
        2   -1    0    0  501    0  0.00000000000E+00  0.00000000000E+00 -0.11802150184E+04  0.11802150184E+04  0.25500000920E-02 0.  1.
    10030    2    1    2    0    0  0.00000000000E+00  0.00000000000E+00 -0.96808224986E+03  0.13923477870E+04  0.10007242964E+04 0.  0.
        4    1    3    3  502    0  0.38548315537E+03  0.65299029891E+02 -0.91848566709E+03  0.99823782734E+03  0.12699999809E+01 0.  1.
       -4    1    3    3    0  502 -0.38548315537E+03 -0.65299029891E+02 -0.49596582763E+02  0.39410995966E+03  0.12699999809E+01 0. -1.
</event>
<event>
 5   0  0.1249195E-03  0.1001263E+04  0.7818609E-02  0.9307161E-01
        1   -1    0    0  501    0  0.00000000000E+00  0.00000000000E+00  0.42221787153E+03  0.42221787156E+03  0.50400001928E-02 0.  1.
       -1   -1    0    0    0  501  0.00000000000E+00  0.00000000000E+00 -0.59360759069E+03  0.59360759071E+03  0.50400001928E-02 0. -1.
    10030    2    1    2    0    0  0.00000000000E+00  0.00000000000E+00 -0.17138971916E+03  0.10158254623E+04  0.10012626698E+04 0.  0.
        2    1    3    3  502    0 -0.62668730318E+02  0.27561013407E+03  0.33352616497E+03  0.43718190549E+03  0.25500000920E-02 0.  1.
       -2    1    3    3    0  502  0.62668730318E+02 -0.27561013407E+03 -0.50491588413E+03  0.57864355679E+03  0.25500000920E-02 0. -1.
</event>
<event>
 5   0  0.2204862E-03  0.1001601E+04  0.7818609E-02  0.9306791E-01
        2   -1    0    0  501    0  0.00000000000E+00  0.00000000000E+00  0.25374872153E+04  0.25374872153E+04  0.25500000920E-02 0. -1.
       -2   -1    0    0    0  501  0.00000000000E+00  0.00000000000E+00 -0.98838308911E+02  0.98838308944E+02  0.25500000920E-02 0.  1.
    10030    2    1    2    0    0  0.00000000000E+00  0.00000000000E+00  0.24386489064E+04  0.26363255243E+04  0.10016006096E+04 0.  0.
        1    1    3    3  502    0 -0.47164280541E+03 -0.16753442162E+03  0.12638551726E+04  0.13593544849E+04  0.50400001928E-02 0.  1.
       -1    1    3    3    0  502  0.47164280541E+03  0.16753442162E+03  0.11747937338E+04  0.12769710394E+04  0.50400001928E-02 0. -1.
</event>
<event>
 5   0  0.1353789E-03  0.1000941E+04  0.7818609E-02  0.9307514E-01
       -1   -1    0    0    0  501  0.00000000000E+00  0.00000000000E+00  0.51245896606E+03  0.51245896608E+03  0.50400001928E-02 0.  1.
        1   -1    0    0  501    0  0.00000000000E+00  0.00000000000E+00 -0.48876205608E+03  0.48876205611E+03  0.50400001928E-02 0. -1.
    10030    2    1    2    0    0  0.00000000000E+00  0.00000000000E+00  0.23696909974E+02  0.10012210222E+04  0.10009405535E+04 0.  0.
        1    1    3    3  502    0 -0.44987802937E+03 -0.21571993654E+03  0.51168063641E+02  0.50154112802E+03  0.50400001928E-02 0. -1.
       -1    1    3    3    0  502  0.44987802937E+03  0.21571993654E+03 -0.27471153668E+02  0.49967989417E+03  0.50400001928E-02 0.  1.
</event>
<event>
 5   0  0.1353789E-03  0.9981865E+03  0.7818609E-02  0.9310536E-01
       -1   -1    0    0    0  501  0.00000000000E+00  0.00000000000E+00  0.57621014552E+03  0.57621014554E+03  0.50400001928E-02 0.  1.
        1   -1    0    0  501    0  0.00000000000E+00  0.00000000000E+00 -0.43229730951E+03  0.43229730954E+03  0.50400001928E-02 0. -1.
    10030    2    1    2    0    0  0.00000000000E+00  0.00000000000E+00  0.14391283601E+03  0.10085074551E+04  0.99818654699E+03 0.  0.
        1    1    3    3  502    0  0.76086781302E+02 -0.43951858793E+03  0.29816492032E+03  0.53653341663E+03  0.50400001928E-02 0. -1.
       -1    1    3    3    0  502 -0.76086781302E+02  0.43951858793E+03 -0.15425208432E+03  0.47197403845E+03  0.50400001928E-02 0.  1.
</event>
<event>
 5   0  0.1293716E-03  0.9992656E+03  0.7818609E-02  0.9309351E-01
       -1   -1    0    0    0  501  0.00000000000E+00  0.00000000000E+00  0.29851668794E+03  0.29851668798E+03  0.50400001928E-02 0.  1.
        1   -1    0    0  501    0  0.00000000000E+00  0.00000000000E+00 -0.83624450206E+03  0.83624450207E+03  0.50400001928E-02 0. -1.
    10030    2    1    2    0    0  0.00000000000E+00  0.00000000000E+00 -0.53772781412E+03  0.11347611901E+04  0.99926560853E+03 0.  0.
        3    1    3    3  502    0 -0.79293500499E+02 -0.46452917825E+03 -0.45737992855E+03  0.65671243776E+03  0.10100000352E+00 0. -1.
       -3    1    3    3    0  502  0.79293500499E+02  0.46452917825E+03 -0.80347885568E+02  0.47804875230E+03  0.10100000352E+00 0.  1.
</event>
<event>
 5   0  0.2277570E-03  0.9986917E+03  0.7818609E-02  0.9309981E-01
        2   -1    0    0  501    0  0.00000000000E+00  0.00000000000E+00  0.70408462464E+03  0.70408462464E+03  0.25500000920E-02 0. -1.
       -2   -1    0    0    0  501  0.00000000000E+00  0.00000000000E+00 -0.35414246883E+03  0.35414246884E+03  0.25500000920E-02 0.  1.
    10030    2    1    2    0    0  0.00000000000E+00  0.00000000000E+00  0.34994215580E+03  0.10582270935E+04  0.99869167863E+03 0.  0.
        3    1    3    3  502    0  0.28248089847E+03  0.41015407664E+03  0.13640882904E+03  0.51636150459E+03  0.10100000352E+00 0. -1.
       -3    1    3    3    0  502 -0.28248089847E+03 -0.41015407664E+03  0.21353332677E+03  0.54186558889E+03  0.10100000352E+00 0.  1.
</event>
<event>
 5   0  0.2284843E-03  0.9985557E+03  0.7818609E-02  0.9310130E-01
       -2   -1    0    0    0  501  0.00000000000E+00  0.00000000000E+00  0.16785441989E+04  0.16785441989E+04  0.25500000920E-02 0.  1.
        2   -1    0    0  501    0  0.00000000000E+00  0.00000000000E+00 -0.14850868036E+03  0.14850868038E+03  0.25500000920E-02 0. -1.
    10030    2    1    2    0    0  0.00000000000E+00  0.00000000000E+00  0.15300355185E+04  0.18270528793E+04  0.99855572487E+03 0.  0.
        2    1    3    3  502    0 -0.29381688795E+03  0.23278419119E+03  0.13684332937E+04  0.14188468989E+04  0.25500000920E-02 0.  1.
       -2    1    3    3    0  502  0.29381688795E+03 -0.23278419119E+03  0.16160222486E+03  0.40820598036E+03  0.25500000920E-02 0. -1.
</event>
<event>
 5   0  0.1249195E-03  0.9990826E+03  0.7818609E-02  0.9309552E-01
       -1   -1    0    0    0  501  0.00000000000E+00  0.00000000000E+00  0.19071579461E+04  0.19071579461E+04  0.50400001928E-02 0.  1.
        1   -1    0    0  501    0  0.00000000000E+00  0.00000000000E+00 -0.13084470275E+03  0.13084470285E+03  0.50400001928E-02 0. -1.
    10030    2    1    2    0    0  0.00000000000E+00  0.00000000000E+00  0.17763132433E+04  0.20380026489E+04  0.99908260852E+03 0.  0.
        2    1    3    3  502    0  0.47467631062E+03  0.14470147787E+03  0.10050789026E+04  0.11209102185E+04  0.25500000920E-02 0. -1.
       -2    1    3    3    0  502 -0.47467631062E+03 -0.14470147787E+03  0.77123434071E+03  0.91709243038E+03  0.25500000920E-02 0.  1.
</event>
<event>
 5   0  0.2204862E-03  0.1004454E+04  0.7818609E-02  0.9303673E-01
       -2   -1    0    0    0  501  0.00000000000E+00  0.00000000000E+00  0.75282516909E+03  0.75282516910E+03  0.25500000920E-02 0. -1.
        2   -1    0    0  501    0  0.00000000000E+00  0.00000000000E+00 -0.33504705063E+03  0.33504705064E+03  0.25500000920E-02 0.  1.
    10030    2    1    2    0    0  0.00000000000E+00  0.00000000000E+00  0.41777811847E+03  0.10878722197E+04  0.10044537870E+04 0.  0.
        1    1    3    3  502    0 -0.43073537350E+03 -0.62365908822E+02  0.48032052567E+03  0.64817457214E+03  0.50400001928E-02 0. -1.
       -1    1    3    3    0  502  0.43073537350E+03  0.62365908822E+02 -0.62542407201E+02  0.43969764759E+03  0.50400001928E-02 0.  1.
</event>
<event>
 5   0  0.8680125E-04  0.1028710E+04  0.7818609E-02  0.9277605E-01
        4   -1    0    0  501    0  0.00000000000E+00  0.00000000000E+00  0.15190431476E+04  0.15190436785E+04  0.12699999809E+01 0.  1.
       -4   -1    0    0    0  501  0.00000000000E+00  0.00000000000E+00 -0.17416005891E+03  0.17416468936E+03  0.12699999809E+01 0. -1.
    10030    2    1    2    0    0  0.00000000000E+00  0.00000000000E+00  0.13448830887E+04  0.16932083679E+04  0.10287098983E+04 0.  0.
        2    1    3    3  502    0  0.38717316723E+03  0.33809101704E+03  0.70334062633E+03  0.87114673499E+03  0.25500000920E-02 0.  1.
       -2    1    3    3    0  502 -0.38717316723E+03 -0.33809101704E+03  0.64154246239E+03  0.82206163290E+03  0.25500000920E-02 0. -1.
</event>
<event>
 5   0  0.1293575E-03  0.9946556E+03  0.7818609E-02  0.9314426E-01
        1   -1    0    0  501    0  0.00000000000E+00  0.00000000000E+00  0.11826966849E+04  0.11826966850E+04  0.50400001928E-02 0.  1.
       -1   -1    0    0    0  501  0.00000000000E+00  0.00000000000E+00 -0.20912795245E+03  0.20912795251E+03  0.50400001928E-02 0. -1.
    10030    2    1    2    0    0  0.00000000000E+00  0.00000000000E+00  0.97356873250E+03  0.13918246375E+04  0.99465559093E+03 0.  0.
        4    1    3    3  502    0  0.88661048392E+02  0.45825256297E+03  0.72702938522E+03  0.86396153435E+03  0.12699999809E+01 0.  1.
       -4    1    3    3    0  502 -0.88661048392E+02 -0.45825256297E+03  0.24653934729E+03  0.52786310312E+03  0.12699999809E+01 0. -1.
</event>
<event>
 5   0  0.2204862E-03  0.9987953E+03  0.7818609E-02  0.9309867E-01
        2   -1    0    0  501    0  0.00000000000E+00  0.00000000000E+00  0.28222525978E+03  0.28222525979E+03  0.25500000920E-02 0.  1.
       -2   -1    0    0    0  501  0.00000000000E+00  0.00000000000E+00 -0.88368416234E+03  0.88368416234E+03  0.25500000920E-02 0. -1.
    10030    2    1    2    0    0  0.00000000000E+00  0.00000000000E+00 -0.60145890256E+03  0.11659094221E+04  0.99879525887E+03 0.  0.
        1    1    3    3  502    0 -0.43448805201E+03  0.96128769138E+02 -0.56532000572E+03  0.71944931475E+03  0.50400001928E-02 0. -1.
       -1    1    3    3    0  502  0.43448805201E+03 -0.96128769138E+02 -0.36138896836E+02  0.44646010738E+03  0.50400001928E-02 0.  1.
</event>
<event>
 5   0  0.1353789E-03  0.9992899E+03  0.7818609E-02  0.9309324E-01
        1   -1    0    0  501    0  0.00000000000E+00  0.00000000000E+00  0.11261835013E+04  0.11261835013E+04  0.50400001928E-02 0. -1.
       -1   -1    0    0    0  501  0.00000000000E+00  0.00000000000E+00 -0.22167355450E+03  0.22167355456E+03  0.50400001928E-02 0.  1.
    10030    2    1    2    0    0  0.00000000000E+00  0.00000000000E+00  0.90450994677E+03  0.13478570558E+04  0.99928994750E+03 0.  0.
        1    1    3    3  502    0 -0.84876338185E+02 -0.47100972635E+03  0.64580376027E+03  0.80381381669E+03  0.50400001928E-02 0. -1.
       -1    1    3    3    0  502  0.84876338185E+02  0.47100972635E+03  0.25870618650E+03  0.54404323915E+03  0.50400001928E-02 0.  1.
</event>
<event>
 5   0  0.2204862E-03  0.1005734E+04  0.7818609E-02  0.9302278E-01
        2   -1    0    0  501    0  0.00000000000E+00  0.00000000000E+00  0.48316986958E+03  0.48316986958E+03  0.25500000920E-02 0. -1.
       -2   -1    0    0    0  501  0.00000000000E+00  0.00000000000E+00 -0.52336733976E+03  0.52336733977E+03  0.25500000920E-02 0.  1.
    10030    2    1    2    0    0  0.00000000000E+00  0.00000000000E+00 -0.40197470187E+02  0.10065372094E+04  0.10057342180E+04 0.  0.
        1    1    3    3  502    0  0.43062170676E+03  0.25711269514E+03 -0.56642775579E+02  0.50472804201E+03  0.50400001928E-02 0.  1.
       -1    1    3    3    0  502 -0.43062170676E+03 -0.25711269514E+03  0.16445305391E+02  0.50180916735E+03  0.50400001928E-02 0. -1.
</event>
<event>
 5   0  0.1293575E-03  0.9949958E+03  0.7818609E-02  0.9314050E-01
       -1   -1    0    0    0  501  0.00000000000E+00  0.00000000000E+00  0.20490689597E+03  0.20490689604E+03  0.50400001928E-02 0.  1.
        1   -1    0    0  501    0  0.00000000000E+00  0.00000000000E+00 -0.12078859795E+04  0.12078859795E+04  0.50400001928E-02 0. -1.
    10030    2    1    2    0    0  0.00000000000E+00  0.00000000000E+00 -0.10029790835E+04  0.14127928755E+04  0.99499581266E+03 0.  0.
        4    1    3    3  502    0  0.45043486329E+03 -0.77586874208E+02 -0.22255535264E+03  0.50837366868E+03  0.12699999809E+01 0.  1.
       -4    1    3    3    0  502 -0.45043486329E+03  0.77586874208E+02 -0.78042373089E+03  0.90441920687E+03  0.12699999809E+01 0. -1.
</event>
<event>
 5   0  0.2284843E-03  0.1026440E+04  0.7818609E-02  0.9280012E-01
        2   -1    0    0  501    0  0.00000000000E+00  0.00000000000E+00  0.89694915469E+03  0.89694915470E+03  0.25500000920E-02 0. -1.
       -2   -1    0    0    0  501  0.00000000000E+00  0.00000000000E+00 -0.29365635114E+03  0.29365635115E+03  0.25500000920E-02 0.  1.
    10030    2    1    2    0    0  0.00000000000E+00  0.00000000000E+00  0.60329280355E+03  0.11906055058E+04  0.10264400926E+04 0.  0.
        2    1    3    3  502    0  0.42667721280E+02 -0.49442640172E+03  0.45340236124E+03  0.67219915378E+03  0.25500000920E-02 0.  1.
       -2    1    3    3    0  502 -0.42667721280E+02  0.49442640172E+03  0.14989044231E+03  0.51840635206E+03  0.25500000920E-02 0. -1.
</event>
<event>
 5   0  0.2284843E-03  0.9893727E+03  0.7818609E-02  0.9320278E-01
        2   -1    0    0  501    0  0.00000000000E+00  0.00000000000E+00  0.40549815034E+03  0.40549815035E+03  0.25500000920E-02 0.  1.
       -2   -1    0    0    0  501  0.00000000000E+00  0.00000000000E+00 -0.60349124215E+03  0.60349124215E+03  0.25500000920E-02 0. -1.
    10030    2    1    2    0    0  0.00000000000E+00  0.00000000000E+00 -0.19799309181E+03  0.10089893925E+04  0.98937269509E+03 0.  0.
        2    1    3    3  502    0 -0.43352251998E+03 -0.16835749208E+03  0.72954224512E+02  0.47075294938E+03  0.25500000920E-02 0.  1.
       -2    1    3    3    0  502  0.43352251998E+03  0.16835749208E+03 -0.27094731632E+03  0.53823644312E+03  0.25500000920E-02 0. -1.
</event>
<event>
 5   0  0.1293575E-03  0.1002641E+04  0.7818609E-02  0.9305653E-01
       -1   -1    0    0    0  501  0.00000000000E+00  0.00000000000E+00  0.39091287523E+03  0.39091287526E+03  0.50400001928E-02 0. -1.
        1   -1    0    0  501    0  0.00000000000E+00  0.00000000000E+00 -0.64291144870E+03  0.64291144872E+03  0.50400001928E-02 0.  1.
    10030    2    1    2    0    0  0.00000000000E+00  0.00000000000E+00 -0.25199857347E+03  0.10338243240E+04  0.10026412378E+04 0.  0.
        4    1    3    3  502    0  0.42147222659E+03  0.61515612179E+02  0.14660504690E+03  0.45046382874E+03  0.12699999809E+01 0.  1.
       -4    1    3    3    0  502 -0.42147222659E+03 -0.61515612179E+02 -0.39860362038E+03  0.58336049524E+03  0.12699999809E+01 0. -1.
</event>
<event>
 5   0  0.1285769E-03  0.1000958E+04  0.7818609E-02  0.9307495E-01
        1   -1    0    0  501    0  0.00000000000E+00  0.00000000000E+00  0.60180890576E+03  0.60180890578E+03  0.50400001928E-02 0. -1.
       -1   -1    0    0    0  501  0.00000000000E+00  0.00000000000E+00 -0.41621064082E+03  0.41621064086E+03  0.50400001928E-02 0.  1.
    10030    2    1    2    0    0  0.00000000000E+00  0.00000000000E+00  0.18559826494E+03  0.10180195466E+04  0.10009580817E+04 0.  0.
        5    1    3    3  502    0  0.34111703116E+03  0.20925861205E+03 -0.21283466541E+03  0.45328873851E+03  0.46999998093E+01 0.  1.
       -5    1    3    3    0  502 -0.34111703116E+03 -0.20925861205E+03  0.39843293035E+03  0.56473080813E+03  0.46999998093E+01 0. -1.
</event>
<event>
 5   0  0.1249195E-03  0.9983988E+03  0.7818609E-02  0.9310303E-01
       -1   -1    0    0    0  501  0.00000000000E+00  0.00000000000E+00  0.12465494499E+03  0.12465494509E+03  0.50400001928E-02 0. -1.
        1   -1    0    0  501    0  0.00000000000E+00  0.00000000000E+00 -0.19991189518E+04  0.19991189518E+04  0.50400001928E-02 0.  1.
    10030    2    1    2    0    0  0.00000000000E+00  0.00000000000E+00 -0.18744640068E+04  0.21237738969E+04  0.99839884431E+03 0.  0.
        2    1    3    3  502    0  0.16082708481E+03 -0.42707191230E+03 -0.13676603852E+04  0.14417873278E+04  0.25500000920E-02 0.  1.
       -2    1    3    3    0  502 -0.16082708481E+03  0.42707191230E+03 -0.50680362164E+03  0.68198656908E+03  0.25500000920E-02 0. -1.
</event>
<event>
 5   0  0.2277570E-03  0.9918084E+03  0.7818609E-02  0.9317575E-01
        2   -1    0    0  501    0  0.00000000000E+00  0.00000000000E+00  0.10720348215E+04  0.10720348215E+04  0.25500000920E-02 0.  1.
       -2   -1    0    0    0  501  0.00000000000E+00  0.00000000000E+00 -0.22939644778E+03  0.22939644780E+03  0.25500000920E-02 0. -1.
    10030    2    1    2    0    0  0.00000000000E+00  0.00000000000E+00  0.84263837370E+03  0.13014312693E+04  0.99180840883E+03 0.  0.
        3    1    3    3  502    0 -0.45844427097E+03 -0.96004543878E+02  0.63505938217E+03  0.78910610891E+03  0.10100000352E+00 0. -1.
       -3    1    3    3    0  502  0.45844427097E+03  0.96004543878E+02  0.20757899152E+03  0.51232516037E+03  0.10100000352E+00 0.  1.
</event>
<event>
 5   0  0.1249195E-03  0.1003816E+04  0.7818609E-02  0.9304369E-01
        1   -1    0    0  501    0  0.00000000000E+00  0.00000000000E+00  0.84448952483E+03  0.84448952484E+03  0.50400001928E-02 0.  1.
       -1   -1    0    0    0  501  0.00000000000E+00  0.00000000000E+00 -0.29830054547E+03  0.29830054551E+03  0.50400001928E-02 0. -1.
    10030    2    1    2    0    0  0.00000000000E+00  0.00000000000E+00  0.54618897936E+03  0.11427900704E+04  0.10038160906E+04 0.  0.
        2    1    3    3  502    0 -0.45938885403E+03  0.57806809845E+02  0.52541571280E+02  0.46598322200E+03  0.25500000920E-02 0. -1.
       -2    1    3    3    0  502  0.45938885403E+03 -0.57806809845E+02  0.49364740808E+03  0.67680684835E+03  0.25500000920E-02 0.  1.
</event>
<event>
 5   0  0.1353789E-03  0.9827949E+03  0.7818609E-02  0.9327619E-01
       -1   -1    0    0    0  501  0.00000000000E+00  0.00000000000E+00  0.56595034299E+03  0.56595034301E+03  0.50400001928E-02 0. -1.
        1   -1    0    0  501    0  0.00000000000E+00  0.00000000000E+00 -0.42666543638E+03  0.42666543640E+03  0.50400001928E-02 0.  1.
    10030    2    1    2    0    0  0.00000000000E+00  0.00000000000E+00  0.13928490661E+03  0.99261577941E+03  0.98279489230E+03 0.  0.
        1    1    3    3  502    0 -0.28698043217E+03  0.39731408400E+03  0.33859614267E+02  0.49128680350E+03  0.50400001928E-02 0.  1.
       -1    1    3    3    0  502  0.28698043217E+03 -0.39731408400E+03  0.10542529234E+03  0.50132897591E+03  0.50400001928E-02 0. -1.
</event>
<event>
 5   0  0.2204862E-03  0.1000633E+04  0.7818609E-02  0.9307851E-01
       -2   -1    0    0    0  501  0.00000000000E+00  0.00000000000E+00  0.14618675802E+03  0.14618675804E+03  0.25500000920E-02 0. -1.
        2   -1    0    0  501    0  0.00000000000E+00  0.00000000000E+00 -0.17123074317E+04  0.17123074318E+04  0.25500000920E-02 0.  1.
    10030    2    1    2    0    0  0.00000000000E+00  0.00000000000E+00 -0.15661206737E+04  0.18584941898E+04  0.10006331440E+04 0.  0.
        1    1    3    3  502    0  0.32948653049E+03  0.20703551665E+03 -0.19898884286E+03  0.43706022301E+03  0.50400001928E-02 0. -1.
       -1    1    3    3    0  502 -0.32948653049E+03 -0.20703551665E+03 -0.13671318309E+04  0.14214339668E+04  0.50400001928E-02 0.  1.
</event>
<event>
 5   0  0.1285769E-03  0.9999947E+03  0.7818609E-02  0.9308551E-01
       -1   -1    0    0    0  501  0.00000000000E+00  0.00000000000E+00  0.45065294892E+03  0.45065294895E+03  0.50400001928E-02 0. -1.
        1   -1    0    0  501    0  0.00000000000E+00  0.00000000000E+00 -0.55474469660E+03  0.55474469662E+03  0.50400001928E-02 0.  1.
    10030    2    1    2    0    0  0.00000000000E+00  0.00000000000E+00 -0.10409174768E+03  0.10053976456E+04  0.99999466688E+03 0.  0.
        5    1    3    3  502    0  0.40032806222E+02  0.53774682122E+02 -0.55018314201E+03  0.55427242559E+03  0.46999998093E+01 0.  1.
       -5    1    3    3    0  502 -0.40032806222E+02 -0.53774682122E+02  0.44609139433E+03  0.45112521999E+03  0.46999998093E+01 0. -1.
</event>
<event>
 5   0  0.1285769E-03  0.9988389E+03  0.7818609E-02  0.9309819E-01
       -1   -1    0    0    0  501  0.00000000000E+00  0.00000000000E+00  0.37304225833E+03  0.37304225836E+03  0.50400001928E-02 0. -1.
        1   -1    0    0  501    0  0.00000000000E+00  0.00000000000E+00 -0.66861003122E+03  0.66861003124E+03  0.50400001928E-02 0.  1.
    10030    2    1    2    0    0  0.00000000000E+00  0.00000000000E+00 -0.29556777289E+03  0.10416522896E+04  0.99883891797E+03 0.  0.
        5    1    3    3  502    0 -0.24037436347E+03  0.38170163417E+03 -0.37126275093E+03  0.58423804426E+03  0.46999998093E+01 0.  1.
       -5    1    3    3    0  502  0.24037436347E+03 -0.38170163417E+03  0.75694978040E+02  0.45741424534E+03  0.46999998093E+01 0. -1.
</event>
<event>
 5   0  0.2284843E-03  0.9971410E+03  0.7818609E-02  0.9311686E-01
        2   -1    0    0  501    0  0.00000000000E+00  0.00000000000E+00  0.38393098695E+03  0.38393098696E+03  0.25500000920E-02 0. -1.
       -2   -1    0    0    0  501  0.00000000000E+00  0.00000000000E+00 -0.64744066137E+03  0.64744066137E+03  0.25500000920E-02 0.  1.
    10030    2    1    2    0    0  0.00000000000E+00  0.00000000000E+00 -0.26350967441E+03  0.10313716483E+04  0.99714097723E+03 0.  0.
        2    1    3    3  502    0 -0.96943087725E+02  0.20508884334E+03  0.32746052579E+03  0.39835887322E+03  0.25500000920E-02 0. -1.
       -2    1    3    3    0  502  0.96943087725E+02 -0.20508884334E+03 -0.59097020020E+03  0.63301277511E+03  0.25500000920E-02 0.  1.
</event>
<event>
 5   0  0.2284843E-03  0.9982295E+03  0.7818609E-02  0.9310489E-01
        2   -1    0    0  501    0  0.00000000000E+00  0.00000000000E+00  0.11931859928E+04  0.11931859928E+04  0.25500000920E-02 0.  1.
       -2   -1    0    0    0  501  0.00000000000E+00  0.00000000000E+00 -0.20878179652E+03  0.20878179654E+03  0.25500000920E-02 0. -1.
    10030    2    1    2    0    0  0.00000000000E+00  0.00000000000E+00  0.98440419625E+03  0.14019677893E+04  0.99822946293E+03 0.  0.
        2    1    3    3  502    0 -0.49490467634E+02  0.16988157463E+03  0.11476573224E+04  0.11612176305E+04  0.25500000920E-02 0.  1.
       -2    1    3    3    0  502  0.49490467634E+02 -0.16988157463E+03 -0.16325312611E+03  0.24075015882E+03  0.25500000920E-02 0. -1.
</event>
<event>
 5   0  0.1293716E-03  0.9925456E+03  0.7818609E-02  0.9316759E-01
        1   -1    0    0  501    0  0.00000000000E+00  0.00000000000E+00  0.10664144073E+04  0.10664144074E+04  0.50400001928E-02 0.  1.
       -1   -1    0    0    0  501  0.00000000000E+00  0.00000000000E+00 -0.23094841013E+03  0.23094841019E+03  0.50400001928E-02 0. -1.
    10030    2    1    2    0    0  0.00000000000E+00  0.00000000000E+00  0.83546599721E+03  0.12973628175E+04  0.99254564018E+03 0.  0.
        3    1    3    3  502    0 -0.32081936793E+03 -0.36793792598E+03  0.30094380411E+03  0.57347237740E+03  0.10100000352E+00 0. -1.
       -3    1    3    3    0  502  0.32081936793E+03  0.36793792598E+03  0.53452219309E+03  0.72389044013E+03  0.10100000352E+00 0.  1.
</event>
<event>
 5   0  0.2264577E-03  0.9974498E+03  0.7818609E-02  0.9311346E-01
        2   -1    0    0  501    0  0.00000000000E+00  0.00000000000E+00  0.15638508421E+04  0.15638508421E+04  0.25500000920E-02 0.  1.
       -2   -1    0    0    0  501  0.00000000000E+00  0.00000000000E+00 -0.15904748517E+03  0.15904748519E+03  0.25500000920E-02 0. -1.
    10030    2    1    2    0    0  0.00000000000E+00  0.00000000000E+00  0.14048033570E+04  0.17228983273E+04  0.99744983561E+03 0.  0.
        5    1    3    3  502    0  0.25876598104E+02 -0.20147870980E+03 -0.84310871726E+02  0.21998564027E+03  0.46999998093E+01 0. -1.
       -5    1    3    3    0  502 -0.25876598104E+02  0.20147870980E+03  0.14891142287E+04  0.15029126870E+04  0.46999998093E+01 0.  1.
</event>
<event>
 5   0  0.1293575E-03  0.9941085E+03  0.7818609E-02  0.9315030E-01
        1   -1    0    0  501    0  0.00000000000E+00  0.00000000000E+00  0.53965107981E+03  0.53965107983E+03  0.50400001928E-02 0. -1.
       -1   -1    0    0    0  501  0.00000000000E+00  0.00000000000E+00 -0.45781979118E+03  0.45781979120E+03  0.50400001928E-02 0.  1.
    10030    2    1    2    0    0  0.00000000000E+00  0.00000000000E+00  0.81831288631E+02  0.99747087104E+03  0.99410853470E+03 0.  0.
        4    1    3    3  502    0  0.16594944107E+02  0.33925162901E+03  0.40504011157E+03  0.52860776086E+03  0.12699999809E+01 0. -1.
       -4    1    3    3    0  502 -0.16594944107E+02 -0.33925162901E+03 -0.32320882294E+03  0.46886311018E+03  0.12699999809E+01 0.  1.
</event>
<event>
 5   0  0.2284843E-03  0.1016809E+04  0.7818609E-02  0.9290299E-01
        2   -1    0    0  501    0  0.00000000000E+00  0.00000000000E+00  0.46050775759E+03  0.46050775760E+03  0.25500000920E-02 0.  1.
       -2   -1    0    0    0  501  0.00000000000E+00  0.00000000000E+00 -0.56128266557E+03  0.56128266557E+03  0.25500000920E-02 0. -1.
    10030    2    1    2    0    0  0.00000000000E+00  0.00000000000E+00 -0.10077490797E+03  0.10217904232E+04  0.10168087759E+04 0.  0.
        2    1    3    3  502    0 -0.38818442349E+03 -0.18148526388E+03 -0.32531690834E+03  0.53801035167E+03  0.25500000920E-02 0. -1.
       -2    1    3    3    0  502  0.38818442349E+03  0.18148526388E+03  0.22454200037E+03  0.48378007150E+03  0.25500000920E-02 0.  1.
</event>
<event>
 5   0  0.1293716E-03  0.1008612E+04  0.7818609E-02  0.9299149E-01
       -1   -1    0    0    0  501  0.00000000000E+00  0.00000000000E+00  0.23259616654E+03  0.23259616659E+03  0.50400001928E-02 0.  1.
        1   -1    0    0  501    0  0.00000000000E+00  0.00000000000E+00 -0.10934169720E+04  0.10934169720E+04  0.50400001928E-02 0. -1.
    10030    2    1    2    0    0  0.00000000000E+00  0.00000000000E+00 -0.86082080544E+03  0.13260131386E+04  0.10086121081E+04 0.  0.
        3    1    3    3  502    0  0.73097215303E+02 -0.14639612853E+02 -0.10861329099E+04  0.10886883068E+04  0.10100000352E+00 0. -1.
       -3    1    3    3    0  502 -0.73097215303E+02  0.14639612853E+02  0.22531210449E+03  0.23732483178E+03  0.10100000352E+00 0.  1.
</event>
<event>
 5   0  0.1285769E-03  0.1003320E+04  0.7818609E-02  0.9304910E-01
        1   -1    0    0  501    0  0.00000000000E+00  0.00000000000E+00  0.59014584504E+03  0.59014584506E+03  0.50400001928E-02 0.  1.
       -1   -1    0    0    0  501  0.00000000000E+00  0.00000000000E+00 -0.42644200671E+03  0.42644200674E+03  0.50400001928E-02 0. -1.
    10030    2    1    2    0    0  0.00000000000E+00  0.00000000000E+00  0.16370383834E+03  0.10165878518E+04  0.10033204442E+04 0.  0.
        5    1    3    3  502    0  0.16058587347E+03 -0.46522782510E+03  0.18017186374E+03  0.52412664737E+03  0.46999998093E+01 0. -1.
       -5    1    3    3    0  502 -0.16058587347E+03  0.46522782510E+03 -0.16468025404E+02  0.49246120443E+03  0.46999998093E+01 0.  1.
</event>
<event>
 5   0  0.1249195E-03  0.1006564E+04  0.7818609E-02  0.9301374E-01
        1   -1    0    0  501    0  0.00000000000E+00  0.00000000000E+00  0.29349119152E+03  0.29349119156E+03  0.50400001928E-02 0. -1.
       -1   -1    0    0    0  501  0.00000000000E+00  0.00000000000E+00 -0.86303436705E+03  0.86303436707E+03  0.50400001928E-02 0.  1.
    10030    2    1    2    0    0  0.00000000000E+00  0.00000000000E+00 -0.56954317554E+03  0.11565255586E+04  0.10065644236E+04 0.  0.
        2    1    3    3  502    0 -0.26909660728E+03 -0.44632142364E+02 -0.77073573468E+03  0.81758093477E+03  0.25500000920E-02 0.  1.
       -2    1    3    3    0  502  0.26909660728E+03  0.44632142364E+02  0.20119255914E+03  0.33894462386E+03  0.25500000920E-02 0. -1.
</event>
<event>
 5   0  0.1285769E-03  0.9825309E+03  0.7818609E-02  0.9327915E-01
       -1   -1    0    0    0  501  0.00000000000E+00  0.00000000000E+00  0.50827198563E+03  0.50827198565E+03  0.50400001928E-02 0. -1.
        1   -1    0    0  501    0  0.00000000000E+00  0.00000000000E+00 -0.47482795146E+03  0.47482795149E+03  0.50400001928E-02 0.  1.
    10030    2    1    2    0    0  0.00000000000E+00  0.00000000000E+00  0.33444034169E+02  0.98309993714E+03  0.98253090688E+03 0.  0.
        5    1    3    3  502    0  0.34287243614E+03 -0.22107020842E+03  0.29053377094E+03  0.50086475876E+03  0.46999998093E+01 0. -1.
       -5    1    3    3    0  502 -0.34287243614E+03  0.22107020842E+03 -0.25708973677E+03  0.48223517838E+03  0.46999998093E+01 0.  1.
</event>
<event>
 5   0  0.2284843E-03  0.1003034E+04  0.7818609E-02  0.9305223E-01
        2   -1    0    0  501    0  0.00000000000E+00  0.00000000000E+00  0.12934982311E+04  0.12934982311E+04  0.25500000920E-02 0.  1.
       -2   -1    0    0    0  501  0.00000000000E+00  0.00000000000E+00 -0.19444894582E+03  0.19444894584E+03  0.25500000920E-02 0. -1.
    10030    2    1    2    0    0  0.00000000000E+00  0.00000000000E+00  0.10990492853E+04  0.14879471769E+04  0.10030341320E+04 0.  0.
        2    1    3    3  502    0 -0.27737425097E+03 -0.21122425077E+03  0.14727969297E+02  0.34895425531E+03  0.25500000920E-02 0. -1.
       -2    1    3    3    0  502  0.27737425097E+03  0.21122425077E+03  0.10843213160E+04  0.11389929216E+04  0.25500000920E-02 0.  1.
</event>
<event>
 5   0  0.2284843E-03  0.9946706E+03  0.7818609E-02  0.9314409E-01
       -2   -1    0    0    0  501  0.00000000000E+00  0.00000000000E+00  0.28723398321E+03  0.28723398323E+03  0.25500000920E-02 0.  1.
        2   -1    0    0  501    0  0.00000000000E+00  0.00000000000E+00 -0.86111814569E+03  0.86111814569E+03  0.25500000920E-02 0. -1.
    10030    2    1    2    0    0  0.00000000000E+00  0.00000000000E+00 -0.57388416247E+03  0.11483521289E+04  0.99467058871E+03 0.  0.
        2    1    3    3  502    0  0.10764714314E+02  0.58841977429E+02 -0.85694976468E+03  0.85903501476E+03  0.25500000920E-02 0. -1.
       -2    1    3    3    0  502 -0.10764714314E+02 -0.58841977429E+02  0.28306560221E+03  0.28931711416E+03  0.25500000920E-02 0.  1.
</event>
<event>
 5   0  0.1249195E-03  0.9945952E+03  0.7818609E-02  0.9314493E-01
       -1   -1    0    0    0  501  0.00000000000E+00  0.00000000000E+00  0.28461133195E+03  0.28461133200E+03  0.50400001928E-02 0. -1.
        1   -1    0    0  501    0  0.00000000000E+00  0.00000000000E+00 -0.86892154579E+03  0.86892154581E+03  0.50400001928E-02 0.  1.
    10030    2    1    2    0    0  0.00000000000E+00  0.00000000000E+00 -0.58431021384E+03  0.11535328778E+04  0.99459523133E+03 0.  0.
        2    1    3    3  502    0 -0.10195094084E+03  0.33027918421E+03 -0.70681706801E+03  0.78680919002E+03  0.25500000920E-02 0.  1.
       -2    1    3    3    0  502  0.10195094084E+03 -0.33027918421E+03  0.12250685417E+03  0.36672368779E+03  0.25500000920E-02 0. -1.
</event>
<event>
 5   0  0.2255142E-03  0.9996016E+03  0.7818609E-02  0.9308982E-01
       -2   -1    0    0    0  501  0.00000000000E+00  0.00000000000E+00  0.19696501006E+03  0.19696501008E+03  0.25500000920E-02 0. -1.
        2   -1    0    0  501    0  0.00000000000E+00  0.00000000000E+00 -0.12682497748E+04  0.12682497748E+04  0.25500000920E-02 0.  1.
    10030    2    1    2    0    0  0.00000000000E+00  0.00000000000E+00 -0.10712847647E+04  0.14652147848E+04  0.99960157995E+03 0.  0.
        4    1    3    3  502    0  0.12612500703E+03 -0.48036855304E+03 -0.45353471603E+03  0.67257476587E+03  0.12699999809E+01 0. -1.
       -4    1    3    3    0  502 -0.12612500703E+03  0.48036855304E+03 -0.61775004867E+03  0.79264001897E+03  0.12699999809E+01 0.  1.
</event>
<event>
 5   0  0.1285769E-03  0.9793358E+03  0.7818609E-02  0.9331504E-01
        1   -1    0    0  501    0  0.00000000000E+00  0.00000000000E+00  0.95904120637E+03  0.95904120639E+03  0.50400001928E-02 0.  1.
       -1   -1    0    0    0  501  0.00000000000E+00  0.00000000000E+00 -0.25001495161E+03  0.25001495166E+03  0.50400001928E-02 0. -1.
    10030    2    1    2    0    0  0.00000000000E+00  0.00000000000E+00  0.70902625476E+03  0.12090561581E+04  0.97933577663E+03 0.  0.
        5    1    3    3  502    0 -0.27893634033E+03  0.26189956857E+03 -0.22698644709E+02  0.38331995049E+03  0.46999998093E+01 0. -1.
       -5    1    3    3    0  502  0.27893634033E+03 -0.26189956857E+03  0.73172489947E+03  0.82573620756E+03  0.46999998093E+01 0.  1.
</event>
<event>
 5   0  0.1285769E-03  0.9993589E+03  0.7818609E-02  0.9309248E-01
        1   -1    0    0  501    0  0.00000000000E+00  0.00000000000E+00  0.20764269702E+03  0.20764269708E+03  0.50400001928E-02 0.  1.
       -1   -1    0    0    0  501  0.00000000000E+00  0.00000000000E+00 -0.12024481259E+04  0.12024481259E+04  0.50400001928E-02 0. -1.
    10030    2    1    2    0    0  0.00000000000E+00  0.00000000000E+00 -0.99480542888E+03  0.14100908230E+04  0.99935893839E+03 0.  0.
        5    1    3    3  502    0 -0.88394451459E+02  0.46468375591E+03 -0.27026791527E+03  0.54480400887E+03  0.46999998093E+01 0.  1.
       -5    1    3    3    0  502  0.88394451459E+02 -0.46468375591E+03 -0.72453751362E+03  0.86528681412E+03  0.46999998093E+01 0. -1.
</event>
<event>
 5   0  0.1293716E-03  0.9998408E+03  0.7818609E-02  0.9308719E-01
        1   -1    0    0  501    0  0.00000000000E+00  0.00000000000E+00  0.46993859270E+03  0.46993859273E+03  0.50400001928E-02 0. -1.
       -1   -1    0    0    0  501  0.00000000000E+00  0.00000000000E+00 -0.53181505398E+03  0.53181505400E+03  0.50400001928E-02 0.  1.
    10030    2    1    2    0    0  0.00000000000E+00  0.00000000000E+00 -0.61876461271E+02  0.10017536467E+04  0.99984082347E+03 0.  0.
        3    1    3    3  502    0 -0.27459566673E+03  0.17057136941E+03  0.35113505236E+03  0.47727686666E+03  0.10100000352E+00 0. -1.
       -3    1    3    3    0  502  0.27459566673E+03 -0.17057136941E+03 -0.41301151363E+03  0.52447678008E+03  0.10100000352E+00 0.  1.
</event>
<event>
 5   0  0.2284843E-03  0.1002239E+04  0.7818609E-02  0.9306092E-01
        2   -1    0    0  501    0  0.00000000000E+00  0.00000000000E+00  0.77398661819E+03  0.77398661819E+03  0.25500000920E-02 0. -1.
       -2   -1    0    0    0  501  0.00000000000E+00  0.00000000000E+00 -0.32445105849E+03  0.32445105850E+03  0.25500000920E-02 0.  1.
    10030    2    1    2    0    0  0.00000000000E+00  0.00000000000E+00  0.44953555970E+03  0.10984376767E+04  0.10022390484E+04 0.  0.
        2    1    3    3  502    0  0.21263956696E+03  0.42364826847E+03  0.46599330336E+02  0.47630341003E+03  0.25500000920E-02 0.  1.
       -2    1    3    3    0  502 -0.21263956696E+03 -0.42364826847E+03  0.40293622936E+03  0.62213426666E+03  0.25500000920E-02 0. -1.
</event>
<event>
 5   0  0.1353789E-03  0.1004932E+04  0.7818609E-02  0.9303152E-01
       -1   -1    0    0    0  501  0.00000000000E+00  0.00000000000E+00  0.12432166112E+03  0.12432166122E+03  0.50400001928E-02 0. -1.
        1   -1    0    0  501    0  0.00000000000E+00  0.00000000000E+00 -0.20307981310E+04  0.20307981310E+04  0.50400001928E-02 0.  1.
    10030    2    1    2    0    0  0.00000000000E+00  0.00000000000E+00 -0.19064764699E+04  0.21551197923E+04  0.10049322309E+04 0.  0.
        1    1    3    3  502    0 -0.88270026597E+02 -0.27279263400E+03 -0.18381440494E+04  0.18603711901E+04  0.50400001928E-02 0.  1.
       -1    1    3    3    0  502  0.88270026597E+02  0.27279263400E+03 -0.68332420569E+02  0.29474860217E+03  0.50400001928E-02 0. -1.
</event>
<event>
 5   0  0.2284843E-03  0.9779314E+03  0.7818609E-02  0.9333086E-01
       -2   -1    0    0    0  501  0.00000000000E+00  0.00000000000E+00  0.20805517230E+03  0.20805517231E+03  0.25500000920E-02 0.  1.
        2   -1    0    0  501    0  0.00000000000E+00  0.00000000000E+00 -0.11491541815E+04  0.11491541815E+04  0.25500000920E-02 0. -1.
    10030    2    1    2    0    0  0.00000000000E+00  0.00000000000E+00 -0.94109900918E+03  0.13572093538E+04  0.97793143161E+03 0.  0.
        2    1    3    3  502    0  0.34703374343E+03 -0.29332437157E+03 -0.72119095257E+03  0.85240131166E+03  0.25500000920E-02 0. -1.
       -2    1    3    3    0  502 -0.34703374343E+03  0.29332437157E+03 -0.21990805661E+03  0.50480804213E+03  0.25500000920E-02 0.  1.
</event>
<event>
 5   0  0.2284843E-03  0.9991830E+03  0.7818609E-02  0.9309441E-01
        2   -1    0    0  501    0  0.00000000000E+00  0.00000000000E+00  0.44349424935E+03  0.44349424936E+03  0.25500000920E-02 0.  1.
       -2   -1    0    0    0  501  0.00000000000E+00  0.00000000000E+00 -0.56278448451E+03  0.56278448452E+03  0.25500000920E-02 0. -1.
    10030    2    1    2    0    0  0.00000000000E+00  0.00000000000E+00 -0.11929023516E+03  0.10062787339E+04  0.99918303130E+03 0.  0.
        2    1    3    3  502    0 -0.32364094416E+03  0.38058827448E+03 -0.60538602382E+02  0.50324528591E+03  0.25500000920E-02 0. -1.
       -2    1    3    3    0  502  0.32364094416E+03 -0.38058827448E+03 -0.58751632774E+02  0.50303344796E+03  0.25500000920E-02 0.  1.
</event>
<event>
 5   0  0.1293716E-03  0.9610397E+03  0.7818609E-02  0.9352339E-01
        1   -1    0    0  501    0  0.00000000000E+00  0.00000000000E+00  0.20547443197E+04  0.20547443197E+04  0.50400001928E-02 0.  1.
       -1   -1    0    0    0  501  0.00000000000E+00  0.00000000000E+00 -0.11237374676E+03  0.11237374687E+03  0.50400001928E-02 0. -1.
    10030    2    1    2    0    0  0.00000000000E+00  0.00000000000E+00  0.19423705729E+04  0.21671180666E+04  0.96103968277E+03 0.  0.
        3    1    3    3  502    0  0.38799523310E+03  0.19147816961E+03  0.14425506939E+04  0.15060400742E+04  0.10100000352E+00 0. -1.
       -3    1    3    3    0  502 -0.38799523310E+03 -0.19147816961E+03  0.49981987900E+03  0.66107799237E+03  0.10100000352E+00 0.  1.
</event>
<event>
 5   0  0.1353789E-03  0.1000356E+04  0.7818609E-02  0.9308154E-01
       -1   -1    0    0    0  501  0.00000000000E+00  0.00000000000E+00  0.97057065876E+02  0.97057066007E+02  0.50400001928E-02 0.  1.
        1   -1    0    0  501    0  0.00000000000E+00  0.00000000000E+00 -0.25776384741E+04  0.25776384741E+04  0.50400001928E-02 0. -1.
    10030    2    1    2    0    0  0.00000000000E+00  0.00000000000E+00 -0.24805814082E+04  0.26746955401E+04  0.10003559914E+04 0.  0.
        1    1    3    3  502    0  0.26124316647E+03  0.14451559254E+03 -0.23132760107E+04  0.23324619290E+04  0.50400001928E-02 0. -1.
       -1    1    3    3    0  502 -0.26124316647E+03 -0.14451559254E+03 -0.16730539753E+03  0.34223361112E+03  0.50400001928E-02 0.  1.
</event>
<event>
 5   0  0.1293716E-03  0.1001252E+04  0.7818609E-02  0.9307173E-01
        1   -1    0    0  501    0  0.00000000000E+00  0.00000000000E+00  0.93716865603E+03  0.93716865605E+03  0.50400001928E-02 0.  1.
       -1   -1    0    0    0  501  0.00000000000E+00  0.00000000000E+00 -0.26742915023E+03  0.26742915027E+03  0.50400001928E-02 0. -1.
    10030    2    1    2    0    0  0.00000000000E+00  0.00000000000E+00  0.66973950581E+03  0.12045978063E+04  0.10012516514E+04 0.  0.
        3    1    3    3  502    0  0.30302468734E+03 -0.31750391108E+03  0.62459645913E+03  0.76338289321E+03  0.10100000352E+00 0.  1.
       -3    1    3    3    0  502 -0.30302468734E+03  0.31750391108E+03  0.45143046679E+02  0.44121491311E+03  0.10100000352E+00 0. -1.
</event>
<event>
 5   0  0.1285769E-03  0.1008489E+04  0.7818609E-02  0.9299283E-01
        1   -1    0    0  501    0  0.00000000000E+00  0.00000000000E+00  0.75253229294E+03  0.75253229296E+03  0.50400001928E-02 0.  1.
       -1   -1    0    0    0  501  0.00000000000E+00  0.00000000000E+00 -0.33787604796E+03  0.33787604800E+03  0.50400001928E-02 0. -1.
    10030    2    1    2    0    0  0.00000000000E+00  0.00000000000E+00  0.41465624498E+03  0.10904083410E+04  0.10084892407E+04 0.  0.
        5    1    3    3  502    0 -0.37352995027E+03  0.22843946582E+03 -0.63047007996E+02  0.44238696693E+03  0.46999998093E+01 0. -1.
       -5    1    3    3    0  502  0.37352995027E+03 -0.22843946582E+03  0.47770325298E+03  0.64802137403E+03  0.46999998093E+01 0.  1.
</event>
<event>
 5   0  0.1293575E-03  0.9921616E+03  0.7818609E-02  0.9317184E-01
        1   -1    0    0  501    0  0.00000000000E+00  0.00000000000E+00  0.88433866244E+03  0.88433866246E+03  0.50400001928E-02 0. -1.
       -1   -1    0    0    0  501  0.00000000000E+00  0.00000000000E+00 -0.27828269889E+03  0.27828269893E+03  0.50400001928E-02 0.  1.
    10030    2    1    2    0    0  0.00000000000E+00  0.00000000000E+00  0.60605596356E+03  0.11626213614E+04  0.99216157908E+03 0.  0.
        4    1    3    3  502    0  0.17067146372E+03 -0.76047373959E+02 -0.23547107139E+03  0.30059971720E+03  0.12699999809E+01 0.  1.
       -4    1    3    3    0  502 -0.17067146372E+03  0.76047373959E+02  0.84152703495E+03  0.86202164420E+03  0.12699999809E+01 0. -1.
</event>
<event>
 5   0  0.1293575E-03  0.9994356E+03  0.7818609E-02  0.9309164E-01
       -1   -1    0    0    0  501  0.00000000000E+00  0.00000000000E+00  0.19019986606E+03  0.19019986613E+03  0.50400001928E-02 0.  1.
        1   -1    0    0  501    0  0.00000000000E+00  0.00000000000E+00 -0.13129234378E+04  0.13129234378E+04  0.50400001928E-02 0. -1.
    10030    2    1    2    0    0  0.00000000000E+00  0.00000000000E+00 -0.11227235718E+04  0.15031233039E+04  0.99943556486E+03 0.  0.
        4    1    3    3  502    0 -0.51200214366E+02  0.10289843957E+03  0.17004928719E+03  0.20525088012E+03  0.12699999809E+01 0.  1.
       -4    1    3    3    0  502  0.51200214366E+02 -0.10289843957E+03 -0.12927728589E+04  0.12978724238E+04  0.12699999809E+01 0. -1.
</event>
<event>
 5   0  0.2204862E-03  0.1002956E+04  0.7818609E-02  0.9305309E-01
       -2   -1    0    0    0  501  0.00000000000E+00  0.00000000000E+00  0.45016448408E+03  0.45016448409E+03  0.25500000920E-02 0. -1.
        2   -1    0    0  501    0  0.00000000000E+00  0.00000000000E+00 -0.55864033111E+03  0.55864033112E+03  0.25500000920E-02 0.  1.
    10030    2    1    2    0    0  0.00000000000E+00  0.00000000000E+00 -0.10847584703E+03  0.10088048152E+04  0.10029557048E+04 0.  0.
        1    1    3    3  502    0  0.68500969151E+02  0.23788278816E+03  0.38442406422E+03  0.45723349052E+03  0.50400001928E-02 0. -1.
       -1    1    3    3    0  502 -0.68500969151E+02 -0.23788278816E+03 -0.49289991125E+03  0.55157132468E+03  0.50400001928E-02 0.  1.
</event>
<event>
 5   0  0.2277570E-03  0.1000161E+04  0.7818609E-02  0.9308368E-01
       -2   -1    0    0    0  501  0.00000000000E+00  0.00000000000E+00  0.27638058386E+03  0.27638058387E+03  0.25500000920E-02 0. -1.
        2   -1    0    0  501    0  0.00000000000E+00  0.00000000000E+00 -0.90484126370E+03  0.90484126370E+03  0.25500000920E-02 0.  1.
    10030    2    1    2    0    0  0.00000000000E+00  0.00000000000E+00 -0.62846067984E+03  0.11812218476E+04  0.10001611006E+04 0.  0.
        3    1    3    3  502    0  0.85619931824E+01 -0.30889553810E+03 -0.77858874761E+03  0.83766951078E+03  0.10100000352E+00 0.  1.
       -3    1    3    3    0  502 -0.85619931824E+01  0.30889553810E+03  0.15012806777E+03  0.34355233680E+03  0.10100000352E+00 0. -1.
</event>
<event>
 5   0  0.1285769E-03  0.1002864E+04  0.7818609E-02  0.9305409E-01
       -1   -1    0    0    0  501  0.00000000000E+00  0.00000000000E+00  0.14927889798E+03  0.14927889807E+03  0.50400001928E-02 0.  1.
        1   -1    0    0  501    0  0.00000000000E+00  0.00000000000E+00 -0.16843242915E+04  0.16843242915E+04  0.50400001928E-02 0. -1.
    10030    2    1    2    0    0  0.00000000000E+00  0.00000000000E+00 -0.15350453935E+04  0.18336031896E+04  0.10028640470E+04 0.  0.
        5    1    3    3  502    0 -0.22465999357E+03 -0.20208785434E+03 -0.14990987182E+04  0.15292582093E+04  0.46999998093E+01 0. -1.
       -5    1    3    3    0  502  0.22465999357E+03  0.20208785434E+03 -0.35946675282E+02  0.30434498032E+03  0.46999998093E+01 0.  1.
</event>
<event>
 5   0  0.2284843E-03  0.9997195E+03  0.7818609E-02  0.9308852E-01
        2   -1    0    0  501    0  0.00000000000E+00  0.00000000000E+00  0.76556683571E+03  0.76556683571E+03  0.25500000920E-02 0.  1.
       -2   -1    0    0    0  501  0.00000000000E+00  0.00000000000E+00 -0.32637227533E+03  0.32637227534E+03  0.25500000920E-02 0. -1.
    10030    2    1    2    0    0  0.00000000000E+00  0.00000000000E+00  0.43919456038E+03  0.10919391111E+04  0.99971954087E+03 0.  0.
        2    1    3    3  502    0 -0.16156126117E+03 -0.22224051582E+03 -0.23649452235E+03  0.36252247805E+03  0.25500000920E-02 0. -1.
       -2    1    3    3    0  502  0.16156126117E+03  0.22224051582E+03  0.67568908273E+03  0.72941663301E+03  0.25500000920E-02 0.  1.
</event>
<event>
 5   0  0.2255142E-03  0.9986108E+03  0.7818609E-02  0.9310070E-01
        2   -1    0    0  501    0  0.00000000000E+00  0.00000000000E+00  0.22409377864E+03  0.22409377865E+03  0.25500000920E-02 0. -1.
       -2   -1    0    0    0  501  0.00000000000E+00  0.00000000000E+00 -0.11125068427E+04  0.11125068427E+04  0.25500000920E-02 0.  1.
    10030    2    1    2    0    0  0.00000000000E+00  0.00000000000E+00 -0.88841306411E+03  0.13366006214E+04  0.99861075933E+03 0.  0.
        4    1    3    3  502    0  0.15274870193E+03 -0.16036586500E+02  0.19168866238E+03  0.24563284437E+03  0.12699999809E+01 0. -1.
       -4    1    3    3    0  502 -0.15274870193E+03  0.16036586500E+02 -0.10801017265E+04  0.10909677770E+04  0.12699999809E+01 0.  1.
</event>
<event>
 5   0  0.1293575E-03  0.9994081E+03  0.7818609E-02  0.9309194E-01
        1   -1    0    0  501    0  0.00000000000E+00  0.00000000000E+00  0.55414582035E+03  0.55414582037E+03  0.50400001928E-02 0.  1.
       -1   -1    0    0    0  501  0.00000000000E+00  0.00000000000E+00 -0.45061090551E+03  0.45061090554E+03  0.50400001928E-02 0. -1.
    10030    2    1    2    0    0  0.00000000000E+00  0.00000000000E+00  0.10353491484E+03  0.10047567259E+04  0.99940812467E+03 0.  0.
        4    1    3    3  502    0  0.46390631335E+03 -0.13444121968E+03 -0.77055055541E+02  0.48910387813E+03  0.12699999809E+01 0. -1.
       -4    1    3    3    0  502 -0.46390631335E+03  0.13444121968E+03  0.18058997038E+03  0.51565284778E+03  0.12699999809E+01 0.  1.
</event>
<event>
 5   0  0.2264577E-03  0.9998610E+03  0.7818609E-02  0.9308697E-01
       -2   -1    0    0    0  501  0.00000000000E+00  0.00000000000E+00  0.46770642417E+03  0.46770642418E+03  0.25500000920E-02 0.  1.
        2   -1    0    0  501    0  0.00000000000E+00  0.00000000000E+00 -0.53437471702E+03  0.53437471703E+03  0.25500000920E-02 0. -1.
    10030    2    1    2    0    0  0.00000000000E+00  0.00000000000E+00 -0.66668292852E+02  0.10020811412E+04  0.99986096648E+03 0.  0.
        5    1    3    3  502    0 -0.29202105798E+03 -0.39048146571E+03  0.77166398766E+02  0.49368898758E+03  0.46999998093E+01 0.  1.
       -5    1    3    3    0  502  0.29202105798E+03  0.39048146571E+03 -0.14383469162E+03  0.50839215363E+03  0.46999998093E+01 0. -1.
</event>
<event>
 5   0  0.2277570E-03  0.1002586E+04  0.7818609E-02  0.9305713E-01
        2   -1    0    0  501    0  0.00000000000E+00  0.00000000000E+00  0.12767772659E+04  0.12767772659E+04  0.25500000920E-02 0.  1.
       -2   -1    0    0    0  501  0.00000000000E+00  0.00000000000E+00 -0.19681948440E+03  0.19681948442E+03  0.25500000920E-02 0. -1.
    10030    2    1    2    0    0  0.00000000000E+00  0.00000000000E+00  0.10799577815E+04  0.14735967503E+04  0.10025859428E+04 0.  0.
        3    1    3    3  502    0 -0.44338418875E+03 -0.68218563610E+02  0.21115389794E+03  0.49581174863E+03  0.10100000352E+00 0.  1.
       -3    1    3    3    0  502  0.44338418875E+03  0.68218563610E+02  0.86880388355E+03  0.97778500169E+03  0.10100000352E+00 0. -1.
</event>
<event>
 5   0  0.1293575E-03  0.9986106E+03  0.7818609E-02  0.9310070E-01
        1   -1    0    0  501    0  0.00000000000E+00  0.00000000000E+00  0.12027940344E+04  0.12027940344E+04  0.50400001928E-02 0. -1.
       -1   -1    0    0    0  501  0.00000000000E+00  0.00000000000E+00 -0.20727220993E+03  0.20727220999E+03  0.50400001928E-02 0.  1.
    10030    2    1    2    0    0  0.00000000000E+00  0.00000000000E+00  0.99552182451E+03  0.14100662444E+04  0.99861059008E+03 0.  0.
        4    1    3    3  502    0 -0.15995381750E+03  0.22465058981E+03 -0.89973731658E+02  0.29008618810E+03  0.12699999809E+01 0.  1.
       -4    1    3    3    0  502  0.15995381750E+03 -0.22465058981E+03  0.10854955562E+04  0.11199800563E+04  0.12699999809E+01 0. -1.
</event>
<event>
 5   0  0.8680125E-04  0.1001563E+04  0.7818609E-02  0.9306832E-01
       -3   -1    0    0    0  501  0.00000000000E+00  0.00000000000E+00  0.63888362097E+03  0.63888362896E+03  0.10100000352E+00 0.  1.
        3   -1    0    0  501    0  0.00000000000E+00  0.00000000000E+00 -0.39253198629E+03  0.39253199929E+03  0.10100000352E+00 0. -1.
    10030    2    1    2    0    0  0.00000000000E+00  0.00000000000E+00  0.24635163468E+03  0.10314156282E+04  0.10015633132E+04 0.  0.
        3    1    3    3  502    0  0.19694630160E+03 -0.43679193099E+03 -0.26791691480E+02  0.47988836371E+03  0.10100000352E+00 0. -1.
       -3    1    3    3    0  502 -0.19694630160E+03  0.43679193099E+03  0.27314332616E+03  0.55152726453E+03  0.10100000352E+00 0.  1.
</event>
<event>
 5   0  0.1353789E-03  0.9991227E+03  0.7818609E-02  0.9309508E-01
        1   -1    0    0  501    0  0.00000000000E+00  0.00000000000E+00  0.60235385366E+03  0.60235385368E+03  0.50400001928E-02 0. -1.
       -1   -1    0    0    0  501  0.00000000000E+00  0.00000000000E+00 -0.41431050097E+03  0.41431050100E+03  0.50400001928E-02 0.  1.
    10030    2    1    2    0    0  0.00000000000E+00  0.00000000000E+00  0.18804335269E+03  0.10166643547E+04  0.99912266894E+03 0.  0.
        1    1    3    3  502    0 -0.31217389323E+03 -0.30443739360E+03 -0.15403457619E+03  0.46245142115E+03  0.50400001928E-02 0.  1.
       -1    1    3    3    0  502  0.31217389323E+03  0.30443739360E+03  0.34207792888E+03  0.55421293353E+03  0.50400001928E-02 0. -1.
</event>
<event>
 5   0  0.2255142E-03  0.1000711E+04  0.7818609E-02  0.9307765E-01
        2   -1    0    0  501    0  0.00000000000E+00  0.00000000000E+00  0.23651837602E+04  0.23651837602E+04  0.25500000920E-02 0.  1.
       -2   -1    0    0    0  501  0.00000000000E+00  0.00000000000E+00 -0.10585039475E+03  0.10585039478E+03  0.25500000920E-02 0. -1.
    10030    2    1    2    0    0  0.00000000000E+00  0.00000000000E+00  0.22593333654E+04  0.24710341550E+04  0.10007110167E+04 0.  0.
        4    1    3    3  502    0  0.37438018965E+03 -0.26998596162E+03  0.65276292219E+03  0.79947106974E+03  0.12699999809E+01 0. -1.
       -4    1    3    3    0  502 -0.37438018965E+03  0.26998596162E+03  0.16065704432E+04  0.16715630852E+04  0.12699999809E+01 0.  1.
</event>
<event>
 5   0  0.2277570E-03  0.9990160E+03  0.7818609E-02  0.9309625E-01
       -2   -1    0    0    0  501  0.00000000000E+00  0.00000000000E+00  0.31434957613E+03  0.31434957614E+03  0.25500000920E-02 0.  1.
        2   -1    0    0  501    0  0.00000000000E+00  0.00000000000E+00 -0.79372860432E+03  0.79372860432E+03  0.25500000920E-02 0. -1.
    10030    2    1    2    0    0  0.00000000000E+00  0.00000000000E+00 -0.47937902818E+03  0.11080781805E+04  0.99901601657E+03 0.  0.
        3    1    3    3  502    0  0.32772548597E+03 -0.36868872057E+03 -0.15254468272E+03  0.51633831667E+03  0.10100000352E+00 0. -1.
       -3    1    3    3    0  502 -0.32772548597E+03  0.36868872057E+03 -0.32683434546E+03  0.59173986380E+03  0.10100000352E+00 0.  1.
</event>
<event>
 5   0  0.2284843E-03  0.9989789E+03  0.7818609E-02  0.9309665E-01
        2   -1    0    0  501    0  0.00000000000E+00  0.00000000000E+00  0.68752170799E+03  0.68752170799E+03  0.25500000920E-02 0.  1.
       -2   -1    0    0    0  501  0.00000000000E+00  0.00000000000E+00 -0.36288266271E+03  0.36288266272E+03  0.25500000920E-02 0. -1.
    10030    2    1    2    0    0  0.00000000000E+00  0.00000000000E+00  0.32463904527E+03  0.10504043707E+04  0.99897889482E+03 0.  0.
        2    1    3    3  502    0 -0.44717898921E+03  0.47695081348E+02  0.39086992460E+03  0.59583820550E+03  0.25500000920E-02 0.  1.
       -2    1    3    3    0  502  0.44717898921E+03 -0.47695081348E+02 -0.66230879326E+02  0.45456616521E+03  0.25500000920E-02 0. -1.
</event>
<event>
 5   0  0.2284843E-03  0.9983273E+03  0.7818609E-02  0.9310381E-01
       -2   -1    0    0    0  501  0.00000000000E+00  0.00000000000E+00  0.34128701798E+03  0.34128701799E+03  0.25500000920E-02 0. -1.
        2   -1    0    0  501    0  0.00000000000E+00  0.00000000000E+00 -0.73007280780E+03  0.73007280781E+03  0.25500000920E-02 0.  1.
    10030    2    1    2    0    0  0.00000000000E+00  0.00000000000E+00 -0.38878578982E+03  0.10713598258E+04  0.99832734409E+03 0.  0.
        2    1    3    3  502    0  0.11523188441E+03  0.42914169433E+03  0.49672318064E+02  0.44711108260E+03  0.25500000920E-02 0. -1.
       -2    1    3    3    0  502 -0.11523188441E+03 -0.42914169433E+03 -0.43845810789E+03  0.62424874319E+03  0.25500000920E-02 0.  1.
</event>
<event>
 5   0  0.2255142E-03  0.9993260E+03  0.7818609E-02  0.9309284E-01
       -2   -1    0    0    0  501  0.00000000000E+00  0.00000000000E+00  0.25430865265E+03  0.25430865266E+03  0.25500000920E-02 0. -1.
        2   -1    0    0  501    0  0.00000000000E+00  0.00000000000E+00 -0.98173258115E+03  0.98173258115E+03  0.25500000920E-02 0.  1.
    10030    2    1    2    0    0  0.00000000000E+00  0.00000000000E+00 -0.72742392850E+03  0.12360412338E+04  0.99932595280E+03 0.  0.
        4    1    3    3  502    0  0.22158481886E+02  0.47772070883E+03 -0.18467072436E+03  0.51265286823E+03  0.12699999809E+01 0.  1.
       -4    1    3    3    0  502 -0.22158481886E+02 -0.47772070883E+03 -0.54275320414E+03  0.72338836559E+03  0.12699999809E+01 0. -1.
</event>
<event>
 5   0  0.2264577E-03  0.1000174E+04  0.7818609E-02  0.9308354E-01
       -2   -1    0    0    0  501  0.00000000000E+00  0.00000000000E+00  0.44003247627E+03  0.44003247628E+03  0.25500000920E-02 0.  1.
        2   -1    0    0  501    0  0.00000000000E+00  0.00000000000E+00 -0.56833796683E+03  0.56833796684E+03  0.25500000920E-02 0. -1.
    10030    2    1    2    0    0  0.00000000000E+00  0.00000000000E+00 -0.12830549056E+03  0.10083704431E+04  0.10001743106E+04 0.  0.
        5    1    3    3  502    0 -0.13993926084E+03  0.47936826554E+03 -0.37705313826E+02  0.50082003896E+03  0.46999998093E+01 0.  1.
       -5    1    3    3    0  502  0.13993926084E+03 -0.47936826554E+03 -0.90600176734E+02  0.50755040415E+03  0.46999998093E+01 0. -1.
</event>
<event>
 5   0  0.2264577E-03  0.9993421E+03  0.7818609E-02  0.9309267E-01
        2   -1    0    0  501    0  0.00000000000E+00  0.00000000000E+00  0.12574065592E+04  0.12574065592E+04  0.25500000920E-02 0.  1.
       -2   -1    0    0    0  501  0.00000000000E+00  0.00000000000E+00 -0.19856042146E+03  0.19856042148E+03  0.25500000920E-02 0. -1.
    10030    2    1    2    0    0  0.00000000000E+00  0.00000000000E+00  0.10588461377E+04  0.14559669807E+04  0.99934213632E+03 0.  0.
        5    1    3    3  502    0  0.23775961627E+03  0.69817047700E+02 -0.10269628449E+03  0.26827722998E+03  0.46999998093E+01 0. -1.
       -5    1    3    3    0  502 -0.23775961627E+03 -0.69817047700E+02  0.11615424222E+04  0.11876897507E+04  0.46999998093E+01 0.  1.
</event>
<event>
 5   0  0.2277570E-03  0.1000401E+04  0.7818609E-02  0.9308105E-01
       -2   -1    0    0    0  501  0.00000000000E+00  0.00000000000E+00  0.44939881556E+03  0.44939881557E+03  0.25500000920E-02 0. -1.
        2   -1    0    0  501    0  0.00000000000E+00  0.00000000000E+00 -0.55674485513E+03  0.55674485514E+03  0.25500000920E-02 0.  1.
    10030    2    1    2    0    0  0.00000000000E+00  0.00000000000E+00 -0.10734603958E+03  0.10061436707E+04  0.10004008766E+04 0.  0.
        3    1    3    3  502    0  0.95253219090E+01  0.25570649578E+03  0.37858942889E+03  0.45695350924E+03  0.10100000352E+00 0. -1.
       -3    1    3    3    0  502 -0.95253219090E+01 -0.25570649578E+03 -0.48593546846E+03  0.54919016147E+03  0.10100000352E+00 0.  1.
</event>
<event>
 5   0  0.1353789E-03  0.1002145E+04  0.7818609E-02  0.9306195E-01
       -1   -1    0    0    0  501  0.00000000000E+00  0.00000000000E+00  0.25753998189E+03  0.25753998194E+03  0.50400001928E-02 0. -1.
        1   -1    0    0  501    0  0.00000000000E+00  0.00000000000E+00 -0.97489236578E+03  0.97489236579E+03  0.50400001928E-02 0.  1.
    10030    2    1    2    0    0  0.00000000000E+00  0.00000000000E+00 -0.71735238388E+03  0.12324323477E+04  0.10021452235E+04 0.  0.
        1    1    3    3  502    0 -0.42634149930E+03  0.81238510447E+01 -0.35072755116E+02  0.42785881919E+03  0.50400001928E-02 0. -1.
       -1    1    3    3    0  502  0.42634149930E+03 -0.81238510447E+01 -0.68227962877E+03  0.80457352854E+03  0.50400001928E-02 0.  1.
</event>
<event>
 5   0  0.1353789E-03  0.1000051E+04  0.7818609E-02  0.9308489E-01
       -1   -1    0    0    0  501  0.00000000000E+00  0.00000000000E+00  0.14344675906E+04  0.14344675906E+04  0.50400001928E-02 0.  1.
        1   -1    0    0  501    0  0.00000000000E+00  0.00000000000E+00 -0.17429843657E+03  0.17429843665E+03  0.50400001928E-02 0. -1.
    10030    2    1    2    0    0  0.00000000000E+00  0.00000000000E+00  0.12601691540E+04  0.16087660272E+04  0.10000509155E+04 0.  0.
        1    1    3    3  502    0  0.45639568804E+03 -0.16375912803E+03  0.43364466658E+03  0.65050885694E+03  0.50400001928E-02 0.  1.
       -1    1    3    3    0  502 -0.45639568804E+03  0.16375912803E+03  0.82652448741E+03  0.95825717028E+03  0.50400001928E-02 0. -1.
</event>
<event>
 5   0  0.2284843E-03  0.1002419E+04  0.7818609E-02  0.9305895E-01
        2   -1    0    0  501    0  0.00000000000E+00  0.00000000000E+00  0.17080235917E+04  0.17080235917E+04  0.25500000920E-02 0. -1.
       -2   -1    0    0    0  501  0.00000000000E+00  0.00000000000E+00 -0.14707709534E+03  0.14707709536E+03  0.25500000920E-02 0.  1.
    10030    2    1    2    0    0  0.00000000000E+00  0.00000000000E+00  0.15609464964E+04  0.18551006871E+04  0.10024193707E+04 0.  0.
        2    1    3    3  502    0 -0.19218124868E+03  0.34333362654E+03  0.20588662587E+03  0.44407309553E+03  0.25500000920E-02 0.  1.
       -2    1    3    3    0  502  0.19218124868E+03 -0.34333362654E+03  0.13550598705E+04  0.14110275915E+04  0.25500000920E-02 0. -1.
</event>
<event>
 5   0  0.2255142E-03  0.1001288E+04  0.7818609E-02  0.9307134E-01
       -2   -1    0    0    0  501  0.00000000000E+00  0.00000000000E+00  0.11059093396E+03  0.11059093399E+03  0.25500000920E-02 0.  1.
        2   -1    0    0  501    0  0.00000000000E+00  0.00000000000E+00 -0.22664089462E+04  0.22664089462E+04  0.25500000920E-02 0. -1.
    10030    2    1    2    0    0  0.00000000000E+00  0.00000000000E+00 -0.21558180123E+04  0.23769998802E+04  0.10012877351E+04 0.  0.
        4    1    3    3  502    0  0.43966803582E+03  0.21712794915E+03 -0.13175495874E+04  0.14058417608E+04  0.12699999809E+01 0. -1.
       -4    1    3    3    0  502 -0.43966803582E+03 -0.21712794915E+03 -0.83826842482E+03  0.97115811945E+03  0.12699999809E+01 0.  1.
</event>
<event>
 5   0  0.1285769E-03  0.1036805E+04  0.7818609E-02  0.9269074E-01
       -1   -1    0    0    0  501  0.00000000000E+00  0.00000000000E+00  0.58500945219E+03  0.58500945221E+03  0.50400001928E-02 0.  1.
        1   -1    0    0  501    0  0.00000000000E+00  0.00000000000E+00 -0.45937940182E+03  0.45937940184E+03  0.50400001928E-02 0. -1.
    10030    2    1    2    0    0  0.00000000000E+00  0.00000000000E+00  0.12563005037E+03  0.10443888541E+04  0.10368052705E+04 0.  0.
        5    1    3    3  502    0 -0.24506232416E+03  0.30272902695E+01  0.52294328220E+03  0.57754348201E+03  0.46999998093E+01 0.  1.
       -5    1    3    3    0  502  0.24506232416E+03 -0.30272902695E+01 -0.39731323183E+03  0.46684537204E+03  0.46999998093E+01 0. -1.
</event>
<event>
 5   0  0.8680125E-04  0.9985964E+03  0.7818609E-02  0.9310086E-01
       -3   -1    0    0    0  501  0.00000000000E+00  0.00000000000E+00  0.28581041918E+03  0.28581043703E+03  0.10100000352E+00 0. -1.
        3   -1    0    0  501    0  0.00000000000E+00  0.00000000000E+00 -0.87225186700E+03  0.87225187285E+03  0.10100000352E+00 0.  1.
    10030    2    1    2    0    0  0.00000000000E+00  0.00000000000E+00 -0.58644144782E+03  0.11580623099E+04  0.99859638585E+03 0.  0.
        4    1    3    3  502    0  0.82006738583E+02 -0.39670461978E+03 -0.63171796929E+03  0.75044577829E+03  0.12699999809E+01 0.  1.
       -4    1    3    3    0  502 -0.82006738583E+02  0.39670461978E+03  0.45276521467E+02  0.40761653159E+03  0.12699999809E+01 0. -1.
</event>
<event>
 5   0  0.2204862E-03  0.1000169E+04  0.7818609E-02  0.9308360E-01
        2   -1    0    0  501    0  0.00000000000E+00  0.00000000000E+00  0.90001710597E+03  0.90001710597E+03  0.25500000920E-02 0. -1.
       -2   -1    0    0    0  501  0.00000000000E+00  0.00000000000E+00 -0.27786626628E+03  0.27786626629E+03  0.25500000920E-02 0.  1.
    10030    2    1    2    0    0  0.00000000000E+00  0.00000000000E+00  0.62215083968E+03  0.11778833723E+04  0.10001687714E+04 0.  0.
        1    1    3    3  502    0  0.43549149196E+03  0.43293578035E+02  0.26092242960E+02  0.43841530383E+03  0.50400001928E-02 0.  1.
       -1    1    3    3    0  502 -0.43549149196E+03 -0.43293578035E+02  0.59605859672E+03  0.73946806843E+03  0.50400001928E-02 0. -1.
</event>
<event>
 5   0  0.1285769E-03  0.1000147E+04  0.7818609E-02  0.9308383E-01
       -1   -1    0    0    0  501  0.00000000000E+00  0.00000000000E+00  0.36199050768E+03  0.36199050771E+03  0.50400001928E-02 0. -1.
        1   -1    0    0  501    0  0.00000000000E+00  0.00000000000E+00 -0.69082954690E+03  0.69082954691E+03  0.50400001928E-02 0.  1.
    10030    2    1    2    0    0  0.00000000000E+00  0.00000000000E+00 -0.32883903922E+03  0.10528200546E+04  0.10001474660E+04 0.  0.
        5    1    3    3  502    0  0.19683337075E+03 -0.17996490062E+03  0.28084763031E+03  0.38733476831E+03  0.46999998093E+01 0. -1.
       -5    1    3    3    0  502 -0.19683337075E+03  0.17996490062E+03 -0.60968666953E+03  0.66548528631E+03  0.46999998093E+01 0.  1.
</event>
<event>
 5   0  0.1293575E-03  0.1006530E+04  0.7818609E-02  0.9301411E-01
       -1   -1    0    0    0  501  0.00000000000E+00  0.00000000000E+00  0.52176066290E+03  0.52176066292E+03  0.50400001928E-02 0.  1.
        1   -1    0    0  501    0  0.00000000000E+00  0.00000000000E+00 -0.48542537238E+03  0.48542537241E+03  0.50400001928E-02 0. -1.
    10030    2    1    2    0    0  0.00000000000E+00  0.00000000000E+00  0.36335290516E+02  0.10071860353E+04  0.10065304051E+04 0.  0.
        4    1    3    3  502    0 -0.10008304970E+03 -0.37054163517E+03  0.34388932264E+03  0.51534376813E+03  0.12699999809E+01 0.  1.
       -4    1    3    3    0  502  0.10008304970E+03  0.37054163517E+03 -0.30755403212E+03  0.49184226720E+03  0.12699999809E+01 0. -1.
</event>
<event>
 5   0  0.1293575E-03  0.9960942E+03  0.7818609E-02  0.9312839E-01
       -1   -1    0    0    0  501  0.00000000000E+00  0.00000000000E+00  0.34734651436E+03  0.34734651440E+03  0.50400001928E-02 0. -1.
        1   -1    0    0  501    0  0.00000000000E+00  0.00000000000E+00 -0.71413103717E+03  0.71413103719E+03  0.50400001928E-02 0.  1.
    10030    2    1    2    0    0  0.00000000000E+00  0.00000000000E+00 -0.36678452281E+03  0.10614775516E+04  0.99609422564E+03 0.  0.
        4    1    3    3  502    0  0.20971099643E+03  0.44753643412E+03 -0.11785973630E+03  0.50809457016E+03  0.12699999809E+01 0. -1.
       -4    1    3    3    0  502 -0.20971099643E+03 -0.44753643412E+03 -0.24892478651E+03  0.55338298143E+03  0.12699999809E+01 0.  1.
</event>
<event>
 5   0  0.1353789E-03  0.1003487E+04  0.7818609E-02  0.9304729E-01
        1   -1    0    0  501    0  0.00000000000E+00  0.00000000000E+00  0.99447534436E+03  0.99447534437E+03  0.50400001928E-02 0. -1.
       -1   -1    0    0    0  501  0.00000000000E+00  0.00000000000E+00 -0.25314508660E+03  0.25314508665E+03  0.50400001928E-02 0.  1.
    10030    2    1    2    0    0  0.00000000000E+00  0.00000000000E+00  0.74133025776E+03  0.12476204310E+04  0.10034870148E+04 0.  0.
        1    1    3    3  502    0  0.24281597321E+03 -0.29363407453E+03  0.77652864541E+03  0.86497242947E+03  0.50400001928E-02 0. -1.
       -1    1    3    3    0  502 -0.24281597321E+03  0.29363407453E+03 -0.35198387645E+02  0.38264800155E+03  0.50400001928E-02 0.  1.
</event>
<event>
 5   0  0.1353789E-03  0.9960940E+03  0.7818609E-02  0.9312839E-01
       -1   -1    0    0    0  501  0.00000000000E+00  0.00000000000E+00  0.60398134729E+03  0.60398134731E+03  0.50400001928E-02 0. -1.
        1   -1    0    0  501    0  0.00000000000E+00  0.00000000000E+00 -0.41069283141E+03  0.41069283144E+03  0.50400001928E-02 0.  1.
    10030    2    1    2    0    0  0.00000000000E+00  0.00000000000E+00  0.19328851588E+03  0.10146741788E+04  0.99609399088E+03 0.  0.
        1    1    3    3  502    0 -0.25432658528E+03  0.14210135415E+03 -0.31484114507E+03  0.42895192445E+03  0.50400001928E-02 0.  1.
       -1    1    3    3    0  502  0.25432658528E+03 -0.14210135415E+03  0.50812966095E+03  0.58572225431E+03  0.50400001928E-02 0. -1.
</event>
<event>
 5   0  0.1249195E-03  0.9983699E+03  0.7818609E-02  0.9310335E-01
        1   -1    0    0  501    0  0.00000000000E+00  0.00000000000E+00  0.41826173146E+03  0.41826173149E+03  0.50400001928E-02 0. -1.
       -1   -1    0    0    0  501  0.00000000000E+00  0.00000000000E+00 -0.59576475158E+03  0.59576475160E+03  0.50400001928E-02 0.  1.
    10030    2    1    2    0    0  0.00000000000E+00  0.00000000000E+00 -0.17750302012E+03  0.10140264831E+04  0.99836986445E+03 0.  0.
        2    1    3    3  502    0 -0.17581522171E+03  0.44615714886E+03  0.52052972471E+02  0.48236573843E+03  0.25500000920E-02 0. -1.
       -2    1    3    3    0  502  0.17581522171E+03 -0.44615714886E+03 -0.22955599259E+03  0.53166074465E+03  0.25500000920E-02 0.  1.
</event>
<event>
 5   0  0.1285769E-03  0.9994721E+03  0.7818609E-02  0.9309124E-01
       -1   -1    0    0    0  501  0.00000000000E+00  0.00000000000E+00  0.39446252637E+03  0.39446252641E+03  0.50400001928E-02 0.  1.
        1   -1    0    0  501    0  0.00000000000E+00  0.00000000000E+00 -0.63310481851E+03  0.63310481853E+03  0.50400001928E-02 0. -1.
    10030    2    1    2    0    0  0.00000000000E+00  0.00000000000E+00 -0.23864229214E+03  0.10275673449E+04  0.99947211306E+03 0.  0.
        5    1    3    3  502    0  0.21074955796E+03 -0.39279818013E+03 -0.35151986748E+03  0.56770951527E+03  0.46999998093E+01 0. -1.
       -5    1    3    3    0  502 -0.21074955796E+03  0.39279818013E+03  0.11287757534E+03  0.45985782967E+03  0.46999998093E+01 0.  1.
</event>
<event>
 5   0  0.2277570E-03  0.9491954E+03  0.7818609E-02  0.9366091E-01
       -2   -1    0    0    0  501  0.00000000000E+00  0.00000000000E+00  0.17851704097E+03  0.17851704099E+03  0.25500000920E-02 0. -1.
        2   -1    0    0  501    0  0.00000000000E+00  0.00000000000E+00 -0.12617450443E+04  0.12617450443E+04  0.25500000920E-02 0.  1.
    10030    2    1    2    0    0  0.00000000000E+00  0.00000000000E+00 -0.10832280033E+04  0.14402620852E+04  0.94919543145E+03 0.  0.
        3    1    3    3  502    0  0.12812715781E+03  0.30765623406E+03 -0.28906583624E+02  0.33452134118E+03  0.10100000352E+00 0. -1.
       -3    1    3    3    0  502 -0.12812715781E+03 -0.30765623406E+03 -0.10543214197E+04  0.11057407441E+04  0.10100000352E+00 0.  1.
</event>
<event>
 5   0  0.1293716E-03  0.9972889E+03  0.7818609E-02  0.9311523E-01
        1   -1    0    0  501    0  0.00000000000E+00  0.00000000000E+00  0.11318374550E+04  0.11318374550E+04  0.50400001928E-02 0.  1.
       -1   -1    0    0    0  501  0.00000000000E+00  0.00000000000E+00 -0.21968372491E+03  0.21968372497E+03  0.50400001928E-02 0. -1.
    10030    2    1    2    0    0  0.00000000000E+00  0.00000000000E+00  0.91215373011E+03  0.13515211800E+04  0.99728886118E+03 0.  0.
        3    1    3    3  502    0  0.15320338638E+03 -0.22781213145E+03  0.10201973401E+04  0.10564905431E+04  0.10100000352E+00 0.  1.
       -3    1    3    3    0  502 -0.15320338638E+03  0.22781213145E+03 -0.10804360996E+03  0.29503063687E+03  0.10100000352E+00 0. -1.
</event>
<event>
 5   0  0.1249195E-03  0.9814461E+03  0.7818609E-02  0.9329132E-01
        1   -1    0    0  501    0  0.00000000000E+00  0.00000000000E+00  0.10843902107E+04  0.10843902107E+04  0.50400001928E-02 0.  1.
       -1   -1    0    0    0  501  0.00000000000E+00  0.00000000000E+00 -0.22206870466E+03  0.22206870471E+03  0.50400001928E-02 0. -1.
    10030    2    1    2    0    0  0.00000000000E+00  0.00000000000E+00  0.86232150606E+03  0.13064589154E+04  0.98144613603E+03 0.  0.
        2    1    3    3  502    0 -0.13038555622E+03  0.15387946867E+03 -0.16434397953E+03  0.26016961345E+03  0.25500000920E-02 0. -1.
       -2    1    3    3    0  502  0.13038555622E+03 -0.15387946867E+03  0.10266654856E+04  0.10462893020E+04  0.25500000920E-02 0.  1.
</event>
<event>
 5   0  0.2264577E-03  0.9986083E+03  0.7818609E-02  0.9310073E-01
       -2   -1    0    0    0  501  0.00000000000E+00  0.00000000000E+00  0.20299556382E+03  0.20299556384E+03  0.25500000920E-02 0. -1.
        2   -1    0    0  501    0  0.00000000000E+00  0.00000000000E+00 -0.12281284601E+04  0.12281284601E+04  0.25500000920E-02 0.  1.
    10030    2    1    2    0    0  0.00000000000E+00  0.00000000000E+00 -0.10251328963E+04  0.14311240240E+04  0.99860829002E+03 0.  0.
        5    1    3    3  502    0 -0.47239246131E+03 -0.65486450473E+02 -0.72435511676E+03  0.86726901125E+03  0.46999998093E+01 0.  1.
       -5    1    3    3    0  502  0.47239246131E+03  0.65486450473E+02 -0.30077777954E+03  0.56385501271E+03  0.46999998093E+01 0. -1.
</event>
<event>
 5   0  0.2277570E-03  0.1000802E+04  0.7818609E-02  0.9307666E-01
        2   -1    0    0  501    0  0.00000000000E+00  0.00000000000E+00  0.14463069912E+04  0.14463069912E+04  0.25500000920E-02 0. -1.
       -2   -1    0    0    0  501  0.00000000000E+00  0.00000000000E+00 -0.17313125285E+03  0.17313125287E+03  0.25500000920E-02 0.  1.
    10030    2    1    2    0    0  0.00000000000E+00  0.00000000000E+00  0.12731757383E+04  0.16194382440E+04  0.10008015616E+04 0.  0.
        3    1    3    3  502    0 -0.48102756361E+02 -0.21976102650E+03  0.13598664833E+04  0.13783488842E+04  0.10100000352E+00 0. -1.
       -3    1    3    3    0  502  0.48102756361E+02  0.21976102650E+03 -0.86690745028E+02  0.24108935981E+03  0.10100000352E+00 0.  1.
</event>
<event>
 5   0  0.1353789E-03  0.9976078E+03  0.7818609E-02  0.9311172E-01
        1   -1    0    0  501    0  0.00000000000E+00  0.00000000000E+00  0.89051348284E+03  0.89051348286E+03  0.50400001928E-02 0.  1.
       -1   -1    0    0    0  501  0.00000000000E+00  0.00000000000E+00 -0.27939537623E+03  0.27939537628E+03  0.50400001928E-02 0. -1.
    10030    2    1    2    0    0  0.00000000000E+00  0.00000000000E+00  0.61111810661E+03  0.11699088591E+04  0.99760783801E+03 0.  0.
        1    1    3    3  502    0 -0.45055869834E+02 -0.10205104351E+03 -0.26457895862E+03  0.28713493737E+03  0.50400001928E-02 0. -1.
       -1    1    3    3    0  502  0.45055869834E+02  0.10205104351E+03  0.87569706523E+03  0.88277392177E+03  0.50400001928E-02 0.  1.
</event>
<event>
 5   0  0.2255142E-03  0.9988473E+03  0.7818609E-02  0.9309810E-01
        2   -1    0    0  501    0  0.00000000000E+00  0.00000000000E+00  0.88729715386E+03  0.88729715386E+03  0.25500000920E-02 0.  1.
       -2   -1    0    0    0  501  0.00000000000E+00  0.00000000000E+00 -0.28110533788E+03  0.28110533789E+03  0.25500000920E-02 0. -1.
    10030    2    1    2    0    0  0.00000000000E+00  0.00000000000E+00  0.60619181598E+03  0.11684024918E+04  0.99884726809E+03 0.  0.
        4    1    3    3  502    0  0.25528078417E+03  0.38104965929E+03  0.71925096308E+02  0.46426496097E+03  0.12699999809E+01 0. -1.
       -4    1    3    3    0  502 -0.25528078417E+03 -0.38104965929E+03  0.53426671967E+03  0.70413753078E+03  0.12699999809E+01 0.  1.
</event>
<event>
 5   0  0.2204862E-03  0.1001321E+04  0.7818609E-02  0.9307097E-01
       -2   -1    0    0    0  501  0.00000000000E+00  0.00000000000E+00  0.15760714404E+03  0.15760714406E+03  0.25500000920E-02 0. -1.
        2   -1    0    0  501    0  0.00000000000E+00  0.00000000000E+00 -0.15904169804E+04  0.15904169804E+04  0.25500000920E-02 0.  1.
    10030    2    1    2    0    0  0.00000000000E+00  0.00000000000E+00 -0.14328098364E+04  0.17480241245E+04  0.10013212834E+04 0.  0.
        1    1    3    3  502    0 -0.15921694124E+03  0.35521775280E+03 -0.12660464947E+04  0.13245389436E+04  0.50400001928E-02 0. -1.
       -1    1    3    3    0  502  0.15921694124E+03 -0.35521775280E+03 -0.16676334164E+03  0.42348518088E+03  0.50400001928E-02 0.  1.
</event>
<event>
 5   0  0.2277570E-03  0.9874375E+03  0.7818609E-02  0.9322431E-01
        2   -1    0    0  501    0  0.00000000000E+00  0.00000000000E+00  0.11318335129E+04  0.11318335129E+04  0.25500000920E-02 0.  1.
       -2   -1    0    0    0  501  0.00000000000E+00  0.00000000000E+00 -0.21536578808E+03  0.21536578810E+03  0.25500000920E-02 0. -1.
    10030    2    1    2    0    0  0.00000000000E+00  0.00000000000E+00  0.91646772482E+03  0.13471993010E+04  0.98743752511E+03 0.  0.
        3    1    3    3  502    0  0.12723373968E+03 -0.46338215685E+03  0.30359487351E+03  0.56840241486E+03  0.10100000352E+00 0.  1.
       -3    1    3    3    0  502 -0.12723373968E+03  0.46338215685E+03  0.61287285130E+03  0.77879688614E+03  0.10100000352E+00 0. -1.
</event>
<event>
 5   0  0.1285769E-03  0.9985733E+03  0.7818609E-02  0.9310111E-01
        1   -1    0    0  501    0  0.00000000000E+00  0.00000000000E+00  0.40214228242E+03  0.40214228245E+03  0.50400001928E-02 0. -1.
       -1   -1    0    0    0  501  0.00000000000E+00  0.00000000000E+00 -0.61989785730E+03  0.61989785732E+03  0.50400001928E-02 0.  1.
    10030    2    1    2    0    0  0.00000000000E+00  0.00000000000E+00 -0.21775557488E+03  0.10220401398E+04  0.99857326066E+03 0.  0.
        5    1    3    3  502    0  0.47903151398E+03  0.25292850951E+02  0.32773077331E+02  0.48083997784E+03  0.46999998093E+01 0. -1.
       -5    1    3    3    0  502 -0.47903151398E+03 -0.25292850951E+02 -0.25052865221E+03  0.54120016193E+03  0.46999998093E+01 0.  1.
</event>
<event>
 5   0  0.1249195E-03  0.9981020E+03  0.7818609E-02  0.9310629E-01
        1   -1    0    0  501    0  0.00000000000E+00  0.00000000000E+00  0.53854013100E+03  0.53854013102E+03  0.50400001928E-02 0. -1.
       -1   -1    0    0    0  501  0.00000000000E+00  0.00000000000E+00 -0.46245748814E+03  0.46245748817E+03  0.50400001928E-02 0.  1.
    10030    2    1    2    0    0  0.00000000000E+00  0.00000000000E+00  0.76082642855E+02  0.10009976192E+04  0.99810203140E+03 0.  0.
        2    1    3    3  502    0  0.36329312121E+03 -0.28588284571E+03  0.22657878607E+03  0.51482894217E+03  0.25500000920E-02 0. -1.
       -2    1    3    3    0  502 -0.36329312121E+03  0.28588284571E+03 -0.15049614321E+03  0.48616867702E+03  0.25500000920E-02 0.  1.
</event>
<event>
 5   0  0.1353789E-03  0.9990506E+03  0.7818609E-02  0.9309587E-01
       -1   -1    0    0    0  501  0.00000000000E+00  0.00000000000E+00  0.18946601406E+03  0.18946601413E+03  0.50400001928E-02 0. -1.
        1   -1    0    0  501    0  0.00000000000E+00  0.00000000000E+00 -0.13169934778E+04  0.13169934778E+04  0.50400001928E-02 0.  1.
    10030    2    1    2    0    0  0.00000000000E+00  0.00000000000E+00 -0.11275274638E+04  0.15064594920E+04  0.99905055898E+03 0.  0.
        1    1    3    3  502    0 -0.24049744938E+03 -0.39531358369E+03 -0.28000100429E+03  0.54084416890E+03  0.50400001928E-02 0. -1.
       -1    1    3    3    0  502  0.24049744938E+03  0.39531358369E+03 -0.84752645948E+03  0.96561532307E+03  0.50400001928E-02 0.  1.
</event>
<event>
 5   0  0.2284843E-03  0.1000075E+04  0.7818609E-02  0.9308463E-01
       -2   -1    0    0    0  501  0.00000000000E+00  0.00000000000E+00  0.29302840592E+03  0.29302840593E+03  0.25500000920E-02 0. -1.
        2   -1    0    0  501    0  0.00000000000E+00  0.00000000000E+00 -0.85328735425E+03  0.85328735426E+03  0.25500000920E-02 0.  1.
    10030    2    1    2    0    0  0.00000000000E+00  0.00000000000E+00 -0.56025894833E+03  0.11463157602E+04  0.10000748636E+04 0.  0.
        2    1    3    3  502    0  0.21763478874E+03  0.38403058275E+03 -0.54941556574E+03  0.70477078092E+03  0.25500000920E-02 0.  1.
       -2    1    3    3    0  502 -0.21763478874E+03 -0.38403058275E+03 -0.10843382592E+02  0.44154497926E+03  0.25500000920E-02 0. -1.
</event>
<event>
 5   0  0.2255142E-03  0.9988764E+03  0.7818609E-02  0.9309778E-01
       -2   -1    0    0    0  501  0.00000000000E+00  0.00000000000E+00  0.27015557933E+03  0.27015557934E+03  0.25500000920E-02 0.  1.
        2   -1    0    0  501    0  0.00000000000E+00  0.00000000000E+00 -0.92331441158E+03  0.92331441159E+03  0.25500000920E-02 0. -1.
    10030    2    1    2    0    0  0.00000000000E+00  0.00000000000E+00 -0.65315883226E+03  0.11934699909E+04  0.99887644836E+03 0.  0.
        4    1    3    3  502    0  0.13777187679E+03 -0.44172034653E+03 -0.55118817486E+03  0.71965823248E+03  0.12699999809E+01 0. -1.
       -4    1    3    3    0  502 -0.13777187679E+03  0.44172034653E+03 -0.10197065740E+03  0.47381175845E+03  0.12699999809E+01 0.  1.
</event>
<event>
 5   0  0.1249195E-03  0.9997804E+03  0.7818609E-02  0.9308786E-01
       -1   -1    0    0    0  501  0.00000000000E+00  0.00000000000E+00  0.25300629519E+03  0.25300629524E+03  0.50400001928E-02 0.  1.
        1   -1    0    0  501    0  0.00000000000E+00  0.00000000000E+00 -0.98768385957E+03  0.98768385959E+03  0.50400001928E-02 0. -1.
    10030    2    1    2    0    0  0.00000000000E+00  0.00000000000E+00 -0.73467756438E+03  0.12406901548E+04  0.99978044424E+03 0.  0.
        2    1    3    3  502    0  0.18458717358E+03 -0.46192773541E+03 -0.42864505808E+03  0.65664773145E+03  0.25500000920E-02 0.  1.
       -2    1    3    3    0  502 -0.18458717358E+03  0.46192773541E+03 -0.30603250630E+03  0.58404242338E+03  0.25500000920E-02 0. -1.
</event>
<event>
 5   0  0.1285769E-03  0.9933533E+03  0.7818609E-02  0.9315865E-01
        1   -1    0    0  501    0  0.00000000000E+00  0.00000000000E+00  0.36731853723E+03  0.36731853726E+03  0.50400001928E-02 0.  1.
       -1   -1    0    0    0  501  0.00000000000E+00  0.00000000000E+00 -0.67159059074E+03  0.67159059076E+03  0.50400001928E-02 0. -1.
    10030    2    1    2    0    0  0.00000000000E+00  0.00000000000E+00 -0.30427205351E+03  0.10389091280E+04  0.99335325728E+03 0.  0.
        5    1    3    3  502    0  0.18208848077E+03 -0.26493155646E+03 -0.54807496102E+03  0.63541576730E+03  0.46999998093E+01 0. -1.
       -5    1    3    3    0  502 -0.18208848077E+03  0.26493155646E+03  0.24380290752E+03  0.40349336072E+03  0.46999998093E+01 0.  1.
</event>
<event>
 5   0  0.1249195E-03  0.1042182E+04  0.7818609E-02  0.9263453E-01
        1   -1    0    0  501    0  0.00000000000E+00  0.00000000000E+00  0.87362273782E+03  0.87362273784E+03  0.50400001928E-02 0.  1.
       -1   -1    0    0    0  501  0.00000000000E+00  0.00000000000E+00 -0.31081577398E+03  0.31081577402E+03  0.50400001928E-02 0. -1.
    10030    2    1    2    0    0  0.00000000000E+00  0.00000000000E+00  0.56280696385E+03  0.11844385119E+04  0.10421818027E+04 0.  0.
        2    1    3    3  502    0  0.26165045547E+03 -0.23779629572E+03  0.71644317442E+03  0.79893608085E+03  0.25500000920E-02 0.  1.
       -2    1    3    3    0  502 -0.26165045547E+03  0.23779629572E+03 -0.15363621057E+03  0.38550243100E+03  0.25500000920E-02 0. -1.
</event>
<event>
 5   0  0.8680125E-04  0.9997554E+03  0.7818609E-02  0.9308813E-01
       -3   -1    0    0    0  501  0.00000000000E+00  0.00000000000E+00  0.10654126294E+04  0.10654126342E+04  0.10100000352E+00 0.  1.
        3   -1    0    0  501    0  0.00000000000E+00  0.00000000000E+00 -0.23453609049E+03  0.23453611224E+03  0.10100000352E+00 0. -1.
    10030    2    1    2    0    0  0.00000000000E+00  0.00000000000E+00  0.83087653895E+03  0.12999487465E+04  0.99975543033E+03 0.  0.
        4    1    3    3  502    0  0.17720729667E+01  0.21860953069E+02 -0.23390806733E+03  0.23493752015E+03  0.12699999809E+01 0. -1.
       -4    1    3    3    0  502 -0.17720729667E+01 -0.21860953069E+02  0.10647846063E+04  0.10650112263E+04  0.12699999809E+01 0.  1.
</event>
<event>
 5   0  0.2284843E-03  0.9660428E+03  0.7818609E-02  0.9346593E-01
       -2   -1    0    0    0  501  0.00000000000E+00  0.00000000000E+00  0.29227383346E+03  0.29227383347E+03  0.25500000920E-02 0. -1.
        2   -1    0    0  501    0  0.00000000000E+00  0.00000000000E+00 -0.79825719818E+03  0.79825719818E+03  0.25500000920E-02 0.  1.
    10030    2    1    2    0    0  0.00000000000E+00  0.00000000000E+00 -0.50598336471E+03  0.10905310317E+04  0.96604283841E+03 0.  0.
        2    1    3    3  502    0 -0.17580546166E+03 -0.15026014414E+03  0.22571059562E+03  0.32315776990E+03  0.25500000920E-02 0. -1.
       -2    1    3    3    0  502  0.17580546166E+03  0.15026014414E+03 -0.73169396033E+03  0.76737326175E+03  0.25500000920E-02 0.  1.
</event>
<event>
 5   0  0.2277570E-03  0.1003105E+04  0.7818609E-02  0.9305145E-01
       -2   -1    0    0    0  501  0.00000000000E+00  0.00000000000E+00  0.98461212590E+02  0.98461212623E+02  0.25500000920E-02 0.  1.
        2   -1    0    0  501    0  0.00000000000E+00  0.00000000000E+00 -0.25548646900E+04  0.25548646900E+04  0.25500000920E-02 0. -1.
    10030    2    1    2    0    0  0.00000000000E+00  0.00000000000E+00 -0.24564034774E+04  0.26533259026E+04  0.10031053293E+04 0.  0.
        3    1    3    3  502    0 -0.31292936204E+02  0.14715398577E+03 -0.24937752349E+04  0.24983091233E+04  0.10100000352E+00 0. -1.
       -3    1    3    3    0  502  0.31292936204E+02 -0.14715398577E+03  0.37371757532E+02  0.15501677924E+03  0.10100000352E+00 0.  1.
</event>
<event>
 5   0  0.2284843E-03  0.9794277E+03  0.7818609E-02  0.9331400E-01
       -2   -1    0    0    0  501  0.00000000000E+00  0.00000000000E+00  0.16984789461E+03  0.16984789463E+03  0.25500000920E-02 0.  1.
        2   -1    0    0  501    0  0.00000000000E+00  0.00000000000E+00 -0.14119673044E+04  0.14119673044E+04  0.25500000920E-02 0. -1.
    10030    2    1    2    0    0  0.00000000000E+00  0.00000000000E+00 -0.12421194098E+04  0.15818151990E+04  0.97942773889E+03 0.  0.
        2    1    3    3  502    0 -0.13878394585E+03 -0.19648515523E+03  0.67849659789E+02  0.24994194564E+03  0.25500000920E-02 0.  1.
       -2    1    3    3    0  502  0.13878394585E+03  0.19648515523E+03 -0.13099690695E+04  0.13318732534E+04  0.25500000920E-02 0. -1.
</event>
<event>
 5   0  0.1293716E-03  0.1017155E+04  0.7818609E-02  0.9289927E-01
        1   -1    0    0  501    0  0.00000000000E+00  0.00000000000E+00  0.84200234733E+03  0.84200234734E+03  0.50400001928E-02 0.  1.
       -1   -1    0    0    0  501  0.00000000000E+00  0.00000000000E+00 -0.30718587027E+03  0.30718587031E+03  0.50400001928E-02 0. -1.
    10030    2    1    2    0    0  0.00000000000E+00  0.00000000000E+00  0.53481647706E+03  0.11491882177E+04  0.10171552956E+04 0.  0.
        3    1    3    3  502    0 -0.17084339375E+03  0.12171443024E+03  0.79085038097E+03  0.81819692189E+03  0.10100000352E+00 0.  1.
       -3    1    3    3    0  502  0.17084339375E+03 -0.12171443024E+03 -0.25603390391E+03  0.33099129576E+03  0.10100000352E+00 0. -1.
</event>
<event>
 5   0  0.1285769E-03  0.9991417E+03  0.7818609E-02  0.9309487E-01
        1   -1    0    0  501    0  0.00000000000E+00  0.00000000000E+00  0.29608162974E+03  0.29608162978E+03  0.50400001928E-02 0. -1.
       -1   -1    0    0    0  501  0.00000000000E+00  0.00000000000E+00 -0.84291300465E+03  0.84291300467E+03  0.50400001928E-02 0.  1.
    10030    2    1    2    0    0  0.00000000000E+00  0.00000000000E+00 -0.54683137491E+03  0.11389946345E+04  0.99914174406E+03 0.  0.
        5    1    3    3  502    0 -0.18964715006E+03 -0.17682175634E+03  0.21333676295E+03  0.33580744403E+03  0.46999998093E+01 0. -1.
       -5    1    3    3    0  502  0.18964715006E+03  0.17682175634E+03 -0.76016813786E+03  0.80318719043E+03  0.46999998093E+01 0.  1.
</event>
<event>
 5   0  0.2264577E-03  0.9997072E+03  0.7818609E-02  0.9308866E-01
        2   -1    0    0  501    0  0.00000000000E+00  0.00000000000E+00  0.22658992383E+04  0.22658992383E+04  0.25500000920E-02 0. -1.
       -2   -1    0    0    0  501  0.00000000000E+00  0.00000000000E+00 -0.11026687804E+03  0.11026687807E+03  0.25500000920E-02 0.  1.
    10030    2    1    2    0    0  0.00000000000E+00  0.00000000000E+00  0.21556323602E+04  0.23761661163E+04  0.99970722713E+03 0.  0.
        5    1    3    3  502    0 -0.27905865527E+03  0.36768794423E+03  0.15335504929E+04  0.16015203282E+04  0.46999998093E+01 0. -1.
       -5    1    3    3    0  502  0.27905865527E+03 -0.36768794423E+03  0.62208186736E+03  0.77464578816E+03  0.46999998093E+01 0.  1.
</event>
<event>
 5   0  0.1285769E-03  0.1024309E+04  0.7818609E-02  0.9282278E-01
        1   -1    0    0  501    0  0.00000000000E+00  0.00000000000E+00  0.92345172442E+03  0.92345172443E+03  0.50400001928E-02 0. -1.
       -1   -1    0    0    0  501  0.00000000000E+00  0.00000000000E+00 -0.28404535604E+03  0.28404535608E+03  0.50400001928E-02 0.  1.
    10030    2    1    2    0    0  0.00000000000E+00  0.00000000000E+00  0.63940636838E+03  0.12074970805E+04  0.10243088868E+04 0.  0.
        5    1    3    3  502    0  0.18604346465E+03  0.33801660407E+03 -0.77292670176E+02  0.39352718105E+03  0.46999998093E+01 0.  1.
       -5    1    3    3    0  502 -0.18604346465E+03 -0.33801660407E+03  0.71669903855E+03  0.81396989946E+03  0.46999998093E+01 0. -1.
</event>
<event>
 5   0  0.1249195E-03  0.9998571E+03  0.7818609E-02  0.9308702E-01
        1   -1    0    0  501    0  0.00000000000E+00  0.00000000000E+00  0.11345264320E+04  0.11345264320E+04  0.50400001928E-02 0.  1.
       -1   -1    0    0    0  501  0.00000000000E+00  0.00000000000E+00 -0.22029327994E+03  0.22029328000E+03  0.50400001928E-02 0. -1.
    10030    2    1    2    0    0  0.00000000000E+00  0.00000000000E+00  0.91423315204E+03  0.13548197120E+04  0.99985708765E+03 0.  0.
        2    1    3    3  502    0 -0.36360355570E+03 -0.17462291606E+03  0.56922056001E+02  0.40735835451E+03  0.25500000920E-02 0. -1.
       -2    1    3    3    0  502  0.36360355570E+03  0.17462291606E+03  0.85731109604E+03  0.94746135748E+03  0.25500000920E-02 0.  1.
</event>
<event>
 5   0  0.2264577E-03  0.9987965E+03  0.7818609E-02  0.9309866E-01
       -2   -1    0    0    0  501  0.00000000000E+00  0.00000000000E+00  0.61504243014E+03  0.61504243015E+03  0.25500000920E-02 0.  1.
        2   -1    0    0  501    0  0.00000000000E+00  0.00000000000E+00 -0.40549818993E+03  0.40549818994E+03  0.25500000920E-02 0. -1.
    10030    2    1    2    0    0  0.00000000000E+00  0.00000000000E+00  0.20954424021E+03  0.10205406201E+04  0.99879646006E+03 0.  0.
        5    1    3    3  502    0 -0.16304941822E+03 -0.13034772406E+03  0.56830110249E+03  0.60544518747E+03  0.46999998093E+01 0.  1.
       -5    1    3    3    0  502  0.16304941822E+03  0.13034772406E+03 -0.35875686228E+03  0.41509543261E+03  0.46999998093E+01 0. -1.
</event>
<event>
 5   0  0.1353789E-03  0.1014944E+04  0.7818609E-02  0.9292304E-01
       -1   -1    0    0    0  501  0.00000000000E+00  0.00000000000E+00  0.21787449220E+03  0.21787449226E+03  0.50400001928E-02 0.  1.
        1   -1    0    0  501    0  0.00000000000E+00  0.00000000000E+00 -0.11820017667E+04  0.11820017667E+04  0.50400001928E-02 0. -1.
    10030    2    1    2    0    0  0.00000000000E+00  0.00000000000E+00 -0.96412727449E+03  0.13998762590E+04  0.10149444019E+04 0.  0.
        1    1    3    3  502    0  0.42201764219E+03  0.16768745295E+03 -0.79449071567E+03  0.91511391068E+03  0.50400001928E-02 0. -1.
       -1    1    3    3    0  502 -0.42201764219E+03 -0.16768745295E+03 -0.16963655881E+03  0.48476234828E+03  0.50400001928E-02 0.  1.
</event>
<event>
 5   0  0.2277570E-03  0.1003893E+04  0.7818609E-02  0.9304285E-01
        2   -1    0    0  501    0  0.00000000000E+00  0.00000000000E+00  0.13692502607E+04  0.13692502607E+04  0.25500000920E-02 0.  1.
       -2   -1    0    0    0  501  0.00000000000E+00  0.00000000000E+00 -0.18400598141E+03  0.18400598143E+03  0.25500000920E-02 0. -1.
    10030    2    1    2    0    0  0.00000000000E+00  0.00000000000E+00  0.11852442793E+04  0.15532562422E+04  0.10038928988E+04 0.  0.
        3    1    3    3  502    0  0.56682733666E+02  0.44344700551E+03  0.94575769375E+03  0.10460955045E+04  0.10100000352E+00 0.  1.
       -3    1    3    3    0  502 -0.56682733666E+02 -0.44344700551E+03  0.23948658558E+03  0.50716073770E+03  0.10100000352E+00 0. -1.
</event>
<event>
 5   0  0.2204862E-03  0.9975173E+03  0.7818609E-02  0.9311272E-01
       -2   -1    0    0    0  501  0.00000000000E+00  0.00000000000E+00  0.45940979295E+03  0.45940979296E+03  0.25500000920E-02 0.  1.
        2   -1    0    0  501    0  0.00000000000E+00  0.00000000000E+00 -0.54147781415E+03  0.54147781415E+03  0.25500000920E-02 0. -1.
    10030    2    1    2    0    0  0.00000000000E+00  0.00000000000E+00 -0.82068021197E+02  0.10008876071E+04  0.99751733918E+03 0.  0.
        1    1    3    3  502    0 -0.37855008948E+03  0.21345896316E+03  0.20452805140E+03  0.48030888294E+03  0.50400001928E-02 0.  1.
       -1    1    3    3    0  502  0.37855008948E+03 -0.21345896316E+03 -0.28659607259E+03  0.52057872417E+03  0.50400001928E-02 0. -1.
</event>
<event>
 5   0  0.2277570E-03  0.9964127E+03  0.7818609E-02  0.9312488E-01
       -2   -1    0    0    0  501  0.00000000000E+00  0.00000000000E+00  0.81764092574E+03  0.81764092574E+03  0.25500000920E-02 0. -1.
        2   -1    0    0  501    0  0.00000000000E+00  0.00000000000E+00 -0.30356796449E+03  0.30356796450E+03  0.25500000920E-02 0.  1.
    10030    2    1    2    0    0  0.00000000000E+00  0.00000000000E+00  0.51407296125E+03  0.11212088902E+04  0.99641274884E+03 0.  0.
        3    1    3    3  502    0  0.32060244765E+03  0.28685512940E+03 -0.25706566180E+02  0.43096708975E+03  0.10100000352E+00 0.  1.
       -3    1    3    3    0  502 -0.32060244765E+03 -0.28685512940E+03  0.53977952743E+03  0.69024180049E+03  0.10100000352E+00 0. -1.
</event>
<event>
 5   0  0.1249195E-03  0.9984409E+03  0.7818609E-02  0.9310256E-01
       -1   -1    0    0    0  501  0.00000000000E+00  0.00000000000E+00  0.21749471583E+03  0.21749471588E+03  0.50400001928E-02 0. -1.
        1   -1    0    0  501    0  0.00000000000E+00  0.00000000000E+00 -0.11458718006E+04  0.11458718006E+04  0.50400001928E-02 0.  1.
    10030    2    1    2    0    0  0.00000000000E+00  0.00000000000E+00 -0.92837708479E+03  0.13633665165E+04  0.99844090800E+03 0.  0.
        2    1    3    3  502    0 -0.20097775114E+02 -0.43628686398E+03 -0.79437571428E+03  0.90652243419E+03  0.25500000920E-02 0. -1.
       -2    1    3    3    0  502  0.20097775114E+02  0.43628686398E+03 -0.13400137051E+03  0.45684408232E+03  0.25500000920E-02 0.  1.
</event>
<event>
 5   0  0.2255142E-03  0.9965666E+03  0.7818609E-02  0.9312319E-01
       -2   -1    0    0    0  501  0.00000000000E+00  0.00000000000E+00  0.38787123301E+03  0.38787123302E+03  0.25500000920E-02 0. -1.
        2   -1    0    0  501    0  0.00000000000E+00  0.00000000000E+00 -0.64012542337E+03  0.64012542337E+03  0.25500000920E-02 0.  1.
    10030    2    1    2    0    0  0.00000000000E+00  0.00000000000E+00 -0.25225419036E+03  0.10279966564E+04  0.99656658031E+03 0.  0.
        4    1    3    3  502    0 -0.34318828732E+03  0.33323806774E+02  0.24493425530E+03  0.42294571634E+03  0.12699999809E+01 0. -1.
       -4    1    3    3    0  502  0.34318828732E+03 -0.33323806774E+02 -0.49718844566E+03  0.60505094004E+03  0.12699999809E+01 0.  1.
</event>
<event>
 5   0  0.1285769E-03  0.1002836E+04  0.7818609E-02  0.9305440E-01
       -1   -1    0    0    0  501  0.00000000000E+00  0.00000000000E+00  0.20573879206E+03  0.20573879212E+03  0.50400001928E-02 0. -1.
        1   -1    0    0  501    0  0.00000000000E+00  0.00000000000E+00 -0.12220343503E+04  0.12220343503E+04  0.50400001928E-02 0.  1.
    10030    2    1    2    0    0  0.00000000000E+00  0.00000000000E+00 -0.10162955583E+04  0.14277731424E+04  0.10028357216E+04 0.  0.
        5    1    3    3  502    0  0.51679533373E+02 -0.96471456185E+02 -0.12047901198E+04  0.12097598269E+04  0.46999998093E+01 0.  1.
       -5    1    3    3    0  502 -0.51679533373E+02  0.96471456185E+02  0.18849456153E+03  0.21801331554E+03  0.46999998093E+01 0. -1.
</event>
<event>
 5   0  0.8680125E-04  0.1000127E+04  0.7818609E-02  0.9308406E-01
       -4   -1    0    0    0  501  0.00000000000E+00  0.00000000000E+00  0.10465299135E+04  0.10465306841E+04  0.12699999809E+01 0.  1.
        4   -1    0    0  501    0  0.00000000000E+00  0.00000000000E+00 -0.23894284510E+03  0.23894622015E+03  0.12699999809E+01 0. -1.
    10030    2    1    2    0    0  0.00000000000E+00  0.00000000000E+00  0.80758706844E+03  0.12854769043E+04  0.10001269911E+04 0.  0.
        3    1    3    3  502    0 -0.21639806642E+03  0.28556614291E+03  0.85215867163E+03  0.92441903754E+03  0.10100000352E+00 0. -1.
       -3    1    3    3    0  502  0.21639806642E+03 -0.28556614291E+03 -0.44571603192E+02  0.36105786674E+03  0.10100000352E+00 0.  1.
</event>
<event>
 5   0  0.8680125E-04  0.9994450E+03  0.7818609E-02  0.9309154E-01
       -3   -1    0    0    0  501  0.00000000000E+00  0.00000000000E+00  0.23202042677E+03  0.23202044876E+03  0.10100000352E+00 0.  1.
        3   -1    0    0  501    0  0.00000000000E+00  0.00000000000E+00 -0.10762956396E+04  0.10762956444E+04  0.10100000352E+00 0. -1.
    10030    2    1    2    0    0  0.00000000000E+00  0.00000000000E+00 -0.84427521284E+03  0.13083160931E+04  0.99944502824E+03 0.  0.
        3    1    3    3  502    0 -0.15050245145E+03 -0.11444448268E+03  0.18339053092E+03  0.26340202076E+03  0.10100000352E+00 0.  1.
       -3    1    3    3    0  502  0.15050245145E+03  0.11444448268E+03 -0.10276657438E+04  0.10449140723E+04  0.10100000352E+00 0. -1.
</event>
<event>
 5   0  0.8680125E-04  0.1001318E+04  0.7818609E-02  0.9307100E-01
        3   -1    0    0  501    0  0.00000000000E+00  0.00000000000E+00  0.42756589590E+03  0.42756590783E+03  0.10100000352E+00 0. -1.
       -3   -1    0    0    0  501  0.00000000000E+00  0.00000000000E+00 -0.58624780886E+03  0.58624781756E+03  0.10100000352E+00 0.  1.
    10030    2    1    2    0    0  0.00000000000E+00  0.00000000000E+00 -0.15868191296E+03  0.10138137254E+04  0.10013182912E+04 0.  0.
        3    1    3    3  502    0  0.48654171315E+02  0.42525817857E+03 -0.34228902525E+03  0.54806343961E+03  0.10100000352E+00 0.  1.
       -3    1    3    3    0  502 -0.48654171315E+02 -0.42525817857E+03  0.18360711229E+03  0.46575028578E+03  0.10100000352E+00 0. -1.
</event>
<event>
 5   0  0.8680125E-04  0.1000184E+04  0.7818609E-02  0.9308343E-01
        3   -1    0    0  501    0  0.00000000000E+00  0.00000000000E+00  0.11943589820E+04  0.11943589863E+04  0.10100000352E+00 0.  1.
       -3   -1    0    0    0  501  0.00000000000E+00  0.00000000000E+00 -0.20939424925E+03  0.20939427360E+03  0.10100000352E+00 0. -1.
    10030    2    1    2    0    0  0.00000000000E+00  0.00000000000E+00  0.98496473275E+03  0.14037532599E+04  0.10001838280E+04 0.  0.
        2    1    3    3  502    0  0.28924335272E+03  0.46164106999E+02 -0.76407917167E+02  0.30270614741E+03  0.25500000920E-02 0. -1.
       -2    1    3    3    0  502 -0.28924335272E+03 -0.46164106999E+02  0.10613726499E+04  0.11010471125E+04  0.25500000920E-02 0.  1.
</event>
<event>
 5   0  0.1249195E-03  0.1000892E+04  0.7818609E-02  0.9307567E-01
       -1   -1    0    0    0  501  0.00000000000E+00  0.00000000000E+00  0.27108295135E+03  0.27108295139E+03  0.50400001928E-02 0.  1.
        1   -1    0    0  501    0  0.00000000000E+00  0.00000000000E+00 -0.92387315482E+03  0.92387315483E+03  0.50400001928E-02 0. -1.
    10030    2    1    2    0    0  0.00000000000E+00  0.00000000000E+00 -0.65279020347E+03  0.11949561062E+04  0.10008921251E+04 0.  0.
        2    1    3    3  502    0 -0.36265552635E+03 -0.29351515417E+03 -0.54253911903E+03  0.71555494003E+03  0.25500000920E-02 0.  1.
       -2    1    3    3    0  502  0.36265552635E+03  0.29351515417E+03 -0.11025108444E+03  0.47940116620E+03  0.25500000920E-02 0. -1.
</event>
<event>
 5   0  0.1293716E-03  0.1002606E+04  0.7818609E-02  0.9305691E-01
        1   -1    0    0  501    0  0.00000000000E+00  0.00000000000E+00  0.63012237968E+03  0.63012237970E+03  0.50400001928E-02 0.  1.
       -1   -1    0    0    0  501  0.00000000000E+00  0.00000000000E+00 -0.39881883185E+03  0.39881883188E+03  0.50400001928E-02 0. -1.
    10030    2    1    2    0    0  0.00000000000E+00  0.00000000000E+00  0.23130354783E+03  0.10289412116E+04  0.10026059473E+04 0.  0.
        3    1    3    3  502    0 -0.13927523310E+03 -0.30009102065E+03 -0.27087422052E+03  0.42758047754E+03  0.10100000352E+00 0. -1.
       -3    1    3    3    0  502  0.13927523310E+03  0.30009102065E+03  0.50217776834E+03  0.60136073404E+03  0.10100000352E+00 0.  1.
</event>
<event>
 5   0  0.1285769E-03  0.1002228E+04  0.7818609E-02  0.9306105E-01
        1   -1    0    0  501    0  0.00000000000E+00  0.00000000000E+00  0.26390606618E+03  0.26390606623E+03  0.50400001928E-02 0. -1.
       -1   -1    0    0    0  501  0.00000000000E+00  0.00000000000E+00 -0.95153205136E+03  0.95153205137E+03  0.50400001928E-02 0.  1.
    10030    2    1    2    0    0  0.00000000000E+00  0.00000000000E+00 -0.68762598517E+03  0.12154381176E+04  0.10022276798E+04 0.  0.
        5    1    3    3  502    0  0.12366173644E+03  0.78304799655E+02 -0.92500250119E+03  0.93652313582E+03  0.46999998093E+01 0.  1.
       -5    1    3    3    0  502 -0.12366173644E+03 -0.78304799655E+02  0.23737651602E+03  0.27891498179E+03  0.46999998093E+01 0. -1.
</event>
<event>
 5   0  0.2264577E-03  0.9953499E+03  0.7818609E-02  0.9313660E-01
       -2   -1    0    0    0  501  0.00000000000E+00  0.00000000000E+00  0.26354183586E+03  0.26354183587E+03  0.25500000920E-02 0.  1.
        2   -1    0    0  501    0  0.00000000000E+00  0.00000000000E+00 -0.93981413673E+03  0.93981413673E+03  0.25500000920E-02 0. -1.
    10030    2    1    2    0    0  0.00000000000E+00  0.00000000000E+00 -0.67627230087E+03  0.12033559726E+04  0.99534987410E+03 0.  0.
        5    1    3    3  502    0 -0.24427746916E+03 -0.32967107675E+03  0.23231637687E+01  0.41034374356E+03  0.46999998093E+01 0.  1.
       -5    1    3    3    0  502  0.24427746916E+03  0.32967107675E+03 -0.67859546464E+03  0.79301222905E+03  0.46999998093E+01 0. -1.
</event>
<event>
 5   0  0.1353789E-03  0.1001031E+04  0.7818609E-02  0.9307415E-01
       -1   -1    0    0    0  501  0.00000000000E+00  0.00000000000E+00  0.19759214386E+03  0.19759214393E+03  0.50400001928E-02 0. -1.
        1   -1    0    0  501    0  0.00000000000E+00  0.00000000000E+00 -0.12678415111E+04  0.12678415111E+04  0.50400001928E-02 0.  1.
    10030    2    1    2    0    0  0.00000000000E+00  0.00000000000E+00 -0.10702493672E+04  0.14654336550E+04  0.10010305136E+04 0.  0.
        1    1    3    3  502    0 -0.48232072143E+02  0.21907044353E+03 -0.11901347677E+04  0.12110899873E+04  0.50400001928E-02 0.  1.
       -1    1    3    3    0  502  0.48232072143E+02 -0.21907044353E+03  0.11988540051E+03  0.25434366769E+03  0.50400001928E-02 0. -1.
</event>
<event>
 5   0  0.1285769E-03  0.9994355E+03  0.7818609E-02  0.9309164E-01
       -1   -1    0    0    0  501  0.00000000000E+00  0.00000000000E+00  0.49643272298E+03  0.49643272301E+03  0.50400001928E-02 0. -1.
        1   -1    0    0  501    0  0.00000000000E+00  0.00000000000E+00 -0.50302453272E+03  0.50302453275E+03  0.50400001928E-02 0.  1.
    10030    2    1    2    0    0  0.00000000000E+00  0.00000000000E+00 -0.65918097400E+01  0.99945725576E+03  0.99943551775E+03 0.  0.
        5    1    3    3  502    0 -0.13356511284E+03  0.40432528218E+03 -0.26479188924E+03  0.50145329571E+03  0.46999998093E+01 0.  1.
       -5    1    3    3    0  502  0.13356511284E+03 -0.40432528218E+03  0.25820007950E+03  0.49800396005E+03  0.46999998093E+01 0. -1.
</event>
<event>
 5   0  0.1293575E-03  0.1003239E+04  0.7818609E-02  0.9305000E-01
       -1   -1    0    0    0  501  0.00000000000E+00  0.00000000000E+00  0.48173771416E+03  0.48173771418E+03  0.50400001928E-02 0. -1.
        1   -1    0    0  501    0  0.00000000000E+00  0.00000000000E+00 -0.52232175786E+03  0.52232175788E+03  0.50400001928E-02 0.  1.
    10030    2    1    2    0    0  0.00000000000E+00  0.00000000000E+00 -0.40584043704E+02  0.10040594721E+04  0.10032389341E+04 0.  0.
        4    1    3    3  502    0  0.53616090390E+02  0.48741972904E+03 -0.12605626400E+03  0.50630472247E+03  0.12699999809E+01 0.  1.
       -4    1    3    3    0  502 -0.53616090390E+02 -0.48741972904E+03  0.85472220293E+02  0.49775474960E+03  0.12699999809E+01 0. -1.
</event>
<event>
 5   0  0.1249195E-03  0.9988491E+03  0.7818609E-02  0.9309808E-01
       -1   -1    0    0    0  501  0.00000000000E+00  0.00000000000E+00  0.17153029340E+03  0.17153029347E+03  0.50400001928E-02 0.  1.
        1   -1    0    0  501    0  0.00000000000E+00  0.00000000000E+00 -0.14541156305E+04  0.14541156305E+04  0.50400001928E-02 0. -1.
    10030    2    1    2    0    0  0.00000000000E+00  0.00000000000E+00 -0.12825853371E+04  0.16256459240E+04  0.99884909932E+03 0.  0.
        2    1    3    3  502    0 -0.19837500871E+03  0.34839921920E+02  0.10250029869E+03  0.22599286599E+03  0.25500000920E-02 0.  1.
       -2    1    3    3    0  502  0.19837500871E+03 -0.34839921920E+02 -0.13850856358E+04  0.13996530580E+04  0.25500000920E-02 0. -1.
</event>
<event>
 5   0  0.2284843E-03  0.1005490E+04  0.7818609E-02  0.9302544E-01
       -2   -1    0    0    0  501  0.00000000000E+00  0.00000000000E+00  0.25303958004E+03  0.25303958005E+03  0.25500000920E-02 0.  1.
        2   -1    0    0  501    0  0.00000000000E+00  0.00000000000E+00 -0.99886591058E+03  0.99886591058E+03  0.25500000920E-02 0. -1.
    10030    2    1    2    0    0  0.00000000000E+00  0.00000000000E+00 -0.74582633054E+03  0.12519054906E+04  0.10054901502E+04 0.  0.
        2    1    3    3  502    0 -0.31003718715E+03 -0.39456221035E+03 -0.41129314393E+03  0.64881772903E+03  0.25500000920E-02 0. -1.
       -2    1    3    3    0  502  0.31003718715E+03  0.39456221035E+03 -0.33453318661E+03  0.60308776161E+03  0.25500000920E-02 0.  1.
</event>
<event>
 5   0  0.2277570E-03  0.1004024E+04  0.7818609E-02  0.9304143E-01
       -2   -1    0    0    0  501  0.00000000000E+00  0.00000000000E+00  0.23255016447E+03  0.23255016448E+03  0.25500000920E-02 0.  1.
        2   -1    0    0  501    0  0.00000000000E+00  0.00000000000E+00 -0.10837056258E+04  0.10837056258E+04  0.25500000920E-02 0. -1.
    10030    2    1    2    0    0  0.00000000000E+00  0.00000000000E+00 -0.85115546137E+03  0.13162557903E+04  0.10040237478E+04 0.  0.
        3    1    3    3  502    0 -0.48665949317E+03 -0.71318238922E+02 -0.29387695691E+03  0.57296372442E+03  0.10100000352E+00 0.  1.
       -3    1    3    3    0  502  0.48665949317E+03  0.71318238922E+02 -0.55727850446E+03  0.74329206590E+03  0.10100000352E+00 0. -1.
</event>
<event>
 5   0  0.2255142E-03  0.9967143E+03  0.7818609E-02  0.9312156E-01
        2   -1    0    0  501    0  0.00000000000E+00  0.00000000000E+00  0.60504136517E+03  0.60504136518E+03  0.25500000920E-02 0.  1.
       -2   -1    0    0    0  501  0.00000000000E+00  0.00000000000E+00 -0.41048407752E+03  0.41048407753E+03  0.25500000920E-02 0. -1.
    10030    2    1    2    0    0  0.00000000000E+00  0.00000000000E+00  0.19455728766E+03  0.10155254427E+04  0.99671429537E+03 0.  0.
        4    1    3    3  502    0 -0.50428870909E+02  0.49557810275E+03  0.82252188604E+02  0.50488390980E+03  0.12699999809E+01 0. -1.
       -4    1    3    3    0  502  0.50428870909E+02 -0.49557810275E+03  0.11230509905E+03  0.51064153290E+03  0.12699999809E+01 0.  1.
</event>
<event>
 5   0  0.1285769E-03  0.1000977E+04  0.7818609E-02  0.9307473E-01
       -1   -1    0    0    0  501  0.00000000000E+00  0.00000000000E+00  0.31459726971E+03  0.31459726975E+03  0.50400001928E-02 0. -1.
        1   -1    0    0  501    0  0.00000000000E+00  0.00000000000E+00 -0.79622102264E+03  0.79622102265E+03  0.50400001928E-02 0.  1.
    10030    2    1    2    0    0  0.00000000000E+00  0.00000000000E+00 -0.48162375293E+03  0.11108182924E+04  0.10009774420E+04 0.  0.
        5    1    3    3  502    0  0.17743006607E+03 -0.33479681263E+03 -0.60363967028E+03  0.71272243940E+03  0.46999998093E+01 0.  1.
       -5    1    3    3    0  502 -0.17743006607E+03  0.33479681263E+03  0.12201591735E+03  0.39809585300E+03  0.46999998093E+01 0. -1.
</event>
<event>
 5   0  0.2204862E-03  0.9992697E+03  0.7818609E-02  0.9309346E-01
       -2   -1    0    0    0  501  0.00000000000E+00  0.00000000000E+00  0.30259310942E+03  0.30259310943E+03  0.25500000920E-02 0.  1.
        2   -1    0    0  501    0  0.00000000000E+00  0.00000000000E+00 -0.82498562407E+03  0.82498562407E+03  0.25500000920E-02 0. -1.
    10030    2    1    2    0    0  0.00000000000E+00  0.00000000000E+00 -0.52239251465E+03  0.11275787335E+04  0.99926966376E+03 0.  0.
        1    1    3    3  502    0  0.31737209847E+03  0.19135202210E+03  0.11693542591E+03  0.38860589175E+03  0.50400001928E-02 0.  1.
       -1    1    3    3    0  502 -0.31737209847E+03 -0.19135202210E+03 -0.63932794056E+03  0.73897284175E+03  0.50400001928E-02 0. -1.
</event>
<event>
 5   0  0.2264577E-03  0.9977362E+03  0.7818609E-02  0.9311031E-01
       -2   -1    0    0    0  501  0.00000000000E+00  0.00000000000E+00  0.12833004305E+03  0.12833004307E+03  0.25500000920E-02 0.  1.
        2   -1    0    0  501    0  0.00000000000E+00  0.00000000000E+00 -0.19392915384E+04  0.19392915384E+04  0.25500000920E-02 0. -1.
    10030    2    1    2    0    0  0.00000000000E+00  0.00000000000E+00 -0.18109614954E+04  0.20676215815E+04  0.99773617080E+03 0.  0.
        5    1    3    3  502    0 -0.44699359899E+03 -0.37165829645E+02 -0.13579037328E+04  0.14300731499E+04  0.46999998093E+01 0. -1.
       -5    1    3    3    0  502  0.44699359899E+03  0.37165829645E+02 -0.45305776254E+03  0.63754843159E+03  0.46999998093E+01 0.  1.
</event>
<event>
 5   0  0.1293575E-03  0.1000910E+04  0.7818609E-02  0.9307547E-01
       -1   -1    0    0    0  501  0.00000000000E+00  0.00000000000E+00  0.27056848151E+03  0.27056848155E+03  0.50400001928E-02 0. -1.
        1   -1    0    0  501    0  0.00000000000E+00  0.00000000000E+00 -0.92566359466E+03  0.92566359467E+03  0.50400001928E-02 0.  1.
    10030    2    1    2    0    0  0.00000000000E+00  0.00000000000E+00 -0.65509511315E+03  0.11962320762E+04  0.10009103721E+04 0.  0.
        4    1    3    3  502    0 -0.26412082950E+03 -0.16677055088E+03 -0.79484972258E+03  0.85402571601E+03  0.12699999809E+01 0.  1.
       -4    1    3    3    0  502  0.26412082950E+03  0.16677055088E+03  0.13975460943E+03  0.34220636022E+03  0.12699999809E+01 0. -1.
</event>
<event>
 5   0  0.1249195E-03  0.9984075E+03  0.7818609E-02  0.9310293E-01
       -1   -1    0    0    0  501  0.00000000000E+00  0.00000000000E+00  0.19401326218E+03  0.19401326224E+03  0.50400001928E-02 0.  1.
        1   -1    0    0  501    0  0.00000000000E+00  0.00000000000E+00 -0.12844707763E+04  0.12844707763E+04  0.50400001928E-02 0. -1.
    10030    2    1    2    0    0  0.00000000000E+00  0.00000000000E+00 -0.10904575142E+04  0.14784840386E+04  0.99840746300E+03 0.  0.
        2    1    3    3  502    0 -0.49776014378E+03 -0.75556089390E+01 -0.60028179859E+03  0.77984645006E+03  0.25500000920E-02 0. -1.
       -2    1    3    3    0  502  0.49776014378E+03  0.75556089390E+01 -0.49017571558E+03  0.69863758853E+03  0.25500000920E-02 0.  1.
</event>
<event>
 5   0  0.1249195E-03  0.9910049E+03  0.7818609E-02  0.9318466E-01
        1   -1    0    0  501    0  0.00000000000E+00  0.00000000000E+00  0.19815095935E+03  0.19815095942E+03  0.50400001928E-02 0. -1.
       -1   -1    0    0    0  501  0.00000000000E+00  0.00000000000E+00 -0.12390689147E+04  0.12390689147E+04  0.50400001928E-02 0.  1.
    10030    2    1    2    0    0  0.00000000000E+00  0.00000000000E+00 -0.10409179554E+04  0.14372198741E+04  0.99100493281E+03 0.  0.
        2    1    3    3  502    0 -0.34916069502E+03  0.28009164794E+03 -0.82864687134E+03  0.94181747679E+03  0.25500000920E-02 0.  1.
       -2    1    3    3    0  502  0.34916069502E+03 -0.28009164794E+03 -0.21227108402E+03  0.49540239736E+03  0.25500000920E-02 0. -1.
</event>
<event>
 5   0  0.1293716E-03  0.9950983E+03  0.7818609E-02  0.9313937E-01
        1   -1    0    0  501    0  0.00000000000E+00  0.00000000000E+00  0.27645347480E+03  0.27645347484E+03  0.50400001928E-02 0.  1.
       -1   -1    0    0    0  501  0.00000000000E+00  0.00000000000E+00 -0.89546767833E+03  0.89546767834E+03  0.50400001928E-02 0. -1.
    10030    2    1    2    0    0  0.00000000000E+00  0.00000000000E+00 -0.61901420353E+03  0.11719211532E+04  0.99509828917E+03 0.  0.
        3    1    3    3  502    0  0.20245717017E+02  0.16886111282E+03  0.24115914839E+03  0.29509610220E+03  0.10100000352E+00 0.  1.
       -3    1    3    3    0  502 -0.20245717017E+02 -0.16886111282E+03 -0.86017335192E+03  0.87682505099E+03  0.10100000352E+00 0. -1.
</event>
<event>
 5   0  0.1249195E-03  0.1025117E+04  0.7818609E-02  0.9281418E-01
        1   -1    0    0  501    0  0.00000000000E+00  0.00000000000E+00  0.27926919736E+04  0.27926919736E+04  0.50400001928E-02 0. -1.
       -1   -1    0    0    0  501  0.00000000000E+00  0.00000000000E+00 -0.94072679559E+02  0.94072679694E+02  0.50400001928E-02 0.  1.
    10030    2    1    2    0    0  0.00000000000E+00  0.00000000000E+00  0.26986192940E+04  0.28867646533E+04  0.10251166126E+04 0.  0.
        2    1    3    3  502    0 -0.11387271225E+03  0.19262199579E+03  0.26478830435E+04  0.26573209892E+04  0.25500000920E-02 0. -1.
       -2    1    3    3    0  502  0.11387271225E+03 -0.19262199579E+03  0.50736250573E+02  0.22944366408E+03  0.25500000920E-02 0.  1.
</event>
<event>
 5   0  0.2284843E-03  0.9963121E+03  0.7818609E-02  0.9312599E-01
        2   -1    0    0  501    0  0.00000000000E+00  0.00000000000E+00  0.14283610943E+04  0.14283610943E+04  0.25500000920E-02 0.  1.
       -2   -1    0    0    0  501  0.00000000000E+00  0.00000000000E+00 -0.17373721101E+03  0.17373721103E+03  0.25500000920E-02 0. -1.
    10030    2    1    2    0    0  0.00000000000E+00  0.00000000000E+00  0.12546238833E+04  0.16020983053E+04  0.99631214559E+03 0.  0.
        2    1    3    3  502    0 -0.11004237829E+03 -0.81249255649E+02  0.13975705188E+04  0.14042485968E+04  0.25500000920E-02 0.  1.
       -2    1    3    3    0  502  0.11004237829E+03  0.81249255649E+02 -0.14294663551E+03  0.19784970855E+03  0.25500000920E-02 0. -1.
</event>
<event>
 5   0  0.2284843E-03  0.9994468E+03  0.7818609E-02  0.9309152E-01
        2   -1    0    0  501    0  0.00000000000E+00  0.00000000000E+00  0.30804455807E+03  0.30804455808E+03  0.25500000920E-02 0.  1.
       -2   -1    0    0    0  501  0.00000000000E+00  0.00000000000E+00 -0.81067317582E+03  0.81067317583E+03  0.25500000920E-02 0. -1.
    10030    2    1    2    0    0  0.00000000000E+00  0.00000000000E+00 -0.50262861775E+03  0.11187177339E+04  0.99944676735E+03 0.  0.
        2    1    3    3  502    0 -0.91157005932E+02 -0.26653418715E+03  0.21070671076E+03  0.35177747315E+03  0.25500000920E-02 0.  1.
       -2    1    3    3    0  502  0.91157005932E+02  0.26653418715E+03 -0.71333532852E+03  0.76694026075E+03  0.25500000920E-02 0. -1.
</event>
<event>
 5   0  0.2277570E-03  0.9980573E+03  0.7818609E-02  0.9310678E-01
        2   -1    0    0  501    0  0.00000000000E+00  0.00000000000E+00  0.42280606572E+03  0.42280606573E+03  0.25500000920E-02 0.  1.
       -2   -1    0    0    0  501  0.00000000000E+00  0.00000000000E+00 -0.58899243858E+03  0.58899243859E+03  0.25500000920E-02 0. -1.
    10030    2    1    2    0    0  0.00000000000E+00  0.00000000000E+00 -0.16618637286E+03  0.10117985043E+04  0.99805726430E+03 0.  0.
        3    1    3    3  502    0  0.43167827486E+02  0.49341994416E+03 -0.21404235057E+02  0.49576693527E+03  0.10100000352E+00 0.  1.
       -3    1    3    3    0  502 -0.43167827486E+02 -0.49341994416E+03 -0.14478213780E+03  0.51603156905E+03  0.10100000352E+00 0. -1.
</event>
<event>
 5   0  0.8680125E-04  0.9822161E+03  0.7818609E-02  0.9328268E-01
       -3   -1    0    0    0  501  0.00000000000E+00  0.00000000000E+00  0.36264678160E+03  0.36264679567E+03  0.10100000352E+00 0.  1.
        3   -1    0    0  501    0  0.00000000000E+00  0.00000000000E+00 -0.66507440862E+03  0.66507441629E+03  0.10100000352E+00 0. -1.
    10030    2    1    2    0    0  0.00000000000E+00  0.00000000000E+00 -0.30242762701E+03  0.10277212120E+04  0.98221607598E+03 0.  0.
        5    1    3    3  502    0 -0.31815883316E+03  0.31091354814E+03  0.66444603970E+02  0.44981024102E+03  0.46999998093E+01 0. -1.
       -5    1    3    3    0  502  0.31815883316E+03 -0.31091354814E+03 -0.36887223098E+03  0.57791097093E+03  0.46999998093E+01 0.  1.
</event>
<event>
 5   0  0.1353789E-03  0.9978852E+03  0.7818609E-02  0.9310867E-01
        1   -1    0    0  501    0  0.00000000000E+00  0.00000000000E+00  0.19345031674E+04  0.19345031674E+04  0.50400001928E-02 0.  1.
       -1   -1    0    0    0  501  0.00000000000E+00  0.00000000000E+00 -0.12868611852E+03  0.12868611862E+03  0.50400001928E-02 0. -1.
    10030    2    1    2    0    0  0.00000000000E+00  0.00000000000E+00  0.18058170488E+04  0.20631892860E+04  0.99788517171E+03 0.  0.
        1    1    3    3  502    0  0.23844654740E+03  0.16501848558E+03  0.63427888695E+02  0.29683489290E+03  0.50400001928E-02 0. -1.
       -1    1    3    3    0  502 -0.23844654740E+03 -0.16501848558E+03  0.17423891601E+04  0.17663543931E+04  0.50400001928E-02 0.  1.
</event>
<event>
 5   0  0.1249195E-03  0.1000795E+04  0.7818609E-02  0.9307673E-01
        1   -1    0    0  501    0  0.00000000000E+00  0.00000000000E+00  0.15121984811E+04  0.15121984811E+04  0.50400001928E-02 0. -1.
       -1   -1    0    0    0  501  0.00000000000E+00  0.00000000000E+00 -0.16558529799E+03  0.16558529807E+03  0.50400001928E-02 0.  1.
    10030    2    1    2    0    0  0.00000000000E+00  0.00000000000E+00  0.13466131831E+04  0.16777837792E+04  0.10007953561E+04 0.  0.
        2    1    3    3  502    0 -0.10310129903E+03 -0.16907982052E+03 -0.97094828196E+02  0.22055672567E+03  0.25500000920E-02 0.  1.
       -2    1    3    3    0  502  0.10310129903E+03  0.16907982052E+03  0.14437080113E+04  0.14572270535E+04  0.25500000920E-02 0. -1.
</event>
<event>
 5   0  0.1249195E-03  0.9912331E+03  0.7818609E-02  0.9318213E-01
       -1   -1    0    0    0  501  0.00000000000E+00  0.00000000000E+00  0.60645384157E+03  0.60645384159E+03  0.50400001928E-02 0.  1.
        1   -1    0    0  501    0  0.00000000000E+00  0.00000000000E+00 -0.40503618509E+03  0.40503618512E+03  0.50400001928E-02 0. -1.
    10030    2    1    2    0    0  0.00000000000E+00  0.00000000000E+00  0.20141765648E+03  0.10114900267E+04  0.99123307137E+03 0.  0.
        2    1    3    3  502    0 -0.37405845003E+02  0.41717445789E+03 -0.16966250407E+03  0.45190606418E+03  0.25500000920E-02 0. -1.
       -2    1    3    3    0  502  0.37405845003E+02 -0.41717445789E+03  0.37108016055E+03  0.55958396252E+03  0.25500000920E-02 0.  1.
</event>
<event>
 5   0  0.2277570E-03  0.1005038E+04  0.7818609E-02  0.9303036E-01
       -2   -1    0    0    0  501  0.00000000000E+00  0.00000000000E+00  0.23741654650E+03  0.23741654651E+03  0.25500000920E-02 0.  1.
        2   -1    0    0  501    0  0.00000000000E+00  0.00000000000E+00 -0.10636388490E+04  0.10636388490E+04  0.25500000920E-02 0. -1.
    10030    2    1    2    0    0  0.00000000000E+00  0.00000000000E+00 -0.82622230247E+03  0.13010553955E+04  0.10050382326E+04 0.  0.
        3    1    3    3  502    0  0.33177831876E+03 -0.14986313790E+03  0.35308956477E+02  0.36576296355E+03  0.10100000352E+00 0.  1.
       -3    1    3    3    0  502 -0.33177831876E+03  0.14986313790E+03 -0.86153125895E+03  0.93529243194E+03  0.10100000352E+00 0. -1.
</event>
<event>
 5   0  0.2284843E-03  0.9954019E+03  0.7818609E-02  0.9313602E-01
        2   -1    0    0  501    0  0.00000000000E+00  0.00000000000E+00  0.20771660867E+04  0.20771660867E+04  0.25500000920E-02 0.  1.
       -2   -1    0    0    0  501  0.00000000000E+00  0.00000000000E+00 -0.11925200425E+03  0.11925200428E+03  0.25500000920E-02 0. -1.
    10030    2    1    2    0    0  0.00000000000E+00  0.00000000000E+00  0.19579140824E+04  0.21964180910E+04  0.99540186666E+03 0.  0.
        2    1    3    3  502    0 -0.16658162593E+03  0.92956402397E+02  0.19932949043E+04  0.20024022839E+04  0.25500000920E-02 0.  1.
       -2    1    3    3    0  502  0.16658162593E+03 -0.92956402397E+02 -0.35380821885E+02  0.19401580711E+03  0.25500000920E-02 0. -1.
</event>
<event>
 5   0  0.2284843E-03  0.1003134E+04  0.7818609E-02  0.9305114E-01
        2   -1    0    0  501    0  0.00000000000E+00  0.00000000000E+00  0.17081794573E+04  0.17081794573E+04  0.25500000920E-02 0.  1.
       -2   -1    0    0    0  501  0.00000000000E+00  0.00000000000E+00 -0.14727344542E+03  0.14727344544E+03  0.25500000920E-02 0. -1.
    10030    2    1    2    0    0  0.00000000000E+00  0.00000000000E+00  0.15609060119E+04  0.18554529028E+04  0.10031340371E+04 0.  0.
        2    1    3    3  502    0  0.15187322869E+03 -0.20978370814E+03  0.15749331076E+04  0.15960855162E+04  0.25500000920E-02 0.  1.
       -2    1    3    3    0  502 -0.15187322869E+03  0.20978370814E+03 -0.14027095628E+02  0.25936738657E+03  0.25500000920E-02 0. -1.
</event>
<event>
 5   0  0.1293575E-03  0.9990700E+03  0.7818609E-02  0.9309565E-01
        1   -1    0    0  501    0  0.00000000000E+00  0.00000000000E+00  0.25228787155E+04  0.25228787155E+04  0.50400001928E-02 0.  1.
       -1   -1    0    0    0  501  0.00000000000E+00  0.00000000000E+00 -0.98908923246E+02  0.98908923374E+02  0.50400001928E-02 0. -1.
    10030    2    1    2    0    0  0.00000000000E+00  0.00000000000E+00  0.24239697922E+04  0.26217876388E+04  0.99907000235E+03 0.  0.
        4    1    3    3  502    0  0.12126691582E+03 -0.20901860579E+02 -0.58507605737E+02  0.13626190031E+03  0.12699999809E+01 0. -1.
       -4    1    3    3    0  502 -0.12126691582E+03  0.20901860579E+02  0.24824773979E+04  0.24855257385E+04  0.12699999809E+01 0.  1.
</event>
<event>
 5   0  0.1285769E-03  0.9970115E+03  0.7818609E-02  0.9311829E-01
       -1   -1    0    0    0  501  0.00000000000E+00  0.00000000000E+00  0.12059532680E+03  0.12059532690E+03  0.50400001928E-02 0. -1.
        1   -1    0    0  501    0  0.00000000000E+00  0.00000000000E+00 -0.20606765193E+04  0.20606765193E+04  0.50400001928E-02 0.  1.
    10030    2    1    2    0    0  0.00000000000E+00  0.00000000000E+00 -0.19400811925E+04  0.21812718462E+04  0.99701145108E+03 0.  0.
        5    1    3    3  502    0 -0.20508942159E+02  0.47264959722E+03 -0.13136564426E+04  0.13962569956E+04  0.46999998093E+01 0.  1.
       -5    1    3    3    0  502  0.20508942159E+02 -0.47264959722E+03 -0.62642474988E+03  0.78501485063E+03  0.46999998093E+01 0. -1.
</event>
<event>
 5   0  0.2204862E-03  0.9926031E+03  0.7818609E-02  0.9316695E-01
       -2   -1    0    0    0  501  0.00000000000E+00  0.00000000000E+00  0.43747494964E+03  0.43747494965E+03  0.25500000920E-02 0. -1.
        2   -1    0    0  501    0  0.00000000000E+00  0.00000000000E+00 -0.56303848944E+03  0.56303848944E+03  0.25500000920E-02 0.  1.
    10030    2    1    2    0    0  0.00000000000E+00  0.00000000000E+00 -0.12556353979E+03  0.10005134391E+04  0.99260311267E+03 0.  0.
        1    1    3    3  502    0 -0.20174881841E+03 -0.19263070976E+03  0.35098447138E+03  0.44832942715E+03  0.50400001928E-02 0. -1.
       -1    1    3    3    0  502  0.20174881841E+03  0.19263070976E+03 -0.47654801117E+03  0.55218401195E+03  0.50400001928E-02 0.  1.
</event>
<event>
 5   0  0.2277570E-03  0.1003698E+04  0.7818609E-02  0.9304498E-01
       -2   -1    0    0    0  501  0.00000000000E+00  0.00000000000E+00  0.18138862941E+03  0.18138862943E+03  0.25500000920E-02 0. -1.
        2   -1    0    0  501    0  0.00000000000E+00  0.00000000000E+00 -0.13884681168E+04  0.13884681168E+04  0.25500000920E-02 0.  1.
    10030    2    1    2    0    0  0.00000000000E+00  0.00000000000E+00 -0.12070794874E+04  0.15698567463E+04  0.10036978205E+04 0.  0.
        3    1    3    3  502    0  0.37122343615E+03 -0.33339283001E+03 -0.68769065278E+03  0.84963289883E+03  0.10100000352E+00 0. -1.
       -3    1    3    3    0  502 -0.37122343615E+03  0.33339283001E+03 -0.51938883464E+03  0.72022384743E+03  0.10100000352E+00 0.  1.
</event>
<event>
 5   0  0.8680125E-04  0.9986646E+03  0.7818609E-02  0.9310011E-01
       -4   -1    0    0    0  501  0.00000000000E+00  0.00000000000E+00  0.83640710761E+03  0.83640807180E+03  0.12699999809E+01 0.  1.
        4   -1    0    0  501    0  0.00000000000E+00  0.00000000000E+00 -0.29809728339E+03  0.29809998871E+03  0.12699999809E+01 0. -1.
    10030    2    1    2    0    0  0.00000000000E+00  0.00000000000E+00  0.53830982422E+03  0.11345080605E+04  0.99866464466E+03 0.  0.
        5    1    3    3  502    0 -0.49521143587E+03 -0.52771686343E+02  0.22832968923E+03  0.54788297480E+03  0.46999998093E+01 0.  1.
       -5    1    3    3    0  502  0.49521143587E+03  0.52771686343E+02  0.30998013499E+03  0.58662508571E+03  0.46999998093E+01 0. -1.
</event>
<event>
 5   0  0.2277570E-03  0.9989791E+03  0.7818609E-02  0.9309665E-01
        2   -1    0    0  501    0  0.00000000000E+00  0.00000000000E+00  0.20886237040E+04  0.20886237040E+04  0.25500000920E-02 0. -1.
       -2   -1    0    0    0  501  0.00000000000E+00  0.00000000000E+00 -0.11945176685E+03  0.11945176687E+03  0.25500000920E-02 0.  1.
    10030    2    1    2    0    0  0.00000000000E+00  0.00000000000E+00  0.19691719371E+04  0.22080754708E+04  0.99897906234E+03 0.  0.
        3    1    3    3  502    0 -0.16429721134E+03  0.46575526022E+03  0.81964949170E+03  0.95694662104E+03  0.10100000352E+00 0. -1.
       -3    1    3    3    0  502  0.16429721134E+03 -0.46575526022E+03  0.11495224454E+04  0.12511288498E+04  0.10100000352E+00 0.  1.
</event>
<event>
 5   0  0.2284843E-03  0.1000408E+04  0.7818609E-02  0.9308097E-01
       -2   -1    0    0    0  501  0.00000000000E+00  0.00000000000E+00  0.50345609552E+03  0.50345609553E+03  0.25500000920E-02 0. -1.
        2   -1    0    0  501    0  0.00000000000E+00  0.00000000000E+00 -0.49697288987E+03  0.49697288988E+03  0.25500000920E-02 0.  1.
    10030    2    1    2    0    0  0.00000000000E+00  0.00000000000E+00  0.64832056503E+01  0.10004289854E+04  0.10004079782E+04 0.  0.
        2    1    3    3  502    0  0.14998929214E+03  0.47578977074E+03 -0.33246654661E+02  0.49997803326E+03  0.25500000920E-02 0. -1.
       -2    1    3    3    0  502 -0.14998929214E+03 -0.47578977074E+03  0.39729860311E+02  0.50045095214E+03  0.25500000920E-02 0.  1.
</event>
<event>
 5   0  0.2264577E-03  0.9983707E+03  0.7818609E-02  0.9310334E-01
       -2   -1    0    0    0  501  0.00000000000E+00  0.00000000000E+00  0.14473131208E+03  0.14473131211E+03  0.25500000920E-02 0. -1.
        2   -1    0    0  501    0  0.00000000000E+00  0.00000000000E+00 -0.17217146273E+04  0.17217146273E+04  0.25500000920E-02 0.  1.
    10030    2    1    2    0    0  0.00000000000E+00  0.00000000000E+00 -0.15769833152E+04  0.18664459394E+04  0.99837070683E+03 0.  0.
        5    1    3    3  502    0  0.48879263325E+03 -0.89071809606E+01 -0.97698939111E+03  0.10924870418E+04  0.46999998093E+01 0. -1.
       -5    1    3    3    0  502 -0.48879263325E+03  0.89071809606E+01 -0.59999392410E+03  0.77395889758E+03  0.46999998093E+01 0.  1.
</event>
<event>
 5   0  0.1293716E-03  0.1000308E+04  0.7818609E-02  0.9308208E-01
       -1   -1    0    0    0  501  0.00000000000E+00  0.00000000000E+00  0.65546912051E+03  0.65546912053E+03  0.50400001928E-02 0. -1.
        1   -1    0    0  501    0  0.00000000000E+00  0.00000000000E+00 -0.38164084972E+03  0.38164084976E+03  0.50400001928E-02 0.  1.
    10030    2    1    2    0    0  0.00000000000E+00  0.00000000000E+00  0.27382827079E+03  0.10371099703E+04  0.10003075370E+04 0.  0.
        3    1    3    3  502    0 -0.42598433429E+02  0.46813924859E+03  0.31403495947E+03  0.56532021773E+03  0.10100000352E+00 0.  1.
       -3    1    3    3    0  502  0.42598433429E+02 -0.46813924859E+03 -0.40206688680E+02  0.47178975256E+03  0.10100000352E+00 0. -1.
</event>
<event>
 5   0  0.1285769E-03  0.1006279E+04  0.7818609E-02  0.9301685E-01
        1   -1    0    0  501    0  0.00000000000E+00  0.00000000000E+00  0.14684946643E+04  0.14684946643E+04  0.50400001928E-02 0.  1.
       -1   -1    0    0    0  501  0.00000000000E+00  0.00000000000E+00 -0.17238698608E+03  0.17238698616E+03  0.50400001928E-02 0. -1.
    10030    2    1    2    0    0  0.00000000000E+00  0.00000000000E+00  0.12961076782E+04  0.16408816504E+04  0.10062790256E+04 0.  0.
        5    1    3    3  502    0 -0.29698324724E+03  0.20254706365E+03  0.12220375975E+04  0.12738219428E+04  0.46999998093E+01 0.  1.
       -5    1    3    3    0  502  0.29698324724E+03 -0.20254706365E+03  0.74070080665E+02  0.36705970766E+03  0.46999998093E+01 0. -1.
</event>
<event>
 5   0  0.2204862E-03  0.1001281E+04  0.7818609E-02  0.9307141E-01
       -2   -1    0    0    0  501  0.00000000000E+00  0.00000000000E+00  0.19656576993E+03  0.19656576994E+03  0.25500000920E-02 0.  1.
        2   -1    0    0  501    0  0.00000000000E+00  0.00000000000E+00 -0.12751004578E+04  0.12751004578E+04  0.25500000920E-02 0. -1.
    10030    2    1    2    0    0  0.00000000000E+00  0.00000000000E+00 -0.10785346879E+04  0.14716662278E+04  0.10012813855E+04 0.  0.
        1    1    3    3  502    0 -0.37425496714E+02  0.35676165157E+03 -0.25975143040E+02  0.35965852126E+03  0.50400001928E-02 0.  1.
       -1    1    3    3    0  502  0.37425496714E+02 -0.35676165157E+03 -0.10525595449E+04  0.11120077065E+04  0.50400001928E-02 0. -1.
</event>
<event>
 5   0  0.1249195E-03  0.9996982E+03  0.7818609E-02  0.9308876E-01
        1   -1    0    0  501    0  0.00000000000E+00  0.00000000000E+00  0.81391772913E+03  0.81391772914E+03  0.50400001928E-02 0. -1.
       -1   -1    0    0    0  501  0.00000000000E+00  0.00000000000E+00 -0.30697098498E+03  0.30697098502E+03  0.50400001928E-02 0.  1.
    10030    2    1    2    0    0  0.00000000000E+00  0.00000000000E+00  0.50694674415E+03  0.11208887142E+04  0.99969820853E+03 0.  0.
        2    1    3    3  502    0 -0.29136926973E+03  0.39952592893E+03  0.17159993114E+03  0.52341528025E+03  0.25500000920E-02 0. -1.
       -2    1    3    3    0  502  0.29136926973E+03 -0.39952592893E+03  0.33534681301E+03  0.59747343391E+03  0.25500000920E-02 0.  1.
</event>
<event>
 5   0  0.2284843E-03  0.9979033E+03  0.7818609E-02  0.9310847E-01
        2   -1    0    0  501    0  0.00000000000E+00  0.00000000000E+00  0.52242403924E+03  0.52242403924E+03  0.25500000920E-02 0. -1.
       -2   -1    0    0    0  501  0.00000000000E+00  0.00000000000E+00 -0.47653384829E+03  0.47653384830E+03  0.25500000920E-02 0.  1.
    10030    2    1    2    0    0  0.00000000000E+00  0.00000000000E+00  0.45890190943E+02  0.99895788754E+03  0.99790327761E+03 0.  0.
        2    1    3    3  502    0 -0.19161500628E+03  0.34212985447E+03 -0.28589933327E+03  0.48529122877E+03  0.25500000920E-02 0.  1.
       -2    1    3    3    0  502  0.19161500628E+03 -0.34212985447E+03  0.33178952421E+03  0.51366665877E+03  0.25500000920E-02 0. -1.
</event>
<event>
 5   0  0.1353789E-03  0.9983254E+03  0.7818609E-02  0.9310383E-01
        1   -1    0    0  501    0  0.00000000000E+00  0.00000000000E+00  0.73090844536E+03  0.73090844537E+03  0.50400001928E-02 0.  1.
       -1   -1    0    0    0  501  0.00000000000E+00  0.00000000000E+00 -0.34089552652E+03  0.34089552656E+03  0.50400001928E-02 0. -1.
    10030    2    1    2    0    0  0.00000000000E+00  0.00000000000E+00  0.39001291884E+03  0.10718039719E+04  0.99832543661E+03 0.  0.
        1    1    3    3  502    0 -0.33648144456E+03 -0.33387180218E+03  0.36296004652E+03  0.59701770344E+03  0.50400001928E-02 0.  1.
       -1    1    3    3    0  502  0.33648144456E+03  0.33387180218E+03  0.27052872311E+02  0.47478626849E+03  0.50400001928E-02 0. -1.
</event>
<event>
 5   0  0.2255142E-03  0.9995893E+03  0.7818609E-02  0.9308995E-01
        2   -1    0    0  501    0  0.00000000000E+00  0.00000000000E+00  0.20741322648E+04  0.20741322648E+04  0.25500000920E-02 0. -1.
       -2   -1    0    0    0  501  0.00000000000E+00  0.00000000000E+00 -0.12043335915E+03  0.12043335918E+03  0.25500000920E-02 0.  1.
    10030    2    1    2    0    0  0.00000000000E+00  0.00000000000E+00  0.19536989056E+04  0.21945656240E+04  0.99958934770E+03 0.  0.
        4    1    3    3  502    0  0.26277956514E+03 -0.25204051118E+03  0.17285063217E+04  0.17664408385E+04  0.12699999809E+01 0. -1.
       -4    1    3    3    0  502 -0.26277956514E+03  0.25204051118E+03  0.22519258399E+03  0.42812478545E+03  0.12699999809E+01 0.  1.
</event>
<event>
 5   0  0.1293575E-03  0.1000379E+04  0.7818609E-02  0.9308129E-01
       -1   -1    0    0    0  501  0.00000000000E+00  0.00000000000E+00  0.80072238187E+03  0.80072238189E+03  0.50400001928E-02 0.  1.
        1   -1    0    0  501    0  0.00000000000E+00  0.00000000000E+00 -0.31245493480E+03  0.31245493485E+03  0.50400001928E-02 0. -1.
    10030    2    1    2    0    0  0.00000000000E+00  0.00000000000E+00  0.48826744707E+03  0.11131773167E+04  0.10003792474E+04 0.  0.
        4    1    3    3  502    0 -0.29386170004E+03  0.10110771528E+03 -0.19199052668E+03  0.36529364089E+03  0.12699999809E+01 0. -1.
       -4    1    3    3    0  502  0.29386170004E+03 -0.10110771528E+03  0.68025797375E+03  0.74788367584E+03  0.12699999809E+01 0.  1.
</event>
<event>
 5   0  0.8680125E-04  0.9910852E+03  0.7818609E-02  0.9318377E-01
        4   -1    0    0  501    0  0.00000000000E+00  0.00000000000E+00  0.53598081946E+03  0.53598232409E+03  0.12699999809E+01 0. -1.
       -4   -1    0    0    0  501  0.00000000000E+00  0.00000000000E+00 -0.45815233680E+03  0.45815409702E+03  0.12699999809E+01 0.  1.
    10030    2    1    2    0    0  0.00000000000E+00  0.00000000000E+00  0.77828482660E+02  0.99413642111E+03  0.99108523905E+03 0.  0.
        2    1    3    3  502    0 -0.13626051481E+03 -0.34003449882E+03 -0.29583775855E+03  0.47086130407E+03  0.25500000920E-02 0.  1.
       -2    1    3    3    0  502  0.13626051481E+03  0.34003449882E+03  0.37366624121E+03  0.52327511704E+03  0.25500000920E-02 0. -1.
</event>
<event>
 5   0  0.1249195E-03  0.9998212E+03  0.7818609E-02  0.9308741E-01
        1   -1    0    0  501    0  0.00000000000E+00  0.00000000000E+00  0.36538085724E+03  0.36538085727E+03  0.50400001928E-02 0.  1.
       -1   -1    0    0    0  501  0.00000000000E+00  0.00000000000E+00 -0.68397297007E+03  0.68397297009E+03  0.50400001928E-02 0. -1.
    10030    2    1    2    0    0  0.00000000000E+00  0.00000000000E+00 -0.31859211283E+03  0.10493538274E+04  0.99982124434E+03 0.  0.
        2    1    3    3  502    0 -0.40858746812E+03 -0.13737065292E+03  0.10641876624E+03  0.44400379413E+03  0.25500000920E-02 0.  1.
       -2    1    3    3    0  502  0.40858746812E+03  0.13737065292E+03 -0.42501087907E+03  0.60535003323E+03  0.25500000920E-02 0. -1.
</event>
<event>
 5   0  0.1293716E-03  0.9957287E+03  0.7818609E-02  0.9313242E-01
       -1   -1    0    0    0  501  0.00000000000E+00  0.00000000000E+00  0.29530912747E+03  0.29530912751E+03  0.50400001928E-02 0. -1.
        1   -1    0    0  501    0  0.00000000000E+00  0.00000000000E+00 -0.83935396877E+03  0.83935396878E+03  0.50400001928E-02 0.  1.
    10030    2    1    2    0    0  0.00000000000E+00  0.00000000000E+00 -0.54404484129E+03  0.11346630963E+04  0.99572865418E+03 0.  0.
        3    1    3    3  502    0 -0.11158139598E+03 -0.48297488658E+03 -0.32490607431E+03  0.59268804300E+03  0.10100000352E+00 0. -1.
       -3    1    3    3    0  502  0.11158139598E+03  0.48297488658E+03 -0.21913876699E+03  0.54197505329E+03  0.10100000352E+00 0.  1.
</event>
<event>
 5   0  0.2204862E-03  0.1002460E+04  0.7818609E-02  0.9305851E-01
        2   -1    0    0  501    0  0.00000000000E+00  0.00000000000E+00  0.74630459528E+03  0.74630459528E+03  0.25500000920E-02 0. -1.
       -2   -1    0    0    0  501  0.00000000000E+00  0.00000000000E+00 -0.33663411846E+03  0.33663411847E+03  0.25500000920E-02 0.  1.
    10030    2    1    2    0    0  0.00000000000E+00  0.00000000000E+00  0.40967047682E+03  0.10829387138E+04  0.10024601529E+04 0.  0.
        1    1    3    3  502    0  0.26246082741E+02  0.49122976675E+03  0.30865496313E+03  0.58074385652E+03  0.50400001928E-02 0. -1.
       -1    1    3    3    0  502 -0.26246082741E+02 -0.49122976675E+03  0.10101551368E+03  0.50219485723E+03  0.50400001928E-02 0.  1.
</event>
<event>
 5   0  0.1293716E-03  0.1007024E+04  0.7818609E-02  0.9300874E-01
       -1   -1    0    0    0  501  0.00000000000E+00  0.00000000000E+00  0.22237397994E+03  0.22237398000E+03  0.50400001928E-02 0.  1.
        1   -1    0    0  501    0  0.00000000000E+00  0.00000000000E+00 -0.11400816497E+04  0.11400816497E+04  0.50400001928E-02 0. -1.
    10030    2    1    2    0    0  0.00000000000E+00  0.00000000000E+00 -0.91770766974E+03  0.13624556297E+04  0.10070243174E+04 0.  0.
        3    1    3    3  502    0 -0.25910098488E+03  0.27977391374E+03 -0.90372151002E+03  0.98087682257E+03  0.10100000352E+00 0. -1.
       -3    1    3    3    0  502  0.25910098488E+03 -0.27977391374E+03 -0.13986159721E+02  0.38157880712E+03  0.10100000352E+00 0.  1.
</event>
<event>
 5   0  0.2204862E-03  0.9988773E+03  0.7818609E-02  0.9309777E-01
        2   -1    0    0  501    0  0.00000000000E+00  0.00000000000E+00  0.70184386616E+03  0.70184386617E+03  0.25500000920E-02 0. -1.
       -2   -1    0    0    0  501  0.00000000000E+00  0.00000000000E+00 -0.35540523125E+03  0.35540523126E+03  0.25500000920E-02 0.  1.
    10030    2    1    2    0    0  0.00000000000E+00  0.00000000000E+00  0.34643863492E+03  0.10572490974E+04  0.99887733293E+03 0.  0.
        1    1    3    3  502    0  0.13766819791E+03  0.42494789567E+03  0.40966990211E+03  0.60610450871E+03  0.50400001928E-02 0.  1.
       -1    1    3    3    0  502 -0.13766819791E+03 -0.42494789567E+03 -0.63231267197E+02  0.45114458872E+03  0.50400001928E-02 0. -1.
</event>
<event>
 5   0  0.1293716E-03  0.9992059E+03  0.7818609E-02  0.9309416E-01
       -1   -1    0    0    0  501  0.00000000000E+00  0.00000000000E+00  0.15646098741E+03  0.15646098749E+03  0.50400001928E-02 0.  1.
        1   -1    0    0  501    0  0.00000000000E+00  0.00000000000E+00 -0.15953056664E+04  0.15953056664E+04  0.50400001928E-02 0. -1.
    10030    2    1    2    0    0  0.00000000000E+00  0.00000000000E+00 -0.14388446789E+04  0.17517666538E+04  0.99920588440E+03 0.  0.
        3    1    3    3  502    0 -0.21879546180E+03 -0.39122309456E+03 -0.33262874385E+03  0.55818353187E+03  0.10100000352E+00 0.  1.
       -3    1    3    3    0  502  0.21879546180E+03  0.39122309456E+03 -0.11062159351E+04  0.11935831220E+04  0.10100000352E+00 0. -1.
</event>
<event>
 5   0  0.1285769E-03  0.1000036E+04  0.7818609E-02  0.9308505E-01
       -1   -1    0    0    0  501  0.00000000000E+00  0.00000000000E+00  0.19220073119E+03  0.19220073125E+03  0.50400001928E-02 0. -1.
        1   -1    0    0  501    0  0.00000000000E+00  0.00000000000E+00 -0.13008169173E+04  0.13008169173E+04  0.50400001928E-02 0.  1.
    10030    2    1    2    0    0  0.00000000000E+00  0.00000000000E+00 -0.11086161861E+04  0.14930176485E+04  0.10000359247E+04 0.  0.
        5    1    3    3  502    0  0.39650652432E+02  0.25838862123E+03  0.82015201110E+02  0.27401722032E+03  0.46999998093E+01 0. -1.
       -5    1    3    3    0  502 -0.39650652432E+02 -0.25838862123E+03 -0.11906313872E+04  0.12190004282E+04  0.46999998093E+01 0.  1.
</event>
<event>
 5   0  0.2255142E-03  0.1000220E+04  0.7818609E-02  0.9308304E-01
       -2   -1    0    0    0  501  0.00000000000E+00  0.00000000000E+00  0.19492278248E+03  0.19492278250E+03  0.25500000920E-02 0.  1.
        2   -1    0    0  501    0  0.00000000000E+00  0.00000000000E+00 -0.12831229155E+04  0.12831229155E+04  0.25500000920E-02 0. -1.
    10030    2    1    2    0    0  0.00000000000E+00  0.00000000000E+00 -0.10882001330E+04  0.14780456980E+04  0.10002197538E+04 0.  0.
        4    1    3    3  502    0  0.45891652092E+03  0.18921241954E+03 -0.45418268039E+03  0.67282184339E+03  0.12699999809E+01 0.  1.
       -4    1    3    3    0  502 -0.45891652092E+03 -0.18921241954E+03 -0.63401745261E+03  0.80522385459E+03  0.12699999809E+01 0. -1.
</event>
<event>
 5   0  0.2284843E-03  0.1001584E+04  0.7818609E-02  0.9306809E-01
       -2   -1    0    0    0  501  0.00000000000E+00  0.00000000000E+00  0.23206555629E+03  0.23206555630E+03  0.25500000920E-02 0.  1.
        2   -1    0    0  501    0  0.00000000000E+00  0.00000000000E+00 -0.10806978540E+04  0.10806978540E+04  0.25500000920E-02 0. -1.
    10030    2    1    2    0    0  0.00000000000E+00  0.00000000000E+00 -0.84863229767E+03  0.13127634103E+04  0.10015842424E+04 0.  0.
        2    1    3    3  502    0  0.76138734625E+02 -0.44536429365E+03 -0.14123723317E+03  0.47338611831E+03  0.25500000920E-02 0.  1.
       -2    1    3    3    0  502 -0.76138734625E+02  0.44536429365E+03 -0.70739506450E+03  0.83937729196E+03  0.25500000920E-02 0. -1.
</event>
<event>
 5   0  0.1293575E-03  0.9960233E+03  0.7818609E-02  0.9312917E-01
        1   -1    0    0  501    0  0.00000000000E+00  0.00000000000E+00  0.49164201310E+03  0.49164201312E+03  0.50400001928E-02 0.  1.
       -1   -1    0    0    0  501  0.00000000000E+00  0.00000000000E+00 -0.50446383372E+03  0.50446383374E+03  0.50400001928E-02 0. -1.
    10030    2    1    2    0    0  0.00000000000E+00  0.00000000000E+00 -0.12821820622E+02  0.99610584687E+03  0.99602332256E+03 0.  0.
        4    1    3    3  502    0  0.23729194049E+03 -0.42283631899E+03 -0.12006883815E+03  0.49951592214E+03  0.12699999809E+01 0. -1.
       -4    1    3    3    0  502 -0.23729194049E+03  0.42283631899E+03  0.10724701753E+03  0.49658992473E+03  0.12699999809E+01 0.  1.
</event>
<event>
 5   0  0.8680125E-04  0.9951818E+03  0.7818609E-02  0.9313845E-01
        3   -1    0    0  501    0  0.00000000000E+00  0.00000000000E+00  0.24741459539E+03  0.24741461600E+03  0.10100000352E+00 0. -1.
       -3   -1    0    0    0  501  0.00000000000E+00  0.00000000000E+00 -0.10007359793E+04  0.10007359844E+04  0.10100000352E+00 0.  1.
    10030    2    1    2    0    0  0.00000000000E+00  0.00000000000E+00 -0.75332138395E+03  0.12481506004E+04  0.99518179940E+03 0.  0.
        3    1    3    3  502    0  0.13641866626E+03  0.30459082679E+03  0.86221812302E+02  0.34470253173E+03  0.10100000352E+00 0. -1.
       -3    1    3    3    0  502 -0.13641866626E+03 -0.30459082679E+03 -0.83954319625E+03  0.90344806870E+03  0.10100000352E+00 0.  1.
</event>
<event>
 5   0  0.2264577E-03  0.9981745E+03  0.7818609E-02  0.9310549E-01
       -2   -1    0    0    0  501  0.00000000000E+00  0.00000000000E+00  0.27854049110E+03  0.27854049111E+03  0.25500000920E-02 0. -1.
        2   -1    0    0  501    0  0.00000000000E+00  0.00000000000E+00 -0.89426161175E+03  0.89426161175E+03  0.25500000920E-02 0.  1.
    10030    2    1    2    0    0  0.00000000000E+00  0.00000000000E+00 -0.61572112064E+03  0.11728021029E+04  0.99817447076E+03 0.  0.
        5    1    3    3  502    0 -0.25262193305E+03  0.42116028665E+03 -0.20361322335E+03  0.53167119804E+03  0.46999998093E+01 0.  1.
       -5    1    3    3    0  502  0.25262193305E+03 -0.42116028665E+03 -0.41210789730E+03  0.64113090482E+03  0.46999998093E+01 0. -1.
</event>
<event>
 5   0  0.1293575E-03  0.1002318E+04  0.7818609E-02  0.9306006E-01
        1   -1    0    0  501    0  0.00000000000E+00  0.00000000000E+00  0.56059028846E+03  0.56059028849E+03  0.50400001928E-02 0.  1.
       -1   -1    0    0    0  501  0.00000000000E+00  0.00000000000E+00 -0.44802823290E+03  0.44802823293E+03  0.50400001928E-02 0. -1.
    10030    2    1    2    0    0  0.00000000000E+00  0.00000000000E+00  0.11256205556E+03  0.10086185214E+04  0.10023178664E+04 0.  0.
        4    1    3    3  502    0 -0.41110928431E+03  0.23860191013E+03 -0.10351564450E+03  0.48647591587E+03  0.12699999809E+01 0. -1.
       -4    1    3    3    0  502  0.41110928431E+03 -0.23860191013E+03  0.21607770007E+03  0.52214260555E+03  0.12699999809E+01 0.  1.
</event>
<event>
 5   0  0.2255142E-03  0.1000541E+04  0.7818609E-02  0.9307951E-01
       -2   -1    0    0    0  501  0.00000000000E+00  0.00000000000E+00  0.44839263939E+03  0.44839263940E+03  0.25500000920E-02 0.  1.
        2   -1    0    0  501    0  0.00000000000E+00  0.00000000000E+00 -0.55815069447E+03  0.55815069448E+03  0.25500000920E-02 0. -1.
    10030    2    1    2    0    0  0.00000000000E+00  0.00000000000E+00 -0.10975805508E+03  0.10065433339E+04  0.10005411797E+04 0.  0.
        4    1    3    3  502    0  0.13346419459E+03  0.48106948968E+03 -0.22616326733E+02  0.49975359556E+03  0.12699999809E+01 0. -1.
       -4    1    3    3    0  502 -0.13346419459E+03 -0.48106948968E+03 -0.87141728351E+02  0.50678973832E+03  0.12699999809E+01 0.  1.
</event>
<event>
 5   0  0.1249195E-03  0.1000425E+04  0.7818609E-02  0.9308078E-01
       -1   -1    0    0    0  501  0.00000000000E+00  0.00000000000E+00  0.20211552872E+03  0.20211552878E+03  0.50400001928E-02 0.  1.
        1   -1    0    0  501    0  0.00000000000E+00  0.00000000000E+00 -0.12379691299E+04  0.12379691299E+04  0.50400001928E-02 0. -1.
    10030    2    1    2    0    0  0.00000000000E+00  0.00000000000E+00 -0.10358536012E+04  0.14400846587E+04  0.10004254801E+04 0.  0.
        2    1    3    3  502    0 -0.38841432645E+02  0.14193658038E+03 -0.12061061270E+04  0.12150500563E+04  0.25500000920E-02 0. -1.
       -2    1    3    3    0  502  0.38841432645E+02 -0.14193658038E+03  0.17025252579E+03  0.22503460242E+03  0.25500000920E-02 0.  1.
</event>
<event>
 5   0  0.1249195E-03  0.1000397E+04  0.7818609E-02  0.9308109E-01
       -1   -1    0    0    0  501  0.00000000000E+00  0.00000000000E+00  0.23031040447E+03  0.23031040452E+03  0.50400001928E-02 0. -1.
        1   -1    0    0  501    0  0.00000000000E+00  0.00000000000E+00 -0.10863540699E+04  0.10863540699E+04  0.50400001928E-02 0.  1.
    10030    2    1    2    0    0  0.00000000000E+00  0.00000000000E+00 -0.85604366543E+03  0.13166644744E+04  0.10003972117E+04 0.  0.
        2    1    3    3  502    0  0.49100649855E+03 -0.98246865919E+01 -0.30305946992E+03  0.57708660390E+03  0.25500000920E-02 0.  1.
       -2    1    3    3    0  502 -0.49100649855E+03  0.98246865919E+01 -0.55298419551E+03  0.73957787053E+03  0.25500000920E-02 0. -1.
</event>
<event>
 5   0  0.2284843E-03  0.9877027E+03  0.7818609E-02  0.9322136E-01
        2   -1    0    0  501    0  0.00000000000E+00  0.00000000000E+00  0.74440357706E+03  0.74440357707E+03  0.25500000920E-02 0.  1.
       -2   -1    0    0    0  501  0.00000000000E+00  0.00000000000E+00 -0.32763030216E+03  0.32763030217E+03  0.25500000920E-02 0. -1.
    10030    2    1    2    0    0  0.00000000000E+00  0.00000000000E+00  0.41677327491E+03  0.10720338792E+04  0.98770272631E+03 0.  0.
        2    1    3    3  502    0  0.29120078065E+03 -0.30787738687E+03 -0.66844244966E+02  0.42901577254E+03  0.25500000920E-02 0. -1.
       -2    1    3    3    0  502 -0.29120078065E+03  0.30787738687E+03  0.48361751987E+03  0.64301810669E+03  0.25500000920E-02 0.  1.
</event>
<event>
 5   0  0.1285769E-03  0.1000184E+04  0.7818609E-02  0.9308343E-01
       -1   -1    0    0    0  501  0.00000000000E+00  0.00000000000E+00  0.12755164685E+04  0.12755164685E+04  0.50400001928E-02 0.  1.
        1   -1    0    0  501    0  0.00000000000E+00  0.00000000000E+00 -0.19607115272E+03  0.19607115278E+03  0.50400001928E-02 0. -1.
    10030    2    1    2    0    0  0.00000000000E+00  0.00000000000E+00  0.10794453158E+04  0.14715876213E+04  0.10001839518E+04 0.  0.
        5    1    3    3  502    0  0.51518260980E+01  0.16963388073E+03 -0.15237161333E+03  0.22812582789E+03  0.46999998093E+01 0. -1.
       -5    1    3    3    0  502 -0.51518260980E+01 -0.16963388073E+03  0.12318169291E+04  0.12434617934E+04  0.46999998093E+01 0.  1.
</event>
<event>
 5   0  0.1293575E-03  0.9953667E+03  0.7818609E-02  0.9313641E-01
       -1   -1    0    0    0  501  0.00000000000E+00  0.00000000000E+00  0.18462790297E+03  0.18462790304E+03  0.50400001928E-02 0.  1.
        1   -1    0    0  501    0  0.00000000000E+00  0.00000000000E+00 -0.13415563126E+04  0.13415563127E+04  0.50400001928E-02 0. -1.
    10030    2    1    2    0    0  0.00000000000E+00  0.00000000000E+00 -0.11569284097E+04  0.15261842157E+04  0.99536672394E+03 0.  0.
        4    1    3    3  502    0 -0.17840660508E+03  0.46002487561E+03 -0.67824951090E+03  0.83873465104E+03  0.12699999809E+01 0. -1.
       -4    1    3    3    0  502  0.17840660508E+03 -0.46002487561E+03 -0.47867889877E+03  0.68744956466E+03  0.12699999809E+01 0.  1.
</event>
<event>
 5   0  0.1285769E-03  0.9996494E+03  0.7818609E-02  0.9308929E-01
        1   -1    0    0  501    0  0.00000000000E+00  0.00000000000E+00  0.56642606603E+03  0.56642606606E+03  0.50400001928E-02 0.  1.
       -1   -1    0    0    0  501  0.00000000000E+00  0.00000000000E+00 -0.44105446181E+03  0.44105446184E+03  0.50400001928E-02 0. -1.
    10030    2    1    2    0    0  0.00000000000E+00  0.00000000000E+00  0.12537160422E+03  0.10074805279E+04  0.99964942602E+03 0.  0.
        5    1    3    3  502    0 -0.27686130050E+03  0.40729794101E+03  0.14855218890E+03  0.51442553911E+03  0.46999998093E+01 0.  1.
       -5    1    3    3    0  502  0.27686130050E+03 -0.40729794101E+03 -0.23180584675E+02  0.49305498878E+03  0.46999998093E+01 0. -1.
</event>
<event>
 5   0  0.2284843E-03  0.9832396E+03  0.7818609E-02  0.9327121E-01
        2   -1    0    0  501    0  0.00000000000E+00  0.00000000000E+00  0.16756543279E+04  0.16756543279E+04  0.25500000920E-02 0.  1.
       -2   -1    0    0    0  501  0.00000000000E+00  0.00000000000E+00 -0.14423621202E+03  0.14423621204E+03  0.25500000920E-02 0. -1.
    10030    2    1    2    0    0  0.00000000000E+00  0.00000000000E+00  0.15314181159E+04  0.18198905399E+04  0.98323961052E+03 0.  0.
        2    1    3    3  502    0  0.36542548191E+03 -0.11844717349E+03  0.13335638330E+04  0.13877888933E+04  0.25500000920E-02 0.  1.
       -2    1    3    3    0  502 -0.36542548191E+03  0.11844717349E+03  0.19785428286E+03  0.43210164659E+03  0.25500000920E-02 0. -1.
</event>
<event>
 5   0  0.2284843E-03  0.9996172E+03  0.7818609E-02  0.9308965E-01
       -2   -1    0    0    0  501  0.00000000000E+00  0.00000000000E+00  0.66104071903E+03  0.66104071904E+03  0.25500000920E-02 0. -1.
        2   -1    0    0  501    0  0.00000000000E+00  0.00000000000E+00 -0.37790206988E+03  0.37790206989E+03  0.25500000920E-02 0.  1.
    10030    2    1    2    0    0  0.00000000000E+00  0.00000000000E+00  0.28313864915E+03  0.10389427889E+04  0.99961723876E+03 0.  0.
        2    1    3    3  502    0 -0.44020313235E+03 -0.17434457504E+03  0.30797365502E+03  0.56482085724E+03  0.25500000920E-02 0. -1.
       -2    1    3    3    0  502  0.44020313235E+03  0.17434457504E+03 -0.24835005869E+02  0.47412193168E+03  0.25500000920E-02 0.  1.
</event>
<event>
 5   0  0.1353789E-03  0.1016369E+04  0.7818609E-02  0.9290771E-01
       -1   -1    0    0    0  501  0.00000000000E+00  0.00000000000E+00  0.12349223426E+03  0.12349223436E+03  0.50400001928E-02 0.  1.
        1   -1    0    0  501    0  0.00000000000E+00  0.00000000000E+00 -0.20912374572E+04  0.20912374572E+04  0.50400001928E-02 0. -1.
    10030    2    1    2    0    0  0.00000000000E+00  0.00000000000E+00 -0.19677452229E+04  0.22147296915E+04  0.10163691968E+04 0.  0.
        1    1    3    3  502    0 -0.61150638148E+02  0.48376484343E+03 -0.67200225858E+03  0.83027396674E+03  0.50400001928E-02 0.  1.
       -1    1    3    3    0  502  0.61150638148E+02 -0.48376484343E+03 -0.12957429643E+04  0.13844557248E+04  0.50400001928E-02 0. -1.
</event>
<event>
 5   0  0.2277570E-03  0.1000234E+04  0.7818609E-02  0.9308288E-01
       -2   -1    0    0    0  501  0.00000000000E+00  0.00000000000E+00  0.22226680427E+03  0.22226680428E+03  0.25500000920E-02 0. -1.
        2   -1    0    0  501    0  0.00000000000E+00  0.00000000000E+00 -0.11253014518E+04  0.11253014518E+04  0.25500000920E-02 0.  1.
    10030    2    1    2    0    0  0.00000000000E+00  0.00000000000E+00 -0.90303464756E+03  0.13475682561E+04  0.10002342876E+04 0.  0.
        3    1    3    3  502    0  0.61558773128E+02  0.22354369238E+03 -0.10485127340E+04  0.10738436705E+04  0.10100000352E+00 0.  1.
       -3    1    3    3    0  502 -0.61558773128E+02 -0.22354369238E+03  0.14547808647E+03  0.27372458566E+03  0.10100000352E+00 0. -1.
</event>
<event>
 5   0  0.2277570E-03  0.1000816E+04  0.7818609E-02  0.9307651E-01
        2   -1    0    0  501    0  0.00000000000E+00  0.00000000000E+00  0.84819672663E+03  0.84819672663E+03  0.25500000920E-02 0. -1.
       -2   -1    0    0    0  501  0.00000000000E+00  0.00000000000E+00 -0.29522400278E+03  0.29522400279E+03  0.25500000920E-02 0.  1.
    10030    2    1    2    0    0  0.00000000000E+00  0.00000000000E+00  0.55297272385E+03  0.11434207294E+04  0.10008157329E+04 0.  0.
        3    1    3    3  502    0  0.20365432169E+03  0.45611706685E+03  0.24239955967E+03  0.55522555610E+03  0.10100000352E+00 0. -1.
       -3    1    3    3    0  502 -0.20365432169E+03 -0.45611706685E+03  0.31057316418E+03  0.58819517333E+03  0.10100000352E+00 0.  1.
</event>
<event>
 5   0  0.2255142E-03  0.1008678E+04  0.7818609E-02  0.9299077E-01
        2   -1    0    0  501    0  0.00000000000E+00  0.00000000000E+00  0.90703918030E+03  0.90703918030E+03  0.25500000920E-02 0.  1.
       -2   -1    0    0    0  501  0.00000000000E+00  0.00000000000E+00 -0.28042675635E+03  0.28042675637E+03  0.25500000920E-02 0. -1.
    10030    2    1    2    0    0  0.00000000000E+00  0.00000000000E+00  0.62661242394E+03  0.11874659367E+04  0.10086784527E+04 0.  0.
        4    1    3    3  502    0  0.48700867650E+02 -0.43306207885E+03  0.61215575602E+03  0.75143251272E+03  0.12699999809E+01 0.  1.
       -4    1    3    3    0  502 -0.48700867650E+02  0.43306207885E+03  0.14456667922E+02  0.43603342394E+03  0.12699999809E+01 0. -1.
</event>
<event>
 5   0  0.1293575E-03  0.1003341E+04  0.7818609E-02  0.9304888E-01
        1   -1    0    0  501    0  0.00000000000E+00  0.00000000000E+00  0.20119027097E+04  0.20119027097E+04  0.50400001928E-02 0. -1.
       -1   -1    0    0    0  501  0.00000000000E+00  0.00000000000E+00 -0.12509209536E+03  0.12509209547E+03  0.50400001928E-02 0.  1.
    10030    2    1    2    0    0  0.00000000000E+00  0.00000000000E+00  0.18868106143E+04  0.21369948051E+04  0.10033406714E+04 0.  0.
        4    1    3    3  502    0 -0.40048480101E+03  0.28848583454E+03  0.11346129881E+04  0.12373198448E+04  0.12699999809E+01 0.  1.
       -4    1    3    3    0  502  0.40048480101E+03 -0.28848583454E+03  0.75219762619E+03  0.89967496037E+03  0.12699999809E+01 0. -1.
</event>
<event>
 5   0  0.1293575E-03  0.9984171E+03  0.7818609E-02  0.9310283E-01
        1   -1    0    0  501    0  0.00000000000E+00  0.00000000000E+00  0.49368165270E+03  0.49368165273E+03  0.50400001928E-02 0. -1.
       -1   -1    0    0    0  501  0.00000000000E+00  0.00000000000E+00 -0.50479734906E+03  0.50479734909E+03  0.50400001928E-02 0.  1.
    10030    2    1    2    0    0  0.00000000000E+00  0.00000000000E+00 -0.11115696361E+02  0.99847900181E+03  0.99841712644E+03 0.  0.
        4    1    3    3  502    0  0.37060654056E+03  0.18464608646E+03 -0.28443744670E+03  0.50234416403E+03  0.12699999809E+01 0.  1.
       -4    1    3    3    0  502 -0.37060654056E+03 -0.18464608646E+03  0.27332175034E+03  0.49613483778E+03  0.12699999809E+01 0. -1.
</event>
<event>
 5   0  0.2264577E-03  0.9960837E+03  0.7818609E-02  0.9312851E-01
        2   -1    0    0  501    0  0.00000000000E+00  0.00000000000E+00  0.10965725860E+04  0.10965725860E+04  0.25500000920E-02 0.  1.
       -2   -1    0    0    0  501  0.00000000000E+00  0.00000000000E+00 -0.22620088533E+03  0.22620088534E+03  0.25500000920E-02 0. -1.
    10030    2    1    2    0    0  0.00000000000E+00  0.00000000000E+00  0.87037170065E+03  0.13227734713E+04  0.99608371091E+03 0.  0.
        5    1    3    3  502    0  0.38861986067E+03  0.14013352082E+03  0.80454606544E+03  0.90442205921E+03  0.46999998093E+01 0.  1.
       -5    1    3    3    0  502 -0.38861986067E+03 -0.14013352082E+03  0.65825635213E+02  0.41835141211E+03  0.46999998093E+01 0. -1.
</event>
<event>
 5   0  0.1293575E-03  0.1000489E+04  0.7818609E-02  0.9308008E-01
       -1   -1    0    0    0  501  0.00000000000E+00  0.00000000000E+00  0.26324953823E+03  0.26324953828E+03  0.50400001928E-02 0.  1.
        1   -1    0    0  501    0  0.00000000000E+00  0.00000000000E+00 -0.95059894768E+03  0.95059894770E+03  0.50400001928E-02 0. -1.
    10030    2    1    2    0    0  0.00000000000E+00  0.00000000000E+00 -0.68734940945E+03  0.12138484860E+04  0.10004893484E+04 0.  0.
        4    1    3    3  502    0  0.28356238594E+03  0.41021416105E+03 -0.29575749145E+03  0.57979081684E+03  0.12699999809E+01 0. -1.
       -4    1    3    3    0  502 -0.28356238594E+03 -0.41021416105E+03 -0.39159191800E+03  0.63405766913E+03  0.12699999809E+01 0.  1.
</event>
<event>
 5   0  0.2277570E-03  0.1003841E+04  0.7818609E-02  0.9304342E-01
       -2   -1    0    0    0  501  0.00000000000E+00  0.00000000000E+00  0.32794333115E+03  0.32794333116E+03  0.25500000920E-02 0. -1.
        2   -1    0    0  501    0  0.00000000000E+00  0.00000000000E+00 -0.76819378109E+03  0.76819378109E+03  0.25500000920E-02 0.  1.
    10030    2    1    2    0    0  0.00000000000E+00  0.00000000000E+00 -0.44025044994E+03  0.10961371122E+04  0.10038406797E+04 0.  0.
        3    1    3    3  502    0  0.48331087933E+03  0.30737621697E+02 -0.36412025669E+03  0.60590245007E+03  0.10100000352E+00 0.  1.
       -3    1    3    3    0  502 -0.48331087933E+03 -0.30737621697E+02 -0.76130193253E+02  0.49023466217E+03  0.10100000352E+00 0. -1.
</event>
<event>
 5   0  0.2264577E-03  0.1011514E+04  0.7818609E-02  0.9296006E-01
        2   -1    0    0  501    0  0.00000000000E+00  0.00000000000E+00  0.56337289252E+03  0.56337289253E+03  0.25500000920E-02 0. -1.
       -2   -1    0    0    0  501  0.00000000000E+00  0.00000000000E+00 -0.45403364027E+03  0.45403364027E+03  0.25500000920E-02 0.  1.
    10030    2    1    2    0    0  0.00000000000E+00  0.00000000000E+00  0.10933925226E+03  0.10174065328E+04  0.10115142020E+04 0.  0.
        5    1    3    3  502    0  0.25581726888E+02  0.19617009860E+03  0.52281729192E+03  0.55901443905E+03  0.46999998093E+01 0. -1.
       -5    1    3    3    0  502 -0.25581726888E+02 -0.19617009860E+03 -0.41347803966E+03  0.45839209375E+03  0.46999998093E+01 0.  1.
</event>
<event>
 5   0  0.1293575E-03  0.1000069E+04  0.7818609E-02  0.9308469E-01
       -1   -1    0    0    0  501  0.00000000000E+00  0.00000000000E+00  0.50480140982E+03  0.50480140984E+03  0.50400001928E-02 0. -1.
        1   -1    0    0  501    0  0.00000000000E+00  0.00000000000E+00 -0.49531259037E+03  0.49531259040E+03  0.50400001928E-02 0.  1.
    10030    2    1    2    0    0  0.00000000000E+00  0.00000000000E+00  0.94888194435E+01  0.10001140002E+04  0.10000689855E+04 0.  0.
        4    1    3    3  502    0 -0.27852457986E+03 -0.24178868592E+03  0.34239131592E+03  0.50326050545E+03  0.12699999809E+01 0. -1.
       -4    1    3    3    0  502  0.27852457986E+03  0.24178868592E+03 -0.33290249648E+03  0.49685349479E+03  0.12699999809E+01 0.  1.
</event>
<event>
 5   0  0.1293716E-03  0.1007204E+04  0.7818609E-02  0.9300679E-01
       -1   -1    0    0    0  501  0.00000000000E+00  0.00000000000E+00  0.68488683973E+03  0.68488683975E+03  0.50400001928E-02 0. -1.
        1   -1    0    0  501    0  0.00000000000E+00  0.00000000000E+00 -0.37030171873E+03  0.37030171876E+03  0.50400001928E-02 0.  1.
    10030    2    1    2    0    0  0.00000000000E+00  0.00000000000E+00  0.31458512100E+03  0.10551885585E+04  0.10072036019E+04 0.  0.
        3    1    3    3  502    0 -0.10807857678E+03 -0.14345659615E+03  0.65018990754E+03  0.67454258561E+03  0.10100000352E+00 0. -1.
       -3    1    3    3    0  502  0.10807857678E+03  0.14345659615E+03 -0.33560478654E+03  0.38064597290E+03  0.10100000352E+00 0.  1.
</event>
<event>
 5   0  0.1293575E-03  0.9986710E+03  0.7818609E-02  0.9310004E-01
        1   -1    0    0  501    0  0.00000000000E+00  0.00000000000E+00  0.49674123381E+03  0.49674123384E+03  0.50400001928E-02 0. -1.
       -1   -1    0    0    0  501  0.00000000000E+00  0.00000000000E+00 -0.50194333399E+03  0.50194333401E+03  0.50400001928E-02 0.  1.
    10030    2    1    2    0    0  0.00000000000E+00  0.00000000000E+00 -0.52021001751E+01  0.99868456785E+03  0.99867101901E+03 0.  0.
        4    1    3    3  502    0 -0.10095334816E+03  0.84212514212E+02  0.47912221959E+03  0.49683301044E+03  0.12699999809E+01 0. -1.
       -4    1    3    3    0  502  0.10095334816E+03 -0.84212514212E+02 -0.48432431977E+03  0.50185155741E+03  0.12699999809E+01 0.  1.
</event>
<event>
 5   0  0.2264577E-03  0.1002514E+04  0.7818609E-02  0.9305791E-01
        2   -1    0    0  501    0  0.00000000000E+00  0.00000000000E+00  0.27175946362E+04  0.27175946362E+04  0.25500000920E-02 0. -1.
       -2   -1    0    0    0  501  0.00000000000E+00  0.00000000000E+00 -0.92456326610E+02  0.92456326646E+02  0.25500000920E-02 0.  1.
    10030    2    1    2    0    0  0.00000000000E+00  0.00000000000E+00  0.26251383096E+04  0.28100509628E+04  0.10025144734E+04 0.  0.
        5    1    3    3  502    0 -0.10700775526E+02 -0.23078663855E+03  0.65753429692E+02  0.24025524478E+03  0.46999998093E+01 0.  1.
       -5    1    3    3    0  502  0.10700775526E+02  0.23078663855E+03  0.25593848799E+04  0.25697957180E+04  0.46999998093E+01 0. -1.
</event>
<event>
 5   0  0.1293575E-03  0.1001159E+04  0.7818609E-02  0.9307275E-01
       -1   -1    0    0    0  501  0.00000000000E+00  0.00000000000E+00  0.83529810109E+03  0.83529810110E+03  0.50400001928E-02 0.  1.
        1   -1    0    0  501    0  0.00000000000E+00  0.00000000000E+00 -0.29998851070E+03  0.29998851075E+03  0.50400001928E-02 0. -1.
    10030    2    1    2    0    0  0.00000000000E+00  0.00000000000E+00  0.53530959038E+03  0.11352866118E+04  0.10011589951E+04 0.  0.
        4    1    3    3  502    0 -0.23330090451E+03 -0.14599367861E+03 -0.20649585052E+03  0.34407210788E+03  0.12699999809E+01 0. -1.
       -4    1    3    3    0  502  0.23330090451E+03  0.14599367861E+03  0.74180544090E+03  0.79121450397E+03  0.12699999809E+01 0.  1.
</event>
<event>
 5   0  0.8680125E-04  0.9997508E+03  0.7818609E-02  0.9308818E-01
       -3   -1    0    0    0  501  0.00000000000E+00  0.00000000000E+00  0.28941296186E+03  0.28941297948E+03  0.10100000352E+00 0.  1.
        3   -1    0    0  501    0  0.00000000000E+00  0.00000000000E+00 -0.86338704520E+03  0.86338705111E+03  0.10100000352E+00 0. -1.
    10030    2    1    2    0    0  0.00000000000E+00  0.00000000000E+00 -0.57397408334E+03  0.11528000306E+04  0.99975080004E+03 0.  0.
        4    1    3    3  502    0 -0.93821381784E+02 -0.47486952306E+02  0.27651337096E+03  0.29583562926E+03  0.12699999809E+01 0.  1.
       -4    1    3    3    0  502  0.93821381784E+02  0.47486952306E+02 -0.85048745431E+03  0.85696440133E+03  0.12699999809E+01 0. -1.
</event>
<event>
 5   0  0.1249195E-03  0.9999067E+03  0.7818609E-02  0.9308647E-01
       -1   -1    0    0    0  501  0.00000000000E+00  0.00000000000E+00  0.27611460524E+03  0.27611460529E+03  0.50400001928E-02 0.  1.
        1   -1    0    0  501    0  0.00000000000E+00  0.00000000000E+00 -0.90525219140E+03  0.90525219141E+03  0.50400001928E-02 0. -1.
    10030    2    1    2    0    0  0.00000000000E+00  0.00000000000E+00 -0.62913758616E+03  0.11813667967E+04  0.99990669866E+03 0.  0.
        2    1    3    3  502    0  0.32434047557E+03  0.35966234504E+03 -0.46118435620E+03  0.66876360319E+03  0.25500000920E-02 0. -1.
       -2    1    3    3    0  502 -0.32434047557E+03 -0.35966234504E+03 -0.16795322995E+03  0.51260319351E+03  0.25500000920E-02 0.  1.
</event>
<event>
 5   0  0.1285769E-03  0.9925864E+03  0.7818609E-02  0.9316713E-01
        1   -1    0    0  501    0  0.00000000000E+00  0.00000000000E+00  0.12239232969E+04  0.12239232969E+04  0.50400001928E-02 0.  1.
       -1   -1    0    0    0  501  0.00000000000E+00  0.00000000000E+00 -0.20124376603E+03  0.20124376609E+03  0.50400001928E-02 0. -1.
    10030    2    1    2    0    0  0.00000000000E+00  0.00000000000E+00  0.10226795309E+04  0.14251670630E+04  0.99258638648E+03 0.  0.
        5    1    3    3  502    0 -0.39897302610E+03  0.96911005221E+02  0.11107621208E+03  0.42536012198E+03  0.46999998093E+01 0. -1.
       -5    1    3    3    0  502  0.39897302610E+03 -0.96911005221E+02  0.91160331882E+03  0.99980694105E+03  0.46999998093E+01 0.  1.
</event>
<event>
 5   0  0.2284843E-03  0.9991304E+03  0.7818609E-02  0.9309499E-01
       -2   -1    0    0    0  501  0.00000000000E+00  0.00000000000E+00  0.25689890275E+03  0.25689890276E+03  0.25500000920E-02 0. -1.
        2   -1    0    0  501    0  0.00000000000E+00  0.00000000000E+00 -0.97145376754E+03  0.97145376755E+03  0.25500000920E-02 0.  1.
    10030    2    1    2    0    0  0.00000000000E+00  0.00000000000E+00 -0.71455486479E+03  0.12283526703E+04  0.99913043586E+03 0.  0.
        2    1    3    3  502    0 -0.16646476882E+03 -0.43426260182E+03 -0.13302713287E+03  0.48372589830E+03  0.25500000920E-02 0. -1.
       -2    1    3    3    0  502  0.16646476882E+03  0.43426260182E+03 -0.58152773192E+03  0.74462677201E+03  0.25500000920E-02 0.  1.
</event>
<event>
 5   0  0.2255142E-03  0.1003296E+04  0.7818609E-02  0.9304937E-01
        2   -1    0    0  501    0  0.00000000000E+00  0.00000000000E+00  0.92467311472E+03  0.92467311473E+03  0.25500000920E-02 0. -1.
       -2   -1    0    0    0  501  0.00000000000E+00  0.00000000000E+00 -0.27215121845E+03  0.27215121846E+03  0.25500000920E-02 0.  1.
    10030    2    1    2    0    0  0.00000000000E+00  0.00000000000E+00  0.65252189627E+03  0.11968243332E+04  0.10032963966E+04 0.  0.
        4    1    3    3  502    0  0.39779076420E+03 -0.26672980669E+02  0.68945763067E+03  0.79643102486E+03  0.12699999809E+01 0. -1.
       -4    1    3    3    0  502 -0.39779076420E+03  0.26672980669E+02 -0.36935734395E+02  0.40039330833E+03  0.12699999809E+01 0.  1.
</event>
<event>
 5   0  0.2277570E-03  0.1007369E+04  0.7818609E-02  0.9300499E-01
       -2   -1    0    0    0  501  0.00000000000E+00  0.00000000000E+00  0.31914355617E+03  0.31914355618E+03  0.25500000920E-02 0.  1.
        2   -1    0    0  501    0  0.00000000000E+00  0.00000000000E+00 -0.79493385265E+03  0.79493385265E+03  0.25500000920E-02 0. -1.
    10030    2    1    2    0    0  0.00000000000E+00  0.00000000000E+00 -0.47579029648E+03  0.11140774088E+04  0.10073688831E+04 0.  0.
        3    1    3    3  502    0  0.56995325507E+01 -0.35899421844E+03 -0.62856906724E+03  0.72388425597E+03  0.10100000352E+00 0. -1.
       -3    1    3    3    0  502 -0.56995325507E+01  0.35899421844E+03  0.15277877076E+03  0.39019315286E+03  0.10100000352E+00 0.  1.
</event>
<event>
 5   0  0.1293575E-03  0.1000286E+04  0.7818609E-02  0.9308231E-01
        1   -1    0    0  501    0  0.00000000000E+00  0.00000000000E+00  0.27279711652E+03  0.27279711657E+03  0.50400001928E-02 0. -1.
       -1   -1    0    0    0  501  0.00000000000E+00  0.00000000000E+00 -0.91695571667E+03  0.91695571669E+03  0.50400001928E-02 0.  1.
    10030    2    1    2    0    0  0.00000000000E+00  0.00000000000E+00 -0.64415860015E+03  0.11897528333E+04  0.10002857102E+04 0.  0.
        4    1    3    3  502    0 -0.40354996077E+03  0.26712146498E+02 -0.67204809087E+03  0.78435729036E+03  0.12699999809E+01 0.  1.
       -4    1    3    3    0  502  0.40354996077E+03 -0.26712146498E+02  0.27889490723E+02  0.40539554289E+03  0.12699999809E+01 0. -1.
</event>
<event>
 5   0  0.1293716E-03  0.9995592E+03  0.7818609E-02  0.9309028E-01
       -1   -1    0    0    0  501  0.00000000000E+00  0.00000000000E+00  0.50632311468E+03  0.50632311471E+03  0.50400001928E-02 0. -1.
        1   -1    0    0  501    0  0.00000000000E+00  0.00000000000E+00 -0.49332067571E+03  0.49332067573E+03  0.50400001928E-02 0.  1.
    10030    2    1    2    0    0  0.00000000000E+00  0.00000000000E+00  0.13002438975E+02  0.99964379044E+03  0.99955922503E+03 0.  0.
        3    1    3    3  502    0 -0.22399293942E+03 -0.32576546103E+03 -0.29927565503E+03  0.49584463333E+03  0.10100000352E+00 0.  1.
       -3    1    3    3    0  502  0.22399293942E+03  0.32576546103E+03  0.31227809400E+03  0.50379915711E+03  0.10100000352E+00 0. -1.
</event>
<event>
 5   0  0.1285769E-03  0.1000027E+04  0.7818609E-02  0.9308515E-01
       -1   -1    0    0    0  501  0.00000000000E+00  0.00000000000E+00  0.14996578656E+04  0.14996578656E+04  0.50400001928E-02 0.  1.
        1   -1    0    0  501    0  0.00000000000E+00  0.00000000000E+00 -0.16671367744E+03  0.16671367752E+03  0.50400001928E-02 0. -1.
    10030    2    1    2    0    0  0.00000000000E+00  0.00000000000E+00  0.13329441881E+04  0.16663715431E+04  0.10000269551E+04 0.  0.
        5    1    3    3  502    0 -0.13472950280E+03  0.26364588101E+03 -0.48946019179E+01  0.29615407582E+03  0.46999998093E+01 0. -1.
       -5    1    3    3    0  502  0.13472950280E+03 -0.26364588101E+03  0.13378387900E+04  0.13702174673E+04  0.46999998093E+01 0.  1.
</event>
<event>
 5   0  0.1285769E-03  0.1005085E+04  0.7818609E-02  0.9302985E-01
        1   -1    0    0  501    0  0.00000000000E+00  0.00000000000E+00  0.79807357414E+03  0.79807357416E+03  0.50400001928E-02 0. -1.
       -1   -1    0    0    0  501  0.00000000000E+00  0.00000000000E+00 -0.31644845381E+03  0.31644845385E+03  0.50400001928E-02 0.  1.
    10030    2    1    2    0    0  0.00000000000E+00  0.00000000000E+00  0.48162512033E+03  0.11145220280E+04  0.10050853667E+04 0.  0.
        5    1    3    3  502    0  0.16600534566E+03  0.24540768558E+03 -0.20926874403E+03  0.36276466773E+03  0.46999998093E+01 0.  1.
       -5    1    3    3    0  502 -0.16600534566E+03 -0.24540768558E+03  0.69089386436E+03  0.75175736028E+03  0.46999998093E+01 0. -1.
</event>
<event>
 5   0  0.2284843E-03  0.9842737E+03  0.7818609E-02  0.9325963E-01
        2   -1    0    0  501    0  0.00000000000E+00  0.00000000000E+00  0.78461982708E+03  0.78461982708E+03  0.25500000920E-02 0. -1.
       -2   -1    0    0    0  501  0.00000000000E+00  0.00000000000E+00 -0.30868284253E+03  0.30868284254E+03  0.25500000920E-02 0.  1.
    10030    2    1    2    0    0  0.00000000000E+00  0.00000000000E+00  0.47593698456E+03  0.10933026696E+04  0.98427369879E+03 0.  0.
        2    1    3    3  502    0 -0.18395384797E+03 -0.21687106846E+03  0.68411502154E+03  0.74086803226E+03  0.25500000920E-02 0. -1.
       -2    1    3    3    0  502  0.18395384797E+03  0.21687106846E+03 -0.20817803699E+03  0.35243463736E+03  0.25500000920E-02 0.  1.
</event>
<event>
 5   0  0.2284843E-03  0.1001055E+04  0.7818609E-02  0.9307388E-01
        2   -1    0    0  501    0  0.00000000000E+00  0.00000000000E+00  0.26773060873E+04  0.26773060873E+04  0.25500000920E-02 0. -1.
       -2   -1    0    0    0  501  0.00000000000E+00  0.00000000000E+00 -0.93574590887E+02  0.93574590921E+02  0.25500000920E-02 0.  1.
    10030    2    1    2    0    0  0.00000000000E+00  0.00000000000E+00  0.25837314964E+04  0.27708806783E+04  0.10010550871E+04 0.  0.
        2    1    3    3  502    0  0.49554240044E+03  0.58306140960E+02  0.11823319575E+04  0.12833046149E+04  0.25500000920E-02 0.  1.
       -2    1    3    3    0  502 -0.49554240044E+03 -0.58306140960E+02  0.14013995389E+04  0.14875760634E+04  0.25500000920E-02 0. -1.
</event>
<event>
 5   0  0.1293716E-03  0.1008855E+04  0.7818609E-02  0.9298886E-01
        1   -1    0    0  501    0  0.00000000000E+00  0.00000000000E+00  0.71475275220E+03  0.71475275221E+03  0.50400001928E-02 0.  1.
       -1   -1    0    0    0  501  0.00000000000E+00  0.00000000000E+00 -0.35599310960E+03  0.35599310964E+03  0.50400001928E-02 0. -1.
    10030    2    1    2    0    0  0.00000000000E+00  0.00000000000E+00  0.35875964259E+03  0.10707458619E+04  0.10088549051E+04 0.  0.
        3    1    3    3  502    0 -0.24624143242E+03  0.41083313791E+03  0.11470939479E+02  0.47911408130E+03  0.10100000352E+00 0. -1.
       -3    1    3    3    0  502  0.24624143242E+03 -0.41083313791E+03  0.34728870312E+03  0.59163178055E+03  0.10100000352E+00 0.  1.
</event>
<event>
 5   0  0.1353789E-03  0.9996111E+03  0.7818609E-02  0.9308971E-01
        1   -1    0    0  501    0  0.00000000000E+00  0.00000000000E+00  0.17171881479E+03  0.17171881487E+03  0.50400001928E-02 0. -1.
       -1   -1    0    0    0  501  0.00000000000E+00  0.00000000000E+00 -0.14547362034E+04  0.14547362035E+04  0.50400001928E-02 0.  1.
    10030    2    1    2    0    0  0.00000000000E+00  0.00000000000E+00 -0.12830173887E+04  0.16264550183E+04  0.99961107789E+03 0.  0.
        1    1    3    3  502    0  0.80811443584E+02  0.37081247725E+03 -0.11233431890E+03  0.39579209432E+03  0.50400001928E-02 0. -1.
       -1    1    3    3    0  502 -0.80811443584E+02 -0.37081247725E+03 -0.11706830698E+04  0.12306629240E+04  0.50400001928E-02 0.  1.
</event>
<event>
 5   0  0.2204862E-03  0.1002100E+04  0.7818609E-02  0.9306244E-01
       -2   -1    0    0    0  501  0.00000000000E+00  0.00000000000E+00  0.21468908310E+03  0.21468908311E+03  0.25500000920E-02 0. -1.
        2   -1    0    0  501    0  0.00000000000E+00  0.00000000000E+00 -0.11693710837E+04  0.11693710837E+04  0.25500000920E-02 0.  1.
    10030    2    1    2    0    0  0.00000000000E+00  0.00000000000E+00 -0.95468200064E+03  0.13840601668E+04  0.10021002061E+04 0.  0.
        1    1    3    3  502    0 -0.21565702409E+03 -0.32349587505E+03 -0.91386970668E+03  0.99313411683E+03  0.50400001928E-02 0.  1.
       -1    1    3    3    0  502  0.21565702409E+03  0.32349587505E+03 -0.40812293960E+02  0.39092605001E+03  0.50400001928E-02 0. -1.
</event>
<event>
 5   0  0.2264577E-03  0.1038935E+04  0.7818609E-02  0.9266843E-01
        2   -1    0    0  501    0  0.00000000000E+00  0.00000000000E+00  0.12235264875E+04  0.12235264875E+04  0.25500000920E-02 0. -1.
       -2   -1    0    0    0  501  0.00000000000E+00  0.00000000000E+00 -0.22054831037E+03  0.22054831039E+03  0.25500000920E-02 0.  1.
    10030    2    1    2    0    0  0.00000000000E+00  0.00000000000E+00  0.10029781771E+04  0.14440747979E+04  0.10389354157E+04 0.  0.
        5    1    3    3  502    0  0.71407881310E+02 -0.29038055104E+03  0.10918600844E+04  0.11320779495E+04  0.46999998093E+01 0. -1.
       -5    1    3    3    0  502 -0.71407881310E+02  0.29038055104E+03 -0.88881907279E+02  0.31199684834E+03  0.46999998093E+01 0.  1.
</event>
<event>
 5   0  0.1249195E-03  0.9914575E+03  0.7818609E-02  0.9317964E-01
        1   -1    0    0  501    0  0.00000000000E+00  0.00000000000E+00  0.53950694609E+03  0.53950694611E+03  0.50400001928E-02 0.  1.
       -1   -1    0    0    0  501  0.00000000000E+00  0.00000000000E+00 -0.45550288427E+03  0.45550288430E+03  0.50400001928E-02 0. -1.
    10030    2    1    2    0    0  0.00000000000E+00  0.00000000000E+00  0.84004061812E+02  0.99500983041E+03  0.99145745255E+03 0.  0.
        2    1    3    3  502    0 -0.20556360947E+02 -0.42628634650E+03  0.29510469861E+03  0.51887319871E+03  0.25500000920E-02 0.  1.
       -2    1    3    3    0  502  0.20556360947E+02  0.42628634650E+03 -0.21110063679E+03  0.47613663171E+03  0.25500000920E-02 0. -1.
</event>
<event>
 5   0  0.1249195E-03  0.9996561E+03  0.7818609E-02  0.9308922E-01
        1   -1    0    0  501    0  0.00000000000E+00  0.00000000000E+00  0.33614900900E+03  0.33614900904E+03  0.50400001928E-02 0.  1.
       -1   -1    0    0    0  501  0.00000000000E+00  0.00000000000E+00 -0.74320630592E+03  0.74320630593E+03  0.50400001928E-02 0. -1.
    10030    2    1    2    0    0  0.00000000000E+00  0.00000000000E+00 -0.40705729692E+03  0.10793553150E+04  0.99965606735E+03 0.  0.
        2    1    3    3  502    0  0.16406748709E+03  0.22903422209E+03  0.24224713174E+03  0.37156222635E+03  0.25500000920E-02 0.  1.
       -2    1    3    3    0  502 -0.16406748709E+03 -0.22903422209E+03 -0.64930442866E+03  0.70779308862E+03  0.25500000920E-02 0. -1.
</event>
<event>
 5   0  0.1293716E-03  0.1000400E+04  0.7818609E-02  0.9308107E-01
        1   -1    0    0  501    0  0.00000000000E+00  0.00000000000E+00  0.22481972720E+03  0.22481972726E+03  0.50400001928E-02 0.  1.
       -1   -1    0    0    0  501  0.00000000000E+00  0.00000000000E+00 -0.11128908544E+04  0.11128908544E+04  0.50400001928E-02 0. -1.
    10030    2    1    2    0    0  0.00000000000E+00  0.00000000000E+00 -0.88807112718E+03  0.13377105816E+04  0.10003995568E+04 0.  0.
        3    1    3    3  502    0 -0.56000113739E+02 -0.38103711075E+03 -0.17238473025E+02  0.38551584618E+03  0.10100000352E+00 0.  1.
       -3    1    3    3    0  502  0.56000113739E+02  0.38103711075E+03 -0.87083265415E+03  0.95219473546E+03  0.10100000352E+00 0. -1.
</event>
<event>
 5   0  0.2277570E-03  0.9969644E+03  0.7818609E-02  0.9311881E-01
       -2   -1    0    0    0  501  0.00000000000E+00  0.00000000000E+00  0.16524956434E+03  0.16524956436E+03  0.25500000920E-02 0.  1.
        2   -1    0    0  501    0  0.00000000000E+00  0.00000000000E+00 -0.15036921990E+04  0.15036921990E+04  0.25500000920E-02 0. -1.
    10030    2    1    2    0    0  0.00000000000E+00  0.00000000000E+00 -0.13384426346E+04  0.16689417633E+04  0.99696435403E+03 0.  0.
        3    1    3    3  502    0 -0.33212318245E+03  0.33019950662E+03 -0.38342403427E+03  0.60526979336E+03  0.10100000352E+00 0.  1.
       -3    1    3    3    0  502  0.33212318245E+03 -0.33019950662E+03 -0.95501860034E+03  0.10636719700E+04  0.10100000352E+00 0. -1.
</event>
<event>
 5   0  0.1285769E-03  0.1014215E+04  0.7818609E-02  0.9293090E-01
        1   -1    0    0  501    0  0.00000000000E+00  0.00000000000E+00  0.94366789963E+03  0.94366789965E+03  0.50400001928E-02 0.  1.
       -1   -1    0    0    0  501  0.00000000000E+00  0.00000000000E+00 -0.27250924173E+03  0.27250924178E+03  0.50400001928E-02 0. -1.
    10030    2    1    2    0    0  0.00000000000E+00  0.00000000000E+00  0.67115865790E+03  0.12161771414E+04  0.10142154087E+04 0.  0.
        5    1    3    3  502    0  0.13129744219E+03  0.40767255584E+03  0.66111679090E+03  0.78773944444E+03  0.46999998093E+01 0.  1.
       -5    1    3    3    0  502 -0.13129744219E+03 -0.40767255584E+03  0.10041867001E+02  0.42843769699E+03  0.46999998093E+01 0. -1.
</event>
<event>
 5   0  0.1249195E-03  0.9996355E+03  0.7818609E-02  0.9308945E-01
       -1   -1    0    0    0  501  0.00000000000E+00  0.00000000000E+00  0.54613846886E+03  0.54613846889E+03  0.50400001928E-02 0. -1.
        1   -1    0    0  501    0  0.00000000000E+00  0.00000000000E+00 -0.45742568086E+03  0.45742568089E+03  0.50400001928E-02 0.  1.
    10030    2    1    2    0    0  0.00000000000E+00  0.00000000000E+00  0.88712788004E+02  0.10035641498E+04  0.99963545553E+03 0.  0.
        2    1    3    3  502    0  0.25756900455E+03  0.65433352697E+02  0.46933371915E+03  0.53934910372E+03  0.25500000920E-02 0. -1.
       -2    1    3    3    0  502 -0.25756900455E+03 -0.65433352697E+02 -0.38062093114E+03  0.46421504605E+03  0.25500000920E-02 0.  1.
</event>
<event>
 5   0  0.2277570E-03  0.1000558E+04  0.7818609E-02  0.9307933E-01
        2   -1    0    0  501    0  0.00000000000E+00  0.00000000000E+00  0.59637808114E+03  0.59637808114E+03  0.25500000920E-02 0. -1.
       -2   -1    0    0    0  501  0.00000000000E+00  0.00000000000E+00 -0.41966513912E+03  0.41966513913E+03  0.25500000920E-02 0.  1.
    10030    2    1    2    0    0  0.00000000000E+00  0.00000000000E+00  0.17671294201E+03  0.10160432203E+04  0.10005580251E+04 0.  0.
        3    1    3    3  502    0  0.25828814487E+03  0.26202298882E+03 -0.25587400781E+03  0.44815212877E+03  0.10100000352E+00 0.  1.
       -3    1    3    3    0  502 -0.25828814487E+03 -0.26202298882E+03  0.43258694983E+03  0.56789109150E+03  0.10100000352E+00 0. -1.
</event>
<event>
 5   0  0.2264577E-03  0.1062020E+04  0.7818609E-02  0.9243021E-01
        2   -1    0    0  501    0  0.00000000000E+00  0.00000000000E+00  0.98700960552E+03  0.98700960553E+03  0.25500000920E-02 0. -1.
       -2   -1    0    0    0  501  0.00000000000E+00  0.00000000000E+00 -0.28568285760E+03  0.28568285761E+03  0.25500000920E-02 0.  1.
    10030    2    1    2    0    0  0.00000000000E+00  0.00000000000E+00  0.70132674793E+03  0.12726924631E+04  0.10620201968E+04 0.  0.
        5    1    3    3  502    0 -0.77803638213E+02  0.45467137062E+03  0.66583718842E+03  0.81002513101E+03  0.46999998093E+01 0. -1.
       -5    1    3    3    0  502  0.77803638213E+02 -0.45467137062E+03  0.35489559504E+02  0.46266733213E+03  0.46999998093E+01 0.  1.
</event>
<event>
 5   0  0.2264577E-03  0.9988964E+03  0.7818609E-02  0.9309756E-01
        2   -1    0    0  501    0  0.00000000000E+00  0.00000000000E+00  0.52134978782E+03  0.52134978783E+03  0.25500000920E-02 0. -1.
       -2   -1    0    0    0  501  0.00000000000E+00  0.00000000000E+00 -0.47846664154E+03  0.47846664154E+03  0.25500000920E-02 0.  1.
    10030    2    1    2    0    0  0.00000000000E+00  0.00000000000E+00  0.42883146286E+02  0.99981642937E+03  0.99889635509E+03 0.  0.
        5    1    3    3  502    0  0.13188980646E+03  0.48104001896E+03 -0.37206189243E+01  0.49882898261E+03  0.46999998093E+01 0.  1.
       -5    1    3    3    0  502 -0.13188980646E+03 -0.48104001896E+03  0.46603765210E+02  0.50098744676E+03  0.46999998093E+01 0. -1.
</event>
<event>
 5   0  0.2264577E-03  0.1001143E+04  0.7818609E-02  0.9307292E-01
       -2   -1    0    0    0  501  0.00000000000E+00  0.00000000000E+00  0.37957755821E+03  0.37957755822E+03  0.25500000920E-02 0.  1.
        2   -1    0    0  501    0  0.00000000000E+00  0.00000000000E+00 -0.66013299985E+03  0.66013299986E+03  0.25500000920E-02 0. -1.
    10030    2    1    2    0    0  0.00000000000E+00  0.00000000000E+00 -0.28055544164E+03  0.10397105581E+04  0.10011426915E+04 0.  0.
        5    1    3    3  502    0 -0.24453171438E+03 -0.13217138543E+03 -0.57258882567E+03  0.63651008455E+03  0.46999998093E+01 0. -1.
       -5    1    3    3    0  502  0.24453171438E+03  0.13217138543E+03  0.29203338403E+03  0.40320047352E+03  0.46999998093E+01 0.  1.
</event>
<event>
 5   0  0.2284843E-03  0.9999816E+03  0.7818609E-02  0.9308565E-01
       -2   -1    0    0    0  501  0.00000000000E+00  0.00000000000E+00  0.22500074758E+03  0.22500074759E+03  0.25500000920E-02 0.  1.
        2   -1    0    0  501    0  0.00000000000E+00  0.00000000000E+00 -0.11110665962E+04  0.11110665962E+04  0.25500000920E-02 0. -1.
    10030    2    1    2    0    0  0.00000000000E+00  0.00000000000E+00 -0.88606584861E+03  0.13360673438E+04  0.99998162936E+03 0.  0.
        2    1    3    3  502    0  0.44969153936E+03 -0.19957941153E+03 -0.32400526281E+03  0.58909577525E+03  0.25500000920E-02 0. -1.
       -2    1    3    3    0  502 -0.44969153936E+03  0.19957941153E+03 -0.56206058580E+03  0.74697156854E+03  0.25500000920E-02 0.  1.
</event>
<event>
 5   0  0.2255142E-03  0.1003538E+04  0.7818609E-02  0.9304673E-01
        2   -1    0    0  501    0  0.00000000000E+00  0.00000000000E+00  0.75333862978E+03  0.75333862978E+03  0.25500000920E-02 0. -1.
       -2   -1    0    0    0  501  0.00000000000E+00  0.00000000000E+00 -0.33420838830E+03  0.33420838831E+03  0.25500000920E-02 0.  1.
    10030    2    1    2    0    0  0.00000000000E+00  0.00000000000E+00  0.41913024148E+03  0.10875470181E+04  0.10035379202E+04 0.  0.
        4    1    3    3  502    0  0.82484107941E+02 -0.94953385708E+02  0.73597604348E+03  0.74664725473E+03  0.12699999809E+01 0. -1.
       -4    1    3    3    0  502 -0.82484107941E+02  0.94953385708E+02 -0.31684580200E+03  0.34089976337E+03  0.12699999809E+01 0.  1.
</event>
<event>
 5   0  0.2264577E-03  0.1002088E+04  0.7818609E-02  0.9306258E-01
        2   -1    0    0  501    0  0.00000000000E+00  0.00000000000E+00  0.55056276231E+03  0.55056276231E+03  0.25500000920E-02 0. -1.
       -2   -1    0    0    0  501  0.00000000000E+00  0.00000000000E+00 -0.45597913606E+03  0.45597913607E+03  0.25500000920E-02 0.  1.
    10030    2    1    2    0    0  0.00000000000E+00  0.00000000000E+00  0.94583626250E+02  0.10065418984E+04  0.10020880854E+04 0.  0.
        5    1    3    3  502    0 -0.48943772779E+03 -0.10671929147E+03  0.56538496112E+02  0.50413984974E+03  0.46999998093E+01 0.  1.
       -5    1    3    3    0  502  0.48943772779E+03  0.10671929147E+03  0.38045130138E+02  0.50240204864E+03  0.46999998093E+01 0. -1.
</event>
<event>
 5   0  0.2264577E-03  0.9957765E+03  0.7818609E-02  0.9313189E-01
       -2   -1    0    0    0  501  0.00000000000E+00  0.00000000000E+00  0.22775427212E+03  0.22775427213E+03  0.25500000920E-02 0. -1.
        2   -1    0    0  501    0  0.00000000000E+00  0.00000000000E+00 -0.10884217670E+04  0.10884217670E+04  0.25500000920E-02 0.  1.
    10030    2    1    2    0    0  0.00000000000E+00  0.00000000000E+00 -0.86066749492E+03  0.13161760392E+04  0.99577649565E+03 0.  0.
        5    1    3    3  502    0  0.24588175753E+03 -0.59311426181E+02 -0.99714307856E+03  0.10287332468E+04  0.46999998093E+01 0.  1.
       -5    1    3    3    0  502 -0.24588175753E+03  0.59311426181E+02  0.13647558364E+03  0.28744279237E+03  0.46999998093E+01 0. -1.
</event>
<event>
 5   0  0.2204862E-03  0.9866924E+03  0.7818609E-02  0.9323262E-01
       -2   -1    0    0    0  501  0.00000000000E+00  0.00000000000E+00  0.96703949101E+03  0.96703949101E+03  0.25500000920E-02 0.  1.
        2   -1    0    0  501    0  0.00000000000E+00  0.00000000000E+00 -0.25168618722E+03  0.25168618724E+03  0.25500000920E-02 0. -1.
    10030    2    1    2    0    0  0.00000000000E+00  0.00000000000E+00  0.71535330379E+03  0.12187256782E+04  0.98669241894E+03 0.  0.
        1    1    3    3  502    0 -0.32838557686E+03 -0.30561222054E+03  0.61127503556E+03  0.75821704383E+03  0.50400001928E-02 0.  1.
       -1    1    3    3    0  502  0.32838557686E+03  0.30561222054E+03  0.10407826822E+03  0.46050863442E+03  0.50400001928E-02 0. -1.
</event>
<event>
 5   0  0.8680125E-04  0.1002310E+04  0.7818609E-02  0.9306015E-01
       -3   -1    0    0    0  501  0.00000000000E+00  0.00000000000E+00  0.48423765527E+03  0.48423766580E+03  0.10100000352E+00 0. -1.
        3   -1    0    0  501    0  0.00000000000E+00  0.00000000000E+00 -0.51866325809E+03  0.51866326792E+03  0.10100000352E+00 0.  1.
    10030    2    1    2    0    0  0.00000000000E+00  0.00000000000E+00 -0.34425602818E+02  0.10029009337E+04  0.10023099125E+04 0.  0.
        2    1    3    3  502    0  0.15028384961E+03  0.33601092505E+03  0.32308730473E+03  0.48976931681E+03  0.25500000920E-02 0. -1.
       -2    1    3    3    0  502 -0.15028384961E+03 -0.33601092505E+03 -0.35751290755E+03  0.51313161691E+03  0.25500000920E-02 0.  1.
</event>
<event>
 5   0  0.2204862E-03  0.1000443E+04  0.7818609E-02  0.9308059E-01
        2   -1    0    0  501    0  0.00000000000E+00  0.00000000000E+00  0.33110577856E+03  0.33110577857E+03  0.25500000920E-02 0. -1.
       -2   -1    0    0    0  501  0.00000000000E+00  0.00000000000E+00 -0.75571491595E+03  0.75571491596E+03  0.25500000920E-02 0.  1.
    10030    2    1    2    0    0  0.00000000000E+00  0.00000000000E+00 -0.42460913740E+03  0.10868206945E+04  0.10004430531E+04 0.  0.
        1    1    3    3  502    0 -0.13875282709E+03 -0.47439161180E+03 -0.29590208842E+03  0.57607099765E+03  0.50400001928E-02 0.  1.
       -1    1    3    3    0  502  0.13875282709E+03  0.47439161180E+03 -0.12870704898E+03  0.51074969687E+03  0.50400001928E-02 0. -1.
</event>
<event>
 5   0  0.1249195E-03  0.9805784E+03  0.7818609E-02  0.9330106E-01
       -1   -1    0    0    0  501  0.00000000000E+00  0.00000000000E+00  0.62598113203E+03  0.62598113205E+03  0.50400001928E-02 0. -1.
        1   -1    0    0  501    0  0.00000000000E+00  0.00000000000E+00 -0.38401074879E+03  0.38401074883E+03  0.50400001928E-02 0.  1.
    10030    2    1    2    0    0  0.00000000000E+00  0.00000000000E+00  0.24197038324E+03  0.10099918809E+04  0.98057836661E+03 0.  0.
        2    1    3    3  502    0 -0.23279412535E+02  0.76127897623E+02 -0.37730951653E+03  0.38561620702E+03  0.25500000920E-02 0.  1.
       -2    1    3    3    0  502  0.23279412535E+02 -0.76127897623E+02  0.61927989976E+03  0.62437567386E+03  0.25500000920E-02 0. -1.
</event>
<event>
 5   0  0.2277570E-03  0.1004258E+04  0.7818609E-02  0.9303887E-01
        2   -1    0    0  501    0  0.00000000000E+00  0.00000000000E+00  0.11203479923E+04  0.11203479923E+04  0.25500000920E-02 0.  1.
       -2   -1    0    0    0  501  0.00000000000E+00  0.00000000000E+00 -0.22504910621E+03  0.22504910623E+03  0.25500000920E-02 0. -1.
    10030    2    1    2    0    0  0.00000000000E+00  0.00000000000E+00  0.89529888610E+03  0.13453970985E+04  0.10042575652E+04 0.  0.
        3    1    3    3  502    0 -0.11310921318E+03  0.10150168588E+03  0.10887973294E+04  0.10993525008E+04  0.10100000352E+00 0.  1.
       -3    1    3    3    0  502  0.11310921318E+03 -0.10150168588E+03 -0.19349844326E+03  0.24604459776E+03  0.10100000352E+00 0. -1.
</event>
<event>
 5   0  0.1293575E-03  0.9982405E+03  0.7818609E-02  0.9310477E-01
        1   -1    0    0  501    0  0.00000000000E+00  0.00000000000E+00  0.32934380181E+03  0.32934380185E+03  0.50400001928E-02 0.  1.
       -1   -1    0    0    0  501  0.00000000000E+00  0.00000000000E+00 -0.75641626797E+03  0.75641626798E+03  0.50400001928E-02 0. -1.
    10030    2    1    2    0    0  0.00000000000E+00  0.00000000000E+00 -0.42707246616E+03  0.10857600698E+04  0.99824047097E+03 0.  0.
        4    1    3    3  502    0  0.43225377393E+03 -0.20214668631E+03 -0.37269673809E+03  0.60548416936E+03  0.12699999809E+01 0. -1.
       -4    1    3    3    0  502 -0.43225377393E+03  0.20214668631E+03 -0.54375728065E+02  0.48027590047E+03  0.12699999809E+01 0.  1.
</event>
<event>
 5   0  0.1353789E-03  0.9994475E+03  0.7818609E-02  0.9309151E-01
        1   -1    0    0  501    0  0.00000000000E+00  0.00000000000E+00  0.79399011920E+03  0.79399011922E+03  0.50400001928E-02 0. -1.
       -1   -1    0    0    0  501  0.00000000000E+00  0.00000000000E+00 -0.31451757224E+03  0.31451757228E+03  0.50400001928E-02 0.  1.
    10030    2    1    2    0    0  0.00000000000E+00  0.00000000000E+00  0.47947254696E+03  0.11085076915E+04  0.99944753680E+03 0.  0.
        1    1    3    3  502    0 -0.28325494443E+03 -0.33460365245E+02 -0.21536935468E+03  0.35740301978E+03  0.50400001928E-02 0.  1.
       -1    1    3    3    0  502  0.28325494443E+03  0.33460365245E+02  0.69484190164E+03  0.75110467172E+03  0.50400001928E-02 0. -1.
</event>
<event>
 5   0  0.1285769E-03  0.1003443E+04  0.7818609E-02  0.9304776E-01
        1   -1    0    0  501    0  0.00000000000E+00  0.00000000000E+00  0.13377768010E+04  0.13377768010E+04  0.50400001928E-02 0. -1.
       -1   -1    0    0    0  501  0.00000000000E+00  0.00000000000E+00 -0.18816632644E+03  0.18816632651E+03  0.50400001928E-02 0.  1.
    10030    2    1    2    0    0  0.00000000000E+00  0.00000000000E+00  0.11496104746E+04  0.15259431275E+04  0.10034431649E+04 0.  0.
        5    1    3    3  502    0  0.17705379630E+01 -0.49916491531E+03  0.49825898696E+03  0.70530337839E+03  0.46999998093E+01 0.  1.
       -5    1    3    3    0  502 -0.17705379630E+01  0.49916491531E+03  0.65135148762E+03  0.82063974916E+03  0.46999998093E+01 0. -1.
</event>
<event>
 5   0  0.2255142E-03  0.9977193E+03  0.7818609E-02  0.9311050E-01
       -2   -1    0    0    0  501  0.00000000000E+00  0.00000000000E+00  0.26136799823E+03  0.26136799824E+03  0.25500000920E-02 0. -1.
        2   -1    0    0  501    0  0.00000000000E+00  0.00000000000E+00 -0.95214775369E+03  0.95214775369E+03  0.25500000920E-02 0.  1.
    10030    2    1    2    0    0  0.00000000000E+00  0.00000000000E+00 -0.69077975546E+03  0.12135157519E+04  0.99771930403E+03 0.  0.
        4    1    3    3  502    0 -0.22434120972E+02 -0.22184377809E+03 -0.88816234273E+03  0.91572480124E+03  0.12699999809E+01 0.  1.
       -4    1    3    3    0  502  0.22434120972E+02  0.22184377809E+03  0.19738258727E+03  0.29779095070E+03  0.12699999809E+01 0. -1.
</event>
<event>
 5   0  0.1249195E-03  0.1002576E+04  0.7818609E-02  0.9305724E-01
       -1   -1    0    0    0  501  0.00000000000E+00  0.00000000000E+00  0.14631099628E+03  0.14631099637E+03  0.50400001928E-02 0.  1.
        1   -1    0    0  501    0  0.00000000000E+00  0.00000000000E+00 -0.17175026115E+04  0.17175026115E+04  0.50400001928E-02 0. -1.
    10030    2    1    2    0    0  0.00000000000E+00  0.00000000000E+00 -0.15711916152E+04  0.18638136079E+04  0.10025757194E+04 0.  0.
        2    1    3    3  502    0 -0.15855260354E+03  0.44530112787E+03 -0.47531398639E+03  0.67033977074E+03  0.25500000920E-02 0.  1.
       -2    1    3    3    0  502  0.15855260354E+03 -0.44530112787E+03 -0.10958776289E+04  0.11934738372E+04  0.25500000920E-02 0. -1.
</event>
<event>
 5   0  0.2284843E-03  0.9995040E+03  0.7818609E-02  0.9309089E-01
       -2   -1    0    0    0  501  0.00000000000E+00  0.00000000000E+00  0.75827379988E+03  0.75827379989E+03  0.25500000920E-02 0.  1.
        2   -1    0    0  501    0  0.00000000000E+00  0.00000000000E+00 -0.32936925696E+03  0.32936925697E+03  0.25500000920E-02 0. -1.
    10030    2    1    2    0    0  0.00000000000E+00  0.00000000000E+00  0.42890454292E+03  0.10876430569E+04  0.99950403310E+03 0.  0.
        2    1    3    3  502    0  0.39008214432E+03 -0.28332135359E+03  0.71253831629E+02  0.48735221067E+03  0.25500000920E-02 0.  1.
       -2    1    3    3    0  502 -0.39008214432E+03  0.28332135359E+03  0.35765071130E+03  0.60029084619E+03  0.25500000920E-02 0. -1.
</event>
<event>
 5   0  0.2204862E-03  0.9984956E+03  0.7818609E-02  0.9310196E-01
        2   -1    0    0  501    0  0.00000000000E+00  0.00000000000E+00  0.39884549231E+03  0.39884549232E+03  0.25500000920E-02 0. -1.
       -2   -1    0    0    0  501  0.00000000000E+00  0.00000000000E+00 -0.62492456649E+03  0.62492456649E+03  0.25500000920E-02 0.  1.
    10030    2    1    2    0    0  0.00000000000E+00  0.00000000000E+00 -0.22607907418E+03  0.10237700588E+04  0.99849556110E+03 0.  0.
        1    1    3    3  502    0  0.49484641509E+03 -0.64962414295E+02 -0.12581513585E+03  0.51470626403E+03  0.50400001928E-02 0.  1.
       -1    1    3    3    0  502 -0.49484641509E+03  0.64962414295E+02 -0.10026393832E+03  0.50906379478E+03  0.50400001928E-02 0. -1.
</event>
<event>
 5   0  0.2264577E-03  0.9998048E+03  0.7818609E-02  0.9308759E-01
        2   -1    0    0  501    0  0.00000000000E+00  0.00000000000E+00  0.16490673320E+04  0.16490673320E+04  0.25500000920E-02 0. -1.
       -2   -1    0    0    0  501  0.00000000000E+00  0.00000000000E+00 -0.15154165163E+03  0.15154165165E+03  0.25500000920E-02 0.  1.
    10030    2    1    2    0    0  0.00000000000E+00  0.00000000000E+00  0.14975256804E+04  0.18006089837E+04  0.99980475528E+03 0.  0.
        5    1    3    3  502    0  0.29333226317E+03  0.26566550820E+03  0.12987442431E+04  0.13577115591E+04  0.46999998093E+01 0. -1.
       -5    1    3    3    0  502 -0.29333226317E+03 -0.26566550820E+03  0.19878143732E+03  0.44289742456E+03  0.46999998093E+01 0.  1.
</event>
<event>
 5   0  0.1249195E-03  0.9988930E+03  0.7818609E-02  0.9309760E-01
       -1   -1    0    0    0  501  0.00000000000E+00  0.00000000000E+00  0.25113558761E+03  0.25113558767E+03  0.50400001928E-02 0. -1.
        1   -1    0    0  501    0  0.00000000000E+00  0.00000000000E+00 -0.99327550517E+03  0.99327550518E+03  0.50400001928E-02 0.  1.
    10030    2    1    2    0    0  0.00000000000E+00  0.00000000000E+00 -0.74213991755E+03  0.12444110928E+04  0.99889304271E+03 0.  0.
        2    1    3    3  502    0 -0.32105890931E+03 -0.15294619713E+03 -0.80794187008E+03  0.88274652528E+03  0.25500000920E-02 0.  1.
       -2    1    3    3    0  502  0.32105890931E+03  0.15294619713E+03  0.65801952529E+02  0.36166456756E+03  0.25500000920E-02 0. -1.
</event>
<event>
 5   0  0.1293575E-03  0.1000609E+04  0.7818609E-02  0.9307877E-01
        1   -1    0    0  501    0  0.00000000000E+00  0.00000000000E+00  0.91923272829E+03  0.91923272830E+03  0.50400001928E-02 0. -1.
       -1   -1    0    0    0  501  0.00000000000E+00  0.00000000000E+00 -0.27229749657E+03  0.27229749662E+03  0.50400001928E-02 0.  1.
    10030    2    1    2    0    0  0.00000000000E+00  0.00000000000E+00  0.64693523172E+03  0.11915302249E+04  0.10006093558E+04 0.  0.
        4    1    3    3  502    0  0.40603086875E+03  0.21261130817E+02 -0.23688292584E+02  0.40727859036E+03  0.12699999809E+01 0.  1.
       -4    1    3    3    0  502 -0.40603086875E+03 -0.21261130817E+02  0.67062352430E+03  0.78425163456E+03  0.12699999809E+01 0. -1.
</event>
<event>
 5   0  0.2255142E-03  0.1001078E+04  0.7818609E-02  0.9307363E-01
       -2   -1    0    0    0  501  0.00000000000E+00  0.00000000000E+00  0.19654017006E+03  0.19654017008E+03  0.25500000920E-02 0.  1.
        2   -1    0    0  501    0  0.00000000000E+00  0.00000000000E+00 -0.12747481117E+04  0.12747481117E+04  0.25500000920E-02 0. -1.
    10030    2    1    2    0    0  0.00000000000E+00  0.00000000000E+00 -0.10782079416E+04  0.14712882818E+04  0.10010778405E+04 0.  0.
        4    1    3    3  502    0  0.37602350302E+03  0.27996158927E+03 -0.79689122054E+03  0.92455902817E+03  0.12699999809E+01 0. -1.
       -4    1    3    3    0  502 -0.37602350302E+03 -0.27996158927E+03 -0.28131672110E+03  0.54672925362E+03  0.12699999809E+01 0.  1.
</event>
<event>
 5   0  0.2277570E-03  0.9996880E+03  0.7818609E-02  0.9308887E-01
       -2   -1    0    0    0  501  0.00000000000E+00  0.00000000000E+00  0.27578574672E+03  0.27578574673E+03  0.25500000920E-02 0.  1.
        2   -1    0    0  501    0  0.00000000000E+00  0.00000000000E+00 -0.90593521114E+03  0.90593521114E+03  0.25500000920E-02 0. -1.
    10030    2    1    2    0    0  0.00000000000E+00  0.00000000000E+00 -0.63014946441E+03  0.11817209579E+04  0.99968798871E+03 0.  0.
        3    1    3    3  502    0  0.42466596327E+03  0.10848174247E+03 -0.59910741607E+03  0.74232012973E+03  0.10100000352E+00 0. -1.
       -3    1    3    3    0  502 -0.42466596327E+03 -0.10848174247E+03 -0.31042048342E+02  0.43940082814E+03  0.10100000352E+00 0.  1.
</event>
<event>
 5   0  0.1353789E-03  0.9942588E+03  0.7818609E-02  0.9314864E-01
        1   -1    0    0  501    0  0.00000000000E+00  0.00000000000E+00  0.74215547504E+03  0.74215547505E+03  0.50400001928E-02 0. -1.
       -1   -1    0    0    0  501  0.00000000000E+00  0.00000000000E+00 -0.33299979052E+03  0.33299979055E+03  0.50400001928E-02 0.  1.
    10030    2    1    2    0    0  0.00000000000E+00  0.00000000000E+00  0.40915568452E+03  0.10751552656E+04  0.99425875454E+03 0.  0.
        1    1    3    3  502    0 -0.14269071121E+03 -0.45100956695E+03  0.39276459451E+02  0.47467136931E+03  0.50400001928E-02 0. -1.
       -1    1    3    3    0  502  0.14269071121E+03  0.45100956695E+03  0.36987922507E+03  0.60048389630E+03  0.50400001928E-02 0.  1.
</event>
<event>
 5   0  0.1353789E-03  0.1005684E+04  0.7818609E-02  0.9302333E-01
        1   -1    0    0  501    0  0.00000000000E+00  0.00000000000E+00  0.10169352232E+04  0.10169352232E+04  0.50400001928E-02 0. -1.
       -1   -1    0    0    0  501  0.00000000000E+00  0.00000000000E+00 -0.24863912629E+03  0.24863912635E+03  0.50400001928E-02 0.  1.
    10030    2    1    2    0    0  0.00000000000E+00  0.00000000000E+00  0.76829609690E+03  0.12655743495E+04  0.10056836191E+04 0.  0.
        1    1    3    3  502    0  0.64044998980E+02 -0.21227850917E+03 -0.18379767386E+03  0.28800262549E+03  0.50400001928E-02 0.  1.
       -1    1    3    3    0  502 -0.64044998980E+02  0.21227850917E+03  0.95209377075E+03  0.97757172406E+03  0.50400001928E-02 0. -1.
</event>
<event>
 5   0  0.1249195E-03  0.1002671E+04  0.7818609E-02  0.9305620E-01
        1   -1    0    0  501    0  0.00000000000E+00  0.00000000000E+00  0.58051627713E+03  0.58051627715E+03  0.50400001928E-02 0.  1.
       -1   -1    0    0    0  501  0.00000000000E+00  0.00000000000E+00 -0.43295498205E+03  0.43295498208E+03  0.50400001928E-02 0. -1.
    10030    2    1    2    0    0  0.00000000000E+00  0.00000000000E+00  0.14756129508E+03  0.10134712592E+04  0.10026712609E+04 0.  0.
        2    1    3    3  502    0  0.14444057969E+03 -0.46684811145E+03 -0.39349779733E+02  0.49026385283E+03  0.25500000920E-02 0. -1.
       -2    1    3    3    0  502 -0.14444057969E+03  0.46684811145E+03  0.18691107481E+03  0.52320740640E+03  0.25500000920E-02 0.  1.
</event>
<event>
 5   0  0.1249195E-03  0.1042432E+04  0.7818609E-02  0.9263192E-01
        1   -1    0    0  501    0  0.00000000000E+00  0.00000000000E+00  0.69443711415E+03  0.69443711416E+03  0.50400001928E-02 0. -1.
       -1   -1    0    0    0  501  0.00000000000E+00  0.00000000000E+00 -0.39120352879E+03  0.39120352882E+03  0.50400001928E-02 0.  1.
    10030    2    1    2    0    0  0.00000000000E+00  0.00000000000E+00  0.30323358536E+03  0.10856406430E+04  0.10424322512E+04 0.  0.
        2    1    3    3  502    0  0.46548947261E+03  0.18222200557E+03  0.30531775097E+03  0.58575100298E+03  0.25500000920E-02 0. -1.
       -2    1    3    3    0  502 -0.46548947261E+03 -0.18222200557E+03 -0.20841656111E+01  0.49988964000E+03  0.25500000920E-02 0.  1.
</event>
<event>
 5   0  0.2264577E-03  0.1003496E+04  0.7818609E-02  0.9304719E-01
        2   -1    0    0  501    0  0.00000000000E+00  0.00000000000E+00  0.15705200277E+04  0.15705200277E+04  0.25500000920E-02 0.  1.
       -2   -1    0    0    0  501  0.00000000000E+00  0.00000000000E+00 -0.16029777351E+03  0.16029777353E+03  0.25500000920E-02 0. -1.
    10030    2    1    2    0    0  0.00000000000E+00  0.00000000000E+00  0.14102222542E+04  0.17308178012E+04  0.10034956177E+04 0.  0.
        5    1    3    3  502    0 -0.10017783839E+03 -0.40657987592E+03  0.22841382146E+03  0.47700918087E+03  0.46999998093E+01 0. -1.
       -5    1    3    3    0  502  0.10017783839E+03  0.40657987592E+03  0.11818084327E+04  0.12538086204E+04  0.46999998093E+01 0.  1.
</event>
<event>
 5   0  0.1285769E-03  0.1002023E+04  0.7818609E-02  0.9306329E-01
        1   -1    0    0  501    0  0.00000000000E+00  0.00000000000E+00  0.11822216348E+04  0.11822216349E+04  0.50400001928E-02 0.  1.
       -1   -1    0    0    0  501  0.00000000000E+00  0.00000000000E+00 -0.21232273550E+03  0.21232273556E+03  0.50400001928E-02 0. -1.
    10030    2    1    2    0    0  0.00000000000E+00  0.00000000000E+00  0.96989889934E+03  0.13945443704E+04  0.10020230167E+04 0.  0.
        5    1    3    3  502    0  0.46564018326E+03 -0.40676636190E+01  0.22775013805E+03  0.51839130156E+03  0.46999998093E+01 0. -1.
       -5    1    3    3    0  502 -0.46564018326E+03  0.40676636190E+01  0.74214876130E+03  0.87615306885E+03  0.46999998093E+01 0.  1.
</event>
<event>
 5   0  0.1293716E-03  0.9751039E+03  0.7818609E-02  0.9336280E-01
        1   -1    0    0  501    0  0.00000000000E+00  0.00000000000E+00  0.14861892124E+04  0.14861892124E+04  0.50400001928E-02 0. -1.
       -1   -1    0    0    0  501  0.00000000000E+00  0.00000000000E+00 -0.15994389308E+03  0.15994389316E+03  0.50400001928E-02 0.  1.
    10030    2    1    2    0    0  0.00000000000E+00  0.00000000000E+00  0.13262453193E+04  0.16461331055E+04  0.97510386843E+03 0.  0.
        3    1    3    3  502    0  0.42092144620E+01 -0.43320683659E+03  0.10406863691E+04  0.11272595130E+04  0.10100000352E+00 0. -1.
       -3    1    3    3    0  502 -0.42092144620E+01  0.43320683659E+03  0.28555895021E+03  0.51887359250E+03  0.10100000352E+00 0.  1.
</event>
<event>
 5   0  0.1285769E-03  0.1000378E+04  0.7818609E-02  0.9308130E-01
       -1   -1    0    0    0  501  0.00000000000E+00  0.00000000000E+00  0.70657696332E+03  0.70657696334E+03  0.50400001928E-02 0. -1.
        1   -1    0    0  501    0  0.00000000000E+00  0.00000000000E+00 -0.35408626196E+03  0.35408626199E+03  0.50400001928E-02 0.  1.
    10030    2    1    2    0    0  0.00000000000E+00  0.00000000000E+00  0.35249070136E+03  0.10606632253E+04  0.10003783199E+04 0.  0.
        5    1    3    3  502    0  0.24674279995E+03 -0.41267025865E+03  0.32234759955E+03  0.57888584076E+03  0.46999998093E+01 0. -1.
       -5    1    3    3    0  502 -0.24674279995E+03  0.41267025865E+03  0.30143101815E+02  0.48177738457E+03  0.46999998093E+01 0.  1.
</event>
<event>
 5   0  0.1293575E-03  0.1002281E+04  0.7818609E-02  0.9306047E-01
        1   -1    0    0  501    0  0.00000000000E+00  0.00000000000E+00  0.33109951969E+03  0.33109951973E+03  0.50400001928E-02 0.  1.
       -1   -1    0    0    0  501  0.00000000000E+00  0.00000000000E+00 -0.75850790139E+03  0.75850790141E+03  0.50400001928E-02 0. -1.
    10030    2    1    2    0    0  0.00000000000E+00  0.00000000000E+00 -0.42740838170E+03  0.10896074211E+04  0.10022806031E+04 0.  0.
        4    1    3    3  502    0  0.18954265713E+03 -0.15210090010E+03 -0.69015771244E+03  0.73169692061E+03  0.12699999809E+01 0. -1.
       -4    1    3    3    0  502 -0.18954265713E+03  0.15210090010E+03  0.26274933074E+03  0.35791050053E+03  0.12699999809E+01 0.  1.
</event>
<event>
 5   0  0.2284843E-03  0.1013085E+04  0.7818609E-02  0.9294309E-01
       -2   -1    0    0    0  501  0.00000000000E+00  0.00000000000E+00  0.23542075650E+03  0.23542075652E+03  0.25500000920E-02 0.  1.
        2   -1    0    0  501    0  0.00000000000E+00  0.00000000000E+00 -0.10899010382E+04  0.10899010382E+04  0.25500000920E-02 0. -1.
    10030    2    1    2    0    0  0.00000000000E+00  0.00000000000E+00 -0.85448028172E+03  0.13253217947E+04  0.10130850447E+04 0.  0.
        2    1    3    3  502    0 -0.43462408800E+00  0.36695708395E+03  0.29560299037E+02  0.36814603304E+03  0.25500000920E-02 0.  1.
       -2    1    3    3    0  502  0.43462408800E+00 -0.36695708395E+03 -0.88404058076E+03  0.95717576170E+03  0.25500000920E-02 0. -1.
</event>
<event>
 5   0  0.2204862E-03  0.9996930E+03  0.7818609E-02  0.9308882E-01
        2   -1    0    0  501    0  0.00000000000E+00  0.00000000000E+00  0.16178790786E+04  0.16178790786E+04  0.25500000920E-02 0. -1.
       -2   -1    0    0    0  501  0.00000000000E+00  0.00000000000E+00 -0.15442844247E+03  0.15442844249E+03  0.25500000920E-02 0.  1.
    10030    2    1    2    0    0  0.00000000000E+00  0.00000000000E+00  0.14634506361E+04  0.17723075210E+04  0.99969304534E+03 0.  0.
        1    1    3    3  502    0 -0.23881460741E+03  0.40350124737E+03  0.42465392804E+03  0.63259515645E+03  0.50400001928E-02 0.  1.
       -1    1    3    3    0  502  0.23881460741E+03 -0.40350124737E+03  0.10387967080E+04  0.11397123646E+04  0.50400001928E-02 0. -1.
</event>
<event>
 5   0  0.1285769E-03  0.9988795E+03  0.7818609E-02  0.9309775E-01
       -1   -1    0    0    0  501  0.00000000000E+00  0.00000000000E+00  0.62890934623E+03  0.62890934625E+03  0.50400001928E-02 0.  1.
        1   -1    0    0  501    0  0.00000000000E+00  0.00000000000E+00 -0.39662322601E+03  0.39662322604E+03  0.50400001928E-02 0. -1.
    10030    2    1    2    0    0  0.00000000000E+00  0.00000000000E+00  0.23228612022E+03  0.10255325723E+04  0.99887947981E+03 0.  0.
        5    1    3    3  502    0 -0.41857647524E+03 -0.26665581735E+03  0.58921040000E+02  0.49980533161E+03  0.46999998093E+01 0.  1.
       -5    1    3    3    0  502  0.41857647524E+03  0.26665581735E+03  0.17336508022E+03  0.52572724068E+03  0.46999998093E+01 0. -1.
</event>
<event>
 5   0  0.1249195E-03  0.1001183E+04  0.7818609E-02  0.9307248E-01
        1   -1    0    0  501    0  0.00000000000E+00  0.00000000000E+00  0.99170516064E+03  0.99170516065E+03  0.50400001928E-02 0. -1.
       -1   -1    0    0    0  501  0.00000000000E+00  0.00000000000E+00 -0.25268779175E+03  0.25268779180E+03  0.50400001928E-02 0.  1.
    10030    2    1    2    0    0  0.00000000000E+00  0.00000000000E+00  0.73901736889E+03  0.12443929524E+04  0.10011828747E+04 0.  0.
        2    1    3    3  502    0 -0.15540277455E+03 -0.25708698762E+03  0.86721822516E+03  0.91777513128E+03  0.25500000920E-02 0. -1.
       -2    1    3    3    0  502  0.15540277455E+03  0.25708698762E+03 -0.12820085628E+03  0.32661782116E+03  0.25500000920E-02 0.  1.
</event>
<event>
 5   0  0.1293716E-03  0.9915515E+03  0.7818609E-02  0.9317860E-01
        1   -1    0    0  501    0  0.00000000000E+00  0.00000000000E+00  0.45049799051E+03  0.45049799054E+03  0.50400001928E-02 0.  1.
       -1   -1    0    0    0  501  0.00000000000E+00  0.00000000000E+00 -0.54560419865E+03  0.54560419867E+03  0.50400001928E-02 0. -1.
    10030    2    1    2    0    0  0.00000000000E+00  0.00000000000E+00 -0.95106208135E+02  0.99610218921E+03  0.99155150170E+03 0.  0.
        3    1    3    3  502    0 -0.17845089709E+03 -0.59886636494E+02  0.41320473331E+03  0.45405868975E+03  0.10100000352E+00 0.  1.
       -3    1    3    3    0  502  0.17845089709E+03  0.59886636494E+02 -0.50831094145E+03  0.54204349946E+03  0.10100000352E+00 0. -1.
</event>
<event>
 5   0  0.2284843E-03  0.1001101E+04  0.7818609E-02  0.9307338E-01
        2   -1    0    0  501    0  0.00000000000E+00  0.00000000000E+00  0.19199259839E+04  0.19199259839E+04  0.25500000920E-02 0. -1.
       -2   -1    0    0    0  501  0.00000000000E+00  0.00000000000E+00 -0.13050027133E+03  0.13050027135E+03  0.25500000920E-02 0.  1.
    10030    2    1    2    0    0  0.00000000000E+00  0.00000000000E+00  0.17894257126E+04  0.20504262553E+04  0.10011011175E+04 0.  0.
        2    1    3    3  502    0 -0.29162096605E+03 -0.39026399978E+03  0.11300483656E+04  0.12305925751E+04  0.25500000920E-02 0.  1.
       -2    1    3    3    0  502  0.29162096605E+03  0.39026399978E+03  0.65937734698E+03  0.81983368014E+03  0.25500000920E-02 0. -1.
</event>
<event>
 5   0  0.2204862E-03  0.9967959E+03  0.7818609E-02  0.9312066E-01
       -2   -1    0    0    0  501  0.00000000000E+00  0.00000000000E+00  0.22118223484E+03  0.22118223485E+03  0.25500000920E-02 0. -1.
        2   -1    0    0  501    0  0.00000000000E+00  0.00000000000E+00 -0.11230581731E+04  0.11230581731E+04  0.25500000920E-02 0.  1.
    10030    2    1    2    0    0  0.00000000000E+00  0.00000000000E+00 -0.90187593823E+03  0.13442404079E+04  0.99679590004E+03 0.  0.
        1    1    3    3  502    0  0.18623466334E+03  0.95197588932E+02  0.15913452319E+03  0.26281120079E+03  0.50400001928E-02 0. -1.
       -1    1    3    3    0  502 -0.18623466334E+03 -0.95197588932E+02 -0.10610104614E+04  0.10814292071E+04  0.50400001928E-02 0.  1.
</event>
<event>
 5   0  0.1353789E-03  0.1005180E+04  0.7818609E-02  0.9302881E-01
        1   -1    0    0  501    0  0.00000000000E+00  0.00000000000E+00  0.59422198669E+03  0.59422198671E+03  0.50400001928E-02 0.  1.
       -1   -1    0    0    0  501  0.00000000000E+00  0.00000000000E+00 -0.42508835110E+03  0.42508835113E+03  0.50400001928E-02 0. -1.
    10030    2    1    2    0    0  0.00000000000E+00  0.00000000000E+00  0.16913363559E+03  0.10193103378E+04  0.10051802715E+04 0.  0.
        1    1    3    3  502    0 -0.40809740884E+03  0.23924276240E+03  0.25670658237E+03  0.53821823076E+03  0.50400001928E-02 0. -1.
       -1    1    3    3    0  502  0.40809740884E+03 -0.23924276240E+03 -0.87572946779E+02  0.48109210708E+03  0.50400001928E-02 0.  1.
</event>
<event>
 5   0  0.2284843E-03  0.9992314E+03  0.7818609E-02  0.9309388E-01
        2   -1    0    0  501    0  0.00000000000E+00  0.00000000000E+00  0.41683823798E+03  0.41683823799E+03  0.25500000920E-02 0. -1.
       -2   -1    0    0    0  501  0.00000000000E+00  0.00000000000E+00 -0.59883144265E+03  0.59883144265E+03  0.25500000920E-02 0.  1.
    10030    2    1    2    0    0  0.00000000000E+00  0.00000000000E+00 -0.18199320466E+03  0.10156696806E+04  0.99923139143E+03 0.  0.
        2    1    3    3  502    0 -0.46349397477E+03  0.38687585435E+02  0.94467257421E+02  0.47460241955E+03  0.25500000920E-02 0. -1.
       -2    1    3    3    0  502  0.46349397477E+03 -0.38687585435E+02 -0.27646046208E+03  0.54106726109E+03  0.25500000920E-02 0.  1.
</event>
<event>
 5   0  0.1293575E-03  0.1003005E+04  0.7818609E-02  0.9305255E-01
       -1   -1    0    0    0  501  0.00000000000E+00  0.00000000000E+00  0.47369323320E+03  0.47369323323E+03  0.50400001928E-02 0. -1.
        1   -1    0    0  501    0  0.00000000000E+00  0.00000000000E+00 -0.53094474991E+03  0.53094474993E+03  0.50400001928E-02 0.  1.
    10030    2    1    2    0    0  0.00000000000E+00  0.00000000000E+00 -0.57251516706E+02  0.10046379832E+04  0.10030053544E+04 0.  0.
        4    1    3    3  502    0 -0.57878422487E+02  0.30402969705E+03 -0.42388100084E+03  0.52484348547E+03  0.12699999809E+01 0.  1.
       -4    1    3    3    0  502  0.57878422487E+02 -0.30402969705E+03  0.36662948413E+03  0.47979449768E+03  0.12699999809E+01 0. -1.
</event>
<event>
 5   0  0.8680125E-04  0.9936811E+03  0.7818609E-02  0.9315503E-01
        3   -1    0    0  501    0  0.00000000000E+00  0.00000000000E+00  0.27921725941E+03  0.27921727768E+03  0.10100000352E+00 0. -1.
       -3   -1    0    0    0  501  0.00000000000E+00  0.00000000000E+00 -0.88408045158E+03  0.88408045735E+03  0.10100000352E+00 0.  1.
    10030    2    1    2    0    0  0.00000000000E+00  0.00000000000E+00 -0.60486319216E+03  0.11632977350E+04  0.99368110533E+03 0.  0.
        1    1    3    3  502    0  0.15019187813E+03 -0.13767484952E+03 -0.83292393639E+03  0.85748133990E+03  0.50400001928E-02 0.  1.
       -1    1    3    3    0  502 -0.15019187813E+03  0.13767484952E+03  0.22806074422E+03  0.30581639513E+03  0.50400001928E-02 0. -1.
</event>
<event>
 5   0  0.1293716E-03  0.1000979E+04  0.7818609E-02  0.9307472E-01
       -1   -1    0    0    0  501  0.00000000000E+00  0.00000000000E+00  0.20111141883E+03  0.20111141890E+03  0.50400001928E-02 0.  1.
        1   -1    0    0  501    0  0.00000000000E+00  0.00000000000E+00 -0.12455272657E+04  0.12455272657E+04  0.50400001928E-02 0. -1.
    10030    2    1    2    0    0  0.00000000000E+00  0.00000000000E+00 -0.10444158469E+04  0.14466386846E+04  0.10009790321E+04 0.  0.
        3    1    3    3  502    0  0.68527241456E+02  0.37741410932E+03 -0.57590729162E+02  0.38788412576E+03  0.10100000352E+00 0. -1.
       -3    1    3    3    0  502 -0.68527241456E+02 -0.37741410932E+03 -0.98682511770E+03  0.10587545588E+04  0.10100000352E+00 0.  1.
</event>
<event>
 5   0  0.2264577E-03  0.9969545E+03  0.7818609E-02  0.9311891E-01
       -2   -1    0    0    0  501  0.00000000000E+00  0.00000000000E+00  0.40858857530E+03  0.40858857531E+03  0.25500000920E-02 0.  1.
        2   -1    0    0  501    0  0.00000000000E+00  0.00000000000E+00 -0.60814126727E+03  0.60814126727E+03  0.25500000920E-02 0. -1.
    10030    2    1    2    0    0  0.00000000000E+00  0.00000000000E+00 -0.19955269197E+03  0.10167298426E+04  0.99695451046E+03 0.  0.
        5    1    3    3  502    0 -0.24540533242E+03 -0.37519417257E+03 -0.32195790126E+03  0.55197230410E+03  0.46999998093E+01 0. -1.
       -5    1    3    3    0  502  0.24540533242E+03  0.37519417257E+03  0.12240520929E+03  0.46475753848E+03  0.46999998093E+01 0.  1.
</event>
<event>
 5   0  0.2284843E-03  0.9953220E+03  0.7818609E-02  0.9313690E-01
       -2   -1    0    0    0  501  0.00000000000E+00  0.00000000000E+00  0.26419435941E+03  0.26419435942E+03  0.25500000920E-02 0.  1.
        2   -1    0    0  501    0  0.00000000000E+00  0.00000000000E+00 -0.93744039865E+03  0.93744039865E+03  0.25500000920E-02 0. -1.
    10030    2    1    2    0    0  0.00000000000E+00  0.00000000000E+00 -0.67324603924E+03  0.12016347581E+04  0.99532198933E+03 0.  0.
        2    1    3    3  502    0 -0.42190575967E+03 -0.15533482200E+03 -0.59423878585E+03  0.74515307929E+03  0.25500000920E-02 0. -1.
       -2    1    3    3    0  502  0.42190575967E+03  0.15533482200E+03 -0.79007253393E+02  0.45648167878E+03  0.25500000920E-02 0.  1.
</event>
<event>
 5   0  0.1285769E-03  0.1001601E+04  0.7818609E-02  0.9306790E-01
       -1   -1    0    0    0  501  0.00000000000E+00  0.00000000000E+00  0.13160394983E+03  0.13160394993E+03  0.50400001928E-02 0.  1.
        1   -1    0    0  501    0  0.00000000000E+00  0.00000000000E+00 -0.19057272229E+04  0.19057272229E+04  0.50400001928E-02 0. -1.
    10030    2    1    2    0    0  0.00000000000E+00  0.00000000000E+00 -0.17741232730E+04  0.20373311728E+04  0.10016011780E+04 0.  0.
        5    1    3    3  502    0 -0.41480435263E+03 -0.27902355755E+03 -0.82732965801E+03  0.96665053130E+03  0.46999998093E+01 0.  1.
       -5    1    3    3    0  502  0.41480435263E+03  0.27902355755E+03 -0.94679361501E+03  0.10706806415E+04  0.46999998093E+01 0. -1.
</event>
<event>
 5   0  0.1285769E-03  0.1002645E+04  0.7818609E-02  0.9305649E-01
       -1   -1    0    0    0  501  0.00000000000E+00  0.00000000000E+00  0.21114600883E+03  0.21114600889E+03  0.50400001928E-02 0.  1.
        1   -1    0    0  501    0  0.00000000000E+00  0.00000000000E+00 -0.11902857978E+04  0.11902857978E+04  0.50400001928E-02 0. -1.
    10030    2    1    2    0    0  0.00000000000E+00  0.00000000000E+00 -0.97913978895E+03  0.14014318067E+04  0.10026446940E+04 0.  0.
        5    1    3    3  502    0  0.44307905435E+03 -0.21896036586E+03 -0.60684075774E+03  0.78264965692E+03  0.46999998093E+01 0. -1.
       -5    1    3    3    0  502 -0.44307905435E+03  0.21896036586E+03 -0.37229903121E+03  0.61878214976E+03  0.46999998093E+01 0.  1.
</event>
<event>
 5   0  0.1249195E-03  0.9999700E+03  0.7818609E-02  0.9308578E-01
        1   -1    0    0  501    0  0.00000000000E+00  0.00000000000E+00  0.25804819603E+03  0.25804819608E+03  0.50400001928E-02 0. -1.
       -1   -1    0    0    0  501  0.00000000000E+00  0.00000000000E+00 -0.96875314118E+03  0.96875314119E+03  0.50400001928E-02 0.  1.
    10030    2    1    2    0    0  0.00000000000E+00  0.00000000000E+00 -0.71070494515E+03  0.12268013373E+04  0.99997000058E+03 0.  0.
        2    1    3    3  502    0 -0.12632621099E+03  0.36070119524E+03  0.40141283663E+02  0.38428503288E+03  0.25500000920E-02 0. -1.
       -2    1    3    3    0  502  0.12632621099E+03 -0.36070119524E+03 -0.75084622881E+03  0.84251630439E+03  0.25500000920E-02 0.  1.
</event>
<event>
 5   0  0.1353789E-03  0.9983106E+03  0.7818609E-02  0.9310400E-01
       -1   -1    0    0    0  501  0.00000000000E+00  0.00000000000E+00  0.97655065926E+03  0.97655065927E+03  0.50400001928E-02 0. -1.
        1   -1    0    0  501    0  0.00000000000E+00  0.00000000000E+00 -0.25513883259E+03  0.25513883264E+03  0.50400001928E-02 0.  1.
    10030    2    1    2    0    0  0.00000000000E+00  0.00000000000E+00  0.72141182667E+03  0.12316894919E+04  0.99831056332E+03 0.  0.
        1    1    3    3  502    0  0.32725173977E+03 -0.37372609659E+03  0.42103605212E+03  0.65118066131E+03  0.50400001928E-02 0. -1.
       -1    1    3    3    0  502 -0.32725173977E+03  0.37372609659E+03  0.30037577455E+03  0.58050883060E+03  0.50400001928E-02 0.  1.
</event>
<event>
 5   0  0.2284843E-03  0.9678909E+03  0.7818609E-02  0.9344480E-01
       -2   -1    0    0    0  501  0.00000000000E+00  0.00000000000E+00  0.81564285763E+03  0.81564285763E+03  0.25500000920E-02 0.  1.
        2   -1    0    0  501    0  0.00000000000E+00  0.00000000000E+00 -0.28713941481E+03  0.28713941482E+03  0.25500000920E-02 0. -1.
    10030    2    1    2    0    0  0.00000000000E+00  0.00000000000E+00  0.52850344282E+03  0.11027822725E+04  0.96789092948E+03 0.  0.
        2    1    3    3  502    0  0.44631941783E+03  0.18130436934E+03  0.21165647467E+03  0.52618510084E+03  0.25500000920E-02 0.  1.
       -2    1    3    3    0  502 -0.44631941783E+03 -0.18130436934E+03  0.31684696815E+03  0.57659717161E+03  0.25500000920E-02 0. -1.
</event>
<event>
 5   0  0.1353789E-03  0.9977017E+03  0.7818609E-02  0.9311069E-01
       -1   -1    0    0    0  501  0.00000000000E+00  0.00000000000E+00  0.88683094432E+03  0.88683094433E+03  0.50400001928E-02 0.  1.
        1   -1    0    0  501    0  0.00000000000E+00  0.00000000000E+00 -0.28060835530E+03  0.28060835534E+03  0.50400001928E-02 0. -1.
    10030    2    1    2    0    0  0.00000000000E+00  0.00000000000E+00  0.60622258902E+03  0.11674392997E+04  0.99770170441E+03 0.  0.
        1    1    3    3  502    0  0.41992517442E+03  0.26078028198E+03  0.38168144504E+03  0.62451920154E+03  0.50400001928E-02 0. -1.
       -1    1    3    3    0  502 -0.41992517442E+03 -0.26078028198E+03  0.22454114399E+03  0.54292009813E+03  0.50400001928E-02 0.  1.
</event>
<event>
 5   0  0.8680125E-04  0.9965109E+03  0.7818609E-02  0.9312380E-01
        3   -1    0    0  501    0  0.00000000000E+00  0.00000000000E+00  0.30434613242E+03  0.30434614918E+03  0.10100000352E+00 0.  1.
       -3   -1    0    0    0  501  0.00000000000E+00  0.00000000000E+00 -0.81571089572E+03  0.81571090197E+03  0.10100000352E+00 0. -1.
    10030    2    1    2    0    0  0.00000000000E+00  0.00000000000E+00 -0.51136476330E+03  0.11200570512E+04  0.99651085126E+03 0.  0.
        5    1    3    3  502    0 -0.26615276931E+03 -0.10749082498E+03  0.20204727159E+03  0.35105094221E+03  0.46999998093E+01 0.  1.
       -5    1    3    3    0  502  0.26615276931E+03  0.10749082498E+03 -0.71341203489E+03  0.76900610895E+03  0.46999998093E+01 0. -1.
</event>
<event>
 5   0  0.8680125E-04  0.1000094E+04  0.7818609E-02  0.9308442E-01
       -4   -1    0    0    0  501  0.00000000000E+00  0.00000000000E+00  0.97033643576E+03  0.97033726687E+03  0.12699999809E+01 0.  1.
        4   -1    0    0  501    0  0.00000000000E+00  0.00000000000E+00 -0.25768851131E+03  0.25769164085E+03  0.12699999809E+01 0. -1.
    10030    2    1    2    0    0  0.00000000000E+00  0.00000000000E+00  0.71264792445E+03  0.12280289077E+04  0.10000939626E+04 0.  0.
        2    1    3    3  502    0 -0.28910156913E+03 -0.43960706137E+02 -0.14175312806E+03  0.32497109146E+03  0.25500000920E-02 0. -1.
       -2    1    3    3    0  502  0.28910156913E+03  0.43960706137E+02  0.85440105252E+03  0.90305781626E+03  0.25500000920E-02 0.  1.
</event>
<event>
 5   0  0.1293716E-03  0.1001890E+04  0.7818609E-02  0.9306474E-01
        1   -1    0    0  501    0  0.00000000000E+00  0.00000000000E+00  0.45191234584E+03  0.45191234587E+03  0.50400001928E-02 0.  1.
       -1   -1    0    0    0  501  0.00000000000E+00  0.00000000000E+00 -0.55529784739E+03  0.55529784742E+03  0.50400001928E-02 0. -1.
    10030    2    1    2    0    0  0.00000000000E+00  0.00000000000E+00 -0.10338550155E+03  0.10072101933E+04  0.10018901195E+04 0.  0.
        3    1    3    3  502    0 -0.87541111014E+02  0.44795792488E+03 -0.25922583942E+03  0.52490741527E+03  0.10100000352E+00 0.  1.
       -3    1    3    3    0  502  0.87541111014E+02 -0.44795792488E+03  0.15584033787E+03  0.48230277802E+03  0.10100000352E+00 0. -1.
</event>
<event>
 5   0  0.1285769E-03  0.1001391E+04  0.7818609E-02  0.9307020E-01
       -1   -1    0    0    0  501  0.00000000000E+00  0.00000000000E+00  0.46588719647E+03  0.46588719650E+03  0.50400001928E-02 0. -1.
        1   -1    0    0  501    0  0.00000000000E+00  0.00000000000E+00 -0.53810496552E+03  0.53810496554E+03  0.50400001928E-02 0.  1.
    10030    2    1    2    0    0  0.00000000000E+00  0.00000000000E+00 -0.72217769042E+02  0.10039921620E+04  0.10013914596E+04 0.  0.
        5    1    3    3  502    0  0.27520067948E+03 -0.35693270306E+03  0.18248890938E+03  0.48627220828E+03  0.46999998093E+01 0. -1.
       -5    1    3    3    0  502 -0.27520067948E+03  0.35693270306E+03 -0.25470667842E+03  0.51771995377E+03  0.46999998093E+01 0.  1.
</event>
<event>
 5   0  0.1285769E-03  0.1001893E+04  0.7818609E-02  0.9306471E-01
       -1   -1    0    0    0  501  0.00000000000E+00  0.00000000000E+00  0.31488861974E+03  0.31488861978E+03  0.50400001928E-02 0.  1.
        1   -1    0    0  501    0  0.00000000000E+00  0.00000000000E+00 -0.79693989428E+03  0.79693989429E+03  0.50400001928E-02 0. -1.
    10030    2    1    2    0    0  0.00000000000E+00  0.00000000000E+00 -0.48205127453E+03  0.11118285141E+04  0.10018928153E+04 0.  0.
        5    1    3    3  502    0  0.23160104209E+03 -0.21693950597E+03 -0.67114141125E+03  0.74239792284E+03  0.46999998093E+01 0. -1.
       -5    1    3    3    0  502 -0.23160104209E+03  0.21693950597E+03  0.18909013671E+03  0.36943059124E+03  0.46999998093E+01 0.  1.
</event>
<event>
 5   0  0.2284843E-03  0.1001540E+04  0.7818609E-02  0.9306857E-01
       -2   -1    0    0    0  501  0.00000000000E+00  0.00000000000E+00  0.86832705137E+03  0.86832705137E+03  0.25500000920E-02 0. -1.
        2   -1    0    0  501    0  0.00000000000E+00  0.00000000000E+00 -0.28879746626E+03  0.28879746627E+03  0.25500000920E-02 0.  1.
    10030    2    1    2    0    0  0.00000000000E+00  0.00000000000E+00  0.57952958511E+03  0.11571245176E+04  0.10015401187E+04 0.  0.
        2    1    3    3  502    0 -0.10969394072E+03  0.43211250879E+03  0.26263333543E+02  0.44659124889E+03  0.25500000920E-02 0. -1.
       -2    1    3    3    0  502  0.10969394072E+03 -0.43211250879E+03  0.55326625156E+03  0.71053326876E+03  0.25500000920E-02 0.  1.
</event>
<event>
 5   0  0.1285769E-03  0.9994649E+03  0.7818609E-02  0.9309132E-01
       -1   -1    0    0    0  501  0.00000000000E+00  0.00000000000E+00  0.82270917746E+03  0.82270917748E+03  0.50400001928E-02 0. -1.
        1   -1    0    0  501    0  0.00000000000E+00  0.00000000000E+00 -0.30354895377E+03  0.30354895381E+03  0.50400001928E-02 0.  1.
    10030    2    1    2    0    0  0.00000000000E+00  0.00000000000E+00  0.51916022369E+03  0.11262581313E+04  0.99946487703E+03 0.  0.
        5    1    3    3  502    0  0.27714975626E+03 -0.15743405509E+03 -0.17409741750E+03  0.36322096563E+03  0.46999998093E+01 0.  1.
       -5    1    3    3    0  502 -0.27714975626E+03  0.15743405509E+03  0.69325764120E+03  0.76303716565E+03  0.46999998093E+01 0. -1.
</event>
<event>
 5   0  0.1353789E-03  0.1004962E+04  0.7818609E-02  0.9303119E-01
        1   -1    0    0  501    0  0.00000000000E+00  0.00000000000E+00  0.48917974605E+03  0.48917974608E+03  0.50400001928E-02 0. -1.
       -1   -1    0    0    0  501  0.00000000000E+00  0.00000000000E+00 -0.51614408286E+03  0.51614408289E+03  0.50400001928E-02 0.  1.
    10030    2    1    2    0    0  0.00000000000E+00  0.00000000000E+00 -0.26964336809E+02  0.10053238290E+04  0.10049621513E+04 0.  0.
        1    1    3    3  502    0 -0.28084480964E+03  0.30606947628E+03 -0.29631152712E+03  0.51024783443E+03  0.50400001928E-02 0.  1.
       -1    1    3    3    0  502  0.28084480964E+03 -0.30606947628E+03  0.26934719031E+03  0.49507599454E+03  0.50400001928E-02 0. -1.
</event>
<event>
 5   0  0.2284843E-03  0.1000206E+04  0.7818609E-02  0.9308319E-01
        2   -1    0    0  501    0  0.00000000000E+00  0.00000000000E+00  0.68299293616E+03  0.68299293617E+03  0.25500000920E-02 0.  1.
       -2   -1    0    0    0  501  0.00000000000E+00  0.00000000000E+00 -0.36618659219E+03  0.36618659219E+03  0.25500000920E-02 0. -1.
    10030    2    1    2    0    0  0.00000000000E+00  0.00000000000E+00  0.31680634398E+03  0.10491795284E+04  0.10002056904E+04 0.  0.
        2    1    3    3  502    0  0.63973153240E+02  0.31169356133E+02  0.67765481861E+03  0.68138105807E+03  0.25500000920E-02 0.  1.
       -2    1    3    3    0  502 -0.63973153240E+02 -0.31169356133E+02 -0.36084847464E+03  0.36779847029E+03  0.25500000920E-02 0. -1.
</event>
<event>
 5   0  0.1249195E-03  0.9991021E+03  0.7818609E-02  0.9309530E-01
        1   -1    0    0  501    0  0.00000000000E+00  0.00000000000E+00  0.82275410899E+03  0.82275410900E+03  0.50400001928E-02 0. -1.
       -1   -1    0    0    0  501  0.00000000000E+00  0.00000000000E+00 -0.30331209493E+03  0.30331209497E+03  0.50400001928E-02 0.  1.
    10030    2    1    2    0    0  0.00000000000E+00  0.00000000000E+00  0.51944201406E+03  0.11260662040E+04  0.99910214181E+03 0.  0.
        2    1    3    3  502    0 -0.43548989907E+03  0.64676938103E+02  0.52576091058E+03  0.68575439744E+03  0.25500000920E-02 0.  1.
       -2    1    3    3    0  502  0.43548989907E+03 -0.64676938103E+02 -0.63188965234E+01  0.44031180653E+03  0.25500000920E-02 0. -1.
</event>
<event>
 5   0  0.1249195E-03  0.1000518E+04  0.7818609E-02  0.9307977E-01
        1   -1    0    0  501    0  0.00000000000E+00  0.00000000000E+00  0.13128585467E+04  0.13128585467E+04  0.50400001928E-02 0. -1.
       -1   -1    0    0    0  501  0.00000000000E+00  0.00000000000E+00 -0.19062161110E+03  0.19062161116E+03  0.50400001928E-02 0.  1.
    10030    2    1    2    0    0  0.00000000000E+00  0.00000000000E+00  0.11222369356E+04  0.15034801578E+04  0.10005182884E+04 0.  0.
        2    1    3    3  502    0  0.22505874577E+03  0.69087726202E+02 -0.10217508595E+03  0.25664041216E+03  0.25500000920E-02 0.  1.
       -2    1    3    3    0  502 -0.22505874577E+03 -0.69087726202E+02  0.12244120215E+04  0.12468397457E+04  0.25500000920E-02 0. -1.
</event>
<event>
 5   0  0.1293575E-03  0.1010018E+04  0.7818609E-02  0.9297624E-01
        1   -1    0    0  501    0  0.00000000000E+00  0.00000000000E+00  0.88439934534E+03  0.88439934535E+03  0.50400001928E-02 0. -1.
       -1   -1    0    0    0  501  0.00000000000E+00  0.00000000000E+00 -0.28837010322E+03  0.28837010326E+03  0.50400001928E-02 0.  1.
    10030    2    1    2    0    0  0.00000000000E+00  0.00000000000E+00  0.59602924212E+03  0.11727694486E+04  0.10100184761E+04 0.  0.
        4    1    3    3  502    0  0.17309112081E+03  0.43114782490E+03  0.52786024450E+03  0.70319772017E+03  0.12699999809E+01 0. -1.
       -4    1    3    3    0  502 -0.17309112081E+03 -0.43114782490E+03  0.68168997624E+02  0.46957172845E+03  0.12699999809E+01 0.  1.
</event>
<event>
 5   0  0.1293575E-03  0.9947755E+03  0.7818609E-02  0.9314294E-01
        1   -1    0    0  501    0  0.00000000000E+00  0.00000000000E+00  0.10533640356E+04  0.10533640356E+04  0.50400001928E-02 0. -1.
       -1   -1    0    0    0  501  0.00000000000E+00  0.00000000000E+00 -0.23486143430E+03  0.23486143436E+03  0.50400001928E-02 0.  1.
    10030    2    1    2    0    0  0.00000000000E+00  0.00000000000E+00  0.81850260132E+03  0.12882254700E+04  0.99477552903E+03 0.  0.
        4    1    3    3  502    0 -0.48016963398E+03 -0.86226720779E+02  0.53477228904E+03  0.72386527669E+03  0.12699999809E+01 0. -1.
       -4    1    3    3    0  502  0.48016963398E+03  0.86226720779E+02  0.28373031228E+03  0.56436019330E+03  0.12699999809E+01 0.  1.
</event>
<event>
 5   0  0.1285769E-03  0.1002230E+04  0.7818609E-02  0.9306103E-01
       -1   -1    0    0    0  501  0.00000000000E+00  0.00000000000E+00  0.60668240037E+03  0.60668240039E+03  0.50400001928E-02 0.  1.
        1   -1    0    0  501    0  0.00000000000E+00  0.00000000000E+00 -0.41391690230E+03  0.41391690233E+03  0.50400001928E-02 0. -1.
    10030    2    1    2    0    0  0.00000000000E+00  0.00000000000E+00  0.19276549807E+03  0.10205993027E+04  0.10022297139E+04 0.  0.
        5    1    3    3  502    0  0.16517708929E+03 -0.46679907034E+03  0.17466280432E+03  0.52508478183E+03  0.46999998093E+01 0. -1.
       -5    1    3    3    0  502 -0.16517708929E+03  0.46679907034E+03  0.18102693753E+02  0.49551452089E+03  0.46999998093E+01 0.  1.
</event>
<event>
 5   0  0.1293716E-03  0.9988568E+03  0.7818609E-02  0.9309800E-01
        1   -1    0    0  501    0  0.00000000000E+00  0.00000000000E+00  0.25058125256E+03  0.25058125261E+03  0.50400001928E-02 0. -1.
       -1   -1    0    0    0  501  0.00000000000E+00  0.00000000000E+00 -0.99540062967E+03  0.99540062969E+03  0.50400001928E-02 0.  1.
    10030    2    1    2    0    0  0.00000000000E+00  0.00000000000E+00 -0.74481937711E+03  0.12459818823E+04  0.99885681981E+03 0.  0.
        3    1    3    3  502    0 -0.78385941661E+02  0.39248320146E+03 -0.74505138612E+03  0.84574759677E+03  0.10100000352E+00 0.  1.
       -3    1    3    3    0  502  0.78385941661E+02 -0.39248320146E+03  0.23200900939E+00  0.40023428553E+03  0.10100000352E+00 0. -1.
</event>
<event>
 5   0  0.2264577E-03  0.9949834E+03  0.7818609E-02  0.9314064E-01
       -2   -1    0    0    0  501  0.00000000000E+00  0.00000000000E+00  0.10178754097E+03  0.10178754100E+03  0.25500000920E-02 0.  1.
        2   -1    0    0  501    0  0.00000000000E+00  0.00000000000E+00 -0.24315154455E+04  0.24315154455E+04  0.25500000920E-02 0. -1.
    10030    2    1    2    0    0  0.00000000000E+00  0.00000000000E+00 -0.23297279045E+04  0.25333029865E+04  0.99498337288E+03 0.  0.
        5    1    3    3  502    0 -0.34444504352E+03 -0.30530839177E+03 -0.68433449835E+03  0.82473716887E+03  0.46999998093E+01 0.  1.
       -5    1    3    3    0  502  0.34444504352E+03  0.30530839177E+03 -0.16453934062E+04  0.17085658176E+04  0.46999998093E+01 0. -1.
</event>
<event>
 5   0  0.1285769E-03  0.1000629E+04  0.7818609E-02  0.9307855E-01
        1   -1    0    0  501    0  0.00000000000E+00  0.00000000000E+00  0.10123741352E+04  0.10123741352E+04  0.50400001928E-02 0. -1.
       -1   -1    0    0    0  501  0.00000000000E+00  0.00000000000E+00 -0.24725504292E+03  0.24725504297E+03  0.50400001928E-02 0.  1.
    10030    2    1    2    0    0  0.00000000000E+00  0.00000000000E+00  0.76511909224E+03  0.12596291781E+04  0.10006290227E+04 0.  0.
        5    1    3    3  502    0 -0.21647828718E+03  0.16306922083E+03 -0.14680827453E+03  0.30826803122E+03  0.46999998093E+01 0.  1.
       -5    1    3    3    0  502  0.21647828718E+03 -0.16306922083E+03  0.91192736678E+03  0.95136114692E+03  0.46999998093E+01 0. -1.
</event>
<event>
 5   0  0.2204862E-03  0.1001698E+04  0.7818609E-02  0.9306684E-01
       -2   -1    0    0    0  501  0.00000000000E+00  0.00000000000E+00  0.10297071098E+04  0.10297071098E+04  0.25500000920E-02 0. -1.
        2   -1    0    0  501    0  0.00000000000E+00  0.00000000000E+00 -0.24361281743E+03  0.24361281744E+03  0.25500000920E-02 0.  1.
    10030    2    1    2    0    0  0.00000000000E+00  0.00000000000E+00  0.78609429234E+03  0.12733199272E+04  0.10016982583E+04 0.  0.
        1    1    3    3  502    0  0.12171137618E+03 -0.17203398666E+03 -0.18451412908E+03  0.28009786774E+03  0.50400001928E-02 0.  1.
       -1    1    3    3    0  502 -0.12171137618E+03  0.17203398666E+03  0.97060842142E+03  0.99322205947E+03  0.50400001928E-02 0. -1.
</event>
<event>
 5   0  0.1293716E-03  0.9938028E+03  0.7818609E-02  0.9315368E-01
       -1   -1    0    0    0  501  0.00000000000E+00  0.00000000000E+00  0.21259057147E+03  0.21259057153E+03  0.50400001928E-02 0.  1.
        1   -1    0    0  501    0  0.00000000000E+00  0.00000000000E+00 -0.11614390966E+04  0.11614390967E+04  0.50400001928E-02 0. -1.
    10030    2    1    2    0    0  0.00000000000E+00  0.00000000000E+00 -0.94884852518E+03  0.13740296682E+04  0.99380280002E+03 0.  0.
        3    1    3    3  502    0  0.87417165703E+02  0.18968127187E+03  0.14895760275E+03  0.25653288946E+03  0.10100000352E+00 0.  1.
       -3    1    3    3    0  502 -0.87417165703E+02 -0.18968127187E+03 -0.10978061279E+04  0.11174967787E+04  0.10100000352E+00 0. -1.
</event>
<event>
 5   0  0.1249195E-03  0.1004193E+04  0.7818609E-02  0.9303958E-01
       -1   -1    0    0    0  501  0.00000000000E+00  0.00000000000E+00  0.63552936563E+03  0.63552936565E+03  0.50400001928E-02 0.  1.
        1   -1    0    0  501    0  0.00000000000E+00  0.00000000000E+00 -0.39667888185E+03  0.39667888189E+03  0.50400001928E-02 0. -1.
    10030    2    1    2    0    0  0.00000000000E+00  0.00000000000E+00  0.23885048377E+03  0.10322082475E+04  0.10041933642E+04 0.  0.
        2    1    3    3  502    0  0.15690593924E+02 -0.21100089327E+03  0.58746713142E+03  0.62440788128E+03  0.25500000920E-02 0.  1.
       -2    1    3    3    0  502 -0.15690593924E+02  0.21100089327E+03 -0.34861664764E+03  0.40780036626E+03  0.25500000920E-02 0. -1.
</event>
<event>
 5   0  0.8680125E-04  0.9989663E+03  0.7818609E-02  0.9309679E-01
       -3   -1    0    0    0  501  0.00000000000E+00  0.00000000000E+00  0.58512541647E+03  0.58512542519E+03  0.10100000352E+00 0. -1.
        3   -1    0    0  501    0  0.00000000000E+00  0.00000000000E+00 -0.42637594116E+03  0.42637595312E+03  0.10100000352E+00 0.  1.
    10030    2    1    2    0    0  0.00000000000E+00  0.00000000000E+00  0.15874947531E+03  0.10115013783E+04  0.99896628692E+03 0.  0.
        1    1    3    3  502    0 -0.28773118942E+03  0.40375976943E+03  0.14073399565E+03  0.51538068098E+03  0.50400001928E-02 0.  1.
       -1    1    3    3    0  502  0.28773118942E+03 -0.40375976943E+03  0.18015479664E+02  0.49612069732E+03  0.50400001928E-02 0. -1.
</event>
<event>
 5   0  0.2204862E-03  0.9940529E+03  0.7818609E-02  0.9315092E-01
        2   -1    0    0  501    0  0.00000000000E+00  0.00000000000E+00  0.38659459853E+03  0.38659459853E+03  0.25500000920E-02 0.  1.
       -2   -1    0    0    0  501  0.00000000000E+00  0.00000000000E+00 -0.63900341309E+03  0.63900341309E+03  0.25500000920E-02 0. -1.
    10030    2    1    2    0    0  0.00000000000E+00  0.00000000000E+00 -0.25240881456E+03  0.10255980116E+04  0.99405285160E+03 0.  0.
        1    1    3    3  502    0  0.49357678188E+03  0.54277058028E+02 -0.10380771787E+03  0.50728698087E+03  0.50400001928E-02 0.  1.
       -1    1    3    3    0  502 -0.49357678188E+03 -0.54277058028E+02 -0.14860109669E+03  0.51831103076E+03  0.50400001928E-02 0. -1.
</event>
<event>
 5   0  0.2277570E-03  0.9954563E+03  0.7818609E-02  0.9313542E-01
       -2   -1    0    0    0  501  0.00000000000E+00  0.00000000000E+00  0.14999539375E+03  0.14999539377E+03  0.25500000920E-02 0. -1.
        2   -1    0    0  501    0  0.00000000000E+00  0.00000000000E+00 -0.16516062026E+04  0.16516062026E+04  0.25500000920E-02 0.  1.
    10030    2    1    2    0    0  0.00000000000E+00  0.00000000000E+00 -0.15016108089E+04  0.18016015964E+04  0.99545632290E+03 0.  0.
        3    1    3    3  502    0 -0.29772055323E+03  0.91333862740E+02 -0.14535068408E+04  0.14864930369E+04  0.10100000352E+00 0.  1.
       -3    1    3    3    0  502  0.29772055323E+03 -0.91333862740E+02 -0.48103968019E+02  0.31510855945E+03  0.10100000352E+00 0. -1.
</event>
<event>
 5   0  0.2204862E-03  0.1002025E+04  0.7818609E-02  0.9306327E-01
       -2   -1    0    0    0  501  0.00000000000E+00  0.00000000000E+00  0.11022848670E+03  0.11022848673E+03  0.25500000920E-02 0. -1.
        2   -1    0    0  501    0  0.00000000000E+00  0.00000000000E+00 -0.22772111923E+04  0.22772111923E+04  0.25500000920E-02 0.  1.
    10030    2    1    2    0    0  0.00000000000E+00  0.00000000000E+00 -0.21669827056E+04  0.23874396790E+04  0.10020250369E+04 0.  0.
        1    1    3    3  502    0 -0.16425666699E+03  0.46187777655E+03 -0.83700630523E+03  0.96999530315E+03  0.50400001928E-02 0.  1.
       -1    1    3    3    0  502  0.16425666699E+03 -0.46187777655E+03 -0.13299764004E+04  0.14174443759E+04  0.50400001928E-02 0. -1.
</event>
<event>
 5   0  0.2277570E-03  0.1013057E+04  0.7818609E-02  0.9294339E-01
       -2   -1    0    0    0  501  0.00000000000E+00  0.00000000000E+00  0.15626685267E+03  0.15626685269E+03  0.25500000920E-02 0. -1.
        2   -1    0    0  501    0  0.00000000000E+00  0.00000000000E+00 -0.16418772030E+04  0.16418772030E+04  0.25500000920E-02 0.  1.
    10030    2    1    2    0    0  0.00000000000E+00  0.00000000000E+00 -0.14856103503E+04  0.17981440557E+04  0.10130567269E+04 0.  0.
        3    1    3    3  502    0  0.20189870666E+03  0.41364262959E+03 -0.36750247688E+03  0.58900033403E+03  0.10100000352E+00 0. -1.
       -3    1    3    3    0  502 -0.20189870666E+03 -0.41364262959E+03 -0.11181078734E+04  0.12091437217E+04  0.10100000352E+00 0.  1.
</event>
<event>
 5   0  0.2284843E-03  0.1000741E+04  0.7818609E-02  0.9307732E-01
       -2   -1    0    0    0  501  0.00000000000E+00  0.00000000000E+00  0.22358832011E+03  0.22358832013E+03  0.25500000920E-02 0. -1.
        2   -1    0    0  501    0  0.00000000000E+00  0.00000000000E+00 -0.11197842072E+04  0.11197842072E+04  0.25500000920E-02 0.  1.
    10030    2    1    2    0    0  0.00000000000E+00  0.00000000000E+00 -0.89619588713E+03  0.13433725274E+04  0.10007410650E+04 0.  0.
        2    1    3    3  502    0 -0.82238889743E+02  0.46436411396E+03 -0.67261399915E+03  0.82146628487E+03  0.25500000920E-02 0.  1.
       -2    1    3    3    0  502  0.82238889743E+02 -0.46436411396E+03 -0.22358188798E+03  0.52190624250E+03  0.25500000920E-02 0. -1.
</event>
<event>
 5   0  0.2204862E-03  0.1000022E+04  0.7818609E-02  0.9308521E-01
        2   -1    0    0  501    0  0.00000000000E+00  0.00000000000E+00  0.16207174500E+04  0.16207174500E+04  0.25500000920E-02 0. -1.
       -2   -1    0    0    0  501  0.00000000000E+00  0.00000000000E+00 -0.15425937040E+03  0.15425937042E+03  0.25500000920E-02 0.  1.
    10030    2    1    2    0    0  0.00000000000E+00  0.00000000000E+00  0.14664580796E+04  0.17749768204E+04  0.10000217067E+04 0.  0.
        1    1    3    3  502    0  0.11424710797E+02  0.15305666853E+03 -0.11141406939E+03  0.18965748780E+03  0.50400001928E-02 0.  1.
       -1    1    3    3    0  502 -0.11424710797E+02 -0.15305666853E+03  0.15778721490E+04  0.15853193326E+04  0.50400001928E-02 0. -1.
</event>
<event>
 5   0  0.1285769E-03  0.1000742E+04  0.7818609E-02  0.9307731E-01
        1   -1    0    0  501    0  0.00000000000E+00  0.00000000000E+00  0.85494391110E+03  0.85494391112E+03  0.50400001928E-02 0.  1.
       -1   -1    0    0    0  501  0.00000000000E+00  0.00000000000E+00 -0.29285113376E+03  0.29285113380E+03  0.50400001928E-02 0. -1.
    10030    2    1    2    0    0  0.00000000000E+00  0.00000000000E+00  0.56209277734E+03  0.11477950449E+04  0.10007423119E+04 0.  0.
        5    1    3    3  502    0  0.34729752769E+03  0.35573098285E+03  0.34581671283E+03  0.60561654020E+03  0.46999998093E+01 0.  1.
       -5    1    3    3    0  502 -0.34729752769E+03 -0.35573098285E+03  0.21627606452E+03  0.54217850472E+03  0.46999998093E+01 0. -1.
</event>
<event>
 5   0  0.1285769E-03  0.9996097E+03  0.7818609E-02  0.9308973E-01
        1   -1    0    0  501    0  0.00000000000E+00  0.00000000000E+00  0.18319439258E+04  0.18319439258E+04  0.50400001928E-02 0.  1.
       -1   -1    0    0    0  501  0.00000000000E+00  0.00000000000E+00 -0.13636055619E+03  0.13636055628E+03  0.50400001928E-02 0. -1.
    10030    2    1    2    0    0  0.00000000000E+00  0.00000000000E+00  0.16955833696E+04  0.19683044821E+04  0.99960970930E+03 0.  0.
        5    1    3    3  502    0  0.41430830876E+03 -0.20509532136E+03  0.12217462639E+04  0.13062930333E+04  0.46999998093E+01 0.  1.
       -5    1    3    3    0  502 -0.41430830876E+03  0.20509532136E+03  0.47383710571E+03  0.66201144877E+03  0.46999998093E+01 0. -1.
</event>
<event>
 5   0  0.2284843E-03  0.9962229E+03  0.7818609E-02  0.9312697E-01
        2   -1    0    0  501    0  0.00000000000E+00  0.00000000000E+00  0.17657866410E+04  0.17657866410E+04  0.25500000920E-02 0. -1.
       -2   -1    0    0    0  501  0.00000000000E+00  0.00000000000E+00 -0.14051246372E+03  0.14051246375E+03  0.25500000920E-02 0.  1.
    10030    2    1    2    0    0  0.00000000000E+00  0.00000000000E+00  0.16252741773E+04  0.19062991048E+04  0.99622292960E+03 0.  0.
        2    1    3    3  502    0  0.23517121207E+03 -0.14472284133E+03  0.19354323614E+02  0.27681183073E+03  0.25500000920E-02 0.  1.
       -2    1    3    3    0  502 -0.23517121207E+03  0.14472284133E+03  0.16059198537E+04  0.16294872740E+04  0.25500000920E-02 0. -1.
</event>
<event>
 5   0  0.1293716E-03  0.9967497E+03  0.7818609E-02  0.9312117E-01
       -1   -1    0    0    0  501  0.00000000000E+00  0.00000000000E+00  0.55021539001E+03  0.55021539003E+03  0.50400001928E-02 0.  1.
        1   -1    0    0  501    0  0.00000000000E+00  0.00000000000E+00 -0.45141864757E+03  0.45141864760E+03  0.50400001928E-02 0. -1.
    10030    2    1    2    0    0  0.00000000000E+00  0.00000000000E+00  0.98796742436E+02  0.10016340376E+04  0.99674969227E+03 0.  0.
        3    1    3    3  502    0  0.27196093608E+03 -0.27495990342E+03  0.36528214711E+03  0.53197439454E+03  0.10100000352E+00 0.  1.
       -3    1    3    3    0  502 -0.27196093608E+03  0.27495990342E+03 -0.26648540468E+03  0.46965964309E+03  0.10100000352E+00 0. -1.
</event>
<event>
 5   0  0.1285769E-03  0.1004118E+04  0.7818609E-02  0.9304040E-01
        1   -1    0    0  501    0  0.00000000000E+00  0.00000000000E+00  0.13571693321E+04  0.13571693321E+04  0.50400001928E-02 0.  1.
       -1   -1    0    0    0  501  0.00000000000E+00  0.00000000000E+00 -0.18572703731E+03  0.18572703738E+03  0.50400001928E-02 0. -1.
    10030    2    1    2    0    0  0.00000000000E+00  0.00000000000E+00  0.11714422948E+04  0.15428963695E+04  0.10041176012E+04 0.  0.
        5    1    3    3  502    0 -0.37160556893E+03  0.89543675123E+02  0.10858318323E+04  0.11511566473E+04  0.46999998093E+01 0.  1.
       -5    1    3    3    0  502  0.37160556893E+03 -0.89543675123E+02  0.85610462443E+02  0.39173972213E+03  0.46999998093E+01 0. -1.
</event>
<event>
 5   0  0.8680125E-04  0.1040707E+04  0.7818609E-02  0.9264991E-01
        4   -1    0    0  501    0  0.00000000000E+00  0.00000000000E+00  0.79248428311E+03  0.79248530073E+03  0.12699999809E+01 0.  1.
       -4   -1    0    0    0  501  0.00000000000E+00  0.00000000000E+00 -0.34166735191E+03  0.34166971224E+03  0.12699999809E+01 0. -1.
    10030    2    1    2    0    0  0.00000000000E+00  0.00000000000E+00  0.45081693120E+03  0.11341550130E+04  0.10407073018E+04 0.  0.
        4    1    3    3  502    0  0.10390262075E+03  0.26401873018E+03 -0.24995180863E+03  0.37812585739E+03  0.12699999809E+01 0. -1.
       -4    1    3    3    0  502 -0.10390262075E+03 -0.26401873018E+03  0.70076873983E+03  0.75602915559E+03  0.12699999809E+01 0.  1.
</event>
<event>
 5   0  0.2277570E-03  0.9982454E+03  0.7818609E-02  0.9310471E-01
        2   -1    0    0  501    0  0.00000000000E+00  0.00000000000E+00  0.60757720255E+03  0.60757720256E+03  0.25500000920E-02 0. -1.
       -2   -1    0    0    0  501  0.00000000000E+00  0.00000000000E+00 -0.41002765342E+03  0.41002765343E+03  0.25500000920E-02 0.  1.
    10030    2    1    2    0    0  0.00000000000E+00  0.00000000000E+00  0.19754954913E+03  0.10176048560E+04  0.99824536992E+03 0.  0.
        3    1    3    3  502    0  0.27057330929E+03 -0.30488748678E+03  0.39238337693E+03  0.56580121950E+03  0.10100000352E+00 0. -1.
       -3    1    3    3    0  502 -0.27057330929E+03  0.30488748678E+03 -0.19483382780E+03  0.45180363649E+03  0.10100000352E+00 0.  1.
</event>
<event>
 5   0  0.1285769E-03  0.9989115E+03  0.7818609E-02  0.9309739E-01
        1   -1    0    0  501    0  0.00000000000E+00  0.00000000000E+00  0.86384456945E+03  0.86384456947E+03  0.50400001928E-02 0.  1.
       -1   -1    0    0    0  501  0.00000000000E+00  0.00000000000E+00 -0.28877424411E+03  0.28877424415E+03  0.50400001928E-02 0. -1.
    10030    2    1    2    0    0  0.00000000000E+00  0.00000000000E+00  0.57507032534E+03  0.11526188136E+04  0.99891153283E+03 0.  0.
        5    1    3    3  502    0 -0.44133600135E+03 -0.18260404457E+03  0.11908418896E+03  0.49226500712E+03  0.46999998093E+01 0.  1.
       -5    1    3    3    0  502  0.44133600135E+03  0.18260404457E+03  0.45598613639E+03  0.66035380650E+03  0.46999998093E+01 0. -1.
</event>
<event>
 5   0  0.2284843E-03  0.9946861E+03  0.7818609E-02  0.9314392E-01
        2   -1    0    0  501    0  0.00000000000E+00  0.00000000000E+00  0.17144789415E+04  0.17144789415E+04  0.25500000920E-02 0. -1.
       -2   -1    0    0    0  501  0.00000000000E+00  0.00000000000E+00 -0.14427129927E+03  0.14427129929E+03  0.25500000920E-02 0.  1.
    10030    2    1    2    0    0  0.00000000000E+00  0.00000000000E+00  0.15702076422E+04  0.18587502408E+04  0.99468609015E+03 0.  0.
        2    1    3    3  502    0 -0.23151904212E+03  0.58349824912E+02  0.16003804103E+04  0.16180924654E+04  0.25500000920E-02 0. -1.
       -2    1    3    3    0  502  0.23151904212E+03 -0.58349824912E+02 -0.30172768042E+02  0.24065777542E+03  0.25500000920E-02 0.  1.
</event>
<event>
 5   0  0.1353789E-03  0.1005059E+04  0.7818609E-02  0.9303014E-01
       -1   -1    0    0    0  501  0.00000000000E+00  0.00000000000E+00  0.12783470580E+04  0.12783470580E+04  0.50400001928E-02 0.  1.
        1   -1    0    0  501    0  0.00000000000E+00  0.00000000000E+00 -0.19754877267E+03  0.19754877274E+03  0.50400001928E-02 0. -1.
    10030    2    1    2    0    0  0.00000000000E+00  0.00000000000E+00  0.10807982853E+04  0.14758958307E+04  0.10050589881E+04 0.  0.
        1    1    3    3  502    0 -0.91718271707E+02  0.37690176058E+03  0.71250487873E+02  0.39439042907E+03  0.50400001928E-02 0. -1.
       -1    1    3    3    0  502  0.91718271707E+02 -0.37690176058E+03  0.10095477974E+04  0.10815054016E+04  0.50400001928E-02 0.  1.
</event>
<event>
 5   0  0.8680125E-04  0.9937065E+03  0.7818609E-02  0.9315474E-01
        3   -1    0    0  501    0  0.00000000000E+00  0.00000000000E+00  0.33603383898E+03  0.33603385416E+03  0.10100000352E+00 0. -1.
       -3   -1    0    0    0  501  0.00000000000E+00  0.00000000000E+00 -0.73463776109E+03  0.73463776804E+03  0.10100000352E+00 0.  1.
    10030    2    1    2    0    0  0.00000000000E+00  0.00000000000E+00 -0.39860392211E+03  0.10706716222E+04  0.99370651394E+03 0.  0.
        4    1    3    3  502    0  0.13278713252E+03 -0.23776162951E+03 -0.64705905685E+03  0.70203279908E+03  0.12699999809E+01 0.  1.
       -4    1    3    3    0  502 -0.13278713252E+03  0.23776162951E+03  0.24845513474E+03  0.36863882312E+03  0.12699999809E+01 0. -1.
</event>
<event>
 5   0  0.2277570E-03  0.1003321E+04  0.7818609E-02  0.9304910E-01
        2   -1    0    0  501    0  0.00000000000E+00  0.00000000000E+00  0.69013198253E+03  0.69013198254E+03  0.25500000920E-02 0.  1.
       -2   -1    0    0    0  501  0.00000000000E+00  0.00000000000E+00 -0.36465958108E+03  0.36465958109E+03  0.25500000920E-02 0. -1.
    10030    2    1    2    0    0  0.00000000000E+00  0.00000000000E+00  0.32547240145E+03  0.10547915636E+04  0.10033209649E+04 0.  0.
        3    1    3    3  502    0 -0.73767913534E+02  0.16881622836E+03 -0.32780842472E+03  0.37603058060E+03  0.10100000352E+00 0. -1.
       -3    1    3    3    0  502  0.73767913534E+02 -0.16881622836E+03  0.65328082618E+03  0.67876098302E+03  0.10100000352E+00 0.  1.
</event>
<event>
 5   0  0.1249195E-03  0.1001083E+04  0.7818609E-02  0.9307358E-01
       -1   -1    0    0    0  501  0.00000000000E+00  0.00000000000E+00  0.38907226408E+03  0.38907226411E+03  0.50400001928E-02 0.  1.
        1   -1    0    0  501    0  0.00000000000E+00  0.00000000000E+00 -0.64394701319E+03  0.64394701321E+03  0.50400001928E-02 0. -1.
    10030    2    1    2    0    0  0.00000000000E+00  0.00000000000E+00 -0.25487474911E+03  0.10330192773E+04  0.10010832581E+04 0.  0.
        2    1    3    3  502    0  0.32194413372E+03 -0.18567655972E+03  0.21854690952E+03  0.43114563865E+03  0.25500000920E-02 0.  1.
       -2    1    3    3    0  502 -0.32194413372E+03  0.18567655972E+03 -0.47342165863E+03  0.60187363867E+03  0.25500000920E-02 0. -1.
</event>
<event>
 5   0  0.1293716E-03  0.1000048E+04  0.7818609E-02  0.9308492E-01
        1   -1    0    0  501    0  0.00000000000E+00  0.00000000000E+00  0.17825136536E+04  0.17825136536E+04  0.50400001928E-02 0.  1.
       -1   -1    0    0    0  501  0.00000000000E+00  0.00000000000E+00 -0.14026482420E+03  0.14026482429E+03  0.50400001928E-02 0. -1.
    10030    2    1    2    0    0  0.00000000000E+00  0.00000000000E+00  0.16422488294E+04  0.19227784779E+04  0.10000479276E+04 0.  0.
        3    1    3    3  502    0  0.31905500687E+03 -0.31100016512E+03  0.12574799896E+04  0.13340813823E+04  0.10100000352E+00 0.  1.
       -3    1    3    3    0  502 -0.31905500687E+03  0.31100016512E+03  0.38476883984E+03  0.58869709565E+03  0.10100000352E+00 0. -1.
</event>
<event>
 5   0  0.1285769E-03  0.1000756E+04  0.7818609E-02  0.9307716E-01
       -1   -1    0    0    0  501  0.00000000000E+00  0.00000000000E+00  0.17194497725E+03  0.17194497732E+03  0.50400001928E-02 0. -1.
        1   -1    0    0  501    0  0.00000000000E+00  0.00000000000E+00 -0.14561534379E+04  0.14561534379E+04  0.50400001928E-02 0.  1.
    10030    2    1    2    0    0  0.00000000000E+00  0.00000000000E+00 -0.12842084607E+04  0.16280984153E+04  0.10007562537E+04 0.  0.
        5    1    3    3  502    0 -0.44253234592E+03  0.21613009428E+03 -0.78586898097E+03  0.92744770208E+03  0.46999998093E+01 0.  1.
       -5    1    3    3    0  502  0.44253234592E+03 -0.21613009428E+03 -0.49833947970E+03  0.70065071317E+03  0.46999998093E+01 0. -1.
</event>
<event>
 5   0  0.1249195E-03  0.9944543E+03  0.7818609E-02  0.9314648E-01
       -1   -1    0    0    0  501  0.00000000000E+00  0.00000000000E+00  0.16676398248E+03  0.16676398256E+03  0.50400001928E-02 0.  1.
        1   -1    0    0  501    0  0.00000000000E+00  0.00000000000E+00 -0.14825434984E+04  0.14825434984E+04  0.50400001928E-02 0. -1.
    10030    2    1    2    0    0  0.00000000000E+00  0.00000000000E+00 -0.13157795159E+04  0.16493074810E+04  0.99445433896E+03 0.  0.
        2    1    3    3  502    0 -0.18156804516E+03  0.12627782789E+02  0.10953123924E+03  0.21242294674E+03  0.25500000920E-02 0.  1.
       -2    1    3    3    0  502  0.18156804516E+03 -0.12627782789E+02 -0.14253107552E+04  0.14368845343E+04  0.25500000920E-02 0. -1.
</event>
<event>
 5   0  0.2255142E-03  0.1000167E+04  0.7818609E-02  0.9308361E-01
       -2   -1    0    0    0  501  0.00000000000E+00  0.00000000000E+00  0.30149565020E+03  0.30149565021E+03  0.25500000920E-02 0. -1.
        2   -1    0    0  501    0  0.00000000000E+00  0.00000000000E+00 -0.82947701707E+03  0.82947701707E+03  0.25500000920E-02 0.  1.
    10030    2    1    2    0    0  0.00000000000E+00  0.00000000000E+00 -0.52798136687E+03  0.11309726673E+04  0.10001674112E+04 0.  0.
        4    1    3    3  502    0  0.28536963501E+03  0.22845279470E+03  0.12189581432E+03  0.38533973379E+03  0.12699999809E+01 0. -1.
       -4    1    3    3    0  502 -0.28536963501E+03 -0.22845279470E+03 -0.64987718118E+03  0.74563293350E+03  0.12699999809E+01 0.  1.
</event>
<event>
 5   0  0.1293575E-03  0.9999390E+03  0.7818609E-02  0.9308612E-01
        1   -1    0    0  501    0  0.00000000000E+00  0.00000000000E+00  0.43754208611E+03  0.43754208613E+03  0.50400001928E-02 0. -1.
       -1   -1    0    0    0  501  0.00000000000E+00  0.00000000000E+00 -0.57130392166E+03  0.57130392168E+03  0.50400001928E-02 0.  1.
    10030    2    1    2    0    0  0.00000000000E+00  0.00000000000E+00 -0.13376183555E+03  0.10088460078E+04  0.99993901756E+03 0.  0.
        4    1    3    3  502    0 -0.18664011823E+03  0.20933333957E+02  0.40059849570E+03  0.44244039809E+03  0.12699999809E+01 0. -1.
       -4    1    3    3    0  502  0.18664011823E+03 -0.20933333957E+02 -0.53436033126E+03  0.56640560972E+03  0.12699999809E+01 0.  1.
</event>
<event>
 5   0  0.1293716E-03  0.9972355E+03  0.7818609E-02  0.9311582E-01
        1   -1    0    0  501    0  0.00000000000E+00  0.00000000000E+00  0.48461591422E+03  0.48461591425E+03  0.50400001928E-02 0. -1.
       -1   -1    0    0    0  501  0.00000000000E+00  0.00000000000E+00 -0.51302417814E+03  0.51302417816E+03  0.50400001928E-02 0.  1.
    10030    2    1    2    0    0  0.00000000000E+00  0.00000000000E+00 -0.28408263915E+02  0.99764009241E+03  0.99723554115E+03 0.  0.
        3    1    3    3  502    0 -0.32667608096E+03 -0.34034974368E+03  0.14730627826E+03  0.49422096243E+03  0.10100000352E+00 0. -1.
       -3    1    3    3    0  502  0.32667608096E+03  0.34034974368E+03 -0.17571454217E+03  0.50341912998E+03  0.10100000352E+00 0.  1.
</event>
<event>
 5   0  0.8680125E-04  0.9977044E+03  0.7818609E-02  0.9311066E-01
        4   -1    0    0  501    0  0.00000000000E+00  0.00000000000E+00  0.55624962604E+03  0.55625107583E+03  0.12699999809E+01 0. -1.
       -4   -1    0    0    0  501  0.00000000000E+00  0.00000000000E+00 -0.44737447750E+03  0.44737628012E+03  0.12699999809E+01 0.  1.
    10030    2    1    2    0    0  0.00000000000E+00  0.00000000000E+00  0.10887514854E+03  0.10036273560E+04  0.99770440094E+03 0.  0.
        3    1    3    3  502    0  0.17420010876E+03 -0.81840219414E+02  0.51739797056E+03  0.55203638426E+03  0.10100000352E+00 0. -1.
       -3    1    3    3    0  502 -0.17420010876E+03  0.81840219414E+02 -0.40852282202E+03  0.45159097170E+03  0.10100000352E+00 0.  1.
</event>
<event>
 5   0  0.2204862E-03  0.1003298E+04  0.7818609E-02  0.9304935E-01
       -2   -1    0    0    0  501  0.00000000000E+00  0.00000000000E+00  0.21370076234E+03  0.21370076235E+03  0.25500000920E-02 0.  1.
        2   -1    0    0  501    0  0.00000000000E+00  0.00000000000E+00 -0.11775890207E+04  0.11775890207E+04  0.25500000920E-02 0. -1.
    10030    2    1    2    0    0  0.00000000000E+00  0.00000000000E+00 -0.96388825832E+03  0.13912897830E+04  0.10032979048E+04 0.  0.
        1    1    3    3  502    0 -0.33747087829E+03 -0.34523755259E+03 -0.67094555380E+03  0.82658544482E+03  0.50400001928E-02 0. -1.
       -1    1    3    3    0  502  0.33747087829E+03  0.34523755259E+03 -0.29294270453E+03  0.56470433819E+03  0.50400001928E-02 0.  1.
</event>
<event>
 5   0  0.2277570E-03  0.9999185E+03  0.7818609E-02  0.9308634E-01
       -2   -1    0    0    0  501  0.00000000000E+00  0.00000000000E+00  0.63555959967E+03  0.63555959967E+03  0.25500000920E-02 0.  1.
        2   -1    0    0  501    0  0.00000000000E+00  0.00000000000E+00 -0.39329000637E+03  0.39329000638E+03  0.25500000920E-02 0. -1.
    10030    2    1    2    0    0  0.00000000000E+00  0.00000000000E+00  0.24226959330E+03  0.10288496061E+04  0.99991847470E+03 0.  0.
        3    1    3    3  502    0 -0.34114125565E+03 -0.19754736096E+03 -0.19526336028E+03  0.43992056806E+03  0.10100000352E+00 0. -1.
       -3    1    3    3    0  502  0.34114125565E+03  0.19754736096E+03  0.43753295357E+03  0.58892903800E+03  0.10100000352E+00 0.  1.
</event>
<event>
 5   0  0.2277570E-03  0.1001500E+04  0.7818609E-02  0.9306901E-01
       -2   -1    0    0    0  501  0.00000000000E+00  0.00000000000E+00  0.52613368598E+03  0.52613368598E+03  0.25500000920E-02 0. -1.
        2   -1    0    0  501    0  0.00000000000E+00  0.00000000000E+00 -0.47659083049E+03  0.47659083050E+03  0.25500000920E-02 0.  1.
    10030    2    1    2    0    0  0.00000000000E+00  0.00000000000E+00  0.49542855487E+02  0.10027245165E+04  0.10014998559E+04 0.  0.
        3    1    3    3  502    0 -0.62337744963E+02 -0.40342932793E+03 -0.26559918184E+03  0.48701555691E+03  0.10100000352E+00 0.  1.
       -3    1    3    3    0  502  0.62337744963E+02  0.40342932793E+03  0.31514203733E+03  0.51570895956E+03  0.10100000352E+00 0. -1.
</event>
<event>
 5   0  0.1293575E-03  0.9985225E+03  0.7818609E-02  0.9310167E-01
       -1   -1    0    0    0  501  0.00000000000E+00  0.00000000000E+00  0.29921714997E+03  0.29921715001E+03  0.50400001928E-02 0. -1.
        1   -1    0    0  501    0  0.00000000000E+00  0.00000000000E+00 -0.83304647606E+03  0.83304647608E+03  0.50400001928E-02 0.  1.
    10030    2    1    2    0    0  0.00000000000E+00  0.00000000000E+00 -0.53382932609E+03  0.11322636261E+04  0.99852249327E+03 0.  0.
        4    1    3    3  502    0  0.26580438016E+03  0.31605414161E+03 -0.58506083573E+03  0.71612846846E+03  0.12699999809E+01 0.  1.
       -4    1    3    3    0  502 -0.26580438016E+03 -0.31605414161E+03  0.51231509635E+02  0.41613515763E+03  0.12699999809E+01 0. -1.
</event>
<event>
 5   0  0.2204862E-03  0.1000294E+04  0.7818609E-02  0.9308222E-01
       -2   -1    0    0    0  501  0.00000000000E+00  0.00000000000E+00  0.68734230136E+03  0.68734230136E+03  0.25500000920E-02 0.  1.
        2   -1    0    0  501    0  0.00000000000E+00  0.00000000000E+00 -0.36393387799E+03  0.36393387800E+03  0.25500000920E-02 0. -1.
    10030    2    1    2    0    0  0.00000000000E+00  0.00000000000E+00  0.32340842337E+03  0.10512761794E+04  0.10002942552E+04 0.  0.
        1    1    3    3  502    0 -0.18762385183E+03  0.45187055574E+03  0.27070848439E+03  0.55917152330E+03  0.50400001928E-02 0. -1.
       -1    1    3    3    0  502  0.18762385183E+03 -0.45187055574E+03  0.52699938976E+02  0.49210465606E+03  0.50400001928E-02 0.  1.
</event>
<event>
 5   0  0.1249195E-03  0.9960831E+03  0.7818609E-02  0.9312851E-01
        1   -1    0    0  501    0  0.00000000000E+00  0.00000000000E+00  0.65382188571E+03  0.65382188573E+03  0.50400001928E-02 0.  1.
       -1   -1    0    0    0  501  0.00000000000E+00  0.00000000000E+00 -0.37937760010E+03  0.37937760013E+03  0.50400001928E-02 0. -1.
    10030    2    1    2    0    0  0.00000000000E+00  0.00000000000E+00  0.27444428561E+03  0.10331994859E+04  0.99608308473E+03 0.  0.
        2    1    3    3  502    0 -0.19778815658E+03  0.22228404980E+03 -0.27705351294E+03  0.40655750236E+03  0.25500000920E-02 0. -1.
       -2    1    3    3    0  502  0.19778815658E+03 -0.22228404980E+03  0.55149779856E+03  0.62664198351E+03  0.25500000920E-02 0.  1.
</event>
<event>
 5   0  0.1353789E-03  0.9974348E+03  0.7818609E-02  0.9311363E-01
        1   -1    0    0  501    0  0.00000000000E+00  0.00000000000E+00  0.11895687309E+04  0.11895687309E+04  0.50400001928E-02 0. -1.
       -1   -1    0    0    0  501  0.00000000000E+00  0.00000000000E+00 -0.20908338911E+03  0.20908338917E+03  0.50400001928E-02 0.  1.
    10030    2    1    2    0    0  0.00000000000E+00  0.00000000000E+00  0.98048534182E+03  0.13986521201E+04  0.99743483375E+03 0.  0.
        1    1    3    3  502    0 -0.40752677088E+02 -0.89868438625E+02 -0.19525774473E+03  0.21877546447E+03  0.50400001928E-02 0.  1.
       -1    1    3    3    0  502  0.40752677088E+02  0.89868438625E+02  0.11757430865E+04  0.11798766556E+04  0.50400001928E-02 0. -1.
</event>
<event>
 5   0  0.1285769E-03  0.1003477E+04  0.7818609E-02  0.9304740E-01
       -1   -1    0    0    0  501  0.00000000000E+00  0.00000000000E+00  0.13578779807E+03  0.13578779816E+03  0.50400001928E-02 0. -1.
        1   -1    0    0  501    0  0.00000000000E+00  0.00000000000E+00 -0.18539324773E+04  0.18539324773E+04  0.50400001928E-02 0.  1.
    10030    2    1    2    0    0  0.00000000000E+00  0.00000000000E+00 -0.17181446792E+04  0.19897202754E+04  0.10034767739E+04 0.  0.
        5    1    3    3  502    0 -0.46040505500E+03  0.85068019608E+02 -0.50155858094E+03  0.68614319405E+03  0.46999998093E+01 0. -1.
       -5    1    3    3    0  502  0.46040505500E+03 -0.85068019608E+02 -0.12165860982E+04  0.13035770814E+04  0.46999998093E+01 0.  1.
</event>
<event>
 5   0  0.2284843E-03  0.9979686E+03  0.7818609E-02  0.9310776E-01
       -2   -1    0    0    0  501  0.00000000000E+00  0.00000000000E+00  0.37346241405E+03  0.37346241405E+03  0.25500000920E-02 0.  1.
        2   -1    0    0  501    0  0.00000000000E+00  0.00000000000E+00 -0.66669453581E+03  0.66669453581E+03  0.25500000920E-02 0. -1.
    10030    2    1    2    0    0  0.00000000000E+00  0.00000000000E+00 -0.29323212176E+03  0.10401569499E+04  0.99796863835E+03 0.  0.
        2    1    3    3  502    0  0.18076740184E+03 -0.29614402276E+03  0.22716272448E+03  0.41470596714E+03  0.25500000920E-02 0.  1.
       -2    1    3    3    0  502 -0.18076740184E+03  0.29614402276E+03 -0.52039484625E+03  0.62545098272E+03  0.25500000920E-02 0. -1.
</event>
<event>
 5   0  0.2204862E-03  0.9982441E+03  0.7818609E-02  0.9310473E-01
        2   -1    0    0  501    0  0.00000000000E+00  0.00000000000E+00  0.48071093411E+03  0.48071093412E+03  0.25500000920E-02 0. -1.
       -2   -1    0    0    0  501  0.00000000000E+00  0.00000000000E+00 -0.51823825938E+03  0.51823825939E+03  0.25500000920E-02 0.  1.
    10030    2    1    2    0    0  0.00000000000E+00  0.00000000000E+00 -0.37527325271E+02  0.99894919351E+03  0.99824405386E+03 0.  0.
        1    1    3    3  502    0 -0.11776335602E+03 -0.42985080177E+03 -0.24360632611E+03  0.50792121628E+03  0.50400001928E-02 0.  1.
       -1    1    3    3    0  502  0.11776335602E+03  0.42985080177E+03  0.20607900084E+03  0.49102797722E+03  0.50400001928E-02 0. -1.
</event>
<event>
 5   0  0.2264577E-03  0.1000688E+04  0.7818609E-02  0.9307790E-01
       -2   -1    0    0    0  501  0.00000000000E+00  0.00000000000E+00  0.30880955182E+03  0.30880955183E+03  0.25500000920E-02 0.  1.
        2   -1    0    0  501    0  0.00000000000E+00  0.00000000000E+00 -0.81067558416E+03  0.81067558417E+03  0.25500000920E-02 0. -1.
    10030    2    1    2    0    0  0.00000000000E+00  0.00000000000E+00 -0.50186603234E+03  0.11194851360E+04  0.10006884906E+04 0.  0.
        5    1    3    3  502    0  0.37173988366E+03 -0.31640358056E+03 -0.37358676267E+03  0.61472833523E+03  0.46999998093E+01 0. -1.
       -5    1    3    3    0  502 -0.37173988366E+03  0.31640358056E+03 -0.12827926967E+03  0.50475680077E+03  0.46999998093E+01 0.  1.
</event>
<event>
 5   0  0.8680125E-04  0.1009835E+04  0.7818609E-02  0.9297823E-01
       -3   -1    0    0    0  501  0.00000000000E+00  0.00000000000E+00  0.60226314323E+03  0.60226315170E+03  0.10100000352E+00 0.  1.
        3   -1    0    0  501    0  0.00000000000E+00  0.00000000000E+00 -0.42330644172E+03  0.42330645377E+03  0.10100000352E+00 0. -1.
    10030    2    1    2    0    0  0.00000000000E+00  0.00000000000E+00  0.17895670151E+03  0.10255696055E+04  0.10098353899E+04 0.  0.
        2    1    3    3  502    0  0.32494714639E+03 -0.33017673728E+03  0.29344219002E+03  0.54837545958E+03  0.25500000920E-02 0.  1.
       -2    1    3    3    0  502 -0.32494714639E+03  0.33017673728E+03 -0.11448548851E+03  0.47719414589E+03  0.25500000920E-02 0. -1.
</event>
<event>
 5   0  0.8680125E-04  0.9831532E+03  0.7818609E-02  0.9327218E-01
        4   -1    0    0  501    0  0.00000000000E+00  0.00000000000E+00  0.19330980564E+03  0.19331397739E+03  0.12699999809E+01 0. -1.
       -4   -1    0    0    0  501  0.00000000000E+00  0.00000000000E+00 -0.12500352080E+04  0.12500358531E+04  0.12699999809E+01 0.  1.
    10030    2    1    2    0    0  0.00000000000E+00  0.00000000000E+00 -0.10567254024E+04  0.14433498305E+04  0.98315317082E+03 0.  0.
        3    1    3    3  502    0  0.26948144048E+03 -0.27505496810E+03 -0.97696227955E+03  0.10501098933E+04  0.10100000352E+00 0.  1.
       -3    1    3    3    0  502 -0.26948144048E+03  0.27505496810E+03 -0.79763122814E+02  0.39323993719E+03  0.10100000352E+00 0. -1.
</event>
<event>
 5   0  0.2255142E-03  0.9603174E+03  0.7818609E-02  0.9353172E-01
       -2   -1    0    0    0  501  0.00000000000E+00  0.00000000000E+00  0.80783261806E+03  0.80783261806E+03  0.25500000920E-02 0. -1.
        2   -1    0    0  501    0  0.00000000000E+00  0.00000000000E+00 -0.28539619624E+03  0.28539619625E+03  0.25500000920E-02 0.  1.
    10030    2    1    2    0    0  0.00000000000E+00  0.00000000000E+00  0.52243642182E+03  0.10932288143E+04  0.96031735670E+03 0.  0.
        4    1    3    3  502    0 -0.34993583084E+03 -0.31671704599E+03  0.16076757963E+03  0.49861067025E+03  0.12699999809E+01 0. -1.
       -4    1    3    3    0  502  0.34993583084E+03  0.31671704599E+03  0.36166884219E+03  0.59461814405E+03  0.12699999809E+01 0.  1.
</event>
<event>
 5   0  0.2204862E-03  0.1000670E+04  0.7818609E-02  0.9307811E-01
        2   -1    0    0  501    0  0.00000000000E+00  0.00000000000E+00  0.11286142861E+04  0.11286142861E+04  0.25500000920E-02 0.  1.
       -2   -1    0    0    0  501  0.00000000000E+00  0.00000000000E+00 -0.22180738486E+03  0.22180738488E+03  0.25500000920E-02 0. -1.
    10030    2    1    2    0    0  0.00000000000E+00  0.00000000000E+00  0.90680690122E+03  0.13504216710E+04  0.10006697424E+04 0.  0.
        1    1    3    3  502    0 -0.12885165146E+03  0.47323209295E+03  0.31991968485E+03  0.58557661041E+03  0.50400001928E-02 0. -1.
       -1    1    3    3    0  502  0.12885165146E+03 -0.47323209295E+03  0.58688721637E+03  0.76484506054E+03  0.50400001928E-02 0.  1.
</event>
<event>
 5   0  0.1293575E-03  0.9960942E+03  0.7818609E-02  0.9312839E-01
        1   -1    0    0  501    0  0.00000000000E+00  0.00000000000E+00  0.13236536640E+04  0.13236536640E+04  0.50400001928E-02 0.  1.
       -1   -1    0    0    0  501  0.00000000000E+00  0.00000000000E+00 -0.18739866152E+03  0.18739866158E+03  0.50400001928E-02 0. -1.
    10030    2    1    2    0    0  0.00000000000E+00  0.00000000000E+00  0.11362550025E+04  0.15110523256E+04  0.99609422244E+03 0.  0.
        4    1    3    3  502    0 -0.32629345636E+03  0.35555954626E+03  0.38135253015E+03  0.61507834927E+03  0.12699999809E+01 0. -1.
       -4    1    3    3    0  502  0.32629345636E+03 -0.35555954626E+03  0.75490247230E+03  0.89597397629E+03  0.12699999809E+01 0.  1.
</event>
<event>
 5   0  0.1285769E-03  0.1002715E+04  0.7818609E-02  0.9305572E-01
       -1   -1    0    0    0  501  0.00000000000E+00  0.00000000000E+00  0.23758350687E+03  0.23758350693E+03  0.50400001928E-02 0. -1.
        1   -1    0    0  501    0  0.00000000000E+00  0.00000000000E+00 -0.10579836105E+04  0.10579836105E+04  0.50400001928E-02 0.  1.
    10030    2    1    2    0    0  0.00000000000E+00  0.00000000000E+00 -0.82040010361E+03  0.12955671174E+04  0.10027152266E+04 0.  0.
        5    1    3    3  502    0  0.19517909501E+03  0.33326097222E+03  0.28136224915E+01  0.38624831547E+03  0.46999998093E+01 0. -1.
       -5    1    3    3    0  502 -0.19517909501E+03 -0.33326097222E+03 -0.82321372610E+03  0.90931880195E+03  0.46999998093E+01 0.  1.
</event>
<event>
 5   0  0.2264577E-03  0.9986453E+03  0.7818609E-02  0.9310032E-01
        2   -1    0    0  501    0  0.00000000000E+00  0.00000000000E+00  0.10587936907E+04  0.10587936907E+04  0.25500000920E-02 0.  1.
       -2   -1    0    0    0  501  0.00000000000E+00  0.00000000000E+00 -0.23547846412E+03  0.23547846413E+03  0.25500000920E-02 0. -1.
    10030    2    1    2    0    0  0.00000000000E+00  0.00000000000E+00  0.82331522657E+03  0.12942721548E+04  0.99864530663E+03 0.  0.
        5    1    3    3  502    0 -0.16432477603E+03  0.45519861623E+03  0.57087720861E+03  0.74841919373E+03  0.46999998093E+01 0. -1.
       -5    1    3    3    0  502  0.16432477603E+03 -0.45519861623E+03  0.25243801796E+03  0.54585296110E+03  0.46999998093E+01 0.  1.
</event>
<event>
 5   0  0.2264577E-03  0.9993711E+03  0.7818609E-02  0.9309235E-01
        2   -1    0    0  501    0  0.00000000000E+00  0.00000000000E+00  0.12405935756E+04  0.12405935756E+04  0.25500000920E-02 0. -1.
       -2   -1    0    0    0  501  0.00000000000E+00  0.00000000000E+00 -0.20126305831E+03  0.20126305833E+03  0.25500000920E-02 0.  1.
    10030    2    1    2    0    0  0.00000000000E+00  0.00000000000E+00  0.10393305173E+04  0.14418566340E+04  0.99937111659E+03 0.  0.
        5    1    3    3  502    0  0.12842004589E+03 -0.16021975077E+03  0.11768778823E+04  0.11946655250E+04  0.46999998093E+01 0. -1.
       -5    1    3    3    0  502 -0.12842004589E+03  0.16021975077E+03 -0.13754736502E+03  0.24719110895E+03  0.46999998093E+01 0.  1.
</event>
<event>
 5   0  0.2264577E-03  0.9992909E+03  0.7818609E-02  0.9309323E-01
       -2   -1    0    0    0  501  0.00000000000E+00  0.00000000000E+00  0.40742811957E+03  0.40742811958E+03  0.25500000920E-02 0.  1.
        2   -1    0    0  501    0  0.00000000000E+00  0.00000000000E+00 -0.61273530693E+03  0.61273530693E+03  0.25500000920E-02 0. -1.
    10030    2    1    2    0    0  0.00000000000E+00  0.00000000000E+00 -0.20530718736E+03  0.10201634265E+04  0.99929093642E+03 0.  0.
        5    1    3    3  502    0 -0.15984451227E+03 -0.17141300277E+03 -0.55310768581E+03  0.60073528923E+03  0.46999998093E+01 0. -1.
       -5    1    3    3    0  502  0.15984451227E+03  0.17141300277E+03  0.34780049845E+03  0.41942813728E+03  0.46999998093E+01 0.  1.
</event>
<event>
 5   0  0.2255142E-03  0.1001387E+04  0.7818609E-02  0.9307024E-01
        2   -1    0    0  501    0  0.00000000000E+00  0.00000000000E+00  0.23885288163E+03  0.23885288164E+03  0.25500000920E-02 0. -1.
       -2   -1    0    0    0  501  0.00000000000E+00  0.00000000000E+00 -0.10495758111E+04  0.10495758111E+04  0.25500000920E-02 0.  1.
    10030    2    1    2    0    0  0.00000000000E+00  0.00000000000E+00 -0.81072292951E+03  0.12884286928E+04  0.10013874515E+04 0.  0.
        4    1    3    3  502    0 -0.43590797166E+03 -0.45278942934E+02 -0.93827222936E+02  0.44818646019E+03  0.12699999809E+01 0. -1.
       -4    1    3    3    0  502  0.43590797166E+03  0.45278942934E+02 -0.71689570658E+03  0.84024223260E+03  0.12699999809E+01 0.  1.
</event>
<event>
 5   0  0.2255142E-03  0.1002553E+04  0.7818609E-02  0.9305749E-01
       -2   -1    0    0    0  501  0.00000000000E+00  0.00000000000E+00  0.41108038301E+03  0.41108038301E+03  0.25500000920E-02 0. -1.
        2   -1    0    0  501    0  0.00000000000E+00  0.00000000000E+00 -0.61126307244E+03  0.61126307245E+03  0.25500000920E-02 0.  1.
    10030    2    1    2    0    0  0.00000000000E+00  0.00000000000E+00 -0.20018268944E+03  0.10223434555E+04  0.10025532563E+04 0.  0.
        4    1    3    3  502    0  0.23616896599E+03 -0.92901632919E+02  0.34072667342E+03  0.42485617893E+03  0.12699999809E+01 0. -1.
       -4    1    3    3    0  502 -0.23616896599E+03  0.92901632919E+02 -0.54090936286E+03  0.59748727654E+03  0.12699999809E+01 0.  1.
</event>
<event>
 5   0  0.1285769E-03  0.9998638E+03  0.7818609E-02  0.9308694E-01
       -1   -1    0    0    0  501  0.00000000000E+00  0.00000000000E+00  0.97555696064E+03  0.97555696065E+03  0.50400001928E-02 0. -1.
        1   -1    0    0  501    0  0.00000000000E+00  0.00000000000E+00 -0.25619408461E+03  0.25619408466E+03  0.50400001928E-02 0.  1.
    10030    2    1    2    0    0  0.00000000000E+00  0.00000000000E+00  0.71936287603E+03  0.12317510453E+04  0.99986383584E+03 0.  0.
        5    1    3    3  502    0 -0.13543700893E+03 -0.16546164515E+03  0.91635212000E+03  0.94098035964E+03  0.46999998093E+01 0. -1.
       -5    1    3    3    0  502  0.13543700893E+03  0.16546164515E+03 -0.19698924397E+03  0.29077068567E+03  0.46999998093E+01 0.  1.
</event>
<event>
 5   0  0.2277570E-03  0.1001540E+04  0.7818609E-02  0.9306857E-01
        2   -1    0    0  501    0  0.00000000000E+00  0.00000000000E+00  0.55033436578E+03  0.55033436578E+03  0.25500000920E-02 0.  1.
       -2   -1    0    0    0  501  0.00000000000E+00  0.00000000000E+00 -0.45566953646E+03  0.45566953647E+03  0.25500000920E-02 0. -1.
    10030    2    1    2    0    0  0.00000000000E+00  0.00000000000E+00  0.94664829316E+02  0.10060039023E+04  0.10015400249E+04 0.  0.
        3    1    3    3  502    0  0.66035176869E+02  0.49685877225E+02 -0.44877302682E+03  0.45631849708E+03  0.10100000352E+00 0. -1.
       -3    1    3    3    0  502 -0.66035176869E+02 -0.49685877225E+02  0.54343785613E+03  0.54968540517E+03  0.10100000352E+00 0.  1.
</event>
<event>
 5   0  0.2284843E-03  0.9898433E+03  0.7818609E-02  0.9319755E-01
       -2   -1    0    0    0  501  0.00000000000E+00  0.00000000000E+00  0.40349215121E+03  0.40349215122E+03  0.25500000920E-02 0.  1.
        2   -1    0    0  501    0  0.00000000000E+00  0.00000000000E+00 -0.60706866718E+03  0.60706866719E+03  0.25500000920E-02 0. -1.
    10030    2    1    2    0    0  0.00000000000E+00  0.00000000000E+00 -0.20357651597E+03  0.10105608184E+04  0.98984330571E+03 0.  0.
        2    1    3    3  502    0 -0.42757624157E+03 -0.12394384474E+03 -0.32256406243E+03  0.54975548508E+03  0.25500000920E-02 0. -1.
       -2    1    3    3    0  502  0.42757624157E+03  0.12394384474E+03  0.11898754646E+03  0.46080533333E+03  0.25500000920E-02 0.  1.
</event>
<event>
 5   0  0.1353789E-03  0.1003070E+04  0.7818609E-02  0.9305184E-01
       -1   -1    0    0    0  501  0.00000000000E+00  0.00000000000E+00  0.49316833613E+03  0.49316833615E+03  0.50400001928E-02 0. -1.
        1   -1    0    0  501    0  0.00000000000E+00  0.00000000000E+00 -0.51004373928E+03  0.51004373931E+03  0.50400001928E-02 0.  1.
    10030    2    1    2    0    0  0.00000000000E+00  0.00000000000E+00 -0.16875403154E+02  0.10032120755E+04  0.10030701317E+04 0.  0.
        1    1    3    3  502    0  0.39502213397E+03 -0.24564256405E+03 -0.19596001167E+03  0.50476042020E+03  0.50400001928E-02 0.  1.
       -1    1    3    3    0  502 -0.39502213397E+03  0.24564256405E+03  0.17908460851E+03  0.49845165526E+03  0.50400001928E-02 0. -1.
</event>
<event>
 5   0  0.2264577E-03  0.9959026E+03  0.7818609E-02  0.9313050E-01
       -2   -1    0    0    0  501  0.00000000000E+00  0.00000000000E+00  0.95525846345E+03  0.95525846346E+03  0.25500000920E-02 0.  1.
        2   -1    0    0  501    0  0.00000000000E+00  0.00000000000E+00 -0.25956899146E+03  0.25956899147E+03  0.25500000920E-02 0. -1.
    10030    2    1    2    0    0  0.00000000000E+00  0.00000000000E+00  0.69568947199E+03  0.12148274549E+04  0.99590255738E+03 0.  0.
        5    1    3    3  502    0 -0.14235941500E+03  0.46512333491E+03  0.21801799990E+03  0.53306646677E+03  0.46999998093E+01 0. -1.
       -5    1    3    3    0  502  0.14235941500E+03 -0.46512333491E+03  0.47767147210E+03  0.68176098815E+03  0.46999998093E+01 0.  1.
</event>
<event>
 5   0  0.2284843E-03  0.9976936E+03  0.7818609E-02  0.9311078E-01
        2   -1    0    0  501    0  0.00000000000E+00  0.00000000000E+00  0.19521029851E+04  0.19521029851E+04  0.25500000920E-02 0. -1.
       -2   -1    0    0    0  501  0.00000000000E+00  0.00000000000E+00 -0.12747695507E+03  0.12747695509E+03  0.25500000920E-02 0.  1.
    10030    2    1    2    0    0  0.00000000000E+00  0.00000000000E+00  0.18246260300E+04  0.20795799402E+04  0.99769362943E+03 0.  0.
        2    1    3    3  502    0  0.13237556420E+03 -0.35420443436E+03  0.23412092466E+03  0.44474338521E+03  0.25500000920E-02 0.  1.
       -2    1    3    3    0  502 -0.13237556420E+03  0.35420443436E+03  0.15905051054E+04  0.16348365550E+04  0.25500000920E-02 0. -1.
</event>
<event>
 5   0  0.1353789E-03  0.9984297E+03  0.7818609E-02  0.9310269E-01
       -1   -1    0    0    0  501  0.00000000000E+00  0.00000000000E+00  0.23824597332E+03  0.23824597337E+03  0.50400001928E-02 0.  1.
        1   -1    0    0  501    0  0.00000000000E+00  0.00000000000E+00 -0.10460426239E+04  0.10460426239E+04  0.50400001928E-02 0. -1.
    10030    2    1    2    0    0  0.00000000000E+00  0.00000000000E+00 -0.80779665057E+03  0.12842885973E+04  0.99842965321E+03 0.  0.
        1    1    3    3  502    0 -0.72164335477E+02  0.14844575552E+03 -0.10099279733E+04  0.10233270957E+04  0.50400001928E-02 0. -1.
       -1    1    3    3    0  502  0.72164335477E+02 -0.14844575552E+03  0.20213132270E+03  0.26096150154E+03  0.50400001928E-02 0.  1.
</event>
<event>
 5   0  0.2264577E-03  0.9992305E+03  0.7818609E-02  0.9309389E-01
       -2   -1    0    0    0  501  0.00000000000E+00  0.00000000000E+00  0.31993967741E+03  0.31993967742E+03  0.25500000920E-02 0.  1.
        2   -1    0    0  501    0  0.00000000000E+00  0.00000000000E+00 -0.78019525557E+03  0.78019525558E+03  0.25500000920E-02 0. -1.
    10030    2    1    2    0    0  0.00000000000E+00  0.00000000000E+00 -0.46025557817E+03  0.11001349330E+04  0.99923054075E+03 0.  0.
        5    1    3    3  502    0 -0.44197956439E+03 -0.45597866941E+02  0.21340540349E+02  0.44486246129E+03  0.46999998093E+01 0.  1.
       -5    1    3    3    0  502  0.44197956439E+03  0.45597866941E+02 -0.48159611852E+03  0.65527247170E+03  0.46999998093E+01 0. -1.
</event>
<event>
 5   0  0.8680125E-04  0.9961703E+03  0.7818609E-02  0.9312755E-01
       -4   -1    0    0    0  501  0.00000000000E+00  0.00000000000E+00  0.58268650243E+03  0.58268788645E+03  0.12699999809E+01 0. -1.
        4   -1    0    0  501    0  0.00000000000E+00  0.00000000000E+00 -0.42576435593E+03  0.42576625004E+03  0.12699999809E+01 0.  1.
    10030    2    1    2    0    0  0.00000000000E+00  0.00000000000E+00  0.15692214651E+03  0.10084541365E+04  0.99617025922E+03 0.  0.
        4    1    3    3  502    0  0.49234803286E+03 -0.57564523296E+02  0.12771203363E+03  0.51189084406E+03  0.12699999809E+01 0. -1.
       -4    1    3    3    0  502 -0.49234803286E+03  0.57564523296E+02  0.29210112881E+02  0.49656329244E+03  0.12699999809E+01 0.  1.
</event>
<event>
 5   0  0.2277570E-03  0.9995411E+03  0.7818609E-02  0.9309048E-01
        2   -1    0    0  501    0  0.00000000000E+00  0.00000000000E+00  0.88260248497E+03  0.88260248498E+03  0.25500000920E-02 0.  1.
       -2   -1    0    0    0  501  0.00000000000E+00  0.00000000000E+00 -0.28299330360E+03  0.28299330361E+03  0.25500000920E-02 0. -1.
    10030    2    1    2    0    0  0.00000000000E+00  0.00000000000E+00  0.59960918138E+03  0.11655957886E+04  0.99954108068E+03 0.  0.
        3    1    3    3  502    0  0.21599135540E+03  0.21484390881E+03 -0.16219584651E+03  0.34513428341E+03  0.10100000352E+00 0. -1.
       -3    1    3    3    0  502 -0.21599135540E+03 -0.21484390881E+03  0.76180502789E+03  0.82046150518E+03  0.10100000352E+00 0.  1.
</event>
<event>
 5   0  0.1249195E-03  0.9991189E+03  0.7818609E-02  0.9309512E-01
       -1   -1    0    0    0  501  0.00000000000E+00  0.00000000000E+00  0.23135325838E+04  0.23135325838E+04  0.50400001928E-02 0. -1.
        1   -1    0    0  501    0  0.00000000000E+00  0.00000000000E+00 -0.10786951876E+03  0.10786951888E+03  0.50400001928E-02 0.  1.
    10030    2    1    2    0    0  0.00000000000E+00  0.00000000000E+00  0.22056630650E+04  0.24214021027E+04  0.99911890503E+03 0.  0.
        2    1    3    3  502    0 -0.37839035366E+03 -0.21055945251E+03  0.49915610781E+03  0.66081114000E+03  0.25500000920E-02 0.  1.
       -2    1    3    3    0  502  0.37839035366E+03  0.21055945251E+03  0.17065069572E+04  0.17605909627E+04  0.25500000920E-02 0. -1.
</event>
<event>
 5   0  0.1285769E-03  0.1001831E+04  0.7818609E-02  0.9306539E-01
       -1   -1    0    0    0  501  0.00000000000E+00  0.00000000000E+00  0.44195757561E+03  0.44195757564E+03  0.50400001928E-02 0. -1.
        1   -1    0    0  501    0  0.00000000000E+00  0.00000000000E+00 -0.56773801193E+03  0.56773801196E+03  0.50400001928E-02 0.  1.
    10030    2    1    2    0    0  0.00000000000E+00  0.00000000000E+00 -0.12578043632E+03  0.10096955876E+04  0.10018305553E+04 0.  0.
        5    1    3    3  502    0  0.44255625940E+03  0.22168969848E+03  0.14469527185E+02  0.49521088675E+03  0.46999998093E+01 0. -1.
       -5    1    3    3    0  502 -0.44255625940E+03 -0.22168969848E+03 -0.14024996351E+03  0.51448470085E+03  0.46999998093E+01 0.  1.
</event>
<event>
 5   0  0.2284843E-03  0.9987898E+03  0.7818609E-02  0.9309873E-01
        2   -1    0    0  501    0  0.00000000000E+00  0.00000000000E+00  0.96434879835E+03  0.96434879835E+03  0.25500000920E-02 0. -1.
       -2   -1    0    0    0  501  0.00000000000E+00  0.00000000000E+00 -0.25861519598E+03  0.25861519599E+03  0.25500000920E-02 0.  1.
    10030    2    1    2    0    0  0.00000000000E+00  0.00000000000E+00  0.70573360237E+03  0.12229639943E+04  0.99878977464E+03 0.  0.
        2    1    3    3  502    0 -0.12998132373E+03 -0.23596692245E+03  0.86774551004E+03  0.90860211491E+03  0.25500000920E-02 0. -1.
       -2    1    3    3    0  502  0.12998132373E+03  0.23596692245E+03 -0.16201190767E+03  0.31436187943E+03  0.25500000920E-02 0.  1.
</event>
<event>
 5   0  0.2204862E-03  0.9959786E+03  0.7818609E-02  0.9312966E-01
        2   -1    0    0  501    0  0.00000000000E+00  0.00000000000E+00  0.13775581042E+04  0.13775581042E+04  0.25500000920E-02 0. -1.
       -2   -1    0    0    0  501  0.00000000000E+00  0.00000000000E+00 -0.18002386163E+03  0.18002386164E+03  0.25500000920E-02 0.  1.
    10030    2    1    2    0    0  0.00000000000E+00  0.00000000000E+00  0.11975342426E+04  0.15575819659E+04  0.99597857318E+03 0.  0.
        1    1    3    3  502    0  0.66888136323E+02  0.44902126062E+03  0.91888052127E+03  0.10249075703E+04  0.50400001928E-02 0. -1.
       -1    1    3    3    0  502 -0.66888136323E+02 -0.44902126062E+03  0.27865372135E+03  0.53267439559E+03  0.50400001928E-02 0.  1.
</event>
<event>
 5   0  0.1249195E-03  0.9956576E+03  0.7818609E-02  0.9313320E-01
       -1   -1    0    0    0  501  0.00000000000E+00  0.00000000000E+00  0.32111115263E+03  0.32111115267E+03  0.50400001928E-02 0.  1.
        1   -1    0    0  501    0  0.00000000000E+00  0.00000000000E+00 -0.77179978241E+03  0.77179978243E+03  0.50400001928E-02 0. -1.
    10030    2    1    2    0    0  0.00000000000E+00  0.00000000000E+00 -0.45068862978E+03  0.10929109351E+04  0.99565760734E+03 0.  0.
        2    1    3    3  502    0 -0.37867833970E+02  0.53468133708E+02 -0.76704643230E+03  0.76983962193E+03  0.25500000920E-02 0. -1.
       -2    1    3    3    0  502  0.37867833970E+02 -0.53468133708E+02  0.31635780252E+03  0.32307131318E+03  0.25500000920E-02 0.  1.
</event>
<event>
 5   0  0.1293716E-03  0.9962297E+03  0.7818609E-02  0.9312690E-01
       -1   -1    0    0    0  501  0.00000000000E+00  0.00000000000E+00  0.12485494063E+03  0.12485494073E+03  0.50400001928E-02 0.  1.
        1   -1    0    0  501    0  0.00000000000E+00  0.00000000000E+00 -0.19872533175E+04  0.19872533175E+04  0.50400001928E-02 0. -1.
    10030    2    1    2    0    0  0.00000000000E+00  0.00000000000E+00 -0.18623983769E+04  0.21121082582E+04  0.99622968251E+03 0.  0.
        3    1    3    3  502    0  0.17279930105E+03  0.32521714608E+03 -0.22011886112E+03  0.42904325396E+03  0.10100000352E+00 0.  1.
       -3    1    3    3    0  502 -0.17279930105E+03 -0.32521714608E+03 -0.16422795158E+04  0.16830650043E+04  0.10100000352E+00 0. -1.
</event>
<event>
 5   0  0.2284843E-03  0.1000469E+04  0.7818609E-02  0.9308030E-01
        2   -1    0    0  501    0  0.00000000000E+00  0.00000000000E+00  0.19066218690E+03  0.19066218692E+03  0.25500000920E-02 0.  1.
       -2   -1    0    0    0  501  0.00000000000E+00  0.00000000000E+00 -0.13124509469E+04  0.13124509469E+04  0.25500000920E-02 0. -1.
    10030    2    1    2    0    0  0.00000000000E+00  0.00000000000E+00 -0.11217887600E+04  0.15031131338E+04  0.10004694253E+04 0.  0.
        2    1    3    3  502    0  0.16502833607E+03  0.91955821191E+02 -0.12567939768E+04  0.12709135788E+04  0.25500000920E-02 0. -1.
       -2    1    3    3    0  502 -0.16502833607E+03 -0.91955821191E+02  0.13500521681E+03  0.23219955497E+03  0.25500000920E-02 0.  1.
</event>
<event>
 5   0  0.1353789E-03  0.9973967E+03  0.7818609E-02  0.9311405E-01
        1   -1    0    0  501    0  0.00000000000E+00  0.00000000000E+00  0.75083767782E+03  0.75083767784E+03  0.50400001928E-02 0. -1.
       -1   -1    0    0    0  501  0.00000000000E+00  0.00000000000E+00 -0.33123010685E+03  0.33123010689E+03  0.50400001928E-02 0.  1.
    10030    2    1    2    0    0  0.00000000000E+00  0.00000000000E+00  0.41960757097E+03  0.10820677847E+04  0.99739669998E+03 0.  0.
        1    1    3    3  502    0 -0.23349609890E+03  0.52800914201E+02  0.68442600643E+03  0.72508435581E+03  0.50400001928E-02 0. -1.
       -1    1    3    3    0  502  0.23349609890E+03 -0.52800914201E+02 -0.26481843546E+03  0.35698342892E+03  0.50400001928E-02 0.  1.
</event>
<event>
 5   0  0.1353789E-03  0.1002547E+04  0.7818609E-02  0.9305755E-01
        1   -1    0    0  501    0  0.00000000000E+00  0.00000000000E+00  0.26842140297E+03  0.26842140302E+03  0.50400001928E-02 0. -1.
       -1   -1    0    0    0  501  0.00000000000E+00  0.00000000000E+00 -0.93612228604E+03  0.93612228605E+03  0.50400001928E-02 0.  1.
    10030    2    1    2    0    0  0.00000000000E+00  0.00000000000E+00 -0.66770088307E+03  0.12045436891E+04  0.10025472705E+04 0.  0.
        1    1    3    3  502    0  0.23839411536E+03 -0.13632772848E+03 -0.83769790396E+03  0.88156382759E+03  0.50400001928E-02 0.  1.
       -1    1    3    3    0  502 -0.23839411536E+03  0.13632772848E+03  0.16999702089E+03  0.32297986149E+03  0.50400001928E-02 0. -1.
</event>
<event>
 5   0  0.1249195E-03  0.1002715E+04  0.7818609E-02  0.9305572E-01
        1   -1    0    0  501    0  0.00000000000E+00  0.00000000000E+00  0.39906924574E+03  0.39906924577E+03  0.50400001928E-02 0. -1.
       -1   -1    0    0    0  501  0.00000000000E+00  0.00000000000E+00 -0.62986401677E+03  0.62986401679E+03  0.50400001928E-02 0.  1.
    10030    2    1    2    0    0  0.00000000000E+00  0.00000000000E+00 -0.23079477103E+03  0.10289332626E+04  0.10027150305E+04 0.  0.
        2    1    3    3  502    0 -0.49233886159E+03  0.22161829527E+00 -0.21253919748E+03  0.53625601556E+03  0.25500000920E-02 0.  1.
       -2    1    3    3    0  502  0.49233886159E+03 -0.22161829527E+00 -0.18255573548E+02  0.49267724701E+03  0.25500000920E-02 0. -1.
</event>
<event>
 5   0  0.2255142E-03  0.9973165E+03  0.7818609E-02  0.9311493E-01
        2   -1    0    0  501    0  0.00000000000E+00  0.00000000000E+00  0.28576891375E+03  0.28576891376E+03  0.25500000920E-02 0.  1.
       -2   -1    0    0    0  501  0.00000000000E+00  0.00000000000E+00 -0.87014376967E+03  0.87014376967E+03  0.25500000920E-02 0. -1.
    10030    2    1    2    0    0  0.00000000000E+00  0.00000000000E+00 -0.58437485592E+03  0.11559126834E+04  0.99731647910E+03 0.  0.
        4    1    3    3  502    0  0.25764764833E+03 -0.34844126316E+03 -0.57812757898E+03  0.72251417636E+03  0.12699999809E+01 0. -1.
       -4    1    3    3    0  502 -0.25764764833E+03  0.34844126316E+03 -0.62472769414E+01  0.43339850707E+03  0.12699999809E+01 0.  1.
</event>
<event>
 5   0  0.8680125E-04  0.1002981E+04  0.7818609E-02  0.9305282E-01
        4   -1    0    0  501    0  0.00000000000E+00  0.00000000000E+00  0.31845536243E+03  0.31845789480E+03  0.12699999809E+01 0.  1.
       -4   -1    0    0    0  501  0.00000000000E+00  0.00000000000E+00 -0.78972003805E+03  0.78972105924E+03  0.12699999809E+01 0. -1.
    10030    2    1    2    0    0  0.00000000000E+00  0.00000000000E+00 -0.47126467563E+03  0.11081789540E+04  0.10029806577E+04 0.  0.
        4    1    3    3  502    0  0.18504109156E+03  0.38781430680E+03 -0.52130628007E+03  0.67557530495E+03  0.12699999809E+01 0. -1.
       -4    1    3    3    0  502 -0.18504109156E+03 -0.38781430680E+03  0.50041604437E+02  0.43260364908E+03  0.12699999809E+01 0.  1.
</event>
<event>
 5   0  0.2255142E-03  0.9943667E+03  0.7818609E-02  0.9314745E-01
       -2   -1    0    0    0  501  0.00000000000E+00  0.00000000000E+00  0.28500193264E+03  0.28500193265E+03  0.25500000920E-02 0.  1.
        2   -1    0    0  501    0  0.00000000000E+00  0.00000000000E+00 -0.86733193281E+03  0.86733193282E+03  0.25500000920E-02 0. -1.
    10030    2    1    2    0    0  0.00000000000E+00  0.00000000000E+00 -0.58233000017E+03  0.11523338655E+04  0.99436668710E+03 0.  0.
        4    1    3    3  502    0 -0.91483625439E+02 -0.15550906268E+03 -0.82805386866E+03  0.84748282850E+03  0.12699999809E+01 0. -1.
       -4    1    3    3    0  502  0.91483625439E+02  0.15550906268E+03  0.24572386849E+03  0.30485103697E+03  0.12699999809E+01 0.  1.
</event>
<event>
 5   0  0.2204862E-03  0.9976186E+03  0.7818609E-02  0.9311161E-01
        2   -1    0    0  501    0  0.00000000000E+00  0.00000000000E+00  0.11633860833E+04  0.11633860833E+04  0.25500000920E-02 0. -1.
       -2   -1    0    0    0  501  0.00000000000E+00  0.00000000000E+00 -0.21386772166E+03  0.21386772168E+03  0.25500000920E-02 0.  1.
    10030    2    1    2    0    0  0.00000000000E+00  0.00000000000E+00  0.94951836168E+03  0.13772538050E+04  0.99761862667E+03 0.  0.
        1    1    3    3  502    0  0.20626417520E+03 -0.28063380003E+03 -0.18212976315E+02  0.34875772712E+03  0.50400001928E-02 0.  1.
       -1    1    3    3    0  502 -0.20626417520E+03  0.28063380003E+03  0.96773133800E+03  0.10284960779E+04  0.50400001928E-02 0. -1.
</event>
<event>
 5   0  0.8680125E-04  0.1014331E+04  0.7818609E-02  0.9292965E-01
       -4   -1    0    0    0  501  0.00000000000E+00  0.00000000000E+00  0.57380318178E+03  0.57380458723E+03  0.12699999809E+01 0. -1.
        4   -1    0    0  501    0  0.00000000000E+00  0.00000000000E+00 -0.44826346829E+03  0.44826526734E+03  0.12699999809E+01 0.  1.
    10030    2    1    2    0    0  0.00000000000E+00  0.00000000000E+00  0.12553971349E+03  0.10220698546E+04  0.10143306009E+04 0.  0.
        2    1    3    3  502    0 -0.95544082100E+02  0.25108202071E+03  0.49622150123E+03  0.56427531493E+03  0.25500000920E-02 0. -1.
       -2    1    3    3    0  502  0.95544082100E+02 -0.25108202071E+03 -0.37068178775E+03  0.45779453964E+03  0.25500000920E-02 0.  1.
</event>
<event>
 5   0  0.2277570E-03  0.1001315E+04  0.7818609E-02  0.9307104E-01
       -2   -1    0    0    0  501  0.00000000000E+00  0.00000000000E+00  0.43979130276E+03  0.43979130277E+03  0.25500000920E-02 0.  1.
        2   -1    0    0  501    0  0.00000000000E+00  0.00000000000E+00 -0.56994695421E+03  0.56994695422E+03  0.25500000920E-02 0. -1.
    10030    2    1    2    0    0  0.00000000000E+00  0.00000000000E+00 -0.13015565145E+03  0.10097382570E+04  0.10013145630E+04 0.  0.
        3    1    3    3  502    0  0.26265054041E+03  0.37626914148E+03  0.13684136317E+03  0.47884166703E+03  0.10100000352E+00 0.  1.
       -3    1    3    3    0  502 -0.26265054041E+03 -0.37626914148E+03 -0.26699701462E+03  0.53089658996E+03  0.10100000352E+00 0. -1.
</event>
<event>
 5   0  0.2255142E-03  0.1002051E+04  0.7818609E-02  0.9306298E-01
       -2   -1    0    0    0  501  0.00000000000E+00  0.00000000000E+00  0.32946048069E+03  0.32946048070E+03  0.25500000920E-02 0.  1.
        2   -1    0    0  501    0  0.00000000000E+00  0.00000000000E+00 -0.76193209785E+03  0.76193209785E+03  0.25500000920E-02 0. -1.
    10030    2    1    2    0    0  0.00000000000E+00  0.00000000000E+00 -0.43247161716E+03  0.10913925785E+04  0.10020509273E+04 0.  0.
        4    1    3    3  502    0 -0.16380437994E+03  0.32403173182E+03 -0.59226614948E+03  0.69470082974E+03  0.12699999809E+01 0. -1.
       -4    1    3    3    0  502  0.16380437994E+03 -0.32403173182E+03  0.15979453233E+03  0.39669174881E+03  0.12699999809E+01 0.  1.
</event>
<event>
 5   0  0.1293716E-03  0.9999503E+03  0.7818609E-02  0.9308599E-01
       -1   -1    0    0    0  501  0.00000000000E+00  0.00000000000E+00  0.82652784550E+02  0.82652784704E+02  0.50400001928E-02 0. -1.
        1   -1    0    0  501    0  0.00000000000E+00  0.00000000000E+00 -0.30244008933E+04  0.30244008933E+04  0.50400001928E-02 0.  1.
    10030    2    1    2    0    0  0.00000000000E+00  0.00000000000E+00 -0.29417481088E+04  0.31070536780E+04  0.99995031011E+03 0.  0.
        3    1    3    3  502    0 -0.42889258297E+03 -0.21658277166E+02 -0.22664480707E+04  0.23067736769E+04  0.10100000352E+00 0.  1.
       -3    1    3    3    0  502  0.42889258297E+03  0.21658277166E+02 -0.67530003802E+03  0.80028000115E+03  0.10100000352E+00 0. -1.
</event>
<event>
 5   0  0.1249195E-03  0.9990787E+03  0.7818609E-02  0.9309556E-01
       -1   -1    0    0    0  501  0.00000000000E+00  0.00000000000E+00  0.80389559900E+03  0.80389559901E+03  0.50400001928E-02 0.  1.
        1   -1    0    0  501    0  0.00000000000E+00  0.00000000000E+00 -0.31041290321E+03  0.31041290325E+03  0.50400001928E-02 0. -1.
    10030    2    1    2    0    0  0.00000000000E+00  0.00000000000E+00  0.49348269579E+03  0.11143085023E+04  0.99907870919E+03 0.  0.
        2    1    3    3  502    0  0.14048491676E+03 -0.71857895871E+02 -0.28188558145E+03  0.32304651379E+03  0.25500000920E-02 0. -1.
       -2    1    3    3    0  502 -0.14048491676E+03  0.71857895871E+02  0.77536827724E+03  0.79126198847E+03  0.25500000920E-02 0.  1.
</event>
<event>
 5   0  0.1293716E-03  0.9557957E+03  0.7818609E-02  0.9358402E-01
        1   -1    0    0  501    0  0.00000000000E+00  0.00000000000E+00  0.97419231486E+03  0.97419231488E+03  0.50400001928E-02 0.  1.
       -1   -1    0    0    0  501  0.00000000000E+00  0.00000000000E+00 -0.23443661147E+03  0.23443661153E+03  0.50400001928E-02 0. -1.
    10030    2    1    2    0    0  0.00000000000E+00  0.00000000000E+00  0.73975570339E+03  0.12086289264E+04  0.95579567954E+03 0.  0.
        3    1    3    3  502    0 -0.10354617930E+03 -0.45310601285E+03  0.22929648670E+03  0.51826996743E+03  0.10100000352E+00 0.  1.
       -3    1    3    3    0  502  0.10354617930E+03  0.45310601285E+03  0.51045921669E+03  0.69035895897E+03  0.10100000352E+00 0. -1.
</event>
<event>
 5   0  0.2255142E-03  0.9991042E+03  0.7818609E-02  0.9309528E-01
        2   -1    0    0  501    0  0.00000000000E+00  0.00000000000E+00  0.22471155490E+04  0.22471155490E+04  0.25500000920E-02 0. -1.
       -2   -1    0    0    0  501  0.00000000000E+00  0.00000000000E+00 -0.11105450955E+03  0.11105450958E+03  0.25500000920E-02 0.  1.
    10030    2    1    2    0    0  0.00000000000E+00  0.00000000000E+00  0.21360610395E+04  0.23581700586E+04  0.99910422925E+03 0.  0.
        4    1    3    3  502    0  0.98608144618E+01  0.48938106847E+03  0.83247891497E+03  0.96571932910E+03  0.12699999809E+01 0. -1.
       -4    1    3    3    0  502 -0.98608144618E+01 -0.48938106847E+03  0.13035821245E+04  0.13924507295E+04  0.12699999809E+01 0.  1.
</event>
<event>
 5   0  0.1353789E-03  0.9600979E+03  0.7818609E-02  0.9353425E-01
       -1   -1    0    0    0  501  0.00000000000E+00  0.00000000000E+00  0.22225023274E+03  0.22225023280E+03  0.50400001928E-02 0.  1.
        1   -1    0    0  501    0  0.00000000000E+00  0.00000000000E+00 -0.10368808633E+04  0.10368808633E+04  0.50400001928E-02 0. -1.
    10030    2    1    2    0    0  0.00000000000E+00  0.00000000000E+00 -0.81463063057E+03  0.12591310961E+04  0.96009793926E+03 0.  0.
        1    1    3    3  502    0 -0.20348168419E+03  0.31412130422E+03 -0.13069029904E+02  0.37449671445E+03  0.50400001928E-02 0.  1.
       -1    1    3    3    0  502  0.20348168419E+03 -0.31412130422E+03 -0.80156160067E+03  0.88463438168E+03  0.50400001928E-02 0. -1.
</event>
<event>
 5   0  0.1285769E-03  0.9998768E+03  0.7818609E-02  0.9308680E-01
       -1   -1    0    0    0  501  0.00000000000E+00  0.00000000000E+00  0.18088205849E+03  0.18088205856E+03  0.50400001928E-02 0. -1.
        1   -1    0    0  501    0  0.00000000000E+00  0.00000000000E+00 -0.13817756003E+04  0.13817756003E+04  0.50400001928E-02 0.  1.
    10030    2    1    2    0    0  0.00000000000E+00  0.00000000000E+00 -0.12008935418E+04  0.15626576588E+04  0.99987682243E+03 0.  0.
        5    1    3    3  502    0 -0.49776900540E+03 -0.85000255185E+01 -0.67155373719E+03  0.83597412944E+03  0.46999998093E+01 0.  1.
       -5    1    3    3    0  502  0.49776900540E+03  0.85000255185E+01 -0.52933980460E+03  0.72668352940E+03  0.46999998093E+01 0. -1.
</event>
<event>
 5   0  0.1353789E-03  0.1002118E+04  0.7818609E-02  0.9306225E-01
        1   -1    0    0  501    0  0.00000000000E+00  0.00000000000E+00  0.85488123131E+03  0.85488123132E+03  0.50400001928E-02 0. -1.
       -1   -1    0    0    0  501  0.00000000000E+00  0.00000000000E+00 -0.29367832094E+03  0.29367832099E+03  0.50400001928E-02 0.  1.
    10030    2    1    2    0    0  0.00000000000E+00  0.00000000000E+00  0.56120291036E+03  0.11485595523E+04  0.10021179265E+04 0.  0.
        1    1    3    3  502    0 -0.12996702959E+03 -0.42448655342E+01 -0.27400172905E+03  0.30329259011E+03  0.50400001928E-02 0.  1.
       -1    1    3    3    0  502  0.12996702959E+03  0.42448655342E+01  0.83520463942E+03  0.84526696220E+03  0.50400001928E-02 0. -1.
</event>
<event>
 5   0  0.1249195E-03  0.1003172E+04  0.7818609E-02  0.9305073E-01
        1   -1    0    0  501    0  0.00000000000E+00  0.00000000000E+00  0.81679654658E+03  0.81679654659E+03  0.50400001928E-02 0. -1.
       -1   -1    0    0    0  501  0.00000000000E+00  0.00000000000E+00 -0.30801838210E+03  0.30801838214E+03  0.50400001928E-02 0.  1.
    10030    2    1    2    0    0  0.00000000000E+00  0.00000000000E+00  0.50877816448E+03  0.11248149287E+04  0.10031716719E+04 0.  0.
        2    1    3    3  502    0 -0.28881571610E+03 -0.73969199269E+02 -0.19788612245E+03  0.35783358950E+03  0.25500000920E-02 0.  1.
       -2    1    3    3    0  502  0.28881571610E+03  0.73969199269E+02  0.70666428693E+03  0.76698133924E+03  0.25500000920E-02 0. -1.
</event>
<event>
 5   0  0.2264577E-03  0.1006979E+04  0.7818609E-02  0.9300924E-01
       -2   -1    0    0    0  501  0.00000000000E+00  0.00000000000E+00  0.36709547983E+03  0.36709547984E+03  0.25500000920E-02 0. -1.
        2   -1    0    0  501    0  0.00000000000E+00  0.00000000000E+00 -0.69056023656E+03  0.69056023657E+03  0.25500000920E-02 0.  1.
    10030    2    1    2    0    0  0.00000000000E+00  0.00000000000E+00 -0.32346475673E+03  0.10576557164E+04  0.10069787315E+04 0.  0.
        5    1    3    3  502    0 -0.21989455188E+03 -0.17314567164E+03 -0.60129894021E+03  0.66326129319E+03  0.46999998093E+01 0.  1.
       -5    1    3    3    0  502  0.21989455188E+03  0.17314567164E+03  0.27783418348E+03  0.39439442321E+03  0.46999998093E+01 0. -1.
</event>
<event>
 5   0  0.2255142E-03  0.1000481E+04  0.7818609E-02  0.9308018E-01
        2   -1    0    0  501    0  0.00000000000E+00  0.00000000000E+00  0.10277092631E+04  0.10277092631E+04  0.25500000920E-02 0. -1.
       -2   -1    0    0    0  501  0.00000000000E+00  0.00000000000E+00 -0.24349333898E+03  0.24349333899E+03  0.25500000920E-02 0.  1.
    10030    2    1    2    0    0  0.00000000000E+00  0.00000000000E+00  0.78421592410E+03  0.12712026021E+04  0.10004806045E+04 0.  0.
        4    1    3    3  502    0 -0.19107029953E+03  0.19590834670E+03  0.92416719551E+03  0.96383326246E+03  0.12699999809E+01 0. -1.
       -4    1    3    3    0  502  0.19107029953E+03 -0.19590834670E+03 -0.13995127141E+03  0.30736933962E+03  0.12699999809E+01 0.  1.
</event>
<event>
 5   0  0.1293716E-03  0.1001021E+04  0.7818609E-02  0.9307426E-01
       -1   -1    0    0    0  501  0.00000000000E+00  0.00000000000E+00  0.69454838900E+03  0.69454838902E+03  0.50400001928E-02 0. -1.
        1   -1    0    0  501    0  0.00000000000E+00  0.00000000000E+00 -0.36068115403E+03  0.36068115406E+03  0.50400001928E-02 0.  1.
    10030    2    1    2    0    0  0.00000000000E+00  0.00000000000E+00  0.33386723497E+03  0.10552295431E+04  0.10010205083E+04 0.  0.
        3    1    3    3  502    0  0.14854134281E+03  0.46951392577E+03  0.72631639000E+02  0.49777828619E+03  0.10100000352E+00 0.  1.
       -3    1    3    3    0  502 -0.14854134281E+03 -0.46951392577E+03  0.26123559597E+03  0.55745125690E+03  0.10100000352E+00 0. -1.
</event>
<event>
 5   0  0.1249195E-03  0.1009212E+04  0.7818609E-02  0.9298498E-01
        1   -1    0    0  501    0  0.00000000000E+00  0.00000000000E+00  0.39273939022E+03  0.39273939025E+03  0.50400001928E-02 0.  1.
       -1   -1    0    0    0  501  0.00000000000E+00  0.00000000000E+00 -0.64833694570E+03  0.64833694572E+03  0.50400001928E-02 0. -1.
    10030    2    1    2    0    0  0.00000000000E+00  0.00000000000E+00 -0.25559755548E+03  0.10410763360E+04  0.10092124786E+04 0.  0.
        2    1    3    3  502    0  0.40046796039E+03  0.22636701624E+03  0.86139720256E+02  0.46801353053E+03  0.25500000920E-02 0.  1.
       -2    1    3    3    0  502 -0.40046796039E+03 -0.22636701624E+03 -0.34173727574E+03  0.57306280544E+03  0.25500000920E-02 0. -1.
</event>
<event>
 5   0  0.2255142E-03  0.1029349E+04  0.7818609E-02  0.9276929E-01
        2   -1    0    0  501    0  0.00000000000E+00  0.00000000000E+00  0.21785922009E+03  0.21785922011E+03  0.25500000920E-02 0. -1.
       -2   -1    0    0    0  501  0.00000000000E+00  0.00000000000E+00 -0.12158756290E+04  0.12158756290E+04  0.25500000920E-02 0.  1.
    10030    2    1    2    0    0  0.00000000000E+00  0.00000000000E+00 -0.99801640891E+03  0.14337348491E+04  0.10293487578E+04 0.  0.
        4    1    3    3  502    0  0.34997329803E+03 -0.28579995094E+03 -0.15577388193E+03  0.47794354948E+03  0.12699999809E+01 0. -1.
       -4    1    3    3    0  502 -0.34997329803E+03  0.28579995094E+03 -0.84224252698E+03  0.95579129963E+03  0.12699999809E+01 0.  1.
</event>
<event>
 5   0  0.1353789E-03  0.9963195E+03  0.7818609E-02  0.9312591E-01
        1   -1    0    0  501    0  0.00000000000E+00  0.00000000000E+00  0.50657828964E+03  0.50657828966E+03  0.50400001928E-02 0.  1.
       -1   -1    0    0    0  501  0.00000000000E+00  0.00000000000E+00 -0.48988110186E+03  0.48988110188E+03  0.50400001928E-02 0. -1.
    10030    2    1    2    0    0  0.00000000000E+00  0.00000000000E+00  0.16697187784E+02  0.99645939155E+03  0.99631948838E+03 0.  0.
        1    1    3    3  502    0 -0.34005858935E+03  0.24300732328E+03 -0.26274430957E+03  0.49368712319E+03  0.50400001928E-02 0. -1.
       -1    1    3    3    0  502  0.34005858935E+03 -0.24300732328E+03  0.27944149736E+03  0.50277226836E+03  0.50400001928E-02 0.  1.
</event>
<event>
 5   0  0.2204862E-03  0.1005900E+04  0.7818609E-02  0.9302097E-01
        2   -1    0    0  501    0  0.00000000000E+00  0.00000000000E+00  0.58882434705E+03  0.58882434705E+03  0.25500000920E-02 0. -1.
       -2   -1    0    0    0  501  0.00000000000E+00  0.00000000000E+00 -0.42959955097E+03  0.42959955098E+03  0.25500000920E-02 0.  1.
    10030    2    1    2    0    0  0.00000000000E+00  0.00000000000E+00  0.15922479608E+03  0.10184238980E+04  0.10058999455E+04 0.  0.
        1    1    3    3  502    0  0.30010868956E+03 -0.28404426448E+03  0.36990917257E+03  0.55459820204E+03  0.50400001928E-02 0. -1.
       -1    1    3    3    0  502 -0.30010868956E+03  0.28404426448E+03 -0.21068437649E+03  0.46382569598E+03  0.50400001928E-02 0.  1.
</event>
<event>
 5   0  0.1293575E-03  0.9942549E+03  0.7818609E-02  0.9314868E-01
       -1   -1    0    0    0  501  0.00000000000E+00  0.00000000000E+00  0.23843327540E+03  0.23843327545E+03  0.50400001928E-02 0. -1.
        1   -1    0    0  501    0  0.00000000000E+00  0.00000000000E+00 -0.10364984133E+04  0.10364984134E+04  0.50400001928E-02 0.  1.
    10030    2    1    2    0    0  0.00000000000E+00  0.00000000000E+00 -0.79806513794E+03  0.12749316888E+04  0.99425492038E+03 0.  0.
        4    1    3    3  502    0  0.46878468337E+03  0.10490744764E+03 -0.23497126129E+03  0.53476888322E+03  0.12699999809E+01 0. -1.
       -4    1    3    3    0  502 -0.46878468337E+03 -0.10490744764E+03 -0.56309387666E+03  0.74016280558E+03  0.12699999809E+01 0.  1.
</event>
<event>
 5   0  0.1353789E-03  0.9986221E+03  0.7818609E-02  0.9310057E-01
       -1   -1    0    0    0  501  0.00000000000E+00  0.00000000000E+00  0.49674294693E+03  0.49674294695E+03  0.50400001928E-02 0.  1.
        1   -1    0    0  501    0  0.00000000000E+00  0.00000000000E+00 -0.50189239335E+03  0.50189239338E+03  0.50400001928E-02 0. -1.
    10030    2    1    2    0    0  0.00000000000E+00  0.00000000000E+00 -0.51494464246E+01  0.99863534033E+03  0.99862206372E+03 0.  0.
        1    1    3    3  502    0  0.37993669189E+03 -0.27194937810E+03 -0.17865418481E+03  0.50022562096E+03  0.50400001928E-02 0. -1.
       -1    1    3    3    0  502 -0.37993669189E+03  0.27194937810E+03  0.17350473838E+03  0.49840971937E+03  0.50400001928E-02 0.  1.
</event>
<event>
 5   0  0.2264577E-03  0.9990548E+03  0.7818609E-02  0.9309582E-01
       -2   -1    0    0    0  501  0.00000000000E+00  0.00000000000E+00  0.93027439333E+03  0.93027439333E+03  0.25500000920E-02 0.  1.
        2   -1    0    0  501    0  0.00000000000E+00  0.00000000000E+00 -0.26823012291E+03  0.26823012292E+03  0.25500000920E-02 0. -1.
    10030    2    1    2    0    0  0.00000000000E+00  0.00000000000E+00  0.66204427041E+03  0.11985045163E+04  0.99905478303E+03 0.  0.
        5    1    3    3  502    0  0.13400150731E+03 -0.28021166078E+02 -0.24525891597E+03  0.28091923318E+03  0.46999998093E+01 0. -1.
       -5    1    3    3    0  502 -0.13400150731E+03  0.28021166078E+02  0.90730318638E+03  0.91758528308E+03  0.46999998093E+01 0.  1.
</event>
<event>
 5   0  0.1285769E-03  0.1003541E+04  0.7818609E-02  0.9304670E-01
        1   -1    0    0  501    0  0.00000000000E+00  0.00000000000E+00  0.58111958795E+03  0.58111958798E+03  0.50400001928E-02 0. -1.
       -1   -1    0    0    0  501  0.00000000000E+00  0.00000000000E+00 -0.43325615336E+03  0.43325615339E+03  0.50400001928E-02 0.  1.
    10030    2    1    2    0    0  0.00000000000E+00  0.00000000000E+00  0.14786343459E+03  0.10143757414E+04  0.10035410053E+04 0.  0.
        5    1    3    3  502    0  0.48867366747E+02 -0.10612548151E+03  0.56715578372E+03  0.57908411338E+03  0.46999998093E+01 0. -1.
       -5    1    3    3    0  502 -0.48867366747E+02  0.10612548151E+03 -0.41929234913E+03  0.43529162799E+03  0.46999998093E+01 0.  1.
</event>
<event>
 5   0  0.2277570E-03  0.1001575E+04  0.7818609E-02  0.9306819E-01
        2   -1    0    0  501    0  0.00000000000E+00  0.00000000000E+00  0.44767652193E+03  0.44767652194E+03  0.25500000920E-02 0. -1.
       -2   -1    0    0    0  501  0.00000000000E+00  0.00000000000E+00 -0.56019969526E+03  0.56019969526E+03  0.25500000920E-02 0.  1.
    10030    2    1    2    0    0  0.00000000000E+00  0.00000000000E+00 -0.11252317333E+03  0.10078762172E+04  0.10015752616E+04 0.  0.
        3    1    3    3  502    0 -0.87629748814E+02  0.13886621858E+03 -0.53233982804E+03  0.55708931264E+03  0.10100000352E+00 0.  1.
       -3    1    3    3    0  502  0.87629748814E+02 -0.13886621858E+03  0.41981665471E+03  0.45078690455E+03  0.10100000352E+00 0. -1.
</event>
<event>
 5   0  0.2255142E-03  0.9991979E+03  0.7818609E-02  0.9309425E-01
        2   -1    0    0  501    0  0.00000000000E+00  0.00000000000E+00  0.31609527482E+03  0.31609527483E+03  0.25500000920E-02 0.  1.
       -2   -1    0    0    0  501  0.00000000000E+00  0.00000000000E+00 -0.78963257713E+03  0.78963257714E+03  0.25500000920E-02 0. -1.
    10030    2    1    2    0    0  0.00000000000E+00  0.00000000000E+00 -0.47353730231E+03  0.11057278520E+04  0.99919793131E+03 0.  0.
        4    1    3    3  502    0  0.23503440188E+03  0.81427565091E+02  0.24269845176E+03  0.34752808493E+03  0.12699999809E+01 0.  1.
       -4    1    3    3    0  502 -0.23503440188E+03 -0.81427565091E+02 -0.71623575408E+03  0.75819976704E+03  0.12699999809E+01 0. -1.
</event>
<event>
 5   0  0.2277570E-03  0.1053378E+04  0.7818609E-02  0.9251864E-01
        2   -1    0    0  501    0  0.00000000000E+00  0.00000000000E+00  0.63462389262E+03  0.63462389262E+03  0.25500000920E-02 0. -1.
       -2   -1    0    0    0  501  0.00000000000E+00  0.00000000000E+00 -0.43711101247E+03  0.43711101248E+03  0.25500000920E-02 0.  1.
    10030    2    1    2    0    0  0.00000000000E+00  0.00000000000E+00  0.19751288014E+03  0.10717349051E+04  0.10533776004E+04 0.  0.
        3    1    3    3  502    0 -0.31901018301E+03  0.32875525162E+03  0.36319662244E+03  0.58460183807E+03  0.10100000352E+00 0. -1.
       -3    1    3    3    0  502  0.31901018301E+03 -0.32875525162E+03 -0.16568374230E+03  0.48713306703E+03  0.10100000352E+00 0.  1.
</event>
<event>
 5   0  0.2204862E-03  0.1000579E+04  0.7818609E-02  0.9307910E-01
        2   -1    0    0  501    0  0.00000000000E+00  0.00000000000E+00  0.10296639608E+04  0.10296639608E+04  0.25500000920E-02 0.  1.
       -2   -1    0    0    0  501  0.00000000000E+00  0.00000000000E+00 -0.24307882356E+03  0.24307882357E+03  0.25500000920E-02 0. -1.
    10030    2    1    2    0    0  0.00000000000E+00  0.00000000000E+00  0.78658513723E+03  0.12727427844E+04  0.10005788410E+04 0.  0.
        1    1    3    3  502    0  0.39461505570E+03 -0.14366179668E+03  0.47433674652E+02  0.42262241720E+03  0.50400001928E-02 0. -1.
       -1    1    3    3    0  502 -0.39461505570E+03  0.14366179668E+03  0.73915146258E+03  0.85012036716E+03  0.50400001928E-02 0.  1.
</event>
<event>
 5   0  0.1249195E-03  0.9984787E+03  0.7818609E-02  0.9310215E-01
        1   -1    0    0  501    0  0.00000000000E+00  0.00000000000E+00  0.44703008350E+03  0.44703008353E+03  0.50400001928E-02 0. -1.
       -1   -1    0    0    0  501  0.00000000000E+00  0.00000000000E+00 -0.55754617822E+03  0.55754617824E+03  0.50400001928E-02 0.  1.
    10030    2    1    2    0    0  0.00000000000E+00  0.00000000000E+00 -0.11051609472E+03  0.10045762618E+04  0.99847867204E+03 0.  0.
        2    1    3    3  502    0 -0.89379066632E+02 -0.78966341526E+02 -0.54300265583E+03  0.55594620683E+03  0.25500000920E-02 0.  1.
       -2    1    3    3    0  502  0.89379066632E+02  0.78966341526E+02  0.43248656111E+03  0.44863005494E+03  0.25500000920E-02 0. -1.
</event>
<event>
 5   0  0.1293575E-03  0.9965843E+03  0.7818609E-02  0.9312299E-01
        1   -1    0    0  501    0  0.00000000000E+00  0.00000000000E+00  0.18385621132E+04  0.18385621132E+04  0.50400001928E-02 0. -1.
       -1   -1    0    0    0  501  0.00000000000E+00  0.00000000000E+00 -0.13504850943E+03  0.13504850953E+03  0.50400001928E-02 0.  1.
    10030    2    1    2    0    0  0.00000000000E+00  0.00000000000E+00  0.17035136037E+04  0.19736106227E+04  0.99658431251E+03 0.  0.
        4    1    3    3  502    0 -0.14395920057E+03  0.41829954925E+03  0.13059267573E+04  0.13788201742E+04  0.12699999809E+01 0.  1.
       -4    1    3    3    0  502  0.14395920057E+03 -0.41829954925E+03  0.39758684645E+03  0.59479044856E+03  0.12699999809E+01 0. -1.
</event>
<event>
 5   0  0.2264577E-03  0.1005268E+04  0.7818609E-02  0.9302786E-01
        2   -1    0    0  501    0  0.00000000000E+00  0.00000000000E+00  0.43191584975E+03  0.43191584976E+03  0.25500000920E-02 0.  1.
       -2   -1    0    0    0  501  0.00000000000E+00  0.00000000000E+00 -0.58493051485E+03  0.58493051486E+03  0.25500000920E-02 0. -1.
    10030    2    1    2    0    0  0.00000000000E+00  0.00000000000E+00 -0.15301466510E+03  0.10168463646E+04  0.10052676467E+04 0.  0.
        5    1    3    3  502    0  0.48824443251E+03 -0.66732224665E+01 -0.19700759098E+03  0.52655601666E+03  0.46999998093E+01 0. -1.
       -5    1    3    3    0  502 -0.48824443251E+03  0.66732224665E+01  0.43992925884E+02  0.49029034796E+03  0.46999998093E+01 0.  1.
</event>
<event>
 5   0  0.1353789E-03  0.1017816E+04  0.7818609E-02  0.9289218E-01
        1   -1    0    0  501    0  0.00000000000E+00  0.00000000000E+00  0.62702563842E+03  0.62702563844E+03  0.50400001928E-02 0.  1.
       -1   -1    0    0    0  501  0.00000000000E+00  0.00000000000E+00 -0.41304080968E+03  0.41304080971E+03  0.50400001928E-02 0. -1.
    10030    2    1    2    0    0  0.00000000000E+00  0.00000000000E+00  0.21398482874E+03  0.10400664482E+04  0.10178156560E+04 0.  0.
        1    1    3    3  502    0  0.37517974267E+03  0.28327654462E+03 -0.92157155487E+02  0.47905989331E+03  0.50400001928E-02 0.  1.
       -1    1    3    3    0  502 -0.37517974267E+03 -0.28327654462E+03  0.30614198423E+03  0.56100655485E+03  0.50400001928E-02 0. -1.
</event>
<event>
 5   0  0.1293575E-03  0.1000006E+04  0.7818609E-02  0.9308538E-01
        1   -1    0    0  501    0  0.00000000000E+00  0.00000000000E+00  0.26100402151E+03  0.26100402156E+03  0.50400001928E-02 0.  1.
       -1   -1    0    0    0  501  0.00000000000E+00  0.00000000000E+00 -0.95785115494E+03  0.95785115495E+03  0.50400001928E-02 0. -1.
    10030    2    1    2    0    0  0.00000000000E+00  0.00000000000E+00 -0.69684713343E+03  0.12188551765E+04  0.10000060069E+04 0.  0.
        4    1    3    3  502    0  0.61268832860E+02 -0.35433261510E+03 -0.77186737759E+03  0.85152001356E+03  0.12699999809E+01 0. -1.
       -4    1    3    3    0  502 -0.61268832860E+02  0.35433261510E+03  0.75020244161E+02  0.36733516295E+03  0.12699999809E+01 0.  1.
</event>
<event>
 5   0  0.1285769E-03  0.1004067E+04  0.7818609E-02  0.9304096E-01
        1   -1    0    0  501    0  0.00000000000E+00  0.00000000000E+00  0.14708227987E+04  0.14708227987E+04  0.50400001928E-02 0. -1.
       -1   -1    0    0    0  501  0.00000000000E+00  0.00000000000E+00 -0.17135812532E+03  0.17135812539E+03  0.50400001928E-02 0.  1.
    10030    2    1    2    0    0  0.00000000000E+00  0.00000000000E+00  0.12994646734E+04  0.16421809241E+04  0.10040666064E+04 0.  0.
        5    1    3    3  502    0 -0.24352843048E+03 -0.32264859945E+03  0.11365796978E+04  0.12063348269E+04  0.46999998093E+01 0. -1.
       -5    1    3    3    0  502  0.24352843048E+03  0.32264859945E+03  0.16288497562E+03  0.43584609722E+03  0.46999998093E+01 0.  1.
</event>
<event>
 5   0  0.2255142E-03  0.9990763E+03  0.7818609E-02  0.9309558E-01
       -2   -1    0    0    0  501  0.00000000000E+00  0.00000000000E+00  0.33058241525E+03  0.33058241526E+03  0.25500000920E-02 0.  1.
        2   -1    0    0  501    0  0.00000000000E+00  0.00000000000E+00 -0.75484467326E+03  0.75484467326E+03  0.25500000920E-02 0. -1.
    10030    2    1    2    0    0  0.00000000000E+00  0.00000000000E+00 -0.42426225801E+03  0.10854270885E+04  0.99907632387E+03 0.  0.
        4    1    3    3  502    0 -0.20161144609E+03 -0.41787001958E+03 -0.41326530315E+03  0.62133111313E+03  0.12699999809E+01 0. -1.
       -4    1    3    3    0  502  0.20161144609E+03  0.41787001958E+03 -0.10996954860E+02  0.46409597539E+03  0.12699999809E+01 0.  1.
</event>
<event>
 5   0  0.1353789E-03  0.9993246E+03  0.7818609E-02  0.9309286E-01
        1   -1    0    0  501    0  0.00000000000E+00  0.00000000000E+00  0.86669306416E+03  0.86669306417E+03  0.50400001928E-02 0. -1.
       -1   -1    0    0    0  501  0.00000000000E+00  0.00000000000E+00 -0.28806324802E+03  0.28806324807E+03  0.50400001928E-02 0.  1.
    10030    2    1    2    0    0  0.00000000000E+00  0.00000000000E+00  0.57862981614E+03  0.11547563122E+04  0.99932461019E+03 0.  0.
        1    1    3    3  502    0 -0.40056800065E+03 -0.24340944859E+03  0.89305094184E+02  0.47715645514E+03  0.50400001928E-02 0.  1.
       -1    1    3    3    0  502  0.40056800065E+03  0.24340944859E+03  0.48932472195E+03  0.67759985710E+03  0.50400001928E-02 0. -1.
</event>
<event>
 5   0  0.2284843E-03  0.9998570E+03  0.7818609E-02  0.9308702E-01
        2   -1    0    0  501    0  0.00000000000E+00  0.00000000000E+00  0.52824974492E+03  0.52824974493E+03  0.25500000920E-02 0. -1.
       -2   -1    0    0    0  501  0.00000000000E+00  0.00000000000E+00 -0.47312563985E+03  0.47312563986E+03  0.25500000920E-02 0.  1.
    10030    2    1    2    0    0  0.00000000000E+00  0.00000000000E+00  0.55124105068E+02  0.10013753848E+04  0.99985698693E+03 0.  0.
        2    1    3    3  502    0 -0.23066344463E+02  0.45068650980E+03  0.24301222359E+03  0.51254787794E+03  0.25500000920E-02 0. -1.
       -2    1    3    3    0  502  0.23066344463E+02 -0.45068650980E+03 -0.18788811852E+03  0.48882750685E+03  0.25500000920E-02 0.  1.
</event>
<event>
 5   0  0.2264577E-03  0.1002961E+04  0.7818609E-02  0.9305303E-01
       -2   -1    0    0    0  501  0.00000000000E+00  0.00000000000E+00  0.31690117933E+03  0.31690117934E+03  0.25500000920E-02 0.  1.
        2   -1    0    0  501    0  0.00000000000E+00  0.00000000000E+00 -0.79356807490E+03  0.79356807490E+03  0.25500000920E-02 0. -1.
    10030    2    1    2    0    0  0.00000000000E+00  0.00000000000E+00 -0.47666689557E+03  0.11104692542E+04  0.10029609341E+04 0.  0.
        5    1    3    3  502    0  0.45115843162E+03 -0.12680895306E+03 -0.40780897201E+02  0.47043555624E+03  0.46999998093E+01 0.  1.
       -5    1    3    3    0  502 -0.45115843162E+03  0.12680895306E+03 -0.43588599837E+03  0.64003369800E+03  0.46999998093E+01 0. -1.
</event>
<event>
 5   0  0.1293716E-03  0.1000934E+04  0.7818609E-02  0.9307521E-01
        1   -1    0    0  501    0  0.00000000000E+00  0.00000000000E+00  0.96638605954E+03  0.96638605956E+03  0.50400001928E-02 0. -1.
       -1   -1    0    0    0  501  0.00000000000E+00  0.00000000000E+00 -0.25917918972E+03  0.25917918977E+03  0.50400001928E-02 0.  1.
    10030    2    1    2    0    0  0.00000000000E+00  0.00000000000E+00  0.70720686982E+03  0.12255652493E+04  0.10009338758E+04 0.  0.
        3    1    3    3  502    0  0.37836506045E+03 -0.70834129578E+02 -0.38000178343E+02  0.38680953535E+03  0.10100000352E+00 0.  1.
       -3    1    3    3    0  502 -0.37836506045E+03  0.70834129578E+02  0.74520704817E+03  0.83875571397E+03  0.10100000352E+00 0. -1.
</event>
<event>
 5   0  0.8680125E-04  0.1000334E+04  0.7818609E-02  0.9308178E-01
       -3   -1    0    0    0  501  0.00000000000E+00  0.00000000000E+00  0.14072080349E+04  0.14072080385E+04  0.10100000352E+00 0.  1.
        3   -1    0    0  501    0  0.00000000000E+00  0.00000000000E+00 -0.17777554952E+03  0.17777557821E+03  0.10100000352E+00 0. -1.
    10030    2    1    2    0    0  0.00000000000E+00  0.00000000000E+00  0.12294324854E+04  0.15849836167E+04  0.10003343587E+04 0.  0.
        1    1    3    3  502    0 -0.14079823527E+03  0.29992560021E+03  0.21047588297E+02  0.33199775559E+03  0.50400001928E-02 0. -1.
       -1    1    3    3    0  502  0.14079823527E+03 -0.29992560021E+03  0.12083848971E+04  0.12529858612E+04  0.50400001928E-02 0.  1.
</event>
<event>
 5   0  0.1285769E-03  0.1006784E+04  0.7818609E-02  0.9301135E-01
        1   -1    0    0  501    0  0.00000000000E+00  0.00000000000E+00  0.42637485525E+03  0.42637485528E+03  0.50400001928E-02 0.  1.
       -1   -1    0    0    0  501  0.00000000000E+00  0.00000000000E+00 -0.59432132630E+03  0.59432132632E+03  0.50400001928E-02 0. -1.
    10030    2    1    2    0    0  0.00000000000E+00  0.00000000000E+00 -0.16794647105E+03  0.10206961816E+04  0.10067843255E+04 0.  0.
        5    1    3    3  502    0 -0.76756363008E+01  0.48314659980E+03 -0.22696122738E+03  0.53387549207E+03  0.46999998093E+01 0. -1.
       -5    1    3    3    0  502  0.76756363008E+01 -0.48314659980E+03  0.59014756330E+02  0.48682068953E+03  0.46999998093E+01 0.  1.
</event>
<event>
 5   0  0.2284843E-03  0.1002557E+04  0.7818609E-02  0.9305745E-01
        2   -1    0    0  501    0  0.00000000000E+00  0.00000000000E+00  0.26500905729E+03  0.26500905731E+03  0.25500000920E-02 0. -1.
       -2   -1    0    0    0  501  0.00000000000E+00  0.00000000000E+00 -0.94819490238E+03  0.94819490238E+03  0.25500000920E-02 0.  1.
    10030    2    1    2    0    0  0.00000000000E+00  0.00000000000E+00 -0.68318584508E+03  0.12132039597E+04  0.10025572048E+04 0.  0.
        2    1    3    3  502    0  0.21563263901E+03  0.36951265901E+03 -0.65771464448E+03  0.78461811969E+03  0.25500000920E-02 0.  1.
       -2    1    3    3    0  502 -0.21563263901E+03 -0.36951265901E+03 -0.25471200604E+02  0.42858583999E+03  0.25500000920E-02 0. -1.
</event>
<event>
 5   0  0.1293575E-03  0.1000994E+04  0.7818609E-02  0.9307455E-01
       -1   -1    0    0    0  501  0.00000000000E+00  0.00000000000E+00  0.30233944502E+03  0.30233944506E+03  0.50400001928E-02 0. -1.
        1   -1    0    0  501    0  0.00000000000E+00  0.00000000000E+00 -0.82853038542E+03  0.82853038543E+03  0.50400001928E-02 0.  1.
    10030    2    1    2    0    0  0.00000000000E+00  0.00000000000E+00 -0.52619094040E+03  0.11308698305E+04  0.10009943395E+04 0.  0.
        4    1    3    3  502    0  0.17763639216E+03  0.19455664454E+03  0.21766286852E+03  0.34173924707E+03  0.12699999809E+01 0. -1.
       -4    1    3    3    0  502 -0.17763639216E+03 -0.19455664454E+03 -0.74385380892E+03  0.78913058343E+03  0.12699999809E+01 0.  1.
</event>
<event>
 5   0  0.2277570E-03  0.9999893E+03  0.7818609E-02  0.9308557E-01
        2   -1    0    0  501    0  0.00000000000E+00  0.00000000000E+00  0.11380155414E+04  0.11380155414E+04  0.25500000920E-02 0.  1.
       -2   -1    0    0    0  501  0.00000000000E+00  0.00000000000E+00 -0.21967594727E+03  0.21967594729E+03  0.25500000920E-02 0. -1.
    10030    2    1    2    0    0  0.00000000000E+00  0.00000000000E+00  0.91833959416E+03  0.13576914887E+04  0.99998928412E+03 0.  0.
        3    1    3    3  502    0 -0.24280786514E+03 -0.35125653876E+03  0.81232429194E+03  0.91771868286E+03  0.10100000352E+00 0.  1.
       -3    1    3    3    0  502  0.24280786514E+03  0.35125653876E+03  0.10601530223E+03  0.43997280587E+03  0.10100000352E+00 0. -1.
</event>
<event>
 5   0  0.2264577E-03  0.9867477E+03  0.7818609E-02  0.9323200E-01
       -2   -1    0    0    0  501  0.00000000000E+00  0.00000000000E+00  0.18556284164E+03  0.18556284166E+03  0.25500000920E-02 0. -1.
        2   -1    0    0  501    0  0.00000000000E+00  0.00000000000E+00 -0.13117806616E+04  0.13117806616E+04  0.25500000920E-02 0.  1.
    10030    2    1    2    0    0  0.00000000000E+00  0.00000000000E+00 -0.11262178200E+04  0.14973435033E+04  0.98674768244E+03 0.  0.
        5    1    3    3  502    0 -0.22962550931E+03 -0.20675895314E+03  0.20506298907E+02  0.30970911760E+03  0.46999998093E+01 0. -1.
       -5    1    3    3    0  502  0.22962550931E+03  0.20675895314E+03 -0.11467241189E+04  0.11876343857E+04  0.46999998093E+01 0.  1.
</event>
<event>
 5   0  0.2204862E-03  0.9885420E+03  0.7818609E-02  0.9321202E-01
       -2   -1    0    0    0  501  0.00000000000E+00  0.00000000000E+00  0.62501905824E+03  0.62501905824E+03  0.25500000920E-02 0.  1.
        2   -1    0    0  501    0  0.00000000000E+00  0.00000000000E+00 -0.39087423337E+03  0.39087423337E+03  0.25500000920E-02 0. -1.
    10030    2    1    2    0    0  0.00000000000E+00  0.00000000000E+00  0.23414482487E+03  0.10158932916E+04  0.98854204814E+03 0.  0.
        1    1    3    3  502    0  0.10371518832E+02 -0.20232079690E+02 -0.39033658438E+03  0.39099815163E+03  0.50400001928E-02 0. -1.
       -1    1    3    3    0  502 -0.10371518832E+02  0.20232079690E+02  0.62448140925E+03  0.62489513998E+03  0.50400001928E-02 0.  1.
</event>
<event>
 5   0  0.1293575E-03  0.1014869E+04  0.7818609E-02  0.9292385E-01
       -1   -1    0    0    0  501  0.00000000000E+00  0.00000000000E+00  0.49726263721E+03  0.49726263723E+03  0.50400001928E-02 0.  1.
        1   -1    0    0  501    0  0.00000000000E+00  0.00000000000E+00 -0.51781468614E+03  0.51781468616E+03  0.50400001928E-02 0. -1.
    10030    2    1    2    0    0  0.00000000000E+00  0.00000000000E+00 -0.20552048927E+02  0.10150773234E+04  0.10148692456E+04 0.  0.
        4    1    3    3  502    0  0.20430288833E+03 -0.28504086500E+03  0.35654201934E+03  0.50011177686E+03  0.12699999809E+01 0.  1.
       -4    1    3    3    0  502 -0.20430288833E+03  0.28504086500E+03 -0.37709406826E+03  0.51496554654E+03  0.12699999809E+01 0. -1.
</event>
<event>
 5   0  0.2204862E-03  0.1004953E+04  0.7818609E-02  0.9303129E-01
        2   -1    0    0  501    0  0.00000000000E+00  0.00000000000E+00  0.31285763062E+03  0.31285763063E+03  0.25500000920E-02 0. -1.
       -2   -1    0    0    0  501  0.00000000000E+00  0.00000000000E+00 -0.80702058408E+03  0.80702058408E+03  0.25500000920E-02 0.  1.
    10030    2    1    2    0    0  0.00000000000E+00  0.00000000000E+00 -0.49416295346E+03  0.11198782147E+04  0.10049528303E+04 0.  0.
        1    1    3    3  502    0 -0.18057730468E+02 -0.22055908558E+03 -0.74979221493E+03  0.78176771324E+03  0.50400001928E-02 0.  1.
       -1    1    3    3    0  502  0.18057730468E+02  0.22055908558E+03  0.25562926147E+03  0.33811050148E+03  0.50400001928E-02 0. -1.
</event>
<event>
 5   0  0.1293575E-03  0.9994665E+03  0.7818609E-02  0.9309130E-01
        1   -1    0    0  501    0  0.00000000000E+00  0.00000000000E+00  0.40503452233E+03  0.40503452236E+03  0.50400001928E-02 0. -1.
       -1   -1    0    0    0  501  0.00000000000E+00  0.00000000000E+00 -0.61657288249E+03  0.61657288251E+03  0.50400001928E-02 0.  1.
    10030    2    1    2    0    0  0.00000000000E+00  0.00000000000E+00 -0.21153836016E+03  0.10216074049E+04  0.99946646360E+03 0.  0.
        4    1    3    3  502    0  0.41007362957E+03 -0.25730808324E+03 -0.23246607108E+03  0.53703809779E+03  0.12699999809E+01 0. -1.
       -4    1    3    3    0  502 -0.41007362957E+03  0.25730808324E+03  0.20927710922E+02  0.48456930707E+03  0.12699999809E+01 0.  1.
</event>
<event>
 5   0  0.2255142E-03  0.9943012E+03  0.7818609E-02  0.9314817E-01
       -2   -1    0    0    0  501  0.00000000000E+00  0.00000000000E+00  0.11999376923E+03  0.11999376926E+03  0.25500000920E-02 0. -1.
        2   -1    0    0  501    0  0.00000000000E+00  0.00000000000E+00 -0.20597631098E+04  0.20597631098E+04  0.25500000920E-02 0.  1.
    10030    2    1    2    0    0  0.00000000000E+00  0.00000000000E+00 -0.19397693406E+04  0.21797568791E+04  0.99430124068E+03 0.  0.
        4    1    3    3  502    0  0.82556629394E+02  0.10693528990E+03 -0.20187482798E+04  0.20232639431E+04  0.12699999809E+01 0.  1.
       -4    1    3    3    0  502 -0.82556629394E+02 -0.10693528990E+03  0.78978939203E+02  0.15649293601E+03  0.12699999809E+01 0. -1.
</event>
<event>
 5   0  0.1353789E-03  0.9994310E+03  0.7818609E-02  0.9309169E-01
       -1   -1    0    0    0  501  0.00000000000E+00  0.00000000000E+00  0.33708511357E+03  0.33708511360E+03  0.50400001928E-02 0. -1.
        1   -1    0    0  501    0  0.00000000000E+00  0.00000000000E+00 -0.74080867642E+03  0.74080867643E+03  0.50400001928E-02 0.  1.
    10030    2    1    2    0    0  0.00000000000E+00  0.00000000000E+00 -0.40372356285E+03  0.10778937900E+04  0.99943099182E+03 0.  0.
        1    1    3    3  502    0 -0.84239850090E+02  0.25231186240E+03 -0.65810734413E+03  0.70983301183E+03  0.50400001928E-02 0.  1.
       -1    1    3    3    0  502  0.84239850090E+02 -0.25231186240E+03  0.25438378128E+03  0.36806077821E+03  0.50400001928E-02 0. -1.
</event>
<event>
 5   0  0.2264577E-03  0.9928494E+03  0.7818609E-02  0.9316422E-01
       -2   -1    0    0    0  501  0.00000000000E+00  0.00000000000E+00  0.51223316933E+03  0.51223316933E+03  0.25500000920E-02 0.  1.
        2   -1    0    0  501    0  0.00000000000E+00  0.00000000000E+00 -0.48110411542E+03  0.48110411542E+03  0.25500000920E-02 0. -1.
    10030    2    1    2    0    0  0.00000000000E+00  0.00000000000E+00  0.31129053908E+02  0.99333728476E+03  0.99284940615E+03 0.  0.
        5    1    3    3  502    0  0.17413642234E+03 -0.28112330774E+03 -0.35483569337E+03  0.48506109618E+03  0.46999998093E+01 0. -1.
       -5    1    3    3    0  502 -0.17413642234E+03  0.28112330774E+03  0.38596474727E+03  0.50827618858E+03  0.46999998093E+01 0.  1.
</event>
<event>
 5   0  0.2264577E-03  0.9948681E+03  0.7818609E-02  0.9314191E-01
        2   -1    0    0  501    0  0.00000000000E+00  0.00000000000E+00  0.16517612568E+04  0.16517612568E+04  0.25500000920E-02 0. -1.
       -2   -1    0    0    0  501  0.00000000000E+00  0.00000000000E+00 -0.14980410044E+03  0.14980410046E+03  0.25500000920E-02 0.  1.
    10030    2    1    2    0    0  0.00000000000E+00  0.00000000000E+00  0.15019571564E+04  0.18015653573E+04  0.99486805001E+03 0.  0.
        5    1    3    3  502    0 -0.49176919359E+03 -0.70298255532E+02  0.70517657152E+03  0.86259774607E+03  0.46999998093E+01 0. -1.
       -5    1    3    3    0  502  0.49176919359E+03  0.70298255532E+02  0.79678058486E+03  0.93896761121E+03  0.46999998093E+01 0.  1.
</event>
<event>
 5   0  0.2284843E-03  0.1011719E+04  0.7818609E-02  0.9295784E-01
       -2   -1    0    0    0  501  0.00000000000E+00  0.00000000000E+00  0.23636502269E+03  0.23636502270E+03  0.25500000920E-02 0. -1.
        2   -1    0    0  501    0  0.00000000000E+00  0.00000000000E+00 -0.10826215423E+04  0.10826215423E+04  0.25500000920E-02 0.  1.
    10030    2    1    2    0    0  0.00000000000E+00  0.00000000000E+00 -0.84625651963E+03  0.13189865650E+04  0.10117190626E+04 0.  0.
        2    1    3    3  502    0 -0.32508135315E+03 -0.25859561480E+03 -0.79950117029E+03  0.90097264079E+03  0.25500000920E-02 0.  1.
       -2    1    3    3    0  502  0.32508135315E+03  0.25859561480E+03 -0.46755349348E+02  0.41801392424E+03  0.25500000920E-02 0. -1.
</event>
<event>
 5   0  0.2284843E-03  0.9995635E+03  0.7818609E-02  0.9309024E-01
        2   -1    0    0  501    0  0.00000000000E+00  0.00000000000E+00  0.72646426172E+03  0.72646426172E+03  0.25500000920E-02 0. -1.
       -2   -1    0    0    0  501  0.00000000000E+00  0.00000000000E+00 -0.34383216869E+03  0.34383216870E+03  0.25500000920E-02 0.  1.
    10030    2    1    2    0    0  0.00000000000E+00  0.00000000000E+00  0.38263209303E+03  0.10702964304E+04  0.99956346991E+03 0.  0.
        2    1    3    3  502    0  0.16783366839E+03 -0.45804676407E+03  0.74967789187E+02  0.49355359156E+03  0.25500000920E-02 0.  1.
       -2    1    3    3    0  502 -0.16783366839E+03  0.45804676407E+03  0.30766430384E+03  0.57674283887E+03  0.25500000920E-02 0. -1.
</event>
<event>
 5   0  0.2204862E-03  0.1001529E+04  0.7818609E-02  0.9306869E-01
       -2   -1    0    0    0  501  0.00000000000E+00  0.00000000000E+00  0.32336175610E+03  0.32336175611E+03  0.25500000920E-02 0. -1.
        2   -1    0    0  501    0  0.00000000000E+00  0.00000000000E+00 -0.77549386779E+03  0.77549386780E+03  0.25500000920E-02 0.  1.
    10030    2    1    2    0    0  0.00000000000E+00  0.00000000000E+00 -0.45213211169E+03  0.10988556239E+04  0.10015289490E+04 0.  0.
        1    1    3    3  502    0  0.47656217099E+03  0.68101310334E+02 -0.37736435962E+03  0.61168059575E+03  0.50400001928E-02 0.  1.
       -1    1    3    3    0  502 -0.47656217099E+03 -0.68101310334E+02 -0.74767752076E+02  0.48717502816E+03  0.50400001928E-02 0. -1.
</event>
<event>
 5   0  0.1293716E-03  0.1062541E+04  0.7818609E-02  0.9242491E-01
       -1   -1    0    0    0  501  0.00000000000E+00  0.00000000000E+00  0.47379946064E+03  0.47379946067E+03  0.50400001928E-02 0.  1.
        1   -1    0    0  501    0  0.00000000000E+00  0.00000000000E+00 -0.59571232675E+03  0.59571232677E+03  0.50400001928E-02 0. -1.
    10030    2    1    2    0    0  0.00000000000E+00  0.00000000000E+00 -0.12191286611E+03  0.10695117874E+04  0.10625406894E+04 0.  0.
        3    1    3    3  502    0 -0.14547373123E+03 -0.30686562575E+03  0.35028130125E+03  0.48787920528E+03  0.10100000352E+00 0. -1.
       -3    1    3    3    0  502  0.14547373123E+03  0.30686562575E+03 -0.47219416735E+03  0.58163258216E+03  0.10100000352E+00 0.  1.
</event>
<event>
 5   0  0.1293716E-03  0.9937978E+03  0.7818609E-02  0.9315374E-01
        1   -1    0    0  501    0  0.00000000000E+00  0.00000000000E+00  0.60112432609E+03  0.60112432611E+03  0.50400001928E-02 0. -1.
       -1   -1    0    0    0  501  0.00000000000E+00  0.00000000000E+00 -0.41074453191E+03  0.41074453194E+03  0.50400001928E-02 0.  1.
    10030    2    1    2    0    0  0.00000000000E+00  0.00000000000E+00  0.19037979419E+03  0.10118688580E+04  0.99379782645E+03 0.  0.
        3    1    3    3  502    0 -0.45875631982E+03 -0.16038258255E+03 -0.10272449642E+02  0.48609203571E+03  0.10100000352E+00 0. -1.
       -3    1    3    3    0  502  0.45875631982E+03  0.16038258255E+03  0.20065224383E+03  0.52577682234E+03  0.10100000352E+00 0.  1.
</event>
<event>
 5   0  0.8680125E-04  0.9864277E+03  0.7818609E-02  0.9323557E-01
       -3   -1    0    0    0  501  0.00000000000E+00  0.00000000000E+00  0.19666591999E+03  0.19666594593E+03  0.10100000352E+00 0.  1.
        3   -1    0    0  501    0  0.00000000000E+00  0.00000000000E+00 -0.12369192924E+04  0.12369192965E+04  0.10100000352E+00 0. -1.
    10030    2    1    2    0    0  0.00000000000E+00  0.00000000000E+00 -0.10402533724E+04  0.14335852424E+04  0.98642768035E+03 0.  0.
        4    1    3    3  502    0 -0.33473866750E+03 -0.20522788614E+03 -0.86343905837E+02  0.40202654607E+03  0.12699999809E+01 0.  1.
       -4    1    3    3    0  502  0.33473866750E+03  0.20522788614E+03 -0.95390946656E+03  0.10315586964E+04  0.12699999809E+01 0. -1.
</event>
<event>
 5   0  0.2277570E-03  0.9989389E+03  0.7818609E-02  0.9309709E-01
       -2   -1    0    0    0  501  0.00000000000E+00  0.00000000000E+00  0.30691005213E+03  0.30691005214E+03  0.25500000920E-02 0.  1.
        2   -1    0    0  501    0  0.00000000000E+00  0.00000000000E+00 -0.81284306890E+03  0.81284306890E+03  0.25500000920E-02 0. -1.
    10030    2    1    2    0    0  0.00000000000E+00  0.00000000000E+00 -0.50593301676E+03  0.11197531210E+04  0.99893885430E+03 0.  0.
        3    1    3    3  502    0 -0.18958007536E+03 -0.19535959091E+03  0.21644448401E+03  0.34778470293E+03  0.10100000352E+00 0.  1.
       -3    1    3    3    0  502  0.18958007536E+03  0.19535959091E+03 -0.72237750078E+03  0.77196841811E+03  0.10100000352E+00 0. -1.
</event>
<event>
 5   0  0.1353789E-03  0.1000400E+04  0.7818609E-02  0.9308107E-01
        1   -1    0    0  501    0  0.00000000000E+00  0.00000000000E+00  0.55388190041E+03  0.55388190043E+03  0.50400001928E-02 0. -1.
       -1   -1    0    0    0  501  0.00000000000E+00  0.00000000000E+00 -0.45172057758E+03  0.45172057761E+03  0.50400001928E-02 0.  1.
    10030    2    1    2    0    0  0.00000000000E+00  0.00000000000E+00  0.10216132283E+03  0.10056024780E+04  0.10003996241E+04 0.  0.
        1    1    3    3  502    0  0.32006338293E+03  0.32503518177E+03 -0.15519724951E+03  0.48184502152E+03  0.50400001928E-02 0. -1.
       -1    1    3    3    0  502 -0.32006338293E+03 -0.32503518177E+03  0.25735857234E+03  0.52375745653E+03  0.50400001928E-02 0.  1.
</event>
<event>
 5   0  0.2284843E-03  0.9996461E+03  0.7818609E-02  0.9308933E-01
       -2   -1    0    0    0  501  0.00000000000E+00  0.00000000000E+00  0.12692884581E+03  0.12692884584E+03  0.25500000920E-02 0.  1.
        2   -1    0    0  501    0  0.00000000000E+00  0.00000000000E+00 -0.19682137054E+04  0.19682137055E+04  0.25500000920E-02 0. -1.
    10030    2    1    2    0    0  0.00000000000E+00  0.00000000000E+00 -0.18412848596E+04  0.20951425513E+04  0.99964612533E+03 0.  0.
        2    1    3    3  502    0 -0.28187386207E+03  0.24697695249E+03 -0.16137833968E+04  0.16567279019E+04  0.25500000920E-02 0. -1.
       -2    1    3    3    0  502  0.28187386207E+03 -0.24697695249E+03 -0.22750146281E+03  0.43841464935E+03  0.25500000920E-02 0.  1.
</event>
<event>
 5   0  0.1293575E-03  0.1002553E+04  0.7818609E-02  0.9305750E-01
       -1   -1    0    0    0  501  0.00000000000E+00  0.00000000000E+00  0.12751515426E+03  0.12751515436E+03  0.50400001928E-02 0. -1.
        1   -1    0    0  501    0  0.00000000000E+00  0.00000000000E+00 -0.19705727610E+04  0.19705727610E+04  0.50400001928E-02 0.  1.
    10030    2    1    2    0    0  0.00000000000E+00  0.00000000000E+00 -0.18430576067E+04  0.20980879154E+04  0.10025525217E+04 0.  0.
        4    1    3    3  502    0  0.44561474868E+03  0.86309564453E+02 -0.47633705496E+03  0.65796690493E+03  0.12699999809E+01 0. -1.
       -4    1    3    3    0  502 -0.44561474868E+03 -0.86309564453E+02 -0.13667205518E+04  0.14401210104E+04  0.12699999809E+01 0.  1.
</event>
<event>
 5   0  0.1353789E-03  0.9792631E+03  0.7818609E-02  0.9331586E-01
        1   -1    0    0  501    0  0.00000000000E+00  0.00000000000E+00  0.27753326870E+03  0.27753326874E+03  0.50400001928E-02 0.  1.
       -1   -1    0    0    0  501  0.00000000000E+00  0.00000000000E+00 -0.86382089889E+03  0.86382089891E+03  0.50400001928E-02 0. -1.
    10030    2    1    2    0    0  0.00000000000E+00  0.00000000000E+00 -0.58628763020E+03  0.11413541676E+04  0.97926306511E+03 0.  0.
        1    1    3    3  502    0 -0.91087175497E+02 -0.44871179951E+03 -0.49535420810E+03  0.67454795535E+03  0.50400001928E-02 0. -1.
       -1    1    3    3    0  502  0.91087175497E+02  0.44871179951E+03 -0.90933422097E+02  0.46680621230E+03  0.50400001928E-02 0.  1.
</event>
<event>
 5   0  0.1249195E-03  0.9969490E+03  0.7818609E-02  0.9311897E-01
       -1   -1    0    0    0  501  0.00000000000E+00  0.00000000000E+00  0.17135361982E+03  0.17135361989E+03  0.50400001928E-02 0.  1.
        1   -1    0    0  501    0  0.00000000000E+00  0.00000000000E+00 -0.14500822158E+04  0.14500822158E+04  0.50400001928E-02 0. -1.
    10030    2    1    2    0    0  0.00000000000E+00  0.00000000000E+00 -0.12787285960E+04  0.16214358357E+04  0.99694901932E+03 0.  0.
        2    1    3    3  502    0 -0.85370267029E+02 -0.11284973576E+03 -0.14167309512E+04  0.14237800860E+04  0.25500000920E-02 0. -1.
       -2    1    3    3    0  502  0.85370267029E+02  0.11284973576E+03  0.13800235516E+03  0.19765574970E+03  0.25500000920E-02 0.  1.
</event>
<event>
 5   0  0.1293716E-03  0.9537552E+03  0.7818609E-02  0.9360772E-01
       -1   -1    0    0    0  501  0.00000000000E+00  0.00000000000E+00  0.19879741296E+03  0.19879741302E+03  0.50400001928E-02 0.  1.
        1   -1    0    0  501    0  0.00000000000E+00  0.00000000000E+00 -0.11439397691E+04  0.11439397691E+04  0.50400001928E-02 0. -1.
    10030    2    1    2    0    0  0.00000000000E+00  0.00000000000E+00 -0.94514235611E+03  0.13427371821E+04  0.95375524475E+03 0.  0.
        3    1    3    3  502    0 -0.17054333004E+03  0.84969478605E+02 -0.10880212789E+04  0.11045791747E+04  0.10100000352E+00 0. -1.
       -3    1    3    3    0  502  0.17054333004E+03 -0.84969478605E+02  0.14287892276E+03  0.23815800739E+03  0.10100000352E+00 0.  1.
</event>
<event>
 5   0  0.2255142E-03  0.1026826E+04  0.7818609E-02  0.9279602E-01
       -2   -1    0    0    0  501  0.00000000000E+00  0.00000000000E+00  0.36666107726E+03  0.36666107726E+03  0.25500000920E-02 0.  1.
        2   -1    0    0  501    0  0.00000000000E+00  0.00000000000E+00 -0.71890111525E+03  0.71890111525E+03  0.25500000920E-02 0. -1.
    10030    2    1    2    0    0  0.00000000000E+00  0.00000000000E+00 -0.35224003799E+03  0.10855621925E+04  0.10268262898E+04 0.  0.
        4    1    3    3  502    0 -0.28972196903E+03  0.19359924727E+02  0.27151186146E+03  0.39753481588E+03  0.12699999809E+01 0.  1.
       -4    1    3    3    0  502  0.28972196903E+03 -0.19359924727E+02 -0.62375189946E+03  0.68802737664E+03  0.12699999809E+01 0. -1.
</event>
<event>
 5   0  0.2255142E-03  0.1011148E+04  0.7818609E-02  0.9296402E-01
       -2   -1    0    0    0  501  0.00000000000E+00  0.00000000000E+00  0.31087731008E+03  0.31087731009E+03  0.25500000920E-02 0. -1.
        2   -1    0    0  501    0  0.00000000000E+00  0.00000000000E+00 -0.82220563189E+03  0.82220563189E+03  0.25500000920E-02 0.  1.
    10030    2    1    2    0    0  0.00000000000E+00  0.00000000000E+00 -0.51132832181E+03  0.11330829420E+04  0.10111480113E+04 0.  0.
        4    1    3    3  502    0  0.15938050640E+03  0.46621035019E+03 -0.38268806323E+03  0.62386376965E+03  0.12699999809E+01 0.  1.
       -4    1    3    3    0  502 -0.15938050640E+03 -0.46621035019E+03 -0.12864025858E+03  0.50921917233E+03  0.12699999809E+01 0. -1.
</event>
<event>
 5   0  0.1249195E-03  0.1000024E+04  0.7818609E-02  0.9308518E-01
       -1   -1    0    0    0  501  0.00000000000E+00  0.00000000000E+00  0.19441057008E+03  0.19441057015E+03  0.50400001928E-02 0.  1.
        1   -1    0    0  501    0  0.00000000000E+00  0.00000000000E+00 -0.12860006927E+04  0.12860006927E+04  0.50400001928E-02 0. -1.
    10030    2    1    2    0    0  0.00000000000E+00  0.00000000000E+00 -0.10915901226E+04  0.14804112628E+04  0.10000242554E+04 0.  0.
        2    1    3    3  502    0  0.29478663212E+03  0.14669975087E+03  0.11251424262E+02  0.32946406471E+03  0.25500000920E-02 0.  1.
       -2    1    3    3    0  502 -0.29478663212E+03 -0.14669975087E+03 -0.11028415468E+04  0.11509471981E+04  0.25500000920E-02 0. -1.
</event>
<event>
 5   0  0.2255142E-03  0.1000204E+04  0.7818609E-02  0.9308321E-01
       -2   -1    0    0    0  501  0.00000000000E+00  0.00000000000E+00  0.18008580476E+03  0.18008580478E+03  0.25500000920E-02 0.  1.
        2   -1    0    0  501    0  0.00000000000E+00  0.00000000000E+00 -0.13887947946E+04  0.13887947946E+04  0.25500000920E-02 0. -1.
    10030    2    1    2    0    0  0.00000000000E+00  0.00000000000E+00 -0.12087089899E+04  0.15688805994E+04  0.10002044356E+04 0.  0.
        4    1    3    3  502    0  0.22112303444E+02 -0.49587010632E+03 -0.50862736235E+03  0.71068947012E+03  0.12699999809E+01 0.  1.
       -4    1    3    3    0  502 -0.22112303444E+02  0.49587010632E+03 -0.70008162751E+03  0.85819112929E+03  0.12699999809E+01 0. -1.
</event>
<event>
 5   0  0.2204862E-03  0.1004809E+04  0.7818609E-02  0.9303286E-01
        2   -1    0    0  501    0  0.00000000000E+00  0.00000000000E+00  0.24406552955E+04  0.24406552955E+04  0.25500000920E-02 0. -1.
       -2   -1    0    0    0  501  0.00000000000E+00  0.00000000000E+00 -0.10341913479E+03  0.10341913482E+03  0.25500000920E-02 0.  1.
    10030    2    1    2    0    0  0.00000000000E+00  0.00000000000E+00  0.23372361607E+04  0.25440744303E+04  0.10048093531E+04 0.  0.
        1    1    3    3  502    0 -0.35347427166E+03  0.26995157938E+03  0.57703900165E+03  0.72855468250E+03  0.50400001928E-02 0.  1.
       -1    1    3    3    0  502  0.35347427166E+03 -0.26995157938E+03  0.17601971590E+04  0.18155197478E+04  0.50400001928E-02 0. -1.
</event>
<event>
 5   0  0.2255142E-03  0.1005169E+04  0.7818609E-02  0.9302893E-01
        2   -1    0    0  501    0  0.00000000000E+00  0.00000000000E+00  0.44613258308E+03  0.44613258309E+03  0.25500000920E-02 0. -1.
       -2   -1    0    0    0  501  0.00000000000E+00  0.00000000000E+00 -0.56618017484E+03  0.56618017484E+03  0.25500000920E-02 0.  1.
    10030    2    1    2    0    0  0.00000000000E+00  0.00000000000E+00 -0.12004759176E+03  0.10123127579E+04  0.10051694860E+04 0.  0.
        4    1    3    3  502    0 -0.31179582275E+03  0.17914596626E+02 -0.45658884986E+03  0.55318401873E+03  0.12699999809E+01 0.  1.
       -4    1    3    3    0  502  0.31179582275E+03 -0.17914596626E+02  0.33654125810E+03  0.45912873920E+03  0.12699999809E+01 0. -1.
</event>
<event>
 5   0  0.1293716E-03  0.1017265E+04  0.7818609E-02  0.9289809E-01
        1   -1    0    0  501    0  0.00000000000E+00  0.00000000000E+00  0.13152342282E+04  0.13152342282E+04  0.50400001928E-02 0.  1.
       -1   -1    0    0    0  501  0.00000000000E+00  0.00000000000E+00 -0.19670027443E+03  0.19670027450E+03  0.50400001928E-02 0. -1.
    10030    2    1    2    0    0  0.00000000000E+00  0.00000000000E+00  0.11185339538E+04  0.15119345027E+04  0.10172648302E+04 0.  0.
        3    1    3    3  502    0  0.40788204861E+03 -0.27221137587E+03  0.35853671549E+03  0.60746636556E+03  0.10100000352E+00 0. -1.
       -3    1    3    3    0  502 -0.40788204861E+03  0.27221137587E+03  0.75999723832E+03  0.90446813719E+03  0.10100000352E+00 0.  1.
</event>
<event>
 5   0  0.2264577E-03  0.9988564E+03  0.7818609E-02  0.9309800E-01
       -2   -1    0    0    0  501  0.00000000000E+00  0.00000000000E+00  0.26523838097E+03  0.26523838098E+03  0.25500000920E-02 0.  1.
        2   -1    0    0  501    0  0.00000000000E+00  0.00000000000E+00 -0.94039378333E+03  0.94039378333E+03  0.25500000920E-02 0. -1.
    10030    2    1    2    0    0  0.00000000000E+00  0.00000000000E+00 -0.67515540236E+03  0.12056321643E+04  0.99885639522E+03 0.  0.
        5    1    3    3  502    0 -0.37548402851E+03  0.25207713982E+03 -0.81886709843E+02  0.45962883214E+03  0.46999998093E+01 0.  1.
       -5    1    3    3    0  502  0.37548402851E+03 -0.25207713982E+03 -0.59326869252E+03  0.74600333217E+03  0.46999998093E+01 0. -1.
</event>
<event>
 5   0  0.1293716E-03  0.1001766E+04  0.7818609E-02  0.9306610E-01
        1   -1    0    0  501    0  0.00000000000E+00  0.00000000000E+00  0.20995406245E+04  0.20995406245E+04  0.50400001928E-02 0.  1.
       -1   -1    0    0    0  501  0.00000000000E+00  0.00000000000E+00 -0.11949458718E+03  0.11949458729E+03  0.50400001928E-02 0. -1.
    10030    2    1    2    0    0  0.00000000000E+00  0.00000000000E+00  0.19800460373E+04  0.22190352118E+04  0.10017659214E+04 0.  0.
        3    1    3    3  502    0 -0.19702692177E+03  0.44305005679E+03  0.71184399351E+03  0.86129834669E+03  0.10100000352E+00 0. -1.
       -3    1    3    3    0  502  0.19702692177E+03 -0.44305005679E+03  0.12682020438E+04  0.13577368651E+04  0.10100000352E+00 0.  1.
</event>
<event>
 5   0  0.1293716E-03  0.9950229E+03  0.7818609E-02  0.9314020E-01
       -1   -1    0    0    0  501  0.00000000000E+00  0.00000000000E+00  0.12133096233E+04  0.12133096233E+04  0.50400001928E-02 0.  1.
        1   -1    0    0  501    0  0.00000000000E+00  0.00000000000E+00 -0.20400206137E+03  0.20400206144E+03  0.50400001928E-02 0. -1.
    10030    2    1    2    0    0  0.00000000000E+00  0.00000000000E+00  0.10093075619E+04  0.14173116847E+04  0.99502294302E+03 0.  0.
        3    1    3    3  502    0  0.14892739338E+03  0.21470391309E+03  0.11076996749E+04  0.11381018051E+04  0.10100000352E+00 0.  1.
       -3    1    3    3    0  502 -0.14892739338E+03 -0.21470391309E+03 -0.98392112975E+02  0.27920987965E+03  0.10100000352E+00 0. -1.
</event>
<event>
 5   0  0.2264577E-03  0.1033121E+04  0.7818609E-02  0.9272946E-01
       -2   -1    0    0    0  501  0.00000000000E+00  0.00000000000E+00  0.40014804380E+03  0.40014804381E+03  0.25500000920E-02 0. -1.
        2   -1    0    0  501    0  0.00000000000E+00  0.00000000000E+00 -0.66684019240E+03  0.66684019240E+03  0.25500000920E-02 0.  1.
    10030    2    1    2    0    0  0.00000000000E+00  0.00000000000E+00 -0.26669214860E+03  0.10669882362E+04  0.10331210936E+04 0.  0.
        5    1    3    3  502    0  0.35708531018E+03 -0.16050727546E+02 -0.51845744944E+03  0.62975214289E+03  0.46999998093E+01 0.  1.
       -5    1    3    3    0  502 -0.35708531018E+03  0.16050727546E+02  0.25176530084E+03  0.43723609332E+03  0.46999998093E+01 0. -1.
</event>
<event>
 5   0  0.1353789E-03  0.1000343E+04  0.7818609E-02  0.9308169E-01
        1   -1    0    0  501    0  0.00000000000E+00  0.00000000000E+00  0.13694575187E+04  0.13694575187E+04  0.50400001928E-02 0.  1.
       -1   -1    0    0    0  501  0.00000000000E+00  0.00000000000E+00 -0.18267929836E+03  0.18267929843E+03  0.50400001928E-02 0. -1.
    10030    2    1    2    0    0  0.00000000000E+00  0.00000000000E+00  0.11867782204E+04  0.15521368171E+04  0.10003430186E+04 0.  0.
        1    1    3    3  502    0 -0.12888498419E+02 -0.10762837034E+03  0.13510132728E+04  0.13553548770E+04  0.50400001928E-02 0.  1.
       -1    1    3    3    0  502  0.12888498419E+02  0.10762837034E+03 -0.16423505240E+03  0.19678194012E+03  0.50400001928E-02 0. -1.
</event>
<event>
 5   0  0.1293575E-03  0.9986081E+03  0.7818609E-02  0.9310073E-01
        1   -1    0    0  501    0  0.00000000000E+00  0.00000000000E+00  0.11413416758E+04  0.11413416758E+04  0.50400001928E-02 0. -1.
       -1   -1    0    0    0  501  0.00000000000E+00  0.00000000000E+00 -0.21843111324E+03  0.21843111329E+03  0.50400001928E-02 0.  1.
    10030    2    1    2    0    0  0.00000000000E+00  0.00000000000E+00  0.92291056258E+03  0.13597727891E+04  0.99860809706E+03 0.  0.
        4    1    3    3  502    0 -0.39669061138E+03 -0.53804423827E+02  0.86778161160E+03  0.95566986743E+03  0.12699999809E+01 0. -1.
       -4    1    3    3    0  502  0.39669061138E+03  0.53804423827E+02  0.55128950975E+02  0.40410292169E+03  0.12699999809E+01 0.  1.
</event>
<event>
 5   0  0.1285769E-03  0.1002033E+04  0.7818609E-02  0.9306318E-01
        1   -1    0    0  501    0  0.00000000000E+00  0.00000000000E+00  0.33872805577E+03  0.33872805581E+03  0.50400001928E-02 0. -1.
       -1   -1    0    0    0  501  0.00000000000E+00  0.00000000000E+00 -0.74105892068E+03  0.74105892070E+03  0.50400001928E-02 0.  1.
    10030    2    1    2    0    0  0.00000000000E+00  0.00000000000E+00 -0.40233086491E+03  0.10797869765E+04  0.10020328287E+04 0.  0.
        5    1    3    3  502    0  0.14061942048E+03 -0.37626180223E+02  0.31541343274E+03  0.34741513267E+03  0.46999998093E+01 0. -1.
       -5    1    3    3    0  502 -0.14061942048E+03  0.37626180223E+02 -0.71774429765E+03  0.73237184385E+03  0.46999998093E+01 0.  1.
</event>
<event>
 5   0  0.1293575E-03  0.9975404E+03  0.7818609E-02  0.9311247E-01
       -1   -1    0    0    0  501  0.00000000000E+00  0.00000000000E+00  0.46012852030E+03  0.46012852033E+03  0.50400001928E-02 0. -1.
        1   -1    0    0  501    0  0.00000000000E+00  0.00000000000E+00 -0.54065705030E+03  0.54065705033E+03  0.50400001928E-02 0.  1.
    10030    2    1    2    0    0  0.00000000000E+00  0.00000000000E+00 -0.80528530005E+02  0.10007855707E+04  0.99754043241E+03 0.  0.
        4    1    3    3  502    0 -0.13923381504E+03  0.40827516867E+03 -0.29146940955E+03  0.52060608737E+03  0.12699999809E+01 0.  1.
       -4    1    3    3    0  502  0.13923381504E+03 -0.40827516867E+03  0.21094087954E+03  0.48017948328E+03  0.12699999809E+01 0. -1.
</event>
<event>
 5   0  0.1353789E-03  0.1003115E+04  0.7818609E-02  0.9305135E-01
        1   -1    0    0  501    0  0.00000000000E+00  0.00000000000E+00  0.85052995256E+03  0.85052995258E+03  0.50400001928E-02 0.  1.
       -1   -1    0    0    0  501  0.00000000000E+00  0.00000000000E+00 -0.29576861215E+03  0.29576861219E+03  0.50400001928E-02 0. -1.
    10030    2    1    2    0    0  0.00000000000E+00  0.00000000000E+00  0.55476134042E+03  0.11462985648E+04  0.10031152749E+04 0.  0.
        1    1    3    3  502    0 -0.19975797180E+03  0.83966661996E+02  0.79428066652E+03  0.82330761253E+03  0.50400001928E-02 0.  1.
       -1    1    3    3    0  502  0.19975797180E+03 -0.83966661996E+02 -0.23951932610E+03  0.32299095223E+03  0.50400001928E-02 0. -1.
</event>
<event>
 5   0  0.2255142E-03  0.1003324E+04  0.7818609E-02  0.9304907E-01
        2   -1    0    0  501    0  0.00000000000E+00  0.00000000000E+00  0.10055478249E+04  0.10055478250E+04  0.25500000920E-02 0.  1.
       -2   -1    0    0    0  501  0.00000000000E+00  0.00000000000E+00 -0.25027617170E+03  0.25027617172E+03  0.25500000920E-02 0. -1.
    10030    2    1    2    0    0  0.00000000000E+00  0.00000000000E+00  0.75527165324E+03  0.12558239967E+04  0.10033237964E+04 0.  0.
        4    1    3    3  502    0  0.23080012087E+03  0.18525708457E+03  0.88463559945E+03  0.93282937341E+03  0.12699999809E+01 0.  1.
       -4    1    3    3    0  502 -0.23080012087E+03 -0.18525708457E+03 -0.12936394621E+03  0.32299462326E+03  0.12699999809E+01 0. -1.
</event>
<event>
 5   0  0.1293575E-03  0.1006016E+04  0.7818609E-02  0.9301971E-01
       -1   -1    0    0    0  501  0.00000000000E+00  0.00000000000E+00  0.28999047643E+03  0.28999047648E+03  0.50400001928E-02 0.  1.
        1   -1    0    0  501    0  0.00000000000E+00  0.00000000000E+00 -0.87250153844E+03  0.87250153846E+03  0.50400001928E-02 0. -1.
    10030    2    1    2    0    0  0.00000000000E+00  0.00000000000E+00 -0.58251106201E+03  0.11624920149E+04  0.10060161765E+04 0.  0.
        4    1    3    3  502    0  0.57692036966E+02  0.43635466918E+03 -0.57260463880E+03  0.72222673290E+03  0.12699999809E+01 0. -1.
       -4    1    3    3    0  502 -0.57692036966E+02 -0.43635466918E+03 -0.99064232155E+01  0.44026528203E+03  0.12699999809E+01 0.  1.
</event>
<event>
 5   0  0.1293575E-03  0.9992361E+03  0.7818609E-02  0.9309383E-01
       -1   -1    0    0    0  501  0.00000000000E+00  0.00000000000E+00  0.22873558605E+03  0.22873558610E+03  0.50400001928E-02 0.  1.
        1   -1    0    0  501    0  0.00000000000E+00  0.00000000000E+00 -0.10912958166E+04  0.10912958166E+04  0.50400001928E-02 0. -1.
    10030    2    1    2    0    0  0.00000000000E+00  0.00000000000E+00 -0.86256023052E+03  0.13200314027E+04  0.99923608461E+03 0.  0.
        4    1    3    3  502    0  0.24567367897E+03  0.14135597191E+03 -0.97480364252E+03  0.10151752665E+04  0.12699999809E+01 0. -1.
       -4    1    3    3    0  502 -0.24567367897E+03 -0.14135597191E+03  0.11224341201E+03  0.30485613618E+03  0.12699999809E+01 0.  1.
</event>
<event>
 5   0  0.1293716E-03  0.9967031E+03  0.7818609E-02  0.9312168E-01
       -1   -1    0    0    0  501  0.00000000000E+00  0.00000000000E+00  0.15146473475E+03  0.15146473484E+03  0.50400001928E-02 0.  1.
        1   -1    0    0  501    0  0.00000000000E+00  0.00000000000E+00 -0.16396838754E+04  0.16396838754E+04  0.50400001928E-02 0. -1.
    10030    2    1    2    0    0  0.00000000000E+00  0.00000000000E+00 -0.14882191406E+04  0.17911486102E+04  0.99670313202E+03 0.  0.
        3    1    3    3  502    0  0.40101046744E+03  0.28429667461E+03 -0.89142880281E+03  0.10179780523E+04  0.10100000352E+00 0. -1.
       -3    1    3    3    0  502 -0.40101046744E+03 -0.28429667461E+03 -0.59679033779E+03  0.77317055794E+03  0.10100000352E+00 0.  1.
</event>
<event>
 5   0  0.1293716E-03  0.1001800E+04  0.7818609E-02  0.9306572E-01
        1   -1    0    0  501    0  0.00000000000E+00  0.00000000000E+00  0.46371052314E+03  0.46371052317E+03  0.50400001928E-02 0. -1.
       -1   -1    0    0    0  501  0.00000000000E+00  0.00000000000E+00 -0.54107240943E+03  0.54107240945E+03  0.50400001928E-02 0.  1.
    10030    2    1    2    0    0  0.00000000000E+00  0.00000000000E+00 -0.77361886289E+02  0.10047829326E+04  0.10018003195E+04 0.  0.
        3    1    3    3  502    0  0.36302935514E+03  0.23966001768E+03 -0.28776226788E+03  0.52156914190E+03  0.10100000352E+00 0.  1.
       -3    1    3    3    0  502 -0.36302935514E+03 -0.23966001768E+03  0.21040038159E+03  0.48321379072E+03  0.10100000352E+00 0. -1.
</event>
<event>
 5   0  0.2255142E-03  0.1002915E+04  0.7818609E-02  0.9305354E-01
        2   -1    0    0  501    0  0.00000000000E+00  0.00000000000E+00  0.15375960637E+04  0.15375960637E+04  0.25500000920E-02 0. -1.
       -2   -1    0    0    0  501  0.00000000000E+00  0.00000000000E+00 -0.16354069018E+03  0.16354069020E+03  0.25500000920E-02 0.  1.
    10030    2    1    2    0    0  0.00000000000E+00  0.00000000000E+00  0.13740553735E+04  0.17011367539E+04  0.10029147950E+04 0.  0.
        4    1    3    3  502    0  0.65009235633E+02 -0.49623556333E+03  0.74018035695E+03  0.89350126398E+03  0.12699999809E+01 0. -1.
       -4    1    3    3    0  502 -0.65009235633E+02  0.49623556333E+03  0.63387501656E+03  0.80763548990E+03  0.12699999809E+01 0.  1.
</event>
<event>
 5   0  0.1249195E-03  0.1004664E+04  0.7818609E-02  0.9303444E-01
       -1   -1    0    0    0  501  0.00000000000E+00  0.00000000000E+00  0.18565843864E+03  0.18565843871E+03  0.50400001928E-02 0. -1.
        1   -1    0    0  501    0  0.00000000000E+00  0.00000000000E+00 -0.13591484049E+04  0.13591484049E+04  0.50400001928E-02 0.  1.
    10030    2    1    2    0    0  0.00000000000E+00  0.00000000000E+00 -0.11734899663E+04  0.15448068437E+04  0.10046638658E+04 0.  0.
        2    1    3    3  502    0  0.31072428135E+02 -0.97363390648E+02 -0.13429932198E+04  0.13468763544E+04  0.25500000920E-02 0.  1.
       -2    1    3    3    0  502 -0.31072428135E+02  0.97363390648E+02  0.16950325349E+03  0.19793048926E+03  0.25500000920E-02 0. -1.
</event>
<event>
 5   0  0.1293575E-03  0.1001081E+04  0.7818609E-02  0.9307360E-01
       -1   -1    0    0    0  501  0.00000000000E+00  0.00000000000E+00  0.25309052955E+03  0.25309052960E+03  0.50400001928E-02 0.  1.
        1   -1    0    0  501    0  0.00000000000E+00  0.00000000000E+00 -0.98992620781E+03  0.98992620783E+03  0.50400001928E-02 0. -1.
    10030    2    1    2    0    0  0.00000000000E+00  0.00000000000E+00 -0.73683567826E+03  0.12430167374E+04  0.10010813118E+04 0.  0.
        4    1    3    3  502    0  0.53958256264E+02 -0.44280532280E+03 -0.86496868070E+02  0.45439120635E+03  0.12699999809E+01 0. -1.
       -4    1    3    3    0  502 -0.53958256264E+02  0.44280532280E+03 -0.65033881019E+03  0.78862553108E+03  0.12699999809E+01 0.  1.
</event>
<event>
 5   0  0.2255142E-03  0.1000449E+04  0.7818609E-02  0.9308053E-01
        2   -1    0    0  501    0  0.00000000000E+00  0.00000000000E+00  0.78554614870E+03  0.78554614871E+03  0.25500000920E-02 0.  1.
       -2   -1    0    0    0  501  0.00000000000E+00  0.00000000000E+00 -0.31853573454E+03  0.31853573455E+03  0.25500000920E-02 0. -1.
    10030    2    1    2    0    0  0.00000000000E+00  0.00000000000E+00  0.46701041416E+03  0.11040818833E+04  0.10004489382E+04 0.  0.
        4    1    3    3  502    0  0.44150465961E+03 -0.15205835312E+03  0.35551207957E+02  0.46830930857E+03  0.12699999809E+01 0. -1.
       -4    1    3    3    0  502 -0.44150465961E+03  0.15205835312E+03  0.43145920620E+03  0.63577257469E+03  0.12699999809E+01 0.  1.
</event>
<event>
 5   0  0.2264577E-03  0.1000845E+04  0.7818609E-02  0.9307618E-01
        2   -1    0    0  501    0  0.00000000000E+00  0.00000000000E+00  0.75518422150E+03  0.75518422151E+03  0.25500000920E-02 0.  1.
       -2   -1    0    0    0  501  0.00000000000E+00  0.00000000000E+00 -0.33160477849E+03  0.33160477850E+03  0.25500000920E-02 0. -1.
    10030    2    1    2    0    0  0.00000000000E+00  0.00000000000E+00  0.42357944302E+03  0.10867890000E+04  0.10008450360E+04 0.  0.
        5    1    3    3  502    0  0.28498614747E+03  0.36061639194E+03 -0.30353837293E+01  0.45966573718E+03  0.46999998093E+01 0. -1.
       -5    1    3    3    0  502 -0.28498614747E+03 -0.36061639194E+03  0.42661482675E+03  0.62712326283E+03  0.46999998093E+01 0.  1.
</event>
<event>
 5   0  0.1293575E-03  0.1020532E+04  0.7818609E-02  0.9286308E-01
        1   -1    0    0  501    0  0.00000000000E+00  0.00000000000E+00  0.84505498210E+03  0.84505498211E+03  0.50400001928E-02 0. -1.
       -1   -1    0    0    0  501  0.00000000000E+00  0.00000000000E+00 -0.30811148638E+03  0.30811148642E+03  0.50400001928E-02 0.  1.
    10030    2    1    2    0    0  0.00000000000E+00  0.00000000000E+00  0.53694349572E+03  0.11531664685E+04  0.10205315216E+04 0.  0.
        4    1    3    3  502    0  0.47062521040E+03  0.14207984006E+03  0.42297071380E+03  0.64852186336E+03  0.12699999809E+01 0. -1.
       -4    1    3    3    0  502 -0.47062521040E+03 -0.14207984006E+03  0.11397278192E+03  0.50464460518E+03  0.12699999809E+01 0.  1.
</event>
<event>
 5   0  0.2255142E-03  0.9987961E+03  0.7818609E-02  0.9309866E-01
        2   -1    0    0  501    0  0.00000000000E+00  0.00000000000E+00  0.97972275772E+03  0.97972275773E+03  0.25500000920E-02 0. -1.
       -2   -1    0    0    0  501  0.00000000000E+00  0.00000000000E+00 -0.25456020387E+03  0.25456020388E+03  0.25500000920E-02 0.  1.
    10030    2    1    2    0    0  0.00000000000E+00  0.00000000000E+00  0.72516255386E+03  0.12342829616E+04  0.99879612524E+03 0.  0.
        4    1    3    3  502    0  0.17118807482E+02  0.44947038846E+02 -0.25168938964E+03  0.25624685681E+03  0.12699999809E+01 0.  1.
       -4    1    3    3    0  502 -0.17118807482E+02 -0.44947038846E+02  0.97685194349E+03  0.97803610479E+03  0.12699999809E+01 0. -1.
</event>
<event>
 5   0  0.2277570E-03  0.9990734E+03  0.7818609E-02  0.9309562E-01
       -2   -1    0    0    0  501  0.00000000000E+00  0.00000000000E+00  0.51814443134E+03  0.51814443134E+03  0.25500000920E-02 0.  1.
        2   -1    0    0  501    0  0.00000000000E+00  0.00000000000E+00 -0.48159723962E+03  0.48159723962E+03  0.25500000920E-02 0. -1.
    10030    2    1    2    0    0  0.00000000000E+00  0.00000000000E+00  0.36547191719E+02  0.99974167097E+03  0.99907342645E+03 0.  0.
        3    1    3    3  502    0  0.25175283167E+02 -0.38384255432E+03  0.33718413526E+03  0.51152913178E+03  0.10100000352E+00 0.  1.
       -3    1    3    3    0  502 -0.25175283167E+02  0.38384255432E+03 -0.30063694354E+03  0.48821253918E+03  0.10100000352E+00 0. -1.
</event>
<event>
 5   0  0.1285769E-03  0.1005344E+04  0.7818609E-02  0.9302703E-01
        1   -1    0    0  501    0  0.00000000000E+00  0.00000000000E+00  0.14226192030E+04  0.14226192030E+04  0.50400001928E-02 0.  1.
       -1   -1    0    0    0  501  0.00000000000E+00  0.00000000000E+00 -0.17761556199E+03  0.17761556206E+03  0.50400001928E-02 0. -1.
    10030    2    1    2    0    0  0.00000000000E+00  0.00000000000E+00  0.12450036410E+04  0.16002347651E+04  0.10053443376E+04 0.  0.
        5    1    3    3  502    0 -0.14017744764E+03 -0.45498117885E+03  0.87915842454E+03  0.99979958760E+03  0.46999998093E+01 0.  1.
       -5    1    3    3    0  502  0.14017744764E+03  0.45498117885E+03  0.36584521651E+03  0.60043517750E+03  0.46999998093E+01 0. -1.
</event>
<event>
 5   0  0.2284843E-03  0.1003147E+04  0.7818609E-02  0.9305099E-01
        2   -1    0    0  501    0  0.00000000000E+00  0.00000000000E+00  0.12545923260E+04  0.12545923260E+04  0.25500000920E-02 0. -1.
       -2   -1    0    0    0  501  0.00000000000E+00  0.00000000000E+00 -0.20052425005E+03  0.20052425007E+03  0.25500000920E-02 0.  1.
    10030    2    1    2    0    0  0.00000000000E+00  0.00000000000E+00  0.10540680759E+04  0.14551165761E+04  0.10031474175E+04 0.  0.
        2    1    3    3  502    0  0.44807989698E+03 -0.46507446223E+02  0.84693777561E+03  0.95929251659E+03  0.25500000920E-02 0. -1.
       -2    1    3    3    0  502 -0.44807989698E+03  0.46507446223E+02  0.20713030033E+03  0.49582405947E+03  0.25500000920E-02 0.  1.
</event>
<event>
 5   0  0.1285769E-03  0.1004659E+04  0.7818609E-02  0.9303450E-01
        1   -1    0    0  501    0  0.00000000000E+00  0.00000000000E+00  0.33468973744E+03  0.33468973747E+03  0.50400001928E-02 0.  1.
       -1   -1    0    0    0  501  0.00000000000E+00  0.00000000000E+00 -0.75393640127E+03  0.75393640128E+03  0.50400001928E-02 0. -1.
    10030    2    1    2    0    0  0.00000000000E+00  0.00000000000E+00 -0.41924666383E+03  0.10886261388E+04  0.10046587007E+04 0.  0.
        5    1    3    3  502    0  0.83189870788E+02  0.34935256856E+03  0.17093464720E+03  0.39775434048E+03  0.46999998093E+01 0. -1.
       -5    1    3    3    0  502 -0.83189870788E+02 -0.34935256856E+03 -0.59018131103E+03  0.69087179828E+03  0.46999998093E+01 0.  1.
</event>
<event>
 5   0  0.2284843E-03  0.1001515E+04  0.7818609E-02  0.9306884E-01
        2   -1    0    0  501    0  0.00000000000E+00  0.00000000000E+00  0.71022820835E+03  0.71022820835E+03  0.25500000920E-02 0.  1.
       -2   -1    0    0    0  501  0.00000000000E+00  0.00000000000E+00 -0.35306720222E+03  0.35306720223E+03  0.25500000920E-02 0. -1.
    10030    2    1    2    0    0  0.00000000000E+00  0.00000000000E+00  0.35716100613E+03  0.10632954106E+04  0.10015154247E+04 0.  0.
        2    1    3    3  502    0  0.25487545441E+03  0.34954569877E+02  0.63470426439E+03  0.68485971006E+03  0.25500000920E-02 0.  1.
       -2    1    3    3    0  502 -0.25487545441E+03 -0.34954569877E+02 -0.27754325826E+03  0.37843570052E+03  0.25500000920E-02 0. -1.
</event>
<event>
 5   0  0.1293716E-03  0.1011907E+04  0.7818609E-02  0.9295581E-01
       -1   -1    0    0    0  501  0.00000000000E+00  0.00000000000E+00  0.14468675660E+03  0.14468675668E+03  0.50400001928E-02 0. -1.
        1   -1    0    0  501    0  0.00000000000E+00  0.00000000000E+00 -0.17692645962E+04  0.17692645962E+04  0.50400001928E-02 0.  1.
    10030    2    1    2    0    0  0.00000000000E+00  0.00000000000E+00 -0.16245778396E+04  0.19139513529E+04  0.10119074188E+04 0.  0.
        3    1    3    3  502    0 -0.12497513597E+03  0.26933007860E+03 -0.15871557549E+04  0.16146890959E+04  0.10100000352E+00 0.  1.
       -3    1    3    3    0  502  0.12497513597E+03 -0.26933007860E+03 -0.37422084716E+02  0.29926225702E+03  0.10100000352E+00 0. -1.
</event>
<event>
 5   0  0.2277570E-03  0.9996645E+03  0.7818609E-02  0.9308913E-01
       -2   -1    0    0    0  501  0.00000000000E+00  0.00000000000E+00  0.27951565410E+03  0.27951565411E+03  0.25500000920E-02 0. -1.
        2   -1    0    0  501    0  0.00000000000E+00  0.00000000000E+00 -0.89380421290E+03  0.89380421290E+03  0.25500000920E-02 0.  1.
    10030    2    1    2    0    0  0.00000000000E+00  0.00000000000E+00 -0.61428855880E+03  0.11733198670E+04  0.99966448215E+03 0.  0.
        3    1    3    3  502    0 -0.18264959517E+03 -0.22345627089E+03  0.17183830242E+03  0.33588985099E+03  0.10100000352E+00 0. -1.
       -3    1    3    3    0  502  0.18264959517E+03  0.22345627089E+03 -0.78612686122E+03  0.83743001603E+03  0.10100000352E+00 0.  1.
</event>
<event>
 5   0  0.1249195E-03  0.9999859E+03  0.7818609E-02  0.9308560E-01
       -1   -1    0    0    0  501  0.00000000000E+00  0.00000000000E+00  0.81847590444E+03  0.81847590446E+03  0.50400001928E-02 0.  1.
        1   -1    0    0  501    0  0.00000000000E+00  0.00000000000E+00 -0.30543713736E+03  0.30543713740E+03  0.50400001928E-02 0. -1.
    10030    2    1    2    0    0  0.00000000000E+00  0.00000000000E+00  0.51303876708E+03  0.11239130419E+04  0.99998587447E+03 0.  0.
        2    1    3    3  502    0 -0.71645721203E+02 -0.31816310223E+03  0.68247519970E+03  0.75639491484E+03  0.25500000920E-02 0.  1.
       -2    1    3    3    0  502  0.71645721203E+02  0.31816310223E+03 -0.16943643262E+03  0.36751812702E+03  0.25500000920E-02 0. -1.
</event>
<event>
 5   0  0.1353789E-03  0.9950755E+03  0.7818609E-02  0.9313962E-01
       -1   -1    0    0    0  501  0.00000000000E+00  0.00000000000E+00  0.23945776789E+03  0.23945776794E+03  0.50400001928E-02 0. -1.
        1   -1    0    0  501    0  0.00000000000E+00  0.00000000000E+00 -0.10337681448E+04  0.10337681448E+04  0.50400001928E-02 0.  1.
    10030    2    1    2    0    0  0.00000000000E+00  0.00000000000E+00 -0.79431037686E+03  0.12732259127E+04  0.99507549965E+03 0.  0.
        1    1    3    3  502    0  0.30216019106E+03 -0.39487691842E+03 -0.41987357436E+03  0.65078597114E+03  0.50400001928E-02 0.  1.
       -1    1    3    3    0  502 -0.30216019106E+03  0.39487691842E+03 -0.37443680250E+03  0.62243994157E+03  0.50400001928E-02 0. -1.
</event>
<event>
 5   0  0.2284843E-03  0.9988140E+03  0.7818609E-02  0.9309847E-01
       -2   -1    0    0    0  501  0.00000000000E+00  0.00000000000E+00  0.29987884990E+03  0.29987884991E+03  0.25500000920E-02 0.  1.
        2   -1    0    0  501    0  0.00000000000E+00  0.00000000000E+00 -0.83169366920E+03  0.83169366920E+03  0.25500000920E-02 0. -1.
    10030    2    1    2    0    0  0.00000000000E+00  0.00000000000E+00 -0.53181481930E+03  0.11315725191E+04  0.99881397868E+03 0.  0.
        2    1    3    3  502    0 -0.14860289880E+03  0.41897283855E+03 -0.52372060269E+03  0.68695293191E+03  0.25500000920E-02 0. -1.
       -2    1    3    3    0  502  0.14860289880E+03 -0.41897283855E+03 -0.80942166075E+01  0.44461958720E+03  0.25500000920E-02 0.  1.
</event>
<event>
 5   0  0.1293716E-03  0.1002769E+04  0.7818609E-02  0.9305513E-01
        1   -1    0    0  501    0  0.00000000000E+00  0.00000000000E+00  0.46801680024E+03  0.46801680027E+03  0.50400001928E-02 0.  1.
       -1   -1    0    0    0  501  0.00000000000E+00  0.00000000000E+00 -0.53713075162E+03  0.53713075165E+03  0.50400001928E-02 0. -1.
    10030    2    1    2    0    0  0.00000000000E+00  0.00000000000E+00 -0.69113951384E+02  0.10051475519E+04  0.10027685989E+04 0.  0.
        3    1    3    3  502    0  0.32135537031E+03 -0.38464073871E+03 -0.47565962587E+02  0.50346827397E+03  0.10100000352E+00 0. -1.
       -3    1    3    3    0  502 -0.32135537031E+03  0.38464073871E+03 -0.21547988797E+02  0.50167927795E+03  0.10100000352E+00 0.  1.
</event>
<event>
 5   0  0.2255142E-03  0.9990644E+03  0.7818609E-02  0.9309572E-01
       -2   -1    0    0    0  501  0.00000000000E+00  0.00000000000E+00  0.62238472259E+03  0.62238472259E+03  0.25500000920E-02 0. -1.
        2   -1    0    0  501    0  0.00000000000E+00  0.00000000000E+00 -0.40092953994E+03  0.40092953995E+03  0.25500000920E-02 0.  1.
    10030    2    1    2    0    0  0.00000000000E+00  0.00000000000E+00  0.22145518265E+03  0.10233142625E+04  0.99906440332E+03 0.  0.
        4    1    3    3  502    0  0.43081514849E+03  0.22920252843E+03  0.13876753598E+01  0.48799490750E+03  0.12699999809E+01 0.  1.
       -4    1    3    3    0  502 -0.43081514849E+03 -0.22920252843E+03  0.22006750729E+03  0.53531935503E+03  0.12699999809E+01 0. -1.
</event>
<event>
 5   0  0.2277570E-03  0.9926209E+03  0.7818609E-02  0.9316675E-01
        2   -1    0    0  501    0  0.00000000000E+00  0.00000000000E+00  0.15122421979E+04  0.15122421979E+04  0.25500000920E-02 0.  1.
       -2   -1    0    0    0  501  0.00000000000E+00  0.00000000000E+00 -0.16288666331E+03  0.16288666333E+03  0.25500000920E-02 0. -1.
    10030    2    1    2    0    0  0.00000000000E+00  0.00000000000E+00  0.13493555346E+04  0.16751288612E+04  0.99262094629E+03 0.  0.
        3    1    3    3  502    0 -0.38038890710E+03 -0.18363568109E+03  0.23491364738E+03  0.48332413135E+03  0.10100000352E+00 0. -1.
       -3    1    3    3    0  502  0.38038890710E+03  0.18363568109E+03  0.11144418872E+04  0.11918047299E+04  0.10100000352E+00 0.  1.
</event>
<event>
 5   0  0.8680125E-04  0.9637686E+03  0.7818609E-02  0.9349200E-01
       -4   -1    0    0    0  501  0.00000000000E+00  0.00000000000E+00  0.70334967013E+03  0.70335081671E+03  0.12699999809E+01 0. -1.
        4   -1    0    0  501    0  0.00000000000E+00  0.00000000000E+00 -0.33014959423E+03  0.33015203690E+03  0.12699999809E+01 0.  1.
    10030    2    1    2    0    0  0.00000000000E+00  0.00000000000E+00  0.37320007590E+03  0.10335028536E+04  0.96376856753E+03 0.  0.
        2    1    3    3  502    0 -0.19128184458E+03  0.32294469836E+03  0.51067591019E+03  0.63377591270E+03  0.25500000920E-02 0. -1.
       -2    1    3    3    0  502  0.19128184458E+03 -0.32294469836E+03 -0.13747583428E+03  0.39972694091E+03  0.25500000920E-02 0.  1.
</event>
<event>
 5   0  0.1293575E-03  0.1003576E+04  0.7818609E-02  0.9304631E-01
        1   -1    0    0  501    0  0.00000000000E+00  0.00000000000E+00  0.81063142139E+03  0.81063142140E+03  0.50400001928E-02 0. -1.
       -1   -1    0    0    0  501  0.00000000000E+00  0.00000000000E+00 -0.31061139557E+03  0.31061139561E+03  0.50400001928E-02 0.  1.
    10030    2    1    2    0    0  0.00000000000E+00  0.00000000000E+00  0.50002002582E+03  0.11212428170E+04  0.10035763192E+04 0.  0.
        4    1    3    3  502    0 -0.20597205607E+03 -0.45673264208E+03  0.28082153506E+03  0.57436185604E+03  0.12699999809E+01 0.  1.
       -4    1    3    3    0  502  0.20597205607E+03  0.45673264208E+03  0.21919849075E+03  0.54688096097E+03  0.12699999809E+01 0. -1.
</event>
<event>
 5   0  0.1293716E-03  0.9972647E+03  0.7818609E-02  0.9311550E-01
        1   -1    0    0  501    0  0.00000000000E+00  0.00000000000E+00  0.12175347175E+04  0.12175347175E+04  0.50400001928E-02 0.  1.
       -1   -1    0    0    0  501  0.00000000000E+00  0.00000000000E+00 -0.20421120426E+03  0.20421120432E+03  0.50400001928E-02 0. -1.
    10030    2    1    2    0    0  0.00000000000E+00  0.00000000000E+00  0.10133235132E+04  0.14217459218E+04  0.99726472101E+03 0.  0.
        3    1    3    3  502    0  0.24051837376E+03 -0.26580060566E+03  0.12525614539E+02  0.35868642476E+03  0.10100000352E+00 0. -1.
       -3    1    3    3    0  502 -0.24051837376E+03  0.26580060566E+03  0.10007978987E+04  0.10630594971E+04  0.10100000352E+00 0.  1.
</event>
<event>
 5   0  0.1285769E-03  0.1000536E+04  0.7818609E-02  0.9307958E-01
        1   -1    0    0  501    0  0.00000000000E+00  0.00000000000E+00  0.97507762734E+03  0.97507762736E+03  0.50400001928E-02 0.  1.
       -1   -1    0    0    0  501  0.00000000000E+00  0.00000000000E+00 -0.25666451852E+03  0.25666451856E+03  0.50400001928E-02 0. -1.
    10030    2    1    2    0    0  0.00000000000E+00  0.00000000000E+00  0.71841310883E+03  0.12317421459E+04  0.10005355162E+04 0.  0.
        5    1    3    3  502    0 -0.39722786525E+03 -0.24194295178E+03  0.13247540648E+03  0.48363022256E+03  0.46999998093E+01 0. -1.
       -5    1    3    3    0  502  0.39722786525E+03  0.24194295178E+03  0.58593770235E+03  0.74811192337E+03  0.46999998093E+01 0.  1.
</event>
<event>
 5   0  0.2255142E-03  0.1002713E+04  0.7818609E-02  0.9305574E-01
       -2   -1    0    0    0  501  0.00000000000E+00  0.00000000000E+00  0.30780658327E+03  0.30780658328E+03  0.25500000920E-02 0. -1.
        2   -1    0    0  501    0  0.00000000000E+00  0.00000000000E+00 -0.81661190821E+03  0.81661190822E+03  0.25500000920E-02 0.  1.
    10030    2    1    2    0    0  0.00000000000E+00  0.00000000000E+00 -0.50880532495E+03  0.11244184915E+04  0.10027133615E+04 0.  0.
        4    1    3    3  502    0  0.32444934006E+03  0.24885731951E+03 -0.57971679272E+03  0.70941561331E+03  0.12699999809E+01 0.  1.
       -4    1    3    3    0  502 -0.32444934006E+03 -0.24885731951E+03  0.70911467775E+02  0.41500287819E+03  0.12699999809E+01 0. -1.
</event>
<event>
 5   0  0.2204862E-03  0.1007485E+04  0.7818609E-02  0.9300373E-01
        2   -1    0    0  501    0  0.00000000000E+00  0.00000000000E+00  0.30334347171E+03  0.30334347172E+03  0.25500000920E-02 0. -1.
       -2   -1    0    0    0  501  0.00000000000E+00  0.00000000000E+00 -0.83653173380E+03  0.83653173380E+03  0.25500000920E-02 0.  1.
    10030    2    1    2    0    0  0.00000000000E+00  0.00000000000E+00 -0.53318826209E+03  0.11398752055E+04  0.10074848690E+04 0.  0.
        1    1    3    3  502    0 -0.28302048322E+03  0.35747010877E+03 -0.50891327486E+03  0.68328485563E+03  0.50400001928E-02 0.  1.
       -1    1    3    3    0  502  0.28302048322E+03 -0.35747010877E+03 -0.24274987231E+02  0.45659034989E+03  0.50400001928E-02 0. -1.
</event>
<event>
 5   0  0.2264577E-03  0.9993011E+03  0.7818609E-02  0.9309312E-01
       -2   -1    0    0    0  501  0.00000000000E+00  0.00000000000E+00  0.69644383081E+03  0.69644383082E+03  0.25500000920E-02 0. -1.
        2   -1    0    0  501    0  0.00000000000E+00  0.00000000000E+00 -0.35846492702E+03  0.35846492703E+03  0.25500000920E-02 0.  1.
    10030    2    1    2    0    0  0.00000000000E+00  0.00000000000E+00  0.33797890379E+03  0.10549087578E+04  0.99930112978E+03 0.  0.
        5    1    3    3  502    0  0.35723148351E+03  0.20385831330E+03 -0.13044231921E+03  0.43152037420E+03  0.46999998093E+01 0.  1.
       -5    1    3    3    0  502 -0.35723148351E+03 -0.20385831330E+03  0.46842122300E+03  0.62338838365E+03  0.46999998093E+01 0. -1.
</event>
<event>
 5   0  0.2255142E-03  0.9987190E+03  0.7818609E-02  0.9309951E-01
       -2   -1    0    0    0  501  0.00000000000E+00  0.00000000000E+00  0.20993929336E+03  0.20993929337E+03  0.25500000920E-02 0. -1.
        2   -1    0    0  501    0  0.00000000000E+00  0.00000000000E+00 -0.11877715557E+04  0.11877715557E+04  0.25500000920E-02 0.  1.
    10030    2    1    2    0    0  0.00000000000E+00  0.00000000000E+00 -0.97783226235E+03  0.13977108491E+04  0.99871902173E+03 0.  0.
        4    1    3    3  502    0  0.29042995202E+03 -0.30044496456E+03 -0.10630717169E+03  0.43118390672E+03  0.12699999809E+01 0. -1.
       -4    1    3    3    0  502 -0.29042995202E+03  0.30044496456E+03 -0.87152509066E+03  0.96652694236E+03  0.12699999809E+01 0.  1.
</event>
<event>
 5   0  0.2284843E-03  0.9993266E+03  0.7818609E-02  0.9309284E-01
       -2   -1    0    0    0  501  0.00000000000E+00  0.00000000000E+00  0.21162472542E+03  0.21162472543E+03  0.25500000920E-02 0.  1.
        2   -1    0    0  501    0  0.00000000000E+00  0.00000000000E+00 -0.11797460507E+04  0.11797460507E+04  0.25500000920E-02 0. -1.
    10030    2    1    2    0    0  0.00000000000E+00  0.00000000000E+00 -0.96812132526E+03  0.13913707761E+04  0.99932664139E+03 0.  0.
        2    1    3    3  502    0  0.87375106371E+02  0.95572799145E+02 -0.11559772588E+04  0.11632076307E+04  0.25500000920E-02 0. -1.
       -2    1    3    3    0  502 -0.87375106371E+02 -0.95572799145E+02  0.18785593357E+03  0.22816314543E+03  0.25500000920E-02 0.  1.
</event>
<event>
 5   0  0.2264577E-03  0.9885041E+03  0.7818609E-02  0.9321244E-01
        2   -1    0    0  501    0  0.00000000000E+00  0.00000000000E+00  0.53176573893E+03  0.53176573893E+03  0.25500000920E-02 0.  1.
       -2   -1    0    0    0  501  0.00000000000E+00  0.00000000000E+00 -0.45938475812E+03  0.45938475813E+03  0.25500000920E-02 0. -1.
    10030    2    1    2    0    0  0.00000000000E+00  0.00000000000E+00  0.72380980804E+02  0.99115049706E+03  0.98850407255E+03 0.  0.
        5    1    3    3  502    0 -0.31501367587E+03 -0.18328573252E+03  0.37090406948E+03  0.52001845591E+03  0.46999998093E+01 0.  1.
       -5    1    3    3    0  502  0.31501367587E+03  0.18328573252E+03 -0.29852308867E+03  0.47113204115E+03  0.46999998093E+01 0. -1.
</event>
<event>
 5   0  0.2264577E-03  0.9966621E+03  0.7818609E-02  0.9312213E-01
        2   -1    0    0  501    0  0.00000000000E+00  0.00000000000E+00  0.14565026989E+04  0.14565026989E+04  0.25500000920E-02 0. -1.
       -2   -1    0    0    0  501  0.00000000000E+00  0.00000000000E+00 -0.17050008894E+03  0.17050008896E+03  0.25500000920E-02 0.  1.
    10030    2    1    2    0    0  0.00000000000E+00  0.00000000000E+00  0.12860026100E+04  0.16270027879E+04  0.99666210869E+03 0.  0.
        5    1    3    3  502    0 -0.32951586032E+02 -0.76341047730E+02  0.14450618848E+04  0.14474597416E+04  0.46999998093E+01 0. -1.
       -5    1    3    3    0  502  0.32951586032E+02  0.76341047730E+02 -0.15905927479E+03  0.17954304633E+03  0.46999998093E+01 0.  1.
</event>
<event>
 5   0  0.1249195E-03  0.9967122E+03  0.7818609E-02  0.9312158E-01
        1   -1    0    0  501    0  0.00000000000E+00  0.00000000000E+00  0.21719796928E+03  0.21719796934E+03  0.50400001928E-02 0.  1.
       -1   -1    0    0    0  501  0.00000000000E+00  0.00000000000E+00 -0.11434673241E+04  0.11434673241E+04  0.50400001928E-02 0. -1.
    10030    2    1    2    0    0  0.00000000000E+00  0.00000000000E+00 -0.92626935483E+03  0.13606652935E+04  0.99671215661E+03 0.  0.
        2    1    3    3  502    0 -0.12028182086E+02  0.32655835219E+02  0.21553717707E+03  0.21832854931E+03  0.25500000920E-02 0.  1.
       -2    1    3    3    0  502  0.12028182086E+02 -0.32655835219E+02 -0.11418065319E+04  0.11423367442E+04  0.25500000920E-02 0. -1.
</event>
<event>
 5   0  0.1249195E-03  0.1001471E+04  0.7818609E-02  0.9306933E-01
       -1   -1    0    0    0  501  0.00000000000E+00  0.00000000000E+00  0.62995521195E+03  0.62995521197E+03  0.50400001928E-02 0. -1.
        1   -1    0    0  501    0  0.00000000000E+00  0.00000000000E+00 -0.39802170079E+03  0.39802170082E+03  0.50400001928E-02 0.  1.
    10030    2    1    2    0    0  0.00000000000E+00  0.00000000000E+00  0.23193351116E+03  0.10279769128E+04  0.10014706085E+04 0.  0.
        2    1    3    3  502    0 -0.31473639969E+02 -0.22115711777E+03  0.57597394569E+03  0.61777588725E+03  0.25500000920E-02 0. -1.
       -2    1    3    3    0  502  0.31473639969E+02  0.22115711777E+03 -0.34404043453E+03  0.41020102553E+03  0.25500000920E-02 0.  1.
</event>
<event>
 5   0  0.8680125E-04  0.9960353E+03  0.7818609E-02  0.9312904E-01
       -4   -1    0    0    0  501  0.00000000000E+00  0.00000000000E+00  0.80634913875E+03  0.80635013887E+03  0.12699999809E+01 0. -1.
        4   -1    0    0  501    0  0.00000000000E+00  0.00000000000E+00 -0.30758332531E+03  0.30758594719E+03  0.12699999809E+01 0.  1.
    10030    2    1    2    0    0  0.00000000000E+00  0.00000000000E+00  0.49876581344E+03  0.11139360861E+04  0.99603527406E+03 0.  0.
        3    1    3    3  502    0  0.35294088525E+03  0.11873389830E+03 -0.12045204600E+03  0.39137413388E+03  0.10100000352E+00 0.  1.
       -3    1    3    3    0  502 -0.35294088525E+03 -0.11873389830E+03  0.61921785944E+03  0.72256195218E+03  0.10100000352E+00 0. -1.
</event>
<event>
 5   0  0.1285769E-03  0.1000641E+04  0.7818609E-02  0.9307842E-01
       -1   -1    0    0    0  501  0.00000000000E+00  0.00000000000E+00  0.28800346518E+03  0.28800346523E+03  0.50400001928E-02 0.  1.
        1   -1    0    0  501    0  0.00000000000E+00  0.00000000000E+00 -0.86915765589E+03  0.86915765590E+03  0.50400001928E-02 0. -1.
    10030    2    1    2    0    0  0.00000000000E+00  0.00000000000E+00 -0.58115419071E+03  0.11571611211E+04  0.10006406282E+04 0.  0.
        5    1    3    3  502    0  0.49504523516E+03  0.38862308405E+02 -0.22006140771E+03  0.54316588353E+03  0.46999998093E+01 0.  1.
       -5    1    3    3    0  502 -0.49504523516E+03 -0.38862308405E+02 -0.36109278300E+03  0.61399523760E+03  0.46999998093E+01 0. -1.
</event>
<event>
 5   0  0.2277570E-03  0.1001109E+04  0.7818609E-02  0.9307330E-01
       -2   -1    0    0    0  501  0.00000000000E+00  0.00000000000E+00  0.35235292336E+03  0.35235292337E+03  0.25500000920E-02 0. -1.
        2   -1    0    0  501    0  0.00000000000E+00  0.00000000000E+00 -0.71108984293E+03  0.71108984293E+03  0.25500000920E-02 0.  1.
    10030    2    1    2    0    0  0.00000000000E+00  0.00000000000E+00 -0.35873691957E+03  0.10634427663E+04  0.10011085554E+04 0.  0.
        3    1    3    3  502    0 -0.10328450570E+03  0.46036188303E+03 -0.17641303296E+01  0.47180915085E+03  0.10100000352E+00 0. -1.
       -3    1    3    3    0  502  0.10328450570E+03 -0.46036188303E+03 -0.35697278924E+03  0.59163361545E+03  0.10100000352E+00 0.  1.
</event>
<event>
 5   0  0.1353789E-03  0.9992613E+03  0.7818609E-02  0.9309355E-01
        1   -1    0    0  501    0  0.00000000000E+00  0.00000000000E+00  0.82177407399E+03  0.82177407401E+03  0.50400001928E-02 0. -1.
       -1   -1    0    0    0  501  0.00000000000E+00  0.00000000000E+00 -0.30377059448E+03  0.30377059452E+03  0.50400001928E-02 0.  1.
    10030    2    1    2    0    0  0.00000000000E+00  0.00000000000E+00  0.51800347952E+03  0.11255446685E+04  0.99926132521E+03 0.  0.
        1    1    3    3  502    0 -0.46191905223E+03 -0.10658110052E+03  0.43674832627E+03  0.64457570721E+03  0.50400001928E-02 0. -1.
       -1    1    3    3    0  502  0.46191905223E+03  0.10658110052E+03  0.81255153248E+02  0.48096896132E+03  0.50400001928E-02 0.  1.
</event>
<event>
 5   0  0.1249195E-03  0.9985763E+03  0.7818609E-02  0.9310108E-01
        1   -1    0    0  501    0  0.00000000000E+00  0.00000000000E+00  0.65053360415E+03  0.65053360417E+03  0.50400001928E-02 0.  1.
       -1   -1    0    0    0  501  0.00000000000E+00  0.00000000000E+00 -0.38320640339E+03  0.38320640343E+03  0.50400001928E-02 0. -1.
    10030    2    1    2    0    0  0.00000000000E+00  0.00000000000E+00  0.26732720076E+03  0.10337400076E+04  0.99857627202E+03 0.  0.
        2    1    3    3  502    0  0.25667303738E+03  0.29486881209E+03  0.45518039410E+03  0.60001487952E+03  0.25500000920E-02 0.  1.
       -2    1    3    3    0  502 -0.25667303738E+03 -0.29486881209E+03 -0.18785319335E+03  0.43372512807E+03  0.25500000920E-02 0. -1.
</event>
<event>
 5   0  0.1285769E-03  0.1000435E+04  0.7818609E-02  0.9308068E-01
        1   -1    0    0  501    0  0.00000000000E+00  0.00000000000E+00  0.15869076802E+04  0.15869076802E+04  0.50400001928E-02 0. -1.
       -1   -1    0    0    0  501  0.00000000000E+00  0.00000000000E+00 -0.15767625460E+03  0.15767625468E+03  0.50400001928E-02 0.  1.
    10030    2    1    2    0    0  0.00000000000E+00  0.00000000000E+00  0.14292314256E+04  0.17445839349E+04  0.10004352243E+04 0.  0.
        5    1    3    3  502    0  0.30325330630E+03  0.37086125753E+03  0.96547770620E+03  0.10778079288E+04  0.46999998093E+01 0. -1.
       -5    1    3    3    0  502 -0.30325330630E+03 -0.37086125753E+03  0.46375371943E+03  0.66677600617E+03  0.46999998093E+01 0.  1.
</event>
<event>
 5   0  0.2284843E-03  0.9980859E+03  0.7818609E-02  0.9310647E-01
        2   -1    0    0  501    0  0.00000000000E+00  0.00000000000E+00  0.31421685945E+03  0.31421685946E+03  0.25500000920E-02 0. -1.
       -2   -1    0    0    0  501  0.00000000000E+00  0.00000000000E+00 -0.79258597765E+03  0.79258597766E+03  0.25500000920E-02 0.  1.
    10030    2    1    2    0    0  0.00000000000E+00  0.00000000000E+00 -0.47836911821E+03  0.11068028371E+04  0.99808592165E+03 0.  0.
        2    1    3    3  502    0 -0.36832634164E+03  0.20322362499E+03 -0.53690519834E+03  0.68207868147E+03  0.25500000920E-02 0.  1.
       -2    1    3    3    0  502  0.36832634164E+03 -0.20322362499E+03  0.58536080135E+02  0.42472415564E+03  0.25500000920E-02 0. -1.
</event>
<event>
 5   0  0.2255142E-03  0.9976998E+03  0.7818609E-02  0.9311071E-01
        2   -1    0    0  501    0  0.00000000000E+00  0.00000000000E+00  0.10422057917E+04  0.10422057917E+04  0.25500000920E-02 0.  1.
       -2   -1    0    0    0  501  0.00000000000E+00  0.00000000000E+00 -0.23877358896E+03  0.23877358898E+03  0.25500000920E-02 0. -1.
    10030    2    1    2    0    0  0.00000000000E+00  0.00000000000E+00  0.80343220274E+03  0.12809793807E+04  0.99769978918E+03 0.  0.
        4    1    3    3  502    0 -0.34802016066E+02 -0.49459060739E+03  0.33117506771E+03  0.59624624747E+03  0.12699999809E+01 0. -1.
       -4    1    3    3    0  502  0.34802016066E+02  0.49459060739E+03  0.47225713502E+03  0.68473313321E+03  0.12699999809E+01 0.  1.
</event>
<event>
 5   0  0.1293716E-03  0.9989367E+03  0.7818609E-02  0.9309712E-01
        1   -1    0    0  501    0  0.00000000000E+00  0.00000000000E+00  0.67162298328E+03  0.67162298330E+03  0.50400001928E-02 0.  1.
       -1   -1    0    0    0  501  0.00000000000E+00  0.00000000000E+00 -0.37144145465E+03  0.37144145469E+03  0.50400001928E-02 0. -1.
    10030    2    1    2    0    0  0.00000000000E+00  0.00000000000E+00  0.30018152863E+03  0.10430644380E+04  0.99893667050E+03 0.  0.
        3    1    3    3  502    0 -0.40817972719E+02  0.20714532532E+03 -0.32255642244E+03  0.38550998503E+03  0.10100000352E+00 0. -1.
       -3    1    3    3    0  502  0.40817972719E+02 -0.20714532532E+03  0.62273795107E+03  0.65755445296E+03  0.10100000352E+00 0.  1.
</event>
<event>
 5   0  0.2284843E-03  0.1007139E+04  0.7818609E-02  0.9300749E-01
       -2   -1    0    0    0  501  0.00000000000E+00  0.00000000000E+00  0.24528923711E+03  0.24528923712E+03  0.25500000920E-02 0.  1.
        2   -1    0    0  501    0  0.00000000000E+00  0.00000000000E+00 -0.10338094770E+04  0.10338094770E+04  0.25500000920E-02 0. -1.
    10030    2    1    2    0    0  0.00000000000E+00  0.00000000000E+00 -0.78852023993E+03  0.12790987142E+04  0.10071391919E+04 0.  0.
        2    1    3    3  502    0  0.18580724448E+03  0.45629306667E+03 -0.52657915993E+03  0.72111948141E+03  0.25500000920E-02 0. -1.
       -2    1    3    3    0  502 -0.18580724448E+03 -0.45629306667E+03 -0.26194108000E+03  0.55797923276E+03  0.25500000920E-02 0.  1.
</event>
<event>
 5   0  0.1285769E-03  0.1000344E+04  0.7818609E-02  0.9308168E-01
        1   -1    0    0  501    0  0.00000000000E+00  0.00000000000E+00  0.18459939750E+04  0.18459939750E+04  0.50400001928E-02 0.  1.
       -1   -1    0    0    0  501  0.00000000000E+00  0.00000000000E+00 -0.13552151529E+03  0.13552151539E+03  0.50400001928E-02 0. -1.
    10030    2    1    2    0    0  0.00000000000E+00  0.00000000000E+00  0.17104724597E+04  0.19815154904E+04  0.10003437426E+04 0.  0.
        5    1    3    3  502    0  0.35957314860E+03  0.26601654865E+03  0.12985723135E+04  0.13734517818E+04  0.46999998093E+01 0. -1.
       -5    1    3    3    0  502 -0.35957314860E+03 -0.26601654865E+03  0.41190014622E+03  0.60806370868E+03  0.46999998093E+01 0.  1.
</event>
<event>
 5   0  0.8680125E-04  0.1000427E+04  0.7818609E-02  0.9308077E-01
       -3   -1    0    0    0  501  0.00000000000E+00  0.00000000000E+00  0.10069222926E+03  0.10069227991E+03  0.10100000352E+00 0. -1.
        3   -1    0    0  501    0  0.00000000000E+00  0.00000000000E+00 -0.24849333673E+04  0.24849333693E+04  0.10100000352E+00 0.  1.
    10030    2    1    2    0    0  0.00000000000E+00  0.00000000000E+00 -0.23842411380E+04  0.25856256492E+04  0.10004270057E+04 0.  0.
        4    1    3    3  502    0  0.37071589616E+03 -0.10024540803E+03 -0.20205093474E+04  0.20566815635E+04  0.12699999809E+01 0.  1.
       -4    1    3    3    0  502 -0.37071589616E+03  0.10024540803E+03 -0.36373179059E+03  0.52894408578E+03  0.12699999809E+01 0. -1.
</event>
<event>
 5   0  0.1293575E-03  0.1001345E+04  0.7818609E-02  0.9307071E-01
        1   -1    0    0  501    0  0.00000000000E+00  0.00000000000E+00  0.10067870803E+04  0.10067870803E+04  0.50400001928E-02 0.  1.
       -1   -1    0    0    0  501  0.00000000000E+00  0.00000000000E+00 -0.24898318922E+03  0.24898318927E+03  0.50400001928E-02 0. -1.
    10030    2    1    2    0    0  0.00000000000E+00  0.00000000000E+00  0.75780389109E+03  0.12557702696E+04  0.10013452115E+04 0.  0.
        4    1    3    3  502    0 -0.13403181548E+03  0.40258667547E+01  0.98384694901E+03  0.99294368780E+03  0.12699999809E+01 0.  1.
       -4    1    3    3    0  502  0.13403181548E+03 -0.40258667547E+01 -0.22604305791E+03  0.26282658179E+03  0.12699999809E+01 0. -1.
</event>
<event>
 5   0  0.1249195E-03  0.1012257E+04  0.7818609E-02  0.9295202E-01
        1   -1    0    0  501    0  0.00000000000E+00  0.00000000000E+00  0.54388101493E+03  0.54388101495E+03  0.50400001928E-02 0. -1.
       -1   -1    0    0    0  501  0.00000000000E+00  0.00000000000E+00 -0.47099683050E+03  0.47099683053E+03  0.50400001928E-02 0.  1.
    10030    2    1    2    0    0  0.00000000000E+00  0.00000000000E+00  0.72884184427E+02  0.10148778455E+04  0.10122573472E+04 0.  0.
        2    1    3    3  502    0 -0.56109584262E+02 -0.16046479127E+03  0.51440361321E+03  0.54176407409E+03  0.25500000920E-02 0. -1.
       -2    1    3    3    0  502  0.56109584262E+02  0.16046479127E+03 -0.44151942878E+03  0.47311377139E+03  0.25500000920E-02 0.  1.
</event>
<event>
 5   0  0.1285769E-03  0.1000345E+04  0.7818609E-02  0.9308166E-01
        1   -1    0    0  501    0  0.00000000000E+00  0.00000000000E+00  0.49274985263E+03  0.49274985266E+03  0.50400001928E-02 0.  1.
       -1   -1    0    0    0  501  0.00000000000E+00  0.00000000000E+00 -0.50770702860E+03  0.50770702863E+03  0.50400001928E-02 0. -1.
    10030    2    1    2    0    0  0.00000000000E+00  0.00000000000E+00 -0.14957175970E+02  0.10004568813E+04  0.10003450676E+04 0.  0.
        5    1    3    3  502    0 -0.38261077633E+03  0.19445116872E+03  0.24935395267E+03  0.49638870544E+03  0.46999998093E+01 0.  1.
       -5    1    3    3    0  502  0.38261077633E+03 -0.19445116872E+03 -0.26431112864E+03  0.50406817585E+03  0.46999998093E+01 0. -1.
</event>
<event>
 5   0  0.1353789E-03  0.1006927E+04  0.7818609E-02  0.9300980E-01
        1   -1    0    0  501    0  0.00000000000E+00  0.00000000000E+00  0.94596226618E+03  0.94596226619E+03  0.50400001928E-02 0. -1.
       -1   -1    0    0    0  501  0.00000000000E+00  0.00000000000E+00 -0.26795533601E+03  0.26795533605E+03  0.50400001928E-02 0.  1.
    10030    2    1    2    0    0  0.00000000000E+00  0.00000000000E+00  0.67800693017E+03  0.12139176022E+04  0.10069272802E+04 0.  0.
        1    1    3    3  502    0  0.19013220915E+03 -0.94842874087E+02 -0.21125562627E+03  0.29962370964E+03  0.50400001928E-02 0.  1.
       -1    1    3    3    0  502 -0.19013220915E+03  0.94842874087E+02  0.88926255645E+03  0.91429389260E+03  0.50400001928E-02 0. -1.
</event>
<event>
 5   0  0.2277570E-03  0.9980926E+03  0.7818609E-02  0.9310639E-01
        2   -1    0    0  501    0  0.00000000000E+00  0.00000000000E+00  0.45000277373E+03  0.45000277374E+03  0.25500000920E-02 0. -1.
       -2   -1    0    0    0  501  0.00000000000E+00  0.00000000000E+00 -0.55343477874E+03  0.55343477874E+03  0.25500000920E-02 0.  1.
    10030    2    1    2    0    0  0.00000000000E+00  0.00000000000E+00 -0.10343200501E+03  0.10034375525E+04  0.99809255186E+03 0.  0.
        3    1    3    3  502    0 -0.24068364055E+03  0.43068307283E+03  0.23723505991E+02  0.49394264747E+03  0.10100000352E+00 0.  1.
       -3    1    3    3    0  502  0.24068364055E+03 -0.43068307283E+03 -0.12715551100E+03  0.50949490501E+03  0.10100000352E+00 0. -1.
</event>
<event>
 5   0  0.2277570E-03  0.1000185E+04  0.7818609E-02  0.9308342E-01
        2   -1    0    0  501    0  0.00000000000E+00  0.00000000000E+00  0.90962652664E+03  0.90962652665E+03  0.25500000920E-02 0.  1.
       -2   -1    0    0    0  501  0.00000000000E+00  0.00000000000E+00 -0.27493983480E+03  0.27493983481E+03  0.25500000920E-02 0. -1.
    10030    2    1    2    0    0  0.00000000000E+00  0.00000000000E+00  0.63468669184E+03  0.11845663615E+04  0.10001851168E+04 0.  0.
        3    1    3    3  502    0  0.36380934007E+03 -0.12272523384E+03 -0.62154142298E+02  0.38894969668E+03  0.10100000352E+00 0. -1.
       -3    1    3    3    0  502 -0.36380934007E+03  0.12272523384E+03  0.69684083414E+03  0.79561666478E+03  0.10100000352E+00 0.  1.
</event>
<event>
 5   0  0.1285769E-03  0.9981377E+03  0.7818609E-02  0.9310590E-01
       -1   -1    0    0    0  501  0.00000000000E+00  0.00000000000E+00  0.38228799815E+03  0.38228799818E+03  0.50400001928E-02 0.  1.
        1   -1    0    0  501    0  0.00000000000E+00  0.00000000000E+00 -0.65152373019E+03  0.65152373021E+03  0.50400001928E-02 0. -1.
    10030    2    1    2    0    0  0.00000000000E+00  0.00000000000E+00 -0.26923573205E+03  0.10338117284E+04  0.99813767104E+03 0.  0.
        5    1    3    3  502    0 -0.21000565965E+03  0.42847166475E+03 -0.28598230548E+03  0.55632572619E+03  0.46999998093E+01 0. -1.
       -5    1    3    3    0  502  0.21000565965E+03 -0.42847166475E+03  0.16746573433E+02  0.47748600220E+03  0.46999998093E+01 0.  1.
</event>
<event>
 5   0  0.1293716E-03  0.1001514E+04  0.7818609E-02  0.9306886E-01
        1   -1    0    0  501    0  0.00000000000E+00  0.00000000000E+00  0.78774113725E+03  0.78774113726E+03  0.50400001928E-02 0. -1.
       -1   -1    0    0    0  501  0.00000000000E+00  0.00000000000E+00 -0.31832475688E+03  0.31832475691E+03  0.50400001928E-02 0.  1.
    10030    2    1    2    0    0  0.00000000000E+00  0.00000000000E+00  0.46941638037E+03  0.11060658942E+04  0.10015138662E+04 0.  0.
        3    1    3    3  502    0 -0.31720690102E+03  0.33132339355E+03  0.45658445169E+03  0.64719763666E+03  0.10100000352E+00 0. -1.
       -3    1    3    3    0  502  0.31720690102E+03 -0.33132339355E+03  0.12831928683E+02  0.45886825752E+03  0.10100000352E+00 0.  1.
</event>
<event>
 5   0  0.1293716E-03  0.1009312E+04  0.7818609E-02  0.9298390E-01
        1   -1    0    0  501    0  0.00000000000E+00  0.00000000000E+00  0.11994501612E+04  0.11994501612E+04  0.50400001928E-02 0.  1.
       -1   -1    0    0    0  501  0.00000000000E+00  0.00000000000E+00 -0.21232877861E+03  0.21232877867E+03  0.50400001928E-02 0. -1.
    10030    2    1    2    0    0  0.00000000000E+00  0.00000000000E+00  0.98712138254E+03  0.14117789398E+04  0.10093122169E+04 0.  0.
        3    1    3    3  502    0  0.17314774357E+03 -0.26274025947E+03  0.10454308684E+04  0.10917592664E+04  0.10100000352E+00 0.  1.
       -3    1    3    3    0  502 -0.17314774357E+03  0.26274025947E+03 -0.58309485820E+02  0.32001967344E+03  0.10100000352E+00 0. -1.
</event>
<event>
 5   0  0.2284843E-03  0.1001552E+04  0.7818609E-02  0.9306845E-01
       -2   -1    0    0    0  501  0.00000000000E+00  0.00000000000E+00  0.12312409075E+03  0.12312409078E+03  0.25500000920E-02 0.  1.
        2   -1    0    0  501    0  0.00000000000E+00  0.00000000000E+00 -0.20367774718E+04  0.20367774718E+04  0.25500000920E-02 0. -1.
    10030    2    1    2    0    0  0.00000000000E+00  0.00000000000E+00 -0.19136533810E+04  0.21599015625E+04  0.10015515450E+04 0.  0.
        2    1    3    3  502    0 -0.16039797466E+03 -0.47073799864E+03 -0.83007330163E+03  0.96764841741E+03  0.25500000920E-02 0.  1.
       -2    1    3    3    0  502  0.16039797466E+03  0.47073799864E+03 -0.10835800794E+04  0.11922531451E+04  0.25500000920E-02 0. -1.
</event>
<event>
 5   0  0.2284843E-03  0.9895791E+03  0.7818609E-02  0.9320049E-01
       -2   -1    0    0    0  501  0.00000000000E+00  0.00000000000E+00  0.36820923080E+03  0.36820923081E+03  0.25500000920E-02 0. -1.
        2   -1    0    0  501    0  0.00000000000E+00  0.00000000000E+00 -0.66488473218E+03  0.66488473219E+03  0.25500000920E-02 0.  1.
    10030    2    1    2    0    0  0.00000000000E+00  0.00000000000E+00 -0.29667550138E+03  0.10330939630E+04  0.98957909399E+03 0.  0.
        2    1    3    3  502    0  0.46158046209E+02  0.49105751750E+03 -0.18942104499E+03  0.52834494700E+03  0.25500000920E-02 0.  1.
       -2    1    3    3    0  502 -0.46158046209E+02 -0.49105751750E+03 -0.10725445639E+03  0.50474901600E+03  0.25500000920E-02 0. -1.
</event>
<event>
 5   0  0.1293575E-03  0.9864340E+03  0.7818609E-02  0.9323550E-01
        1   -1    0    0  501    0  0.00000000000E+00  0.00000000000E+00  0.63320253347E+03  0.63320253349E+03  0.50400001928E-02 0. -1.
       -1   -1    0    0    0  501  0.00000000000E+00  0.00000000000E+00 -0.38417883290E+03  0.38417883293E+03  0.50400001928E-02 0.  1.
    10030    2    1    2    0    0  0.00000000000E+00  0.00000000000E+00  0.24902370057E+03  0.10173813664E+04  0.98643400250E+03 0.  0.
        4    1    3    3  502    0  0.24899139208E+03  0.34536996067E+03  0.38128907807E+03  0.57154185937E+03  0.12699999809E+01 0. -1.
       -4    1    3    3    0  502 -0.24899139208E+03 -0.34536996067E+03 -0.13226537749E+03  0.44583950705E+03  0.12699999809E+01 0.  1.
</event>
<event>
 5   0  0.2204862E-03  0.1000563E+04  0.7818609E-02  0.9307927E-01
        2   -1    0    0  501    0  0.00000000000E+00  0.00000000000E+00  0.67029174872E+03  0.67029174873E+03  0.25500000920E-02 0.  1.
       -2   -1    0    0    0  501  0.00000000000E+00  0.00000000000E+00 -0.37339232546E+03  0.37339232547E+03  0.25500000920E-02 0. -1.
    10030    2    1    2    0    0  0.00000000000E+00  0.00000000000E+00  0.29689942326E+03  0.10436840742E+04  0.10005634309E+04 0.  0.
        1    1    3    3  502    0 -0.52125497877E+02  0.14791664751E+03  0.64398678979E+03  0.66280871116E+03  0.50400001928E-02 0.  1.
       -1    1    3    3    0  502  0.52125497877E+02 -0.14791664751E+03 -0.34708736653E+03  0.38087536304E+03  0.50400001928E-02 0. -1.
</event>
<event>
 5   0  0.8680125E-04  0.9948179E+03  0.7818609E-02  0.9314247E-01
        3   -1    0    0  501    0  0.00000000000E+00  0.00000000000E+00  0.62928086245E+03  0.62928087056E+03  0.10100000352E+00 0.  1.
       -3   -1    0    0    0  501  0.00000000000E+00  0.00000000000E+00 -0.39317208975E+03  0.39317210272E+03  0.10100000352E+00 0. -1.
    10030    2    1    2    0    0  0.00000000000E+00  0.00000000000E+00  0.23610877270E+03  0.10224529733E+04  0.99481793813E+03 0.  0.
        4    1    3    3  502    0  0.48975913800E+03  0.76765652430E+02  0.15989257833E+03  0.52088792283E+03  0.12699999809E+01 0. -1.
       -4    1    3    3    0  502 -0.48975913800E+03 -0.76765652430E+02  0.76216194368E+02  0.50156505045E+03  0.12699999809E+01 0.  1.
</event>
<event>
 5   0  0.2264577E-03  0.1000855E+04  0.7818609E-02  0.9307607E-01
       -2   -1    0    0    0  501  0.00000000000E+00  0.00000000000E+00  0.14884466348E+03  0.14884466350E+03  0.25500000920E-02 0.  1.
        2   -1    0    0  501    0  0.00000000000E+00  0.00000000000E+00 -0.16824769351E+04  0.16824769351E+04  0.25500000920E-02 0. -1.
    10030    2    1    2    0    0  0.00000000000E+00  0.00000000000E+00 -0.15336322716E+04  0.18313215986E+04  0.10008550609E+04 0.  0.
        5    1    3    3  502    0 -0.30219459251E+03  0.38386947276E+03 -0.96497366534E+03  0.10816069566E+04  0.46999998093E+01 0. -1.
       -5    1    3    3    0  502  0.30219459251E+03 -0.38386947276E+03 -0.56865860625E+03  0.74971464193E+03  0.46999998093E+01 0.  1.
</event>
<event>
 5   0  0.2264577E-03  0.9880602E+03  0.7818609E-02  0.9321738E-01
       -2   -1    0    0    0  501  0.00000000000E+00  0.00000000000E+00  0.80995038874E+03  0.80995038875E+03  0.25500000920E-02 0.  1.
        2   -1    0    0  501    0  0.00000000000E+00  0.00000000000E+00 -0.30133416762E+03  0.30133416763E+03  0.25500000920E-02 0. -1.
    10030    2    1    2    0    0  0.00000000000E+00  0.00000000000E+00  0.50861622112E+03  0.11112845564E+04  0.98806017269E+03 0.  0.
        5    1    3    3  502    0 -0.34669931695E+03  0.27474071174E+03  0.69714749988E+01  0.44244046664E+03  0.46999998093E+01 0. -1.
       -5    1    3    3    0  502  0.34669931695E+03 -0.27474071174E+03  0.50164474612E+03  0.66884408974E+03  0.46999998093E+01 0.  1.
</event>
<event>
 5   0  0.2284843E-03  0.1000781E+04  0.7818609E-02  0.9307688E-01
        2   -1    0    0  501    0  0.00000000000E+00  0.00000000000E+00  0.91463263768E+03  0.91463263768E+03  0.25500000920E-02 0. -1.
       -2   -1    0    0    0  501  0.00000000000E+00  0.00000000000E+00 -0.27376105128E+03  0.27376105130E+03  0.25500000920E-02 0.  1.
    10030    2    1    2    0    0  0.00000000000E+00  0.00000000000E+00  0.64087158640E+03  0.11883936890E+04  0.10007812797E+04 0.  0.
        2    1    3    3  502    0  0.17092153122E+03 -0.12103984872E+03 -0.21920964123E+03  0.30317928957E+03  0.25500000920E-02 0.  1.
       -2    1    3    3    0  502 -0.17092153122E+03  0.12103984872E+03  0.86008122762E+03  0.88521439941E+03  0.25500000920E-02 0. -1.
</event>
<event>
 5   0  0.1285769E-03  0.1026109E+04  0.7818609E-02  0.9280363E-01
        1   -1    0    0  501    0  0.00000000000E+00  0.00000000000E+00  0.15208454706E+04  0.15208454706E+04  0.50400001928E-02 0. -1.
       -1   -1    0    0    0  501  0.00000000000E+00  0.00000000000E+00 -0.17307809059E+03  0.17307809067E+03  0.50400001928E-02 0.  1.
    10030    2    1    2    0    0  0.00000000000E+00  0.00000000000E+00  0.13477673800E+04  0.16939235613E+04  0.10261092149E+04 0.  0.
        5    1    3    3  502    0  0.86479986090E+02 -0.48556281933E+03  0.44069727718E+03  0.66142741070E+03  0.46999998093E+01 0.  1.
       -5    1    3    3    0  502 -0.86479986090E+02  0.48556281933E+03  0.90707010282E+03  0.10324961506E+04  0.46999998093E+01 0. -1.
</event>
<event>
 5   0  0.2277570E-03  0.1007030E+04  0.7818609E-02  0.9300868E-01
        2   -1    0    0  501    0  0.00000000000E+00  0.00000000000E+00  0.58599050045E+03  0.58599050046E+03  0.25500000920E-02 0. -1.
       -2   -1    0    0    0  501  0.00000000000E+00  0.00000000000E+00 -0.43264762632E+03  0.43264762632E+03  0.25500000920E-02 0.  1.
    10030    2    1    2    0    0  0.00000000000E+00  0.00000000000E+00  0.15334287414E+03  0.10186381268E+04  0.10070300871E+04 0.  0.
        3    1    3    3  502    0  0.89591789973E+02 -0.27169801832E+02 -0.42376615200E+03  0.43398461810E+03  0.10100000352E+00 0.  1.
       -3    1    3    3    0  502 -0.89591789973E+02  0.27169801832E+02  0.57710902614E+03  0.58465350868E+03  0.10100000352E+00 0. -1.
</event>
<event>
 5   0  0.1293716E-03  0.1003573E+04  0.7818609E-02  0.9304635E-01
       -1   -1    0    0    0  501  0.00000000000E+00  0.00000000000E+00  0.13147446082E+04  0.13147446082E+04  0.50400001928E-02 0. -1.
        1   -1    0    0  501    0  0.00000000000E+00  0.00000000000E+00 -0.19151222629E+03  0.19151222635E+03  0.50400001928E-02 0.  1.
    10030    2    1    2    0    0  0.00000000000E+00  0.00000000000E+00  0.11232323819E+04  0.15062568346E+04  0.10035729510E+04 0.  0.
        3    1    3    3  502    0 -0.84493347759E+01  0.10768675340E+03 -0.17385540385E+03  0.20467911414E+03  0.10100000352E+00 0.  1.
       -3    1    3    3    0  502  0.84493347759E+01 -0.10768675340E+03  0.12970877858E+04  0.13015777204E+04  0.10100000352E+00 0. -1.
</event>
<event>
 5   0  0.2255142E-03  0.1001558E+04  0.7818609E-02  0.9306838E-01
        2   -1    0    0  501    0  0.00000000000E+00  0.00000000000E+00  0.49977311620E+03  0.49977311620E+03  0.25500000920E-02 0. -1.
       -2   -1    0    0    0  501  0.00000000000E+00  0.00000000000E+00 -0.50178700914E+03  0.50178700915E+03  0.25500000920E-02 0.  1.
    10030    2    1    2    0    0  0.00000000000E+00  0.00000000000E+00 -0.20138929427E+01  0.10015601254E+04  0.10015581006E+04 0.  0.
        4    1    3    3  502    0 -0.35055953168E+03  0.19913037452E+03  0.29603431289E+03  0.50018278521E+03  0.12699999809E+01 0. -1.
       -4    1    3    3    0  502  0.35055953168E+03 -0.19913037452E+03 -0.29804820583E+03  0.50137734014E+03  0.12699999809E+01 0.  1.
</event>
<event>
 5   0  0.1249195E-03  0.1001684E+04  0.7818609E-02  0.9306699E-01
        1   -1    0    0  501    0  0.00000000000E+00  0.00000000000E+00  0.89053736244E+03  0.89053736246E+03  0.50400001928E-02 0.  1.
       -1   -1    0    0    0  501  0.00000000000E+00  0.00000000000E+00 -0.28167580088E+03  0.28167580092E+03  0.50400001928E-02 0. -1.
    10030    2    1    2    0    0  0.00000000000E+00  0.00000000000E+00  0.60886156157E+03  0.11722131634E+04  0.10016842313E+04 0.  0.
        2    1    3    3  502    0  0.19052945438E+03  0.26228398033E+03 -0.14233278895E+03  0.35405223081E+03  0.25500000920E-02 0. -1.
       -2    1    3    3    0  502 -0.19052945438E+03 -0.26228398033E+03  0.75119435052E+03  0.81816093257E+03  0.25500000920E-02 0.  1.
</event>
<event>
 5   0  0.1353789E-03  0.1001198E+04  0.7818609E-02  0.9307232E-01
       -1   -1    0    0    0  501  0.00000000000E+00  0.00000000000E+00  0.17487503467E+03  0.17487503474E+03  0.50400001928E-02 0.  1.
        1   -1    0    0  501    0  0.00000000000E+00  0.00000000000E+00 -0.14330182983E+04  0.14330182983E+04  0.50400001928E-02 0. -1.
    10030    2    1    2    0    0  0.00000000000E+00  0.00000000000E+00 -0.12581432636E+04  0.16078933330E+04  0.10011975323E+04 0.  0.
        1    1    3    3  502    0  0.15333831874E+03 -0.33352784845E+03 -0.11756813466E+04  0.12316574582E+04  0.50400001928E-02 0. -1.
       -1    1    3    3    0  502 -0.15333831874E+03  0.33352784845E+03 -0.82461916998E+02  0.37623587477E+03  0.50400001928E-02 0.  1.
</event>
<event>
 5   0  0.2264577E-03  0.1002685E+04  0.7818609E-02  0.9305604E-01
        2   -1    0    0  501    0  0.00000000000E+00  0.00000000000E+00  0.26989366954E+03  0.26989366956E+03  0.25500000920E-02 0.  1.
       -2   -1    0    0    0  501  0.00000000000E+00  0.00000000000E+00 -0.93127221237E+03  0.93127221238E+03  0.25500000920E-02 0. -1.
    10030    2    1    2    0    0  0.00000000000E+00  0.00000000000E+00 -0.66137854283E+03  0.12011658819E+04  0.10026853440E+04 0.  0.
        5    1    3    3  502    0 -0.11981677327E+03 -0.36149732716E+03  0.59860482867E+02  0.38554084622E+03  0.46999998093E+01 0.  1.
       -5    1    3    3    0  502  0.11981677327E+03  0.36149732716E+03 -0.72123902570E+03  0.81562503571E+03  0.46999998093E+01 0. -1.
</event>
<event>
 5   0  0.1285769E-03  0.9940804E+03  0.7818609E-02  0.9315061E-01
        1   -1    0    0  501    0  0.00000000000E+00  0.00000000000E+00  0.20891711031E+03  0.20891711037E+03  0.50400001928E-02 0. -1.
       -1   -1    0    0    0  501  0.00000000000E+00  0.00000000000E+00 -0.11825215023E+04  0.11825215023E+04  0.50400001928E-02 0.  1.
    10030    2    1    2    0    0  0.00000000000E+00  0.00000000000E+00 -0.97360439201E+03  0.13914386127E+04  0.99408042973E+03 0.  0.
        5    1    3    3  502    0 -0.24761393253E+03  0.28501586354E+03 -0.34363763024E+02  0.37914332416E+03  0.46999998093E+01 0. -1.
       -5    1    3    3    0  502  0.24761393253E+03 -0.28501586354E+03 -0.93924062898E+03  0.10122952885E+04  0.46999998093E+01 0.  1.
</event>
<event>
 5   0  0.2277570E-03  0.9944907E+03  0.7818609E-02  0.9314608E-01
        2   -1    0    0  501    0  0.00000000000E+00  0.00000000000E+00  0.11395430002E+04  0.11395430002E+04  0.25500000920E-02 0.  1.
       -2   -1    0    0    0  501  0.00000000000E+00  0.00000000000E+00 -0.21697552217E+03  0.21697552219E+03  0.25500000920E-02 0. -1.
    10030    2    1    2    0    0  0.00000000000E+00  0.00000000000E+00  0.92256747800E+03  0.13565185224E+04  0.99449069883E+03 0.  0.
        3    1    3    3  502    0 -0.39015406509E+03  0.26489136714E+03  0.67637453308E+03  0.82454238829E+03  0.10100000352E+00 0.  1.
       -3    1    3    3    0  502  0.39015406509E+03 -0.26489136714E+03  0.24619294492E+03  0.53197613407E+03  0.10100000352E+00 0. -1.
</event>
<event>
 5   0  0.2204862E-03  0.9992762E+03  0.7818609E-02  0.9309339E-01
        2   -1    0    0  501    0  0.00000000000E+00  0.00000000000E+00  0.93642661078E+03  0.93642661078E+03  0.25500000920E-02 0.  1.
       -2   -1    0    0    0  501  0.00000000000E+00  0.00000000000E+00 -0.26658600655E+03  0.26658600656E+03  0.25500000920E-02 0. -1.
    10030    2    1    2    0    0  0.00000000000E+00  0.00000000000E+00  0.66984060423E+03  0.12030126173E+04  0.99927619926E+03 0.  0.
        1    1    3    3  502    0  0.40100796943E+03 -0.29804493863E+03  0.33464160125E+03  0.60135112730E+03  0.50400001928E-02 0.  1.
       -1    1    3    3    0  502 -0.40100796943E+03  0.29804493863E+03  0.33519900297E+03  0.60166149005E+03  0.50400001928E-02 0. -1.
</event>
<event>
 5   0  0.1249195E-03  0.9918685E+03  0.7818609E-02  0.9317509E-01
        1   -1    0    0  501    0  0.00000000000E+00  0.00000000000E+00  0.23700764186E+03  0.23700764191E+03  0.50400001928E-02 0. -1.
       -1   -1    0    0    0  501  0.00000000000E+00  0.00000000000E+00 -0.10377334685E+04  0.10377334685E+04  0.50400001928E-02 0.  1.
    10030    2    1    2    0    0  0.00000000000E+00  0.00000000000E+00 -0.80072582660E+03  0.12747411104E+04  0.99186846362E+03 0.  0.
        2    1    3    3  502    0 -0.11371232362E+03  0.46531424405E+03 -0.23526242415E+03  0.53366304583E+03  0.25500000920E-02 0.  1.
       -2    1    3    3    0  502  0.11371232362E+03 -0.46531424405E+03 -0.56546340245E+03  0.74107806456E+03  0.25500000920E-02 0. -1.
</event>
<event>
 5   0  0.1249195E-03  0.1004331E+04  0.7818609E-02  0.9303807E-01
       -1   -1    0    0    0  501  0.00000000000E+00  0.00000000000E+00  0.49187450808E+03  0.49187450811E+03  0.50400001928E-02 0. -1.
        1   -1    0    0  501    0  0.00000000000E+00  0.00000000000E+00 -0.51267196512E+03  0.51267196515E+03  0.50400001928E-02 0.  1.
    10030    2    1    2    0    0  0.00000000000E+00  0.00000000000E+00 -0.20797457043E+02  0.10045464733E+04  0.10043311619E+04 0.  0.
        2    1    3    3  502    0 -0.74298122288E+02  0.48884925880E+03  0.77235474951E+02  0.50045891680E+03  0.25500000920E-02 0. -1.
       -2    1    3    3    0  502  0.74298122288E+02 -0.48884925880E+03 -0.98032931994E+02  0.50408755645E+03  0.25500000920E-02 0.  1.
</event>
<event>
 5   0  0.2277570E-03  0.9978596E+03  0.7818609E-02  0.9310896E-01
        2   -1    0    0  501    0  0.00000000000E+00  0.00000000000E+00  0.89456085674E+03  0.89456085675E+03  0.25500000920E-02 0.  1.
       -2   -1    0    0    0  501  0.00000000000E+00  0.00000000000E+00 -0.27827164482E+03  0.27827164483E+03  0.25500000920E-02 0. -1.
    10030    2    1    2    0    0  0.00000000000E+00  0.00000000000E+00  0.61628921192E+03  0.11728325016E+04  0.99785955125E+03 0.  0.
        3    1    3    3  502    0  0.46063005676E+03 -0.17107374768E+03  0.40982843030E+03  0.63984812949E+03  0.10100000352E+00 0.  1.
       -3    1    3    3    0  502 -0.46063005676E+03  0.17107374768E+03  0.20646078163E+03  0.53298437209E+03  0.10100000352E+00 0. -1.
</event>
<event>
 5   0  0.2264577E-03  0.1001237E+04  0.7818609E-02  0.9307189E-01
        2   -1    0    0  501    0  0.00000000000E+00  0.00000000000E+00  0.82507428405E+03  0.82507428405E+03  0.25500000920E-02 0. -1.
       -2   -1    0    0    0  501  0.00000000000E+00  0.00000000000E+00 -0.30375313326E+03  0.30375313327E+03  0.25500000920E-02 0.  1.
    10030    2    1    2    0    0  0.00000000000E+00  0.00000000000E+00  0.52132115079E+03  0.11288274173E+04  0.10012370328E+04 0.  0.
        5    1    3    3  502    0  0.59034096249E+02 -0.21899592866E+03 -0.24247334737E+03  0.33205369366E+03  0.46999998093E+01 0.  1.
       -5    1    3    3    0  502 -0.59034096249E+02  0.21899592866E+03  0.76379449816E+03  0.79677372366E+03  0.46999998093E+01 0. -1.
</event>
<event>
 5   0  0.1293575E-03  0.9981639E+03  0.7818609E-02  0.9310561E-01
        1   -1    0    0  501    0  0.00000000000E+00  0.00000000000E+00  0.65249679927E+03  0.65249679929E+03  0.50400001928E-02 0. -1.
       -1   -1    0    0    0  501  0.00000000000E+00  0.00000000000E+00 -0.38173792174E+03  0.38173792178E+03  0.50400001928E-02 0.  1.
    10030    2    1    2    0    0  0.00000000000E+00  0.00000000000E+00  0.27075887752E+03  0.10342347211E+04  0.99816385854E+03 0.  0.
        4    1    3    3  502    0 -0.18324919456E+02 -0.49813107612E+03  0.16098665467E+03  0.52382123625E+03  0.12699999809E+01 0.  1.
       -4    1    3    3    0  502  0.18324919456E+02  0.49813107612E+03  0.10977222286E+03  0.51041348481E+03  0.12699999809E+01 0. -1.
</event>
<event>
 5   0  0.1293575E-03  0.1015112E+04  0.7818609E-02  0.9292124E-01
        1   -1    0    0  501    0  0.00000000000E+00  0.00000000000E+00  0.47041029719E+03  0.47041029722E+03  0.50400001928E-02 0.  1.
       -1   -1    0    0    0  501  0.00000000000E+00  0.00000000000E+00 -0.54763440165E+03  0.54763440167E+03  0.50400001928E-02 0. -1.
    10030    2    1    2    0    0  0.00000000000E+00  0.00000000000E+00 -0.77224104456E+02  0.10180446989E+04  0.10151115439E+04 0.  0.
        4    1    3    3  502    0 -0.30949907455E+03  0.17871368440E+03  0.32282212755E+03  0.48160564477E+03  0.12699999809E+01 0.  1.
       -4    1    3    3    0  502  0.30949907455E+03 -0.17871368440E+03 -0.40004623201E+03  0.53643905412E+03  0.12699999809E+01 0. -1.
</event>
<event>
 5   0  0.1353789E-03  0.1024165E+04  0.7818609E-02  0.9282431E-01
       -1   -1    0    0    0  501  0.00000000000E+00  0.00000000000E+00  0.26889562855E+03  0.26889562860E+03  0.50400001928E-02 0. -1.
        1   -1    0    0  501    0  0.00000000000E+00  0.00000000000E+00 -0.97520475510E+03  0.97520475511E+03  0.50400001928E-02 0.  1.
    10030    2    1    2    0    0  0.00000000000E+00  0.00000000000E+00 -0.70630912655E+03  0.12441003837E+04  0.10241646267E+04 0.  0.
        1    1    3    3  502    0  0.20035762656E+03  0.39039003787E+03 -0.32496610850E+02  0.44000407945E+03  0.50400001928E-02 0. -1.
       -1    1    3    3    0  502 -0.20035762656E+03 -0.39039003787E+03 -0.67381251570E+03  0.80409630426E+03  0.50400001928E-02 0.  1.
</event>
<event>
 5   0  0.1353789E-03  0.1008337E+04  0.7818609E-02  0.9299448E-01
       -1   -1    0    0    0  501  0.00000000000E+00  0.00000000000E+00  0.16734720066E+03  0.16734720074E+03  0.50400001928E-02 0.  1.
        1   -1    0    0  501    0  0.00000000000E+00  0.00000000000E+00 -0.15189122594E+04  0.15189122595E+04  0.50400001928E-02 0. -1.
    10030    2    1    2    0    0  0.00000000000E+00  0.00000000000E+00 -0.13515650588E+04  0.16862594602E+04  0.10083366794E+04 0.  0.
        1    1    3    3  502    0 -0.30505403426E+03  0.39521521706E+03 -0.79323453609E+03  0.93726947079E+03  0.50400001928E-02 0. -1.
       -1    1    3    3    0  502  0.30505403426E+03 -0.39521521706E+03 -0.55833052270E+03  0.74898998940E+03  0.50400001928E-02 0.  1.
</event>
<event>
 5   0  0.1249195E-03  0.1000866E+04  0.7818609E-02  0.9307595E-01
       -1   -1    0    0    0  501  0.00000000000E+00  0.00000000000E+00  0.29109997506E+03  0.29109997510E+03  0.50400001928E-02 0.  1.
        1   -1    0    0  501    0  0.00000000000E+00  0.00000000000E+00 -0.86030004422E+03  0.86030004423E+03  0.50400001928E-02 0. -1.
    10030    2    1    2    0    0  0.00000000000E+00  0.00000000000E+00 -0.56920006916E+03  0.11514000193E+04  0.10008662677E+04 0.  0.
        2    1    3    3  502    0  0.33661167563E+03 -0.21282493301E+03  0.64014828292E+02  0.40336059615E+03  0.25500000920E-02 0.  1.
       -2    1    3    3    0  502 -0.33661167563E+03  0.21282493301E+03 -0.63321489745E+03  0.74803942318E+03  0.25500000920E-02 0. -1.
</event>
<event>
 5   0  0.1285769E-03  0.1000115E+04  0.7818609E-02  0.9308418E-01
        1   -1    0    0  501    0  0.00000000000E+00  0.00000000000E+00  0.90469658133E+03  0.90469658135E+03  0.50400001928E-02 0. -1.
       -1   -1    0    0    0  501  0.00000000000E+00  0.00000000000E+00 -0.27639953911E+03  0.27639953915E+03  0.50400001928E-02 0.  1.
    10030    2    1    2    0    0  0.00000000000E+00  0.00000000000E+00  0.62829704223E+03  0.11810961205E+04  0.10001154296E+04 0.  0.
        5    1    3    3  502    0  0.87176163606E+02 -0.45696100158E+03  0.53069477888E+03  0.70574221837E+03  0.46999998093E+01 0. -1.
       -5    1    3    3    0  502 -0.87176163606E+02  0.45696100158E+03  0.97602263347E+02  0.47535390213E+03  0.46999998093E+01 0.  1.
</event>
<event>
 5   0  0.1249195E-03  0.1001621E+04  0.7818609E-02  0.9306769E-01
       -1   -1    0    0    0  501  0.00000000000E+00  0.00000000000E+00  0.19160934137E+03  0.19160934144E+03  0.50400001928E-02 0.  1.
        1   -1    0    0  501    0  0.00000000000E+00  0.00000000000E+00 -0.13089711564E+04  0.13089711564E+04  0.50400001928E-02 0. -1.
    10030    2    1    2    0    0  0.00000000000E+00  0.00000000000E+00 -0.11173618150E+04  0.15005804978E+04  0.10016208888E+04 0.  0.
        2    1    3    3  502    0  0.16023713381E+03 -0.35088582256E+03 -0.80175934999E+02  0.39398601509E+03  0.25500000920E-02 0.  1.
       -2    1    3    3    0  502 -0.16023713381E+03  0.35088582256E+03 -0.10371858800E+04  0.11065944827E+04  0.25500000920E-02 0. -1.
</event>
<event>
 5   0  0.2204862E-03  0.9788504E+03  0.7818609E-02  0.9332050E-01
       -2   -1    0    0    0  501  0.00000000000E+00  0.00000000000E+00  0.59805778794E+03  0.59805778795E+03  0.25500000920E-02 0.  1.
        2   -1    0    0  501    0  0.00000000000E+00  0.00000000000E+00 -0.40052486910E+03  0.40052486911E+03  0.25500000920E-02 0. -1.
    10030    2    1    2    0    0  0.00000000000E+00  0.00000000000E+00  0.19753291884E+03  0.99858265706E+03  0.97885038129E+03 0.  0.
        1    1    3    3  502    0  0.44457962271E+03 -0.11502471970E+03 -0.73924701818E+02  0.46513072210E+03  0.50400001928E-02 0. -1.
       -1    1    3    3    0  502 -0.44457962271E+03  0.11502471970E+03  0.27145762066E+03  0.53345193496E+03  0.50400001928E-02 0.  1.
</event>
<event>
 5   0  0.2204862E-03  0.9977156E+03  0.7818609E-02  0.9311054E-01
        2   -1    0    0  501    0  0.00000000000E+00  0.00000000000E+00  0.35088560976E+03  0.35088560977E+03  0.25500000920E-02 0.  1.
       -2   -1    0    0    0  501  0.00000000000E+00  0.00000000000E+00 -0.70923137137E+03  0.70923137137E+03  0.25500000920E-02 0. -1.
    10030    2    1    2    0    0  0.00000000000E+00  0.00000000000E+00 -0.35834576161E+03  0.10601169811E+04  0.99771555507E+03 0.  0.
        1    1    3    3  502    0  0.42170144949E+03  0.46179015880E+02 -0.45806691469E+03  0.62433157246E+03  0.50400001928E-02 0. -1.
       -1    1    3    3    0  502 -0.42170144949E+03 -0.46179015880E+02  0.99721153084E+02  0.43578540867E+03  0.50400001928E-02 0.  1.
</event>
<event>
 5   0  0.2284843E-03  0.1002719E+04  0.7818609E-02  0.9305567E-01
        2   -1    0    0  501    0  0.00000000000E+00  0.00000000000E+00  0.38482406579E+03  0.38482406580E+03  0.25500000920E-02 0. -1.
       -2   -1    0    0    0  501  0.00000000000E+00  0.00000000000E+00 -0.65318544119E+03  0.65318544119E+03  0.25500000920E-02 0.  1.
    10030    2    1    2    0    0  0.00000000000E+00  0.00000000000E+00 -0.26836137539E+03  0.10380095070E+04  0.10027192572E+04 0.  0.
        2    1    3    3  502    0  0.75789556090E+02 -0.42525551377E+03  0.12928632720E+03  0.45088941350E+03  0.25500000920E-02 0. -1.
       -2    1    3    3    0  502 -0.75789556090E+02  0.42525551377E+03 -0.39764770259E+03  0.58712009349E+03  0.25500000920E-02 0.  1.
</event>
<event>
 5   0  0.1293575E-03  0.9965804E+03  0.7818609E-02  0.9312303E-01
        1   -1    0    0  501    0  0.00000000000E+00  0.00000000000E+00  0.60298681837E+03  0.60298681839E+03  0.50400001928E-02 0. -1.
       -1   -1    0    0    0  501  0.00000000000E+00  0.00000000000E+00 -0.41177208979E+03  0.41177208982E+03  0.50400001928E-02 0.  1.
    10030    2    1    2    0    0  0.00000000000E+00  0.00000000000E+00  0.19121472858E+03  0.10147589082E+04  0.99658043798E+03 0.  0.
        4    1    3    3  502    0  0.37584561956E+03  0.61121858829E+02 -0.23165169220E+03  0.44571283442E+03  0.12699999809E+01 0.  1.
       -4    1    3    3    0  502 -0.37584561956E+03 -0.61121858829E+02  0.42286642078E+03  0.56904607379E+03  0.12699999809E+01 0. -1.
</event>
<event>
 5   0  0.1293575E-03  0.9783435E+03  0.7818609E-02  0.9332621E-01
        1   -1    0    0  501    0  0.00000000000E+00  0.00000000000E+00  0.32333957715E+03  0.32333957719E+03  0.50400001928E-02 0. -1.
       -1   -1    0    0    0  501  0.00000000000E+00  0.00000000000E+00 -0.74005477710E+03  0.74005477711E+03  0.50400001928E-02 0.  1.
    10030    2    1    2    0    0  0.00000000000E+00  0.00000000000E+00 -0.41671519994E+03  0.10633943543E+04  0.97834349536E+03 0.  0.
        4    1    3    3  502    0 -0.97122908711E+02 -0.35861908627E+03  0.13749719986E+03  0.39616612841E+03  0.12699999809E+01 0. -1.
       -4    1    3    3    0  502  0.97122908711E+02  0.35861908627E+03 -0.55421239980E+03  0.66722822589E+03  0.12699999809E+01 0.  1.
</event>
<event>
 5   0  0.1353789E-03  0.1001361E+04  0.7818609E-02  0.9307054E-01
        1   -1    0    0  501    0  0.00000000000E+00  0.00000000000E+00  0.77176198398E+03  0.77176198400E+03  0.50400001928E-02 0.  1.
       -1   -1    0    0    0  501  0.00000000000E+00  0.00000000000E+00 -0.32481609785E+03  0.32481609789E+03  0.50400001928E-02 0. -1.
    10030    2    1    2    0    0  0.00000000000E+00  0.00000000000E+00  0.44694588613E+03  0.10965780819E+04  0.10013605068E+04 0.  0.
        1    1    3    3  502    0  0.27675216305E+03 -0.39689924014E+03  0.82551005259E+02  0.49085174450E+03  0.50400001928E-02 0. -1.
       -1    1    3    3    0  502 -0.27675216305E+03  0.39689924014E+03  0.36439488087E+03  0.60572633739E+03  0.50400001928E-02 0.  1.
</event>
<event>
 5   0  0.1249195E-03  0.9983510E+03  0.7818609E-02  0.9310355E-01
       -1   -1    0    0    0  501  0.00000000000E+00  0.00000000000E+00  0.16120792925E+03  0.16120792933E+03  0.50400001928E-02 0. -1.
        1   -1    0    0  501    0  0.00000000000E+00  0.00000000000E+00 -0.15456820189E+04  0.15456820190E+04  0.50400001928E-02 0.  1.
    10030    2    1    2    0    0  0.00000000000E+00  0.00000000000E+00 -0.13844740897E+04  0.17068899483E+04  0.99835103572E+03 0.  0.
        2    1    3    3  502    0 -0.36859841206E+03 -0.26335553277E+03 -0.10506863411E+04  0.11441864854E+04  0.25500000920E-02 0.  1.
       -2    1    3    3    0  502  0.36859841206E+03  0.26335553277E+03 -0.33378774860E+03  0.56270346288E+03  0.25500000920E-02 0. -1.
</event>
<event>
 5   0  0.1249195E-03  0.9968030E+03  0.7818609E-02  0.9312058E-01
        1   -1    0    0  501    0  0.00000000000E+00  0.00000000000E+00  0.71574313152E+03  0.71574313154E+03  0.50400001928E-02 0. -1.
       -1   -1    0    0    0  501  0.00000000000E+00  0.00000000000E+00 -0.34705756299E+03  0.34705756302E+03  0.50400001928E-02 0.  1.
    10030    2    1    2    0    0  0.00000000000E+00  0.00000000000E+00  0.36868556854E+03  0.10628006946E+04  0.99680302363E+03 0.  0.
        2    1    3    3  502    0  0.30386097308E+03  0.63444581005E+02  0.60009246701E+03  0.67562391519E+03  0.25500000920E-02 0. -1.
       -2    1    3    3    0  502 -0.30386097308E+03 -0.63444581005E+02 -0.23140689847E+03  0.38717677937E+03  0.25500000920E-02 0.  1.
</event>
<event>
 5   0  0.2277570E-03  0.1015865E+04  0.7818609E-02  0.9291314E-01
       -2   -1    0    0    0  501  0.00000000000E+00  0.00000000000E+00  0.20680990306E+03  0.20680990307E+03  0.25500000920E-02 0. -1.
        2   -1    0    0  501    0  0.00000000000E+00  0.00000000000E+00 -0.12474998634E+04  0.12474998634E+04  0.25500000920E-02 0.  1.
    10030    2    1    2    0    0  0.00000000000E+00  0.00000000000E+00 -0.10406899603E+04  0.14543097664E+04  0.10158648056E+04 0.  0.
        3    1    3    3  502    0 -0.16138318478E+03 -0.64257897077E+02  0.16296624607E+03  0.23818399868E+03  0.10100000352E+00 0. -1.
       -3    1    3    3    0  502  0.16138318478E+03  0.64257897077E+02 -0.12036562064E+04  0.12161257678E+04  0.10100000352E+00 0.  1.
</event>
<event>
 5   0  0.2204862E-03  0.1005586E+04  0.7818609E-02  0.9302439E-01
        2   -1    0    0  501    0  0.00000000000E+00  0.00000000000E+00  0.49927266287E+03  0.49927266288E+03  0.25500000920E-02 0. -1.
       -2   -1    0    0    0  501  0.00000000000E+00  0.00000000000E+00 -0.50633859939E+03  0.50633859940E+03  0.25500000920E-02 0.  1.
    10030    2    1    2    0    0  0.00000000000E+00  0.00000000000E+00 -0.70659365219E+01  0.10056112623E+04  0.10055864375E+04 0.  0.
        1    1    3    3  502    0  0.28637308677E+02 -0.50185204575E+03 -0.14733670889E+02  0.50288433297E+03  0.50400001928E-02 0. -1.
       -1    1    3    3    0  502 -0.28637308677E+02  0.50185204575E+03  0.76677343675E+01  0.50272692930E+03  0.50400001928E-02 0.  1.
</event>
<event>
 5   0  0.2277570E-03  0.9997019E+03  0.7818609E-02  0.9308872E-01
        2   -1    0    0  501    0  0.00000000000E+00  0.00000000000E+00  0.14292632883E+04  0.14292632883E+04  0.25500000920E-02 0. -1.
       -2   -1    0    0    0  501  0.00000000000E+00  0.00000000000E+00 -0.17481102809E+03  0.17481102811E+03  0.25500000920E-02 0.  1.
    10030    2    1    2    0    0  0.00000000000E+00  0.00000000000E+00  0.12544522602E+04  0.16040743164E+04  0.99970192529E+03 0.  0.
        3    1    3    3  502    0  0.79157952003E+02 -0.48581426895E+03  0.48762554183E+03  0.69286374167E+03  0.10100000352E+00 0.  1.
       -3    1    3    3    0  502 -0.79157952003E+02  0.48581426895E+03  0.76682671838E+03  0.91121057474E+03  0.10100000352E+00 0. -1.
</event>
<event>
 5   0  0.1293575E-03  0.9950123E+03  0.7818609E-02  0.9314032E-01
        1   -1    0    0  501    0  0.00000000000E+00  0.00000000000E+00  0.94893644445E+03  0.94893644446E+03  0.50400001928E-02 0.  1.
       -1   -1    0    0    0  501  0.00000000000E+00  0.00000000000E+00 -0.26083131959E+03  0.26083131964E+03  0.50400001928E-02 0. -1.
    10030    2    1    2    0    0  0.00000000000E+00  0.00000000000E+00  0.68810512485E+03  0.12097677641E+04  0.99501225129E+03 0.  0.
        4    1    3    3  502    0  0.32232381288E+03  0.23857416980E+03 -0.13948465761E+02  0.40125608711E+03  0.12699999809E+01 0. -1.
       -4    1    3    3    0  502 -0.32232381288E+03 -0.23857416980E+03  0.70205359061E+03  0.80851167700E+03  0.12699999809E+01 0.  1.
</event>
<event>
 5   0  0.2284843E-03  0.1004554E+04  0.7818609E-02  0.9303564E-01
        2   -1    0    0  501    0  0.00000000000E+00  0.00000000000E+00  0.25002638199E+03  0.25002638200E+03  0.25500000920E-02 0. -1.
       -2   -1    0    0    0  501  0.00000000000E+00  0.00000000000E+00 -0.10090219283E+04  0.10090219283E+04  0.25500000920E-02 0.  1.
    10030    2    1    2    0    0  0.00000000000E+00  0.00000000000E+00 -0.75899554629E+03  0.12590483103E+04  0.10045538355E+04 0.  0.
        2    1    3    3  502    0  0.10503646309E+03 -0.95904072160E+01 -0.99498569612E+03  0.10005604280E+04  0.25500000920E-02 0.  1.
       -2    1    3    3    0  502 -0.10503646309E+03  0.95904072160E+01  0.23599014983E+03  0.25848788233E+03  0.25500000920E-02 0. -1.
</event>
<event>
 5   0  0.2284843E-03  0.9994590E+03  0.7818609E-02  0.9309138E-01
       -2   -1    0    0    0  501  0.00000000000E+00  0.00000000000E+00  0.20467134925E+03  0.20467134927E+03  0.25500000920E-02 0. -1.
        2   -1    0    0  501    0  0.00000000000E+00  0.00000000000E+00 -0.12201490800E+04  0.12201490800E+04  0.25500000920E-02 0.  1.
    10030    2    1    2    0    0  0.00000000000E+00  0.00000000000E+00 -0.10154777308E+04  0.14248204293E+04  0.99945897068E+03 0.  0.
        2    1    3    3  502    0  0.90566986263E+02 -0.13525753184E+03 -0.11812952421E+04  0.11924577258E+04  0.25500000920E-02 0.  1.
       -2    1    3    3    0  502 -0.90566986263E+02  0.13525753184E+03  0.16581751128E+03  0.23236270349E+03  0.25500000920E-02 0. -1.
</event>
<event>
 5   0  0.1293575E-03  0.1006313E+04  0.7818609E-02  0.9301648E-01
        1   -1    0    0  501    0  0.00000000000E+00  0.00000000000E+00  0.11289284691E+04  0.11289284691E+04  0.50400001928E-02 0. -1.
       -1   -1    0    0    0  501  0.00000000000E+00  0.00000000000E+00 -0.22425368214E+03  0.22425368219E+03  0.50400001928E-02 0.  1.
    10030    2    1    2    0    0  0.00000000000E+00  0.00000000000E+00  0.90467478693E+03  0.13531821513E+04  0.10063128064E+04 0.  0.
        4    1    3    3  502    0  0.22474963851E+03 -0.44908756488E+03  0.41039864598E+03  0.64855277539E+03  0.12699999809E+01 0. -1.
       -4    1    3    3    0  502 -0.22474963851E+03  0.44908756488E+03  0.49427614095E+03  0.70462937588E+03  0.12699999809E+01 0.  1.
</event>
<event>
 5   0  0.1249195E-03  0.9796224E+03  0.7818609E-02  0.9331181E-01
       -1   -1    0    0    0  501  0.00000000000E+00  0.00000000000E+00  0.18749330422E+03  0.18749330429E+03  0.50400001928E-02 0.  1.
        1   -1    0    0  501    0  0.00000000000E+00  0.00000000000E+00 -0.12795923461E+04  0.12795923461E+04  0.50400001928E-02 0. -1.
    10030    2    1    2    0    0  0.00000000000E+00  0.00000000000E+00 -0.10920990419E+04  0.14670856504E+04  0.97962237025E+03 0.  0.
        2    1    3    3  502    0 -0.15658553222E+03 -0.14570472008E+03 -0.12059576559E+04  0.12247786584E+04  0.25500000920E-02 0. -1.
       -2    1    3    3    0  502  0.15658553222E+03  0.14570472008E+03  0.11385861402E+03  0.24230699195E+03  0.25500000920E-02 0.  1.
</event>
<event>
 5   0  0.1285769E-03  0.9995919E+03  0.7818609E-02  0.9308993E-01
       -1   -1    0    0    0  501  0.00000000000E+00  0.00000000000E+00  0.28755904442E+03  0.28755904447E+03  0.50400001928E-02 0. -1.
        1   -1    0    0  501    0  0.00000000000E+00  0.00000000000E+00 -0.86867716107E+03  0.86867716108E+03  0.50400001928E-02 0.  1.
    10030    2    1    2    0    0  0.00000000000E+00  0.00000000000E+00 -0.58111811665E+03  0.11562362055E+04  0.99959186548E+03 0.  0.
        5    1    3    3  502    0 -0.37183696968E+02 -0.45951576672E+03 -0.51376635010E+03  0.69030089068E+03  0.46999998093E+01 0.  1.
       -5    1    3    3    0  502  0.37183696968E+02  0.45951576672E+03 -0.67351766548E+02  0.46593531487E+03  0.46999998093E+01 0. -1.
</event>
<event>
 5   0  0.2255142E-03  0.1003997E+04  0.7818609E-02  0.9304172E-01
       -2   -1    0    0    0  501  0.00000000000E+00  0.00000000000E+00  0.15866707219E+03  0.15866707221E+03  0.25500000920E-02 0. -1.
        2   -1    0    0  501    0  0.00000000000E+00  0.00000000000E+00 -0.15882455746E+04  0.15882455746E+04  0.25500000920E-02 0.  1.
    10030    2    1    2    0    0  0.00000000000E+00  0.00000000000E+00 -0.14295785025E+04  0.17469126469E+04  0.10039965643E+04 0.  0.
        4    1    3    3  502    0  0.66826896068E+02  0.34966795234E+03 -0.98963900078E+02  0.36949827787E+03  0.12699999809E+01 0. -1.
       -4    1    3    3    0  502 -0.66826896068E+02 -0.34966795234E+03 -0.13306146024E+04  0.13774143690E+04  0.12699999809E+01 0.  1.
</event>
<event>
 5   0  0.1285769E-03  0.9999928E+03  0.7818609E-02  0.9308553E-01
        1   -1    0    0  501    0  0.00000000000E+00  0.00000000000E+00  0.29939130218E+03  0.29939130222E+03  0.50400001928E-02 0. -1.
       -1   -1    0    0    0  501  0.00000000000E+00  0.00000000000E+00 -0.83501560821E+03  0.83501560822E+03  0.50400001928E-02 0.  1.
    10030    2    1    2    0    0  0.00000000000E+00  0.00000000000E+00 -0.53562430603E+03  0.11344069104E+04  0.99999282060E+03 0.  0.
        5    1    3    3  502    0 -0.38148795928E+03 -0.29932955088E+03 -0.12960390727E+03  0.50194671618E+03  0.46999998093E+01 0. -1.
       -5    1    3    3    0  502  0.38148795928E+03  0.29932955088E+03 -0.40602039876E+03  0.63246019426E+03  0.46999998093E+01 0.  1.
</event>
<event>
 5   0  0.2204862E-03  0.9972635E+03  0.7818609E-02  0.9311551E-01
       -2   -1    0    0    0  501  0.00000000000E+00  0.00000000000E+00  0.14109766287E+03  0.14109766290E+03  0.25500000920E-02 0.  1.
        2   -1    0    0  501    0  0.00000000000E+00  0.00000000000E+00 -0.17621385239E+04  0.17621385239E+04  0.25500000920E-02 0. -1.
    10030    2    1    2    0    0  0.00000000000E+00  0.00000000000E+00 -0.16210408610E+04  0.19032361868E+04  0.99726351063E+03 0.  0.
        1    1    3    3  502    0 -0.31129638424E+03  0.38703467569E+03 -0.89441338113E+03  0.10230721262E+04  0.50400001928E-02 0.  1.
       -1    1    3    3    0  502  0.31129638424E+03 -0.38703467569E+03 -0.72662747991E+03  0.88016406063E+03  0.50400001928E-02 0. -1.
</event>
<event>
 5   0  0.1285769E-03  0.9991865E+03  0.7818609E-02  0.9309437E-01
       -1   -1    0    0    0  501  0.00000000000E+00  0.00000000000E+00  0.45002535279E+03  0.45002535282E+03  0.50400001928E-02 0. -1.
        1   -1    0    0  501    0  0.00000000000E+00  0.00000000000E+00 -0.55462078399E+03  0.55462078402E+03  0.50400001928E-02 0.  1.
    10030    2    1    2    0    0  0.00000000000E+00  0.00000000000E+00 -0.10459543120E+03  0.10046461368E+04  0.99918649712E+03 0.  0.
        5    1    3    3  502    0 -0.47049498659E+03  0.11080779146E+03 -0.17919120670E+03  0.51553416726E+03  0.46999998093E+01 0. -1.
       -5    1    3    3    0  502  0.47049498659E+03 -0.11080779146E+03  0.74595775502E+02  0.48911196957E+03  0.46999998093E+01 0.  1.
</event>
<event>
 5   0  0.1293716E-03  0.1004971E+04  0.7818609E-02  0.9303109E-01
       -1   -1    0    0    0  501  0.00000000000E+00  0.00000000000E+00  0.69712954975E+03  0.69712954977E+03  0.50400001928E-02 0. -1.
        1   -1    0    0  501    0  0.00000000000E+00  0.00000000000E+00 -0.36218766262E+03  0.36218766266E+03  0.50400001928E-02 0.  1.
    10030    2    1    2    0    0  0.00000000000E+00  0.00000000000E+00  0.33494188713E+03  0.10593172124E+04  0.10049710885E+04 0.  0.
        3    1    3    3  502    0  0.16949968247E+03 -0.36636625125E+03 -0.14793839968E+03  0.42993040450E+03  0.10100000352E+00 0.  1.
       -3    1    3    3    0  502 -0.16949968247E+03  0.36636625125E+03  0.48288028680E+03  0.62938680793E+03  0.10100000352E+00 0. -1.
</event>
<event>
 5   0  0.1293716E-03  0.1000098E+04  0.7818609E-02  0.9308438E-01
       -1   -1    0    0    0  501  0.00000000000E+00  0.00000000000E+00  0.29920972806E+03  0.29920972810E+03  0.50400001928E-02 0. -1.
        1   -1    0    0  501    0  0.00000000000E+00  0.00000000000E+00 -0.83569756057E+03  0.83569756059E+03  0.50400001928E-02 0.  1.
    10030    2    1    2    0    0  0.00000000000E+00  0.00000000000E+00 -0.53648783251E+03  0.11349072887E+04  0.10000976750E+04 0.  0.
        3    1    3    3  502    0  0.20546303878E+02 -0.49586615013E+03 -0.33767491603E+03  0.60027472757E+03  0.10100000352E+00 0. -1.
       -3    1    3    3    0  502 -0.20546303878E+02  0.49586615013E+03 -0.19881291648E+03  0.53463256112E+03  0.10100000352E+00 0.  1.
</event>
<event>
 5   0  0.1285769E-03  0.1001954E+04  0.7818609E-02  0.9306404E-01
       -1   -1    0    0    0  501  0.00000000000E+00  0.00000000000E+00  0.33044483265E+03  0.33044483268E+03  0.50400001928E-02 0. -1.
        1   -1    0    0  501    0  0.00000000000E+00  0.00000000000E+00 -0.75951581079E+03  0.75951581081E+03  0.50400001928E-02 0.  1.
    10030    2    1    2    0    0  0.00000000000E+00  0.00000000000E+00 -0.42907097815E+03  0.10899606435E+04  0.10019542405E+04 0.  0.
        5    1    3    3  502    0 -0.35317283658E+03 -0.26533292297E+03  0.42486904777E+02  0.44380157681E+03  0.46999998093E+01 0. -1.
       -5    1    3    3    0  502  0.35317283658E+03  0.26533292297E+03 -0.47155788292E+03  0.64615906668E+03  0.46999998093E+01 0.  1.
</event>
<event>
 5   0  0.2255142E-03  0.1001210E+04  0.7818609E-02  0.9307219E-01
       -2   -1    0    0    0  501  0.00000000000E+00  0.00000000000E+00  0.11015065996E+03  0.11015065999E+03  0.25500000920E-02 0.  1.
        2   -1    0    0  501    0  0.00000000000E+00  0.00000000000E+00 -0.22751142573E+04  0.22751142573E+04  0.25500000920E-02 0. -1.
    10030    2    1    2    0    0  0.00000000000E+00  0.00000000000E+00 -0.21649635974E+04  0.23852649173E+04  0.10012099420E+04 0.  0.
        4    1    3    3  502    0  0.37610267053E+03 -0.33037078632E+03 -0.10881440765E+04  0.11977717727E+04  0.12699999809E+01 0. -1.
       -4    1    3    3    0  502 -0.37610267053E+03  0.33037078632E+03 -0.10768195208E+04  0.11874931446E+04  0.12699999809E+01 0.  1.
</event>
<event>
 5   0  0.2277570E-03  0.9954000E+03  0.7818609E-02  0.9313604E-01
       -2   -1    0    0    0  501  0.00000000000E+00  0.00000000000E+00  0.17746074224E+03  0.17746074226E+03  0.25500000920E-02 0. -1.
        2   -1    0    0  501    0  0.00000000000E+00  0.00000000000E+00 -0.13958313632E+04  0.13958313632E+04  0.25500000920E-02 0.  1.
    10030    2    1    2    0    0  0.00000000000E+00  0.00000000000E+00 -0.12183706209E+04  0.15732921054E+04  0.99539995935E+03 0.  0.
        3    1    3    3  502    0  0.12697801253E+02 -0.20803532092E+03 -0.13235320642E+04  0.13398421788E+04  0.10100000352E+00 0.  1.
       -3    1    3    3    0  502 -0.12697801253E+02  0.20803532092E+03  0.10516144325E+03  0.23344992666E+03  0.10100000352E+00 0. -1.
</event>
<event>
 5   0  0.2284843E-03  0.1002869E+04  0.7818609E-02  0.9305404E-01
       -2   -1    0    0    0  501  0.00000000000E+00  0.00000000000E+00  0.76257890218E+03  0.76257890219E+03  0.25500000920E-02 0. -1.
        2   -1    0    0  501    0  0.00000000000E+00  0.00000000000E+00 -0.32971869495E+03  0.32971869496E+03  0.25500000920E-02 0.  1.
    10030    2    1    2    0    0  0.00000000000E+00  0.00000000000E+00  0.43286020723E+03  0.10922975971E+04  0.10028689255E+04 0.  0.
        2    1    3    3  502    0 -0.21925509886E+03 -0.12596898605E+03 -0.25518995776E+03  0.35925325103E+03  0.25500000920E-02 0.  1.
       -2    1    3    3    0  502  0.21925509886E+03  0.12596898605E+03  0.68805016499E+03  0.73304434612E+03  0.25500000920E-02 0. -1.
</event>
<event>
 5   0  0.2204862E-03  0.9988478E+03  0.7818609E-02  0.9309809E-01
       -2   -1    0    0    0  501  0.00000000000E+00  0.00000000000E+00  0.51421936211E+03  0.51421936212E+03  0.25500000920E-02 0. -1.
        2   -1    0    0  501    0  0.00000000000E+00  0.00000000000E+00 -0.48505411963E+03  0.48505411964E+03  0.25500000920E-02 0.  1.
    10030    2    1    2    0    0  0.00000000000E+00  0.00000000000E+00  0.29165242479E+02  0.99927348175E+03  0.99884777617E+03 0.  0.
        1    1    3    3  502    0  0.33457209201E+03  0.26864236359E+03 -0.24109824107E+03  0.49217432495E+03  0.50400001928E-02 0.  1.
       -1    1    3    3    0  502 -0.33457209201E+03 -0.26864236359E+03  0.27026348355E+03  0.50709915680E+03  0.50400001928E-02 0. -1.
</event>
<event>
 5   0  0.2264577E-03  0.1001581E+04  0.7818609E-02  0.9306813E-01
        2   -1    0    0  501    0  0.00000000000E+00  0.00000000000E+00  0.60593669376E+03  0.60593669376E+03  0.25500000920E-02 0.  1.
       -2   -1    0    0    0  501  0.00000000000E+00  0.00000000000E+00 -0.41388967435E+03  0.41388967435E+03  0.25500000920E-02 0. -1.
    10030    2    1    2    0    0  0.00000000000E+00  0.00000000000E+00  0.19204701941E+03  0.10198263681E+04  0.10015806325E+04 0.  0.
        5    1    3    3  502    0  0.70467843762E+02  0.31257799497E+03  0.48786922964E+03  0.58370300254E+03  0.46999998093E+01 0.  1.
       -5    1    3    3    0  502 -0.70467843762E+02 -0.31257799497E+03 -0.29582221022E+03  0.43612336558E+03  0.46999998093E+01 0. -1.
</event>
<event>
 5   0  0.2277570E-03  0.1000705E+04  0.7818609E-02  0.9307772E-01
       -2   -1    0    0    0  501  0.00000000000E+00  0.00000000000E+00  0.27848425305E+03  0.27848425306E+03  0.25500000920E-02 0.  1.
        2   -1    0    0  501    0  0.00000000000E+00  0.00000000000E+00 -0.89898346035E+03  0.89898346035E+03  0.25500000920E-02 0. -1.
    10030    2    1    2    0    0  0.00000000000E+00  0.00000000000E+00 -0.62049920730E+03  0.11774677134E+04  0.10007052263E+04 0.  0.
        3    1    3    3  502    0 -0.39822244854E+03 -0.10840799229E+03 -0.64309323899E+03  0.76413502443E+03  0.10100000352E+00 0. -1.
       -3    1    3    3    0  502  0.39822244854E+03  0.10840799229E+03  0.22594031693E+02  0.41333268899E+03  0.10100000352E+00 0.  1.
</event>
<event>
 5   0  0.1353789E-03  0.9997252E+03  0.7818609E-02  0.9308846E-01
       -1   -1    0    0    0  501  0.00000000000E+00  0.00000000000E+00  0.35578023621E+03  0.35578023625E+03  0.50400001928E-02 0.  1.
        1   -1    0    0  501    0  0.00000000000E+00  0.00000000000E+00 -0.70229483868E+03  0.70229483869E+03  0.50400001928E-02 0. -1.
    10030    2    1    2    0    0  0.00000000000E+00  0.00000000000E+00 -0.34651460246E+03  0.10580750749E+04  0.99972520949E+03 0.  0.
        1    1    3    3  502    0  0.38275676387E+03  0.31328566936E+03 -0.24966496233E+03  0.55406068652E+03  0.50400001928E-02 0. -1.
       -1    1    3    3    0  502 -0.38275676387E+03 -0.31328566936E+03 -0.96849640135E+02  0.50401438842E+03  0.50400001928E-02 0.  1.
</event>
<event>
 5   0  0.1293716E-03  0.1000353E+04  0.7818609E-02  0.9308157E-01
       -1   -1    0    0    0  501  0.00000000000E+00  0.00000000000E+00  0.13843768334E+04  0.13843768334E+04  0.50400001928E-02 0. -1.
        1   -1    0    0  501    0  0.00000000000E+00  0.00000000000E+00 -0.18071428394E+03  0.18071428401E+03  0.50400001928E-02 0.  1.
    10030    2    1    2    0    0  0.00000000000E+00  0.00000000000E+00  0.12036625495E+04  0.15650911174E+04  0.10003532740E+04 0.  0.
        3    1    3    3  502    0  0.15031464428E+03  0.39279131365E+03  0.10254057407E+04  0.11083034113E+04  0.10100000352E+00 0. -1.
       -3    1    3    3    0  502 -0.15031464428E+03 -0.39279131365E+03  0.17825680879E+03  0.45678770610E+03  0.10100000352E+00 0.  1.
</event>
<event>
 5   0  0.1285769E-03  0.1003009E+04  0.7818609E-02  0.9305251E-01
       -1   -1    0    0    0  501  0.00000000000E+00  0.00000000000E+00  0.20967973997E+03  0.20967974003E+03  0.50400001928E-02 0. -1.
        1   -1    0    0  501    0  0.00000000000E+00  0.00000000000E+00 -0.11994809469E+04  0.11994809470E+04  0.50400001928E-02 0.  1.
    10030    2    1    2    0    0  0.00000000000E+00  0.00000000000E+00 -0.98980120698E+03  0.14091606870E+04  0.10030091786E+04 0.  0.
        5    1    3    3  502    0 -0.22521626169E+03  0.33833047575E+03 -0.90761360021E+03  0.99447192652E+03  0.46999998093E+01 0.  1.
       -5    1    3    3    0  502  0.22521626169E+03 -0.33833047575E+03 -0.82187606769E+02  0.41468876047E+03  0.46999998093E+01 0. -1.
</event>
<event>
 5   0  0.1293716E-03  0.1004815E+04  0.7818609E-02  0.9303280E-01
       -1   -1    0    0    0  501  0.00000000000E+00  0.00000000000E+00  0.13064339185E+03  0.13064339194E+03  0.50400001928E-02 0.  1.
        1   -1    0    0  501    0  0.00000000000E+00  0.00000000000E+00 -0.19320783796E+04  0.19320783796E+04  0.50400001928E-02 0. -1.
    10030    2    1    2    0    0  0.00000000000E+00  0.00000000000E+00 -0.18014349877E+04  0.20627217715E+04  0.10048149540E+04 0.  0.
        3    1    3    3  502    0  0.33997946769E+03 -0.35715065310E+03 -0.10983731789E+04  0.12039793511E+04  0.10100000352E+00 0.  1.
       -3    1    3    3    0  502 -0.33997946769E+03  0.35715065310E+03 -0.70306180882E+03  0.85874242045E+03  0.10100000352E+00 0. -1.
</event>
<event>
 5   0  0.2284843E-03  0.9984460E+03  0.7818609E-02  0.9310251E-01
       -2   -1    0    0    0  501  0.00000000000E+00  0.00000000000E+00  0.11497710042E+03  0.11497710045E+03  0.25500000920E-02 0.  1.
        2   -1    0    0  501    0  0.00000000000E+00  0.00000000000E+00 -0.21675932397E+04  0.21675932397E+04  0.25500000920E-02 0. -1.
    10030    2    1    2    0    0  0.00000000000E+00  0.00000000000E+00 -0.20526161393E+04  0.22825703401E+04  0.99844596374E+03 0.  0.
        2    1    3    3  502    0 -0.48075378159E+03 -0.12959084515E+03 -0.11089127525E+04  0.12155679653E+04  0.25500000920E-02 0. -1.
       -2    1    3    3    0  502  0.48075378159E+03  0.12959084515E+03 -0.94370338679E+03  0.10670023748E+04  0.25500000920E-02 0.  1.
</event>
<event>
 5   0  0.2277570E-03  0.1030569E+04  0.7818609E-02  0.9275639E-01
        2   -1    0    0  501    0  0.00000000000E+00  0.00000000000E+00  0.91665189026E+03  0.91665189026E+03  0.25500000920E-02 0.  1.
       -2   -1    0    0    0  501  0.00000000000E+00  0.00000000000E+00 -0.28966052923E+03  0.28966052924E+03  0.25500000920E-02 0. -1.
    10030    2    1    2    0    0  0.00000000000E+00  0.00000000000E+00  0.62699136103E+03  0.12063124195E+04  0.10305685259E+04 0.  0.
        3    1    3    3  502    0  0.48975053221E+03  0.15835525795E+03  0.34182857497E+03  0.61788247781E+03  0.10100000352E+00 0. -1.
       -3    1    3    3    0  502 -0.48975053221E+03 -0.15835525795E+03  0.28516278606E+03  0.58842994169E+03  0.10100000352E+00 0.  1.
</event>
<event>
 5   0  0.1293716E-03  0.1003311E+04  0.7818609E-02  0.9304920E-01
       -1   -1    0    0    0  501  0.00000000000E+00  0.00000000000E+00  0.27069846932E+03  0.27069846937E+03  0.50400001928E-02 0. -1.
        1   -1    0    0  501    0  0.00000000000E+00  0.00000000000E+00 -0.92966330044E+03  0.92966330045E+03  0.50400001928E-02 0.  1.
    10030    2    1    2    0    0  0.00000000000E+00  0.00000000000E+00 -0.65896483111E+03  0.12003617698E+04  0.10033113823E+04 0.  0.
        3    1    3    3  502    0 -0.33526394786E+03  0.22784890023E+03  0.24096578641E+02  0.40607596750E+03  0.10100000352E+00 0. -1.
       -3    1    3    3    0  502  0.33526394786E+03 -0.22784890023E+03 -0.68306140975E+03  0.79428580232E+03  0.10100000352E+00 0.  1.
</event>
<event>
 5   0  0.1249195E-03  0.1008751E+04  0.7818609E-02  0.9298999E-01
        1   -1    0    0  501    0  0.00000000000E+00  0.00000000000E+00  0.15978479465E+04  0.15978479465E+04  0.50400001928E-02 0.  1.
       -1   -1    0    0    0  501  0.00000000000E+00  0.00000000000E+00 -0.15921076027E+03  0.15921076035E+03  0.50400001928E-02 0. -1.
    10030    2    1    2    0    0  0.00000000000E+00  0.00000000000E+00  0.14386371862E+04  0.17570587068E+04  0.10087508839E+04 0.  0.
        2    1    3    3  502    0 -0.16302985751E+02  0.33183914065E+03  0.13803179812E+04  0.14197396705E+04  0.25500000920E-02 0.  1.
       -2    1    3    3    0  502  0.16302985751E+02 -0.33183914065E+03  0.58319204970E+02  0.33731903635E+03  0.25500000920E-02 0. -1.
</event>
<event>
 5   0  0.2284843E-03  0.1001002E+04  0.7818609E-02  0.9307447E-01
        2   -1    0    0  501    0  0.00000000000E+00  0.00000000000E+00  0.14371662223E+04  0.14371662223E+04  0.25500000920E-02 0.  1.
       -2   -1    0    0    0  501  0.00000000000E+00  0.00000000000E+00 -0.17430219535E+03  0.17430219537E+03  0.25500000920E-02 0. -1.
    10030    2    1    2    0    0  0.00000000000E+00  0.00000000000E+00  0.12628640270E+04  0.16114684177E+04  0.10010019533E+04 0.  0.
        2    1    3    3  502    0 -0.33727855303E+03 -0.17863674817E+03  0.11019345118E+03  0.39725370586E+03  0.25500000920E-02 0. -1.
       -2    1    3    3    0  502  0.33727855303E+03  0.17863674817E+03  0.11526705758E+04  0.12142147118E+04  0.25500000920E-02 0.  1.
</event>
<event>
 5   0  0.1293575E-03  0.1000966E+04  0.7818609E-02  0.9307486E-01
        1   -1    0    0  501    0  0.00000000000E+00  0.00000000000E+00  0.10192538609E+04  0.10192538609E+04  0.50400001928E-02 0.  1.
       -1   -1    0    0    0  501  0.00000000000E+00  0.00000000000E+00 -0.24575174056E+03  0.24575174061E+03  0.50400001928E-02 0. -1.
    10030    2    1    2    0    0  0.00000000000E+00  0.00000000000E+00  0.77350212038E+03  0.12650056016E+04  0.10009663539E+04 0.  0.
        4    1    3    3  502    0  0.39307501348E+03  0.24222927798E+03  0.14267766266E+03  0.48326133475E+03  0.12699999809E+01 0. -1.
       -4    1    3    3    0  502 -0.39307501348E+03 -0.24222927798E+03  0.63082445772E+03  0.78174426681E+03  0.12699999809E+01 0.  1.
</event>
<event>
 5   0  0.8680125E-04  0.1034639E+04  0.7818609E-02  0.9271349E-01
       -3   -1    0    0    0  501  0.00000000000E+00  0.00000000000E+00  0.47153271723E+03  0.47153272805E+03  0.10100000352E+00 0.  1.
        3   -1    0    0  501    0  0.00000000000E+00  0.00000000000E+00 -0.56755186510E+03  0.56755187409E+03  0.10100000352E+00 0. -1.
    10030    2    1    2    0    0  0.00000000000E+00  0.00000000000E+00 -0.96019147870E+02  0.10390846021E+04  0.10346386488E+04 0.  0.
        1    1    3    3  502    0  0.12127110219E+03  0.54660404775E+02 -0.55008264227E+03  0.56593758793E+03  0.50400001928E-02 0. -1.
       -1    1    3    3    0  502 -0.12127110219E+03 -0.54660404775E+02  0.45406349440E+03  0.47314701420E+03  0.50400001928E-02 0.  1.
</event>
<event>
 5   0  0.2204862E-03  0.9968772E+03  0.7818609E-02  0.9311976E-01
       -2   -1    0    0    0  501  0.00000000000E+00  0.00000000000E+00  0.10231885103E+04  0.10231885103E+04  0.25500000920E-02 0.  1.
        2   -1    0    0  501    0  0.00000000000E+00  0.00000000000E+00 -0.24281063987E+03  0.24281063988E+03  0.25500000920E-02 0. -1.
    10030    2    1    2    0    0  0.00000000000E+00  0.00000000000E+00  0.78037787039E+03  0.12659991501E+04  0.99687723796E+03 0.  0.
        1    1    3    3  502    0 -0.43836361789E+03 -0.12699912724E+03  0.64465650257E+03  0.78985659846E+03  0.50400001928E-02 0.  1.
       -1    1    3    3    0  502  0.43836361789E+03  0.12699912724E+03  0.13572136782E+03  0.47614255168E+03  0.50400001928E-02 0. -1.
</event>
<event>
 5   0  0.1293575E-03  0.9998069E+03  0.7818609E-02  0.9308757E-01
       -1   -1    0    0    0  501  0.00000000000E+00  0.00000000000E+00  0.44431188367E+03  0.44431188370E+03  0.50400001928E-02 0.  1.
        1   -1    0    0  501    0  0.00000000000E+00  0.00000000000E+00 -0.56245054089E+03  0.56245054091E+03  0.50400001928E-02 0. -1.
    10030    2    1    2    0    0  0.00000000000E+00  0.00000000000E+00 -0.11813865722E+03  0.10067624246E+04  0.99980690000E+03 0.  0.
        4    1    3    3  502    0  0.26813147611E+03 -0.29925710217E+03  0.24040943695E+03  0.46823884072E+03  0.12699999809E+01 0.  1.
       -4    1    3    3    0  502 -0.26813147611E+03  0.29925710217E+03 -0.35854809417E+03  0.53852358390E+03  0.12699999809E+01 0. -1.
</event>
<event>
 5   0  0.1353789E-03  0.1002105E+04  0.7818609E-02  0.9306239E-01
       -1   -1    0    0    0  501  0.00000000000E+00  0.00000000000E+00  0.67381678688E+03  0.67381678689E+03  0.50400001928E-02 0.  1.
        1   -1    0    0  501    0  0.00000000000E+00  0.00000000000E+00 -0.37258459094E+03  0.37258459097E+03  0.50400001928E-02 0. -1.
    10030    2    1    2    0    0  0.00000000000E+00  0.00000000000E+00  0.30123219593E+03  0.10464013779E+04  0.10021052878E+04 0.  0.
        1    1    3    3  502    0 -0.10624524186E+03 -0.17315399018E+03  0.62888319606E+03  0.66088155523E+03  0.50400001928E-02 0.  1.
       -1    1    3    3    0  502  0.10624524186E+03  0.17315399018E+03 -0.32765100013E+03  0.38551982263E+03  0.50400001928E-02 0. -1.
</event>
<event>
 5   0  0.1249195E-03  0.9977514E+03  0.7818609E-02  0.9311014E-01
        1   -1    0    0  501    0  0.00000000000E+00  0.00000000000E+00  0.22962732145E+04  0.22962732145E+04  0.50400001928E-02 0. -1.
       -1   -1    0    0    0  501  0.00000000000E+00  0.00000000000E+00 -0.10838299974E+03  0.10838299986E+03  0.50400001928E-02 0.  1.
    10030    2    1    2    0    0  0.00000000000E+00  0.00000000000E+00  0.21878902148E+04  0.24046562144E+04  0.99775143069E+03 0.  0.
        2    1    3    3  502    0  0.39471666704E+02 -0.49475256062E+03  0.97250813711E+03  0.10918379850E+04  0.25500000920E-02 0.  1.
       -2    1    3    3    0  502 -0.39471666704E+02  0.49475256062E+03  0.12153820776E+04  0.13128182294E+04  0.25500000920E-02 0. -1.
</event>
<event>
 5   0  0.2204862E-03  0.1003617E+04  0.7818609E-02  0.9304587E-01
       -2   -1    0    0    0  501  0.00000000000E+00  0.00000000000E+00  0.15781589910E+03  0.15781589912E+03  0.25500000920E-02 0.  1.
        2   -1    0    0  501    0  0.00000000000E+00  0.00000000000E+00 -0.15956037977E+04  0.15956037977E+04  0.25500000920E-02 0. -1.
    10030    2    1    2    0    0  0.00000000000E+00  0.00000000000E+00 -0.14377878986E+04  0.17534196968E+04  0.10036167555E+04 0.  0.
        1    1    3    3  502    0 -0.12277319115E+03  0.38014949625E+03 -0.18832512764E+03  0.44164833260E+03  0.50400001928E-02 0.  1.
       -1    1    3    3    0  502  0.12277319115E+03 -0.38014949625E+03 -0.12494627710E+04  0.13117713642E+04  0.50400001928E-02 0. -1.
</event>
<event>
 5   0  0.2264577E-03  0.9963293E+03  0.7818609E-02  0.9312580E-01
       -2   -1    0    0    0  501  0.00000000000E+00  0.00000000000E+00  0.20638197770E+03  0.20638197771E+03  0.25500000920E-02 0. -1.
        2   -1    0    0  501    0  0.00000000000E+00  0.00000000000E+00 -0.12024693378E+04  0.12024693378E+04  0.25500000920E-02 0.  1.
    10030    2    1    2    0    0  0.00000000000E+00  0.00000000000E+00 -0.99608736007E+03  0.14088513155E+04  0.99632926297E+03 0.  0.
        5    1    3    3  502    0 -0.22707093861E+03 -0.40966466305E+03 -0.25824134082E+03  0.53488038609E+03  0.46999998093E+01 0. -1.
       -5    1    3    3    0  502  0.22707093861E+03  0.40966466305E+03 -0.73784601925E+03  0.87397092940E+03  0.46999998093E+01 0.  1.
</event>
<event>
 5   0  0.1293716E-03  0.9831253E+03  0.7818609E-02  0.9327249E-01
       -1   -1    0    0    0  501  0.00000000000E+00  0.00000000000E+00  0.24833435732E+03  0.24833435737E+03  0.50400001928E-02 0. -1.
        1   -1    0    0  501    0  0.00000000000E+00  0.00000000000E+00 -0.97301809216E+03  0.97301809217E+03  0.50400001928E-02 0.  1.
    10030    2    1    2    0    0  0.00000000000E+00  0.00000000000E+00 -0.72468373484E+03  0.12213524495E+04  0.98312526692E+03 0.  0.
        3    1    3    3  502    0 -0.17922601977E+03 -0.33870237561E+02 -0.92942166245E+03  0.94715035553E+03  0.10100000352E+00 0.  1.
       -3    1    3    3    0  502  0.17922601977E+03  0.33870237561E+02  0.20473792761E+03  0.27420209401E+03  0.10100000352E+00 0. -1.
</event>
<event>
 5   0  0.2255142E-03  0.9901781E+03  0.7818609E-02  0.9319383E-01
       -2   -1    0    0    0  501  0.00000000000E+00  0.00000000000E+00  0.11579976106E+03  0.11579976109E+03  0.25500000920E-02 0. -1.
        2   -1    0    0  501    0  0.00000000000E+00  0.00000000000E+00 -0.21166981993E+04  0.21166981993E+04  0.25500000920E-02 0.  1.
    10030    2    1    2    0    0  0.00000000000E+00  0.00000000000E+00 -0.20008984382E+04  0.22324979604E+04  0.99017805622E+03 0.  0.
        4    1    3    3  502    0  0.47571768689E+03 -0.10761244483E+03 -0.80882079096E+03  0.94450010095E+03  0.12699999809E+01 0.  1.
       -4    1    3    3    0  502 -0.47571768689E+03  0.10761244483E+03 -0.11920776473E+04  0.12879978594E+04  0.12699999809E+01 0. -1.
</event>
<event>
 5   0  0.1293575E-03  0.1001178E+04  0.7818609E-02  0.9307254E-01
       -1   -1    0    0    0  501  0.00000000000E+00  0.00000000000E+00  0.21328818800E+03  0.21328818806E+03  0.50400001928E-02 0.  1.
        1   -1    0    0  501    0  0.00000000000E+00  0.00000000000E+00 -0.11748854758E+04  0.11748854758E+04  0.50400001928E-02 0. -1.
    10030    2    1    2    0    0  0.00000000000E+00  0.00000000000E+00 -0.96159728783E+03  0.13881736639E+04  0.10011776951E+04 0.  0.
        4    1    3    3  502    0  0.32317207755E+03  0.14826655955E+03  0.77763239517E+01  0.35564764656E+03  0.12699999809E+01 0.  1.
       -4    1    3    3    0  502 -0.32317207755E+03 -0.14826655955E+03 -0.96937361178E+03  0.10325260174E+04  0.12699999809E+01 0. -1.
</event>
<event>
 5   0  0.1285769E-03  0.9960655E+03  0.7818609E-02  0.9312871E-01
        1   -1    0    0  501    0  0.00000000000E+00  0.00000000000E+00  0.13046854600E+04  0.13046854600E+04  0.50400001928E-02 0.  1.
       -1   -1    0    0    0  501  0.00000000000E+00  0.00000000000E+00 -0.19011221502E+03  0.19011221509E+03  0.50400001928E-02 0. -1.
    10030    2    1    2    0    0  0.00000000000E+00  0.00000000000E+00  0.11145732450E+04  0.14947976751E+04  0.99606554558E+03 0.  0.
        5    1    3    3  502    0  0.15884958810E+03 -0.25124880172E+02  0.12646095795E+04  0.12748034868E+04  0.46999998093E+01 0.  1.
       -5    1    3    3    0  502 -0.15884958810E+03  0.25124880172E+02 -0.15003633452E+03  0.21999418837E+03  0.46999998093E+01 0. -1.
</event>
<event>
 5   0  0.1249195E-03  0.1002572E+04  0.7818609E-02  0.9305728E-01
        1   -1    0    0  501    0  0.00000000000E+00  0.00000000000E+00  0.22493360863E+04  0.22493360863E+04  0.50400001928E-02 0. -1.
       -1   -1    0    0    0  501  0.00000000000E+00  0.00000000000E+00 -0.11171638082E+03  0.11171638093E+03  0.50400001928E-02 0.  1.
    10030    2    1    2    0    0  0.00000000000E+00  0.00000000000E+00  0.21376197054E+04  0.23610524672E+04  0.10025720661E+04 0.  0.
        2    1    3    3  502    0  0.32879518883E+03 -0.12426876603E+03  0.19104980897E+04  0.19425632430E+04  0.25500000920E-02 0. -1.
       -2    1    3    3    0  502 -0.32879518883E+03  0.12426876603E+03  0.22712161575E+03  0.41848922418E+03  0.25500000920E-02 0.  1.
</event>
<event>
 5   0  0.1249195E-03  0.1000840E+04  0.7818609E-02  0.9307624E-01
        1   -1    0    0  501    0  0.00000000000E+00  0.00000000000E+00  0.70274525881E+03  0.70274525883E+03  0.50400001928E-02 0. -1.
       -1   -1    0    0    0  501  0.00000000000E+00  0.00000000000E+00 -0.35634526868E+03  0.35634526871E+03  0.50400001928E-02 0.  1.
    10030    2    1    2    0    0  0.00000000000E+00  0.00000000000E+00  0.34639999014E+03  0.10590905275E+04  0.10008395438E+04 0.  0.
        2    1    3    3  502    0  0.32675217295E+03 -0.35694462494E+03  0.38332144014E+02  0.48543362170E+03  0.25500000920E-02 0. -1.
       -2    1    3    3    0  502 -0.32675217295E+03  0.35694462494E+03  0.30806784612E+03  0.57365690584E+03  0.25500000920E-02 0.  1.
</event>
<event>
 5   0  0.1285769E-03  0.9951465E+03  0.7818609E-02  0.9313884E-01
       -1   -1    0    0    0  501  0.00000000000E+00  0.00000000000E+00  0.13046003642E+03  0.13046003652E+03  0.50400001928E-02 0.  1.
        1   -1    0    0  501    0  0.00000000000E+00  0.00000000000E+00 -0.18977391869E+04  0.18977391869E+04  0.50400001928E-02 0. -1.
    10030    2    1    2    0    0  0.00000000000E+00  0.00000000000E+00 -0.17672791505E+04  0.20281992234E+04  0.99514646872E+03 0.  0.
        5    1    3    3  502    0 -0.16168883473E+03  0.94101721214E+02  0.56003607236E+02  0.19533793086E+03  0.46999998093E+01 0.  1.
       -5    1    3    3    0  502  0.16168883473E+03 -0.94101721214E+02 -0.18232827577E+04  0.18328612926E+04  0.46999998093E+01 0. -1.
</event>
<event>
 5   0  0.1285769E-03  0.9899565E+03  0.7818609E-02  0.9319629E-01
        1   -1    0    0  501    0  0.00000000000E+00  0.00000000000E+00  0.48619217158E+03  0.48619217161E+03  0.50400001928E-02 0.  1.
       -1   -1    0    0    0  501  0.00000000000E+00  0.00000000000E+00 -0.50392311539E+03  0.50392311542E+03  0.50400001928E-02 0. -1.
    10030    2    1    2    0    0  0.00000000000E+00  0.00000000000E+00 -0.17730943814E+02  0.99011528703E+03  0.98995651179E+03 0.  0.
        5    1    3    3  502    0  0.37443761222E+03  0.21850674629E+03 -0.24771889170E+03  0.49933502072E+03  0.46999998093E+01 0. -1.
       -5    1    3    3    0  502 -0.37443761222E+03 -0.21850674629E+03  0.22998794788E+03  0.49078026630E+03  0.46999998093E+01 0.  1.
</event>
<event>
 5   0  0.1249195E-03  0.9978050E+03  0.7818609E-02  0.9310955E-01
       -1   -1    0    0    0  501  0.00000000000E+00  0.00000000000E+00  0.23559211955E+03  0.23559211961E+03  0.50400001928E-02 0.  1.
        1   -1    0    0  501    0  0.00000000000E+00  0.00000000000E+00 -0.10565027094E+04  0.10565027094E+04  0.50400001928E-02 0. -1.
    10030    2    1    2    0    0  0.00000000000E+00  0.00000000000E+00 -0.82091058981E+03  0.12920948290E+04  0.99780501634E+03 0.  0.
        2    1    3    3  502    0  0.55842654852E+02 -0.21173765310E+03 -0.99094615639E+03  0.10148524625E+04  0.25500000920E-02 0. -1.
       -2    1    3    3    0  502 -0.55842654852E+02  0.21173765310E+03  0.17003556658E+03  0.27724236645E+03  0.25500000920E-02 0.  1.
</event>
<event>
 5   0  0.1249195E-03  0.1007239E+04  0.7818609E-02  0.9300641E-01
       -1   -1    0    0    0  501  0.00000000000E+00  0.00000000000E+00  0.40037576173E+03  0.40037576176E+03  0.50400001928E-02 0.  1.
        1   -1    0    0  501    0  0.00000000000E+00  0.00000000000E+00 -0.63348596876E+03  0.63348596878E+03  0.50400001928E-02 0. -1.
    10030    2    1    2    0    0  0.00000000000E+00  0.00000000000E+00 -0.23311020703E+03  0.10338617305E+04  0.10072386556E+04 0.  0.
        2    1    3    3  502    0  0.21611786235E+03  0.15470009356E+03 -0.55563925534E+03  0.61593346350E+03  0.25500000920E-02 0. -1.
       -2    1    3    3    0  502 -0.21611786235E+03 -0.15470009356E+03  0.32252904831E+03  0.41792826704E+03  0.25500000920E-02 0.  1.
</event>
<event>
 5   0  0.8680125E-04  0.9986099E+03  0.7818609E-02  0.9310071E-01
        4   -1    0    0  501    0  0.00000000000E+00  0.00000000000E+00  0.83983283861E+03  0.83983379886E+03  0.12699999809E+01 0.  1.
       -4   -1    0    0    0  501  0.00000000000E+00  0.00000000000E+00 -0.29684875054E+03  0.29685146723E+03  0.12699999809E+01 0. -1.
    10030    2    1    2    0    0  0.00000000000E+00  0.00000000000E+00  0.54298408807E+03  0.11366852661E+04  0.99860987089E+03 0.  0.
        3    1    3    3  502    0 -0.48250402495E+03  0.12789689735E+03  0.28484707712E+03  0.57472220941E+03  0.10100000352E+00 0.  1.
       -3    1    3    3    0  502  0.48250402495E+03 -0.12789689735E+03  0.25813701095E+03  0.56196305668E+03  0.10100000352E+00 0. -1.
</event>
<event>
 5   0  0.2204862E-03  0.9970139E+03  0.7818609E-02  0.9311826E-01
        2   -1    0    0  501    0  0.00000000000E+00  0.00000000000E+00  0.53987504296E+03  0.53987504297E+03  0.25500000920E-02 0. -1.
       -2   -1    0    0    0  501  0.00000000000E+00  0.00000000000E+00 -0.46030870291E+03  0.46030870292E+03  0.25500000920E-02 0.  1.
    10030    2    1    2    0    0  0.00000000000E+00  0.00000000000E+00  0.79566340052E+02  0.10001837459E+04  0.99701390314E+03 0.  0.
        1    1    3    3  502    0 -0.29509867795E+03 -0.19656212443E+03  0.39131026760E+03  0.52805645915E+03  0.50400001928E-02 0. -1.
       -1    1    3    3    0  502  0.29509867795E+03  0.19656212443E+03 -0.31174392755E+03  0.47212728674E+03  0.50400001928E-02 0.  1.
</event>
<event>
 5   0  0.1285769E-03  0.9970402E+03  0.7818609E-02  0.9311797E-01
        1   -1    0    0  501    0  0.00000000000E+00  0.00000000000E+00  0.68106885224E+03  0.68106885226E+03  0.50400001928E-02 0. -1.
       -1   -1    0    0    0  501  0.00000000000E+00  0.00000000000E+00 -0.36490040562E+03  0.36490040565E+03  0.50400001928E-02 0.  1.
    10030    2    1    2    0    0  0.00000000000E+00  0.00000000000E+00  0.31616844663E+03  0.10459692579E+04  0.99704022078E+03 0.  0.
        5    1    3    3  502    0  0.27372754733E+03 -0.29685520043E+03  0.46474862792E+03  0.61568105163E+03  0.46999998093E+01 0. -1.
       -5    1    3    3    0  502 -0.27372754733E+03  0.29685520043E+03 -0.14858018130E+03  0.43028820628E+03  0.46999998093E+01 0.  1.
</event>
<event>
 5   0  0.1249195E-03  0.9998220E+03  0.7818609E-02  0.9308740E-01
        1   -1    0    0  501    0  0.00000000000E+00  0.00000000000E+00  0.17407173500E+04  0.17407173500E+04  0.50400001928E-02 0. -1.
       -1   -1    0    0    0  501  0.00000000000E+00  0.00000000000E+00 -0.14356782508E+03  0.14356782517E+03  0.50400001928E-02 0.  1.
    10030    2    1    2    0    0  0.00000000000E+00  0.00000000000E+00  0.15971495250E+04  0.18842851752E+04  0.99982199240E+03 0.  0.
        2    1    3    3  502    0 -0.84455952428E+02  0.43088609687E+01  0.17271394830E+04  0.17292085381E+04  0.25500000920E-02 0. -1.
       -2    1    3    3    0  502  0.84455952428E+02 -0.43088609687E+01 -0.12998995809E+03  0.15507663716E+03  0.25500000920E-02 0.  1.
</event>
<event>
 5   0  0.1353789E-03  0.1002785E+04  0.7818609E-02  0.9305495E-01
       -1   -1    0    0    0  501  0.00000000000E+00  0.00000000000E+00  0.21882320833E+03  0.21882320839E+03  0.50400001928E-02 0.  1.
        1   -1    0    0  501    0  0.00000000000E+00  0.00000000000E+00 -0.11488482966E+04  0.11488482966E+04  0.50400001928E-02 0. -1.
    10030    2    1    2    0    0  0.00000000000E+00  0.00000000000E+00 -0.93002508827E+03  0.13676715050E+04  0.10027854610E+04 0.  0.
        1    1    3    3  502    0  0.13613402894E+02  0.11696902188E+03  0.19969530052E+03  0.23183030409E+03  0.50400001928E-02 0.  1.
       -1    1    3    3    0  502 -0.13613402894E+02 -0.11696902188E+03 -0.11297203888E+04  0.11358412009E+04  0.50400001928E-02 0. -1.
</event>
<event>
 5   0  0.2264577E-03  0.1000438E+04  0.7818609E-02  0.9308064E-01
        2   -1    0    0  501    0  0.00000000000E+00  0.00000000000E+00  0.12342009056E+04  0.12342009056E+04  0.25500000920E-02 0.  1.
       -2   -1    0    0    0  501  0.00000000000E+00  0.00000000000E+00 -0.20273777855E+03  0.20273777857E+03  0.25500000920E-02 0. -1.
    10030    2    1    2    0    0  0.00000000000E+00  0.00000000000E+00  0.10314631271E+04  0.14369386842E+04  0.10004382038E+04 0.  0.
        5    1    3    3  502    0  0.47410994213E+00 -0.14056879777E+02  0.12338851149E+04  0.12339742248E+04  0.46999998093E+01 0.  1.
       -5    1    3    3    0  502 -0.47410994213E+00  0.14056879777E+02 -0.20242198781E+03  0.20296445944E+03  0.46999998093E+01 0. -1.
</event>
<event>
 5   0  0.2264577E-03  0.1006857E+04  0.7818609E-02  0.9301056E-01
        2   -1    0    0  501    0  0.00000000000E+00  0.00000000000E+00  0.84990420547E+03  0.84990420547E+03  0.25500000920E-02 0. -1.
       -2   -1    0    0    0  501  0.00000000000E+00  0.00000000000E+00 -0.29819839765E+03  0.29819839766E+03  0.25500000920E-02 0.  1.
    10030    2    1    2    0    0  0.00000000000E+00  0.00000000000E+00  0.55170580782E+03  0.11481026031E+04  0.10068566377E+04 0.  0.
        5    1    3    3  502    0  0.82380315409E+02 -0.48781511521E+03  0.16969080646E+03  0.52303648323E+03  0.46999998093E+01 0.  1.
       -5    1    3    3    0  502 -0.82380315409E+02  0.48781511521E+03  0.38201500136E+03  0.62506611991E+03  0.46999998093E+01 0. -1.
</event>
<event>
 5   0  0.2255142E-03  0.9988757E+03  0.7818609E-02  0.9309779E-01
        2   -1    0    0  501    0  0.00000000000E+00  0.00000000000E+00  0.80705184565E+03  0.80705184565E+03  0.25500000920E-02 0. -1.
       -2   -1    0    0    0  501  0.00000000000E+00  0.00000000000E+00 -0.30907328351E+03  0.30907328352E+03  0.25500000920E-02 0.  1.
    10030    2    1    2    0    0  0.00000000000E+00  0.00000000000E+00  0.49797856214E+03  0.11161251292E+04  0.99887569578E+03 0.  0.
        4    1    3    3  502    0  0.11159546095E+03 -0.18801490417E+03 -0.25275528373E+03  0.33420053478E+03  0.12699999809E+01 0.  1.
       -4    1    3    3    0  502 -0.11159546095E+03  0.18801490417E+03  0.75073384586E+03  0.78192459439E+03  0.12699999809E+01 0. -1.
</event>
<event>
 5   0  0.1285769E-03  0.9992059E+03  0.7818609E-02  0.9309416E-01
        1   -1    0    0  501    0  0.00000000000E+00  0.00000000000E+00  0.13828423442E+04  0.13828423442E+04  0.50400001928E-02 0.  1.
       -1   -1    0    0    0  501  0.00000000000E+00  0.00000000000E+00 -0.18050003035E+03  0.18050003042E+03  0.50400001928E-02 0. -1.
    10030    2    1    2    0    0  0.00000000000E+00  0.00000000000E+00  0.12023423139E+04  0.15633423747E+04  0.99920585500E+03 0.  0.
        5    1    3    3  502    0  0.76902251845E+02 -0.48604388574E+03  0.73601967703E+03  0.88538108754E+03  0.46999998093E+01 0.  1.
       -5    1    3    3    0  502 -0.76902251845E+02  0.48604388574E+03  0.46632263685E+03  0.67796128712E+03  0.46999998093E+01 0. -1.
</event>
<event>
 5   0  0.2284843E-03  0.1002815E+04  0.7818609E-02  0.9305463E-01
       -2   -1    0    0    0  501  0.00000000000E+00  0.00000000000E+00  0.68310526540E+03  0.68310526541E+03  0.25500000920E-02 0.  1.
        2   -1    0    0  501    0  0.00000000000E+00  0.00000000000E+00 -0.36803919854E+03  0.36803919854E+03  0.25500000920E-02 0. -1.
    10030    2    1    2    0    0  0.00000000000E+00  0.00000000000E+00  0.31506606687E+03  0.10511444640E+04  0.10028150665E+04 0.  0.
        2    1    3    3  502    0 -0.47397233976E+03  0.81607613882E+02  0.89261724087E+01  0.48102937339E+03  0.25500000920E-02 0. -1.
       -2    1    3    3    0  502  0.47397233976E+03 -0.81607613882E+02  0.30613989446E+03  0.57011509056E+03  0.25500000920E-02 0.  1.
</event>
<event>
 5   0  0.1249195E-03  0.9997566E+03  0.7818609E-02  0.9308812E-01
       -1   -1    0    0    0  501  0.00000000000E+00  0.00000000000E+00  0.10735092271E+03  0.10735092283E+03  0.50400001928E-02 0.  1.
        1   -1    0    0  501    0  0.00000000000E+00  0.00000000000E+00 -0.23276774149E+04  0.23276774150E+04  0.50400001928E-02 0. -1.
    10030    2    1    2    0    0  0.00000000000E+00  0.00000000000E+00 -0.22203264922E+04  0.24350283378E+04  0.99975660721E+03 0.  0.
        2    1    3    3  502    0 -0.37243402713E+03 -0.30370830362E+03 -0.14452933892E+04  0.15230951445E+04  0.25500000920E-02 0. -1.
       -2    1    3    3    0  502  0.37243402713E+03  0.30370830362E+03 -0.77503310305E+03  0.91193319332E+03  0.25500000920E-02 0.  1.
</event>
<event>
 5   0  0.2284843E-03  0.1000155E+04  0.7818609E-02  0.9308375E-01
       -2   -1    0    0    0  501  0.00000000000E+00  0.00000000000E+00  0.59271050806E+03  0.59271050807E+03  0.25500000920E-02 0. -1.
        2   -1    0    0  501    0  0.00000000000E+00  0.00000000000E+00 -0.42192149589E+03  0.42192149590E+03  0.25500000920E-02 0.  1.
    10030    2    1    2    0    0  0.00000000000E+00  0.00000000000E+00  0.17078901217E+03  0.10146320040E+04  0.10001545964E+04 0.  0.
        2    1    3    3  502    0 -0.28690916104E+03 -0.20728172188E+03 -0.27298200436E+03  0.44699189436E+03  0.25500000920E-02 0.  1.
       -2    1    3    3    0  502  0.28690916104E+03  0.20728172188E+03  0.44377101653E+03  0.56764010960E+03  0.25500000920E-02 0. -1.
</event>
<event>
 5   0  0.1285769E-03  0.1002521E+04  0.7818609E-02  0.9305784E-01
        1   -1    0    0  501    0  0.00000000000E+00  0.00000000000E+00  0.10033126416E+04  0.10033126417E+04  0.50400001928E-02 0.  1.
       -1   -1    0    0    0  501  0.00000000000E+00  0.00000000000E+00 -0.25043238599E+03  0.25043238604E+03  0.50400001928E-02 0. -1.
    10030    2    1    2    0    0  0.00000000000E+00  0.00000000000E+00  0.75288025566E+03  0.12537450277E+04  0.10025207804E+04 0.  0.
        5    1    3    3  502    0  0.45152107586E+03  0.12820969915E+03  0.15649619960E+03  0.49479506807E+03  0.46999998093E+01 0. -1.
       -5    1    3    3    0  502 -0.45152107586E+03 -0.12820969915E+03  0.59638405606E+03  0.75894995963E+03  0.46999998093E+01 0.  1.
</event>
<event>
 5   0  0.2255142E-03  0.9967412E+03  0.7818609E-02  0.9312126E-01
        2   -1    0    0  501    0  0.00000000000E+00  0.00000000000E+00  0.84174154024E+03  0.84174154025E+03  0.25500000920E-02 0.  1.
       -2   -1    0    0    0  501  0.00000000000E+00  0.00000000000E+00 -0.29507069227E+03  0.29507069228E+03  0.25500000920E-02 0. -1.
    10030    2    1    2    0    0  0.00000000000E+00  0.00000000000E+00  0.54667084797E+03  0.11368122325E+04  0.99674120814E+03 0.  0.
        4    1    3    3  502    0  0.43326562035E+03 -0.19866763246E+03  0.10733567183E+03  0.48858007052E+03  0.12699999809E+01 0. -1.
       -4    1    3    3    0  502 -0.43326562035E+03  0.19866763246E+03  0.43933517614E+03  0.64823216201E+03  0.12699999809E+01 0.  1.
</event>
<event>
 5   0  0.1353789E-03  0.9866918E+03  0.7818609E-02  0.9323263E-01
       -1   -1    0    0    0  501  0.00000000000E+00  0.00000000000E+00  0.15586127981E+03  0.15586127989E+03  0.50400001928E-02 0.  1.
        1   -1    0    0  501    0  0.00000000000E+00  0.00000000000E+00 -0.15615818983E+04  0.15615818983E+04  0.50400001928E-02 0. -1.
    10030    2    1    2    0    0  0.00000000000E+00  0.00000000000E+00 -0.14057206185E+04  0.17174431782E+04  0.98669175180E+03 0.  0.
        1    1    3    3  502    0 -0.23397338976E+03 -0.66829514112E+02 -0.14498637661E+04  0.14701410379E+04  0.50400001928E-02 0. -1.
       -1    1    3    3    0  502  0.23397338976E+03  0.66829514112E+02  0.44143147625E+02  0.24730214027E+03  0.50400001928E-02 0.  1.
</event>
<event>
 5   0  0.1285769E-03  0.9950580E+03  0.7818609E-02  0.9313982E-01
        1   -1    0    0  501    0  0.00000000000E+00  0.00000000000E+00  0.33285907396E+03  0.33285907400E+03  0.50400001928E-02 0. -1.
       -1   -1    0    0    0  501  0.00000000000E+00  0.00000000000E+00 -0.74366343751E+03  0.74366343753E+03  0.50400001928E-02 0.  1.
    10030    2    1    2    0    0  0.00000000000E+00  0.00000000000E+00 -0.41080436355E+03  0.10765225115E+04  0.99505803485E+03 0.  0.
        5    1    3    3  502    0  0.22736959395E+03  0.28951925313E+03 -0.56745626203E+03  0.67642222724E+03  0.46999998093E+01 0.  1.
       -5    1    3    3    0  502 -0.22736959395E+03 -0.28951925313E+03  0.15665189849E+03  0.40010028429E+03  0.46999998093E+01 0. -1.
</event>
<event>
 5   0  0.1293575E-03  0.9965897E+03  0.7818609E-02  0.9312293E-01
        1   -1    0    0  501    0  0.00000000000E+00  0.00000000000E+00  0.21946216177E+03  0.21946216183E+03  0.50400001928E-02 0. -1.
       -1   -1    0    0    0  501  0.00000000000E+00  0.00000000000E+00 -0.11313921500E+04  0.11313921500E+04  0.50400001928E-02 0.  1.
    10030    2    1    2    0    0  0.00000000000E+00  0.00000000000E+00 -0.91192998820E+03  0.13508543118E+04  0.99658971916E+03 0.  0.
        4    1    3    3  502    0  0.23388364406E+03 -0.20772746791E+02 -0.10517014545E+04  0.10775948350E+04  0.12699999809E+01 0.  1.
       -4    1    3    3    0  502 -0.23388364406E+03  0.20772746791E+02  0.13977146635E+03  0.27325947683E+03  0.12699999809E+01 0. -1.
</event>
<event>
 5   0  0.2284843E-03  0.1015012E+04  0.7818609E-02  0.9292231E-01
        2   -1    0    0  501    0  0.00000000000E+00  0.00000000000E+00  0.22591063145E+04  0.22591063145E+04  0.25500000920E-02 0.  1.
       -2   -1    0    0    0  501  0.00000000000E+00  0.00000000000E+00 -0.11401079995E+03  0.11401079998E+03  0.25500000920E-02 0. -1.
    10030    2    1    2    0    0  0.00000000000E+00  0.00000000000E+00  0.21450955146E+04  0.23731171145E+04  0.10150123509E+04 0.  0.
        2    1    3    3  502    0 -0.47027887946E+03 -0.16411675697E+03  0.84507430373E+03  0.98094195201E+03  0.25500000920E-02 0.  1.
       -2    1    3    3    0  502  0.47027887946E+03  0.16411675697E+03  0.13000212108E+04  0.13921751625E+04  0.25500000920E-02 0. -1.
</event>
<event>
 5   0  0.2277570E-03  0.1004131E+04  0.7818609E-02  0.9304026E-01
       -2   -1    0    0    0  501  0.00000000000E+00  0.00000000000E+00  0.42544803162E+03  0.42544803163E+03  0.25500000920E-02 0.  1.
        2   -1    0    0  501    0  0.00000000000E+00  0.00000000000E+00 -0.59248036357E+03  0.59248036358E+03  0.25500000920E-02 0. -1.
    10030    2    1    2    0    0  0.00000000000E+00  0.00000000000E+00 -0.16703233195E+03  0.10179283952E+04  0.10041306777E+04 0.  0.
        3    1    3    3  502    0  0.16573766770E+03  0.46366977100E+03 -0.18289878820E+03  0.52527193715E+03  0.10100000352E+00 0. -1.
       -3    1    3    3    0  502 -0.16573766770E+03 -0.46366977100E+03  0.15866456254E+02  0.49265645806E+03  0.10100000352E+00 0.  1.
</event>
<event>
 5   0  0.1285769E-03  0.9974014E+03  0.7818609E-02  0.9311400E-01
       -1   -1    0    0    0  501  0.00000000000E+00  0.00000000000E+00  0.28003947062E+03  0.28003947067E+03  0.50400001928E-02 0. -1.
        1   -1    0    0  501    0  0.00000000000E+00  0.00000000000E+00 -0.88809760796E+03  0.88809760797E+03  0.50400001928E-02 0.  1.
    10030    2    1    2    0    0  0.00000000000E+00  0.00000000000E+00 -0.60805813734E+03  0.11681370786E+04  0.99740139167E+03 0.  0.
        5    1    3    3  502    0 -0.28229808881E+03  0.23513973967E+03  0.90881793532E+02  0.37850297028E+03  0.46999998093E+01 0. -1.
       -5    1    3    3    0  502  0.28229808881E+03 -0.23513973967E+03 -0.69893993087E+03  0.78963410836E+03  0.46999998093E+01 0.  1.
</event>
<event>
 5   0  0.2264577E-03  0.9994522E+03  0.7818609E-02  0.9309146E-01
       -2   -1    0    0    0  501  0.00000000000E+00  0.00000000000E+00  0.14180925260E+03  0.14180925263E+03  0.25500000920E-02 0.  1.
        2   -1    0    0  501    0  0.00000000000E+00  0.00000000000E+00 -0.17610004773E+04  0.17610004773E+04  0.25500000920E-02 0. -1.
    10030    2    1    2    0    0  0.00000000000E+00  0.00000000000E+00 -0.16191912247E+04  0.19028097300E+04  0.99945217304E+03 0.  0.
        5    1    3    3  502    0  0.38459207787E+03  0.15474363983E+03 -0.13407923928E+04  0.14034254490E+04  0.46999998093E+01 0. -1.
       -5    1    3    3    0  502 -0.38459207787E+03 -0.15474363983E+03 -0.27839883196E+03  0.49938428095E+03  0.46999998093E+01 0.  1.
</event>
<event>
 5   0  0.2264577E-03  0.9972209E+03  0.7818609E-02  0.9311598E-01
       -2   -1    0    0    0  501  0.00000000000E+00  0.00000000000E+00  0.29475034355E+03  0.29475034356E+03  0.25500000920E-02 0.  1.
        2   -1    0    0  501    0  0.00000000000E+00  0.00000000000E+00 -0.84346772002E+03  0.84346772002E+03  0.25500000920E-02 0. -1.
    10030    2    1    2    0    0  0.00000000000E+00  0.00000000000E+00 -0.54871737647E+03  0.11382180636E+04  0.99722093893E+03 0.  0.
        5    1    3    3  502    0 -0.40675356539E+03  0.47570459877E+02 -0.59896106768E+03  0.72559483337E+03  0.46999998093E+01 0. -1.
       -5    1    3    3    0  502  0.40675356539E+03 -0.47570459877E+02  0.50243691213E+02  0.41262323022E+03  0.46999998093E+01 0.  1.
</event>
<event>
 5   0  0.2264577E-03  0.9982866E+03  0.7818609E-02  0.9310426E-01
        2   -1    0    0  501    0  0.00000000000E+00  0.00000000000E+00  0.44636909300E+03  0.44636909301E+03  0.25500000920E-02 0.  1.
       -2   -1    0    0    0  501  0.00000000000E+00  0.00000000000E+00 -0.55815696245E+03  0.55815696246E+03  0.25500000920E-02 0. -1.
    10030    2    1    2    0    0  0.00000000000E+00  0.00000000000E+00 -0.11178786945E+03  0.10045260555E+04  0.99828656625E+03 0.  0.
        5    1    3    3  502    0 -0.10337208874E+03  0.45966369088E+03 -0.22168241057E+03  0.52071266415E+03  0.46999998093E+01 0. -1.
       -5    1    3    3    0  502  0.10337208874E+03 -0.45966369088E+03  0.10989454112E+03  0.48381339131E+03  0.46999998093E+01 0.  1.
</event>
<event>
 5   0  0.1293575E-03  0.9975119E+03  0.7818609E-02  0.9311278E-01
        1   -1    0    0  501    0  0.00000000000E+00  0.00000000000E+00  0.20978282135E+03  0.20978282141E+03  0.50400001928E-02 0.  1.
       -1   -1    0    0    0  501  0.00000000000E+00  0.00000000000E+00 -0.11857858635E+04  0.11857858636E+04  0.50400001928E-02 0. -1.
    10030    2    1    2    0    0  0.00000000000E+00  0.00000000000E+00 -0.97600304220E+03  0.13955686850E+04  0.99751191275E+03 0.  0.
        4    1    3    3  502    0 -0.38953492398E+03  0.30875553840E+03 -0.54548955235E+03  0.73798909485E+03  0.12699999809E+01 0. -1.
       -4    1    3    3    0  502  0.38953492398E+03 -0.30875553840E+03 -0.43051348985E+03  0.65757959012E+03  0.12699999809E+01 0.  1.
</event>
<event>
 5   0  0.2255142E-03  0.1000529E+04  0.7818609E-02  0.9307965E-01
       -2   -1    0    0    0  501  0.00000000000E+00  0.00000000000E+00  0.89445098360E+03  0.89445098360E+03  0.25500000920E-02 0.  1.
        2   -1    0    0  501    0  0.00000000000E+00  0.00000000000E+00 -0.27979681835E+03  0.27979681836E+03  0.25500000920E-02 0. -1.
    10030    2    1    2    0    0  0.00000000000E+00  0.00000000000E+00  0.61465416525E+03  0.11742478020E+04  0.10005289389E+04 0.  0.
        4    1    3    3  502    0  0.22382810546E+03  0.38943693651E+03  0.56579902648E+03  0.72241975304E+03  0.12699999809E+01 0.  1.
       -4    1    3    3    0  502 -0.22382810546E+03 -0.38943693651E+03  0.48855138770E+02  0.45182804892E+03  0.12699999809E+01 0. -1.
</event>
<event>
 5   0  0.1353789E-03  0.9944888E+03  0.7818609E-02  0.9314610E-01
        1   -1    0    0  501    0  0.00000000000E+00  0.00000000000E+00  0.98903667288E+03  0.98903667290E+03  0.50400001928E-02 0.  1.
       -1   -1    0    0    0  501  0.00000000000E+00  0.00000000000E+00 -0.24999275436E+03  0.24999275441E+03  0.50400001928E-02 0. -1.
    10030    2    1    2    0    0  0.00000000000E+00  0.00000000000E+00  0.73904391852E+03  0.12390294273E+04  0.99448881755E+03 0.  0.
        1    1    3    3  502    0 -0.14091004619E+03  0.46547524854E+03  0.24047004387E+03  0.54253911393E+03  0.50400001928E-02 0.  1.
       -1    1    3    3    0  502  0.14091004619E+03 -0.46547524854E+03  0.49857387465E+03  0.69649031338E+03  0.50400001928E-02 0. -1.
</event>
<event>
 5   0  0.8680125E-04  0.9961487E+03  0.7818609E-02  0.9312779E-01
       -3   -1    0    0    0  501  0.00000000000E+00  0.00000000000E+00  0.95203129150E+02  0.95203182725E+02  0.10100000352E+00 0. -1.
        3   -1    0    0  501    0  0.00000000000E+00  0.00000000000E+00 -0.26057755559E+04  0.26057755578E+04  0.10100000352E+00 0.  1.
    10030    2    1    2    0    0  0.00000000000E+00  0.00000000000E+00 -0.25105724267E+04  0.27009787405E+04  0.99614870732E+03 0.  0.
        5    1    3    3  502    0 -0.32706163840E+03  0.35605221426E+03 -0.93089463918E+03  0.10489658783E+04  0.46999998093E+01 0. -1.
       -5    1    3    3    0  502  0.32706163840E+03 -0.35605221426E+03 -0.15796777875E+04  0.16520128622E+04  0.46999998093E+01 0.  1.
</event>
<event>
 5   0  0.1353789E-03  0.9969664E+03  0.7818609E-02  0.9311878E-01
       -1   -1    0    0    0  501  0.00000000000E+00  0.00000000000E+00  0.31888830427E+03  0.31888830431E+03  0.50400001928E-02 0. -1.
        1   -1    0    0  501    0  0.00000000000E+00  0.00000000000E+00 -0.77922426774E+03  0.77922426776E+03  0.50400001928E-02 0.  1.
    10030    2    1    2    0    0  0.00000000000E+00  0.00000000000E+00 -0.46033596347E+03  0.10981125721E+04  0.99696640949E+03 0.  0.
        1    1    3    3  502    0 -0.18277533203E+03 -0.22189603940E+03 -0.67871923090E+03  0.73709189978E+03  0.50400001928E-02 0.  1.
       -1    1    3    3    0  502  0.18277533203E+03  0.22189603940E+03  0.21838326743E+03  0.36102067228E+03  0.50400001928E-02 0. -1.
</event>
<event>
 5   0  0.1249195E-03  0.1000083E+04  0.7818609E-02  0.9308454E-01
       -1   -1    0    0    0  501  0.00000000000E+00  0.00000000000E+00  0.21821283321E+03  0.21821283327E+03  0.50400001928E-02 0.  1.
        1   -1    0    0  501    0  0.00000000000E+00  0.00000000000E+00 -0.11458599378E+04  0.11458599378E+04  0.50400001928E-02 0. -1.
    10030    2    1    2    0    0  0.00000000000E+00  0.00000000000E+00 -0.92764710460E+03  0.13640727711E+04  0.10000826837E+04 0.  0.
        2    1    3    3  502    0  0.14478825155E+03  0.25027656418E+03  0.92630915985E+02  0.30361568300E+03  0.25500000920E-02 0.  1.
       -2    1    3    3    0  502 -0.14478825155E+03 -0.25027656418E+03 -0.10202780206E+04  0.10604570881E+04  0.25500000920E-02 0. -1.
</event>
<event>
 5   0  0.2255142E-03  0.1000641E+04  0.7818609E-02  0.9307842E-01
        2   -1    0    0  501    0  0.00000000000E+00  0.00000000000E+00  0.14450711742E+04  0.14450711742E+04  0.25500000920E-02 0. -1.
       -2   -1    0    0    0  501  0.00000000000E+00  0.00000000000E+00 -0.17322383433E+03  0.17322383434E+03  0.25500000920E-02 0.  1.
    10030    2    1    2    0    0  0.00000000000E+00  0.00000000000E+00  0.12718473398E+04  0.16182950085E+04  0.10006413337E+04 0.  0.
        4    1    3    3  502    0 -0.14064981288E+02 -0.49825287068E+03  0.70577366811E+03  0.86404388218E+03  0.12699999809E+01 0. -1.
       -4    1    3    3    0  502  0.14064981288E+02  0.49825287068E+03  0.56607367173E+03  0.75425112633E+03  0.12699999809E+01 0.  1.
</event>
<event>
 5   0  0.1293575E-03  0.9963543E+03  0.7818609E-02  0.9312552E-01
        1   -1    0    0  501    0  0.00000000000E+00  0.00000000000E+00  0.35620974421E+03  0.35620974424E+03  0.50400001928E-02 0. -1.
       -1   -1    0    0    0  501  0.00000000000E+00  0.00000000000E+00 -0.69672569672E+03  0.69672569674E+03  0.50400001928E-02 0.  1.
    10030    2    1    2    0    0  0.00000000000E+00  0.00000000000E+00 -0.34051595251E+03  0.10529354410E+04  0.99635431898E+03 0.  0.
        4    1    3    3  502    0  0.18737156333E+03 -0.34320755613E+03  0.15594453966E+03  0.42097487060E+03  0.12699999809E+01 0. -1.
       -4    1    3    3    0  502 -0.18737156333E+03  0.34320755613E+03 -0.49646049217E+03  0.63196057038E+03  0.12699999809E+01 0.  1.
</event>
<event>
 5   0  0.1293716E-03  0.1006750E+04  0.7818609E-02  0.9301172E-01
        1   -1    0    0  501    0  0.00000000000E+00  0.00000000000E+00  0.92168243905E+03  0.92168243907E+03  0.50400001928E-02 0. -1.
       -1   -1    0    0    0  501  0.00000000000E+00  0.00000000000E+00 -0.27491749817E+03  0.27491749822E+03  0.50400001928E-02 0.  1.
    10030    2    1    2    0    0  0.00000000000E+00  0.00000000000E+00  0.64676494088E+03  0.11965999373E+04  0.10067504761E+04 0.  0.
        3    1    3    3  502    0 -0.32885733192E+03  0.29922308271E+03  0.60390923802E+03  0.74992531359E+03  0.10100000352E+00 0. -1.
       -3    1    3    3    0  502  0.32885733192E+03 -0.29922308271E+03  0.42855702861E+02  0.44667462370E+03  0.10100000352E+00 0.  1.
</event>
<event>
 5   0  0.2204862E-03  0.9936712E+03  0.7818609E-02  0.9315513E-01
       -2   -1    0    0    0  501  0.00000000000E+00  0.00000000000E+00  0.15628727832E+03  0.15628727834E+03  0.25500000920E-02 0. -1.
        2   -1    0    0  501    0  0.00000000000E+00  0.00000000000E+00 -0.15794352286E+04  0.15794352286E+04  0.25500000920E-02 0.  1.
    10030    2    1    2    0    0  0.00000000000E+00  0.00000000000E+00 -0.14231479502E+04  0.17357225069E+04  0.99367123975E+03 0.  0.
        1    1    3    3  502    0  0.83721688650E+02  0.21573169778E+03 -0.14795526717E+04  0.14975398476E+04  0.50400001928E-02 0.  1.
       -1    1    3    3    0  502 -0.83721688650E+02 -0.21573169778E+03  0.56404721498E+02  0.23818265934E+03  0.50400001928E-02 0. -1.
</event>
<event>
 5   0  0.2264577E-03  0.1003407E+04  0.7818609E-02  0.9304816E-01
        2   -1    0    0  501    0  0.00000000000E+00  0.00000000000E+00  0.99212858061E+03  0.99212858062E+03  0.25500000920E-02 0.  1.
       -2   -1    0    0    0  501  0.00000000000E+00  0.00000000000E+00 -0.25370341322E+03  0.25370341323E+03  0.25500000920E-02 0. -1.
    10030    2    1    2    0    0  0.00000000000E+00  0.00000000000E+00  0.73842516740E+03  0.12458319938E+04  0.10034070107E+04 0.  0.
        5    1    3    3  502    0  0.17722036164E+03 -0.71477868910E+02  0.94514479215E+03  0.96428051440E+03  0.46999998093E+01 0.  1.
       -5    1    3    3    0  502 -0.17722036164E+03  0.71477868910E+02 -0.20671962475E+03  0.28155147945E+03  0.46999998093E+01 0. -1.
</event>
<event>
 5   0  0.1293575E-03  0.9841948E+03  0.7818609E-02  0.9326052E-01
       -1   -1    0    0    0  501  0.00000000000E+00  0.00000000000E+00  0.81439748819E+03  0.81439748821E+03  0.50400001928E-02 0.  1.
        1   -1    0    0  501    0  0.00000000000E+00  0.00000000000E+00 -0.29734848968E+03  0.29734848972E+03  0.50400001928E-02 0. -1.
    10030    2    1    2    0    0  0.00000000000E+00  0.00000000000E+00  0.51704899851E+03  0.11117459779E+04  0.98419482451E+03 0.  0.
        4    1    3    3  502    0  0.48841841423E+03  0.51810806767E+02  0.29281195060E+03  0.57181934068E+03  0.12699999809E+01 0. -1.
       -4    1    3    3    0  502 -0.48841841423E+03 -0.51810806767E+02  0.22423704791E+03  0.53992663725E+03  0.12699999809E+01 0.  1.
</event>
<event>
 5   0  0.2255142E-03  0.1000949E+04  0.7818609E-02  0.9307504E-01
        2   -1    0    0  501    0  0.00000000000E+00  0.00000000000E+00  0.56323845000E+03  0.56323845001E+03  0.25500000920E-02 0.  1.
       -2   -1    0    0    0  501  0.00000000000E+00  0.00000000000E+00 -0.44470479192E+03  0.44470479193E+03  0.25500000920E-02 0. -1.
    10030    2    1    2    0    0  0.00000000000E+00  0.00000000000E+00  0.11853365808E+03  0.10079432419E+04  0.10009492249E+04 0.  0.
        4    1    3    3  502    0 -0.12577566909E+03 -0.23533392026E+03 -0.36709649540E+03  0.45383149163E+03  0.12699999809E+01 0. -1.
       -4    1    3    3    0  502  0.12577566909E+03  0.23533392026E+03  0.48563015348E+03  0.55411175031E+03  0.12699999809E+01 0.  1.
</event>
<event>
 5   0  0.2284843E-03  0.1000737E+04  0.7818609E-02  0.9307737E-01
        2   -1    0    0  501    0  0.00000000000E+00  0.00000000000E+00  0.63796551864E+03  0.63796551864E+03  0.25500000920E-02 0. -1.
       -2   -1    0    0    0  501  0.00000000000E+00  0.00000000000E+00 -0.39244828085E+03  0.39244828086E+03  0.25500000920E-02 0.  1.
    10030    2    1    2    0    0  0.00000000000E+00  0.00000000000E+00  0.24551723779E+03  0.10304137995E+04  0.10007366707E+04 0.  0.
        2    1    3    3  502    0 -0.77932976569E+02 -0.22929874192E+03  0.57359834220E+03  0.62262871767E+03  0.25500000920E-02 0. -1.
       -2    1    3    3    0  502  0.77932976569E+02  0.22929874192E+03 -0.32808110441E+03  0.40778508183E+03  0.25500000920E-02 0.  1.
</event>
<event>
 5   0  0.1353789E-03  0.9976614E+03  0.7818609E-02  0.9311113E-01
       -1   -1    0    0    0  501  0.00000000000E+00  0.00000000000E+00  0.22039691552E+03  0.22039691558E+03  0.50400001928E-02 0.  1.
        1   -1    0    0  501    0  0.00000000000E+00  0.00000000000E+00 -0.11290178700E+04  0.11290178700E+04  0.50400001928E-02 0. -1.
    10030    2    1    2    0    0  0.00000000000E+00  0.00000000000E+00 -0.90862095448E+03  0.13494147856E+04  0.99766137775E+03 0.  0.
        1    1    3    3  502    0 -0.27499112247E+03  0.28089193176E+03 -0.86968992280E+03  0.95440083645E+03  0.50400001928E-02 0. -1.
       -1    1    3    3    0  502  0.27499112247E+03 -0.28089193176E+03 -0.38931031680E+02  0.39501394914E+03  0.50400001928E-02 0.  1.
</event>
<event>
 5   0  0.2284843E-03  0.9567874E+03  0.7818609E-02  0.9357252E-01
        2   -1    0    0  501    0  0.00000000000E+00  0.00000000000E+00  0.10882894856E+04  0.10882894856E+04  0.25500000920E-02 0. -1.
       -2   -1    0    0    0  501  0.00000000000E+00  0.00000000000E+00 -0.21029378326E+03  0.21029378327E+03  0.25500000920E-02 0.  1.
    10030    2    1    2    0    0  0.00000000000E+00  0.00000000000E+00  0.87799570235E+03  0.12985832689E+04  0.95678736033E+03 0.  0.
        2    1    3    3  502    0  0.31207005465E+03  0.19730260440E+03  0.26112356971E+02  0.37013226272E+03  0.25500000920E-02 0.  1.
       -2    1    3    3    0  502 -0.31207005465E+03 -0.19730260440E+03  0.85188334538E+03  0.92845100617E+03  0.25500000920E-02 0. -1.
</event>
<event>
 5   0  0.1249195E-03  0.9966549E+03  0.7818609E-02  0.9312221E-01
       -1   -1    0    0    0  501  0.00000000000E+00  0.00000000000E+00  0.13281312400E+04  0.13281312400E+04  0.50400001928E-02 0. -1.
        1   -1    0    0  501    0  0.00000000000E+00  0.00000000000E+00 -0.18697718464E+03  0.18697718471E+03  0.50400001928E-02 0.  1.
    10030    2    1    2    0    0  0.00000000000E+00  0.00000000000E+00  0.11411540553E+04  0.15151084247E+04  0.99665488539E+03 0.  0.
        2    1    3    3  502    0  0.19949263397E+03  0.45545235388E+03  0.62090628574E+03  0.79546135880E+03  0.25500000920E-02 0.  1.
       -2    1    3    3    0  502 -0.19949263397E+03 -0.45545235388E+03  0.52024776959E+03  0.71964706588E+03  0.25500000920E-02 0. -1.
</event>
<event>
 5   0  0.1293575E-03  0.1001846E+04  0.7818609E-02  0.9306522E-01
        1   -1    0    0  501    0  0.00000000000E+00  0.00000000000E+00  0.29847954638E+03  0.29847954642E+03  0.50400001928E-02 0. -1.
       -1   -1    0    0    0  501  0.00000000000E+00  0.00000000000E+00 -0.84067377606E+03  0.84067377607E+03  0.50400001928E-02 0.  1.
    10030    2    1    2    0    0  0.00000000000E+00  0.00000000000E+00 -0.54219422968E+03  0.11391533225E+04  0.10018461506E+04 0.  0.
        4    1    3    3  502    0  0.24539040625E+03  0.43492434106E+03 -0.31581502070E+03  0.59086070620E+03  0.12699999809E+01 0.  1.
       -4    1    3    3    0  502 -0.24539040625E+03 -0.43492434106E+03 -0.22637920898E+03  0.54829261630E+03  0.12699999809E+01 0. -1.
</event>
<event>
 5   0  0.2204862E-03  0.9950059E+03  0.7818609E-02  0.9314039E-01
       -2   -1    0    0    0  501  0.00000000000E+00  0.00000000000E+00  0.21688181704E+03  0.21688181706E+03  0.25500000920E-02 0. -1.
        2   -1    0    0  501    0  0.00000000000E+00  0.00000000000E+00 -0.11412167943E+04  0.11412167943E+04  0.25500000920E-02 0.  1.
    10030    2    1    2    0    0  0.00000000000E+00  0.00000000000E+00 -0.92433497730E+03  0.13580986114E+04  0.99500587337E+03 0.  0.
        1    1    3    3  502    0  0.38033371725E+02  0.48228026845E+02 -0.11360219642E+04  0.11376811430E+04  0.50400001928E-02 0.  1.
       -1    1    3    3    0  502 -0.38033371725E+02 -0.48228026845E+02  0.21168698690E+03  0.22041746842E+03  0.50400001928E-02 0. -1.
</event>
<event>
 5   0  0.2284843E-03  0.9979633E+03  0.7818609E-02  0.9310781E-01
        2   -1    0    0  501    0  0.00000000000E+00  0.00000000000E+00  0.27122674501E+04  0.27122674501E+04  0.25500000920E-02 0. -1.
       -2   -1    0    0    0  501  0.00000000000E+00  0.00000000000E+00 -0.91798714029E+02  0.91798714064E+02  0.25500000920E-02 0.  1.
    10030    2    1    2    0    0  0.00000000000E+00  0.00000000000E+00  0.26204687361E+04  0.28040661642E+04  0.99796325398E+03 0.  0.
        2    1    3    3  502    0  0.62426542468E+02 -0.24186066997E+03  0.25239494076E+04  0.25362796117E+04  0.25500000920E-02 0. -1.
       -2    1    3    3    0  502 -0.62426542468E+02  0.24186066997E+03  0.96519328496E+02  0.26778655243E+03  0.25500000920E-02 0.  1.
</event>
<event>
 5   0  0.1353789E-03  0.1013547E+04  0.7818609E-02  0.9293810E-01
       -1   -1    0    0    0  501  0.00000000000E+00  0.00000000000E+00  0.46967921504E+03  0.46967921506E+03  0.50400001928E-02 0. -1.
        1   -1    0    0  501    0  0.00000000000E+00  0.00000000000E+00 -0.54679780629E+03  0.54679780632E+03  0.50400001928E-02 0.  1.
    10030    2    1    2    0    0  0.00000000000E+00  0.00000000000E+00 -0.77118591255E+02  0.10164770214E+04  0.10135473634E+04 0.  0.
        1    1    3    3  502    0 -0.85868688985E+02 -0.59786627136E+02 -0.53584706954E+03  0.54596699030E+03  0.50400001928E-02 0.  1.
       -1    1    3    3    0  502  0.85868688985E+02  0.59786627136E+02  0.45872847829E+03  0.47051003108E+03  0.50400001928E-02 0. -1.
</event>
<event>
 5   0  0.1249195E-03  0.9985621E+03  0.7818609E-02  0.9310123E-01
       -1   -1    0    0    0  501  0.00000000000E+00  0.00000000000E+00  0.51721615841E+03  0.51721615844E+03  0.50400001928E-02 0.  1.
        1   -1    0    0  501    0  0.00000000000E+00  0.00000000000E+00 -0.48196781802E+03  0.48196781804E+03  0.50400001928E-02 0. -1.
    10030    2    1    2    0    0  0.00000000000E+00  0.00000000000E+00  0.35248340396E+02  0.99918397648E+03  0.99856205283E+03 0.  0.
        2    1    3    3  502    0 -0.70698814446E+02 -0.48911927181E+03 -0.53452167722E+02  0.49708461921E+03  0.25500000920E-02 0. -1.
       -2    1    3    3    0  502  0.70698814446E+02  0.48911927181E+03  0.88700508117E+02  0.50209935726E+03  0.25500000920E-02 0.  1.
</event>
<event>
 5   0  0.2204862E-03  0.9971047E+03  0.7818609E-02  0.9311726E-01
       -2   -1    0    0    0  501  0.00000000000E+00  0.00000000000E+00  0.42976188406E+03  0.42976188407E+03  0.25500000920E-02 0. -1.
        2   -1    0    0  501    0  0.00000000000E+00  0.00000000000E+00 -0.57835380523E+03  0.57835380524E+03  0.25500000920E-02 0.  1.
    10030    2    1    2    0    0  0.00000000000E+00  0.00000000000E+00 -0.14859192117E+03  0.10081156893E+04  0.99710465047E+03 0.  0.
        1    1    3    3  502    0 -0.89305864696E+02  0.97044301951E+02 -0.56039770969E+03  0.57570715390E+03  0.50400001928E-02 0.  1.
       -1    1    3    3    0  502  0.89305864696E+02 -0.97044301951E+02  0.41180578851E+03  0.43240853540E+03  0.50400001928E-02 0. -1.
</event>
<event>
 5   0  0.1249195E-03  0.1010616E+04  0.7818609E-02  0.9296978E-01
        1   -1    0    0  501    0  0.00000000000E+00  0.00000000000E+00  0.71984172181E+03  0.71984172182E+03  0.50400001928E-02 0. -1.
       -1   -1    0    0    0  501  0.00000000000E+00  0.00000000000E+00 -0.35471129346E+03  0.35471129350E+03  0.50400001928E-02 0.  1.
    10030    2    1    2    0    0  0.00000000000E+00  0.00000000000E+00  0.36513042835E+03  0.10745530153E+04  0.10106156307E+04 0.  0.
        2    1    3    3  502    0 -0.30503387429E+02  0.48453895307E+03  0.33152694562E+03  0.58789333162E+03  0.25500000920E-02 0. -1.
       -2    1    3    3    0  502  0.30503387429E+02 -0.48453895307E+03  0.33603482720E+02  0.48665968370E+03  0.25500000920E-02 0.  1.
</event>
<event>
 5   0  0.1293716E-03  0.9961957E+03  0.7818609E-02  0.9312727E-01
        1   -1    0    0  501    0  0.00000000000E+00  0.00000000000E+00  0.13111294058E+04  0.13111294058E+04  0.50400001928E-02 0.  1.
       -1   -1    0    0    0  501  0.00000000000E+00  0.00000000000E+00 -0.18922729391E+03  0.18922729398E+03  0.50400001928E-02 0. -1.
    10030    2    1    2    0    0  0.00000000000E+00  0.00000000000E+00  0.11219021119E+04  0.15003566998E+04  0.99619570262E+03 0.  0.
        3    1    3    3  502    0  0.19776551013E+03 -0.35628328596E+03  0.12953557985E+03  0.42758444019E+03  0.10100000352E+00 0. -1.
       -3    1    3    3    0  502 -0.19776551013E+03  0.35628328596E+03  0.99236653203E+03  0.10727722596E+04  0.10100000352E+00 0.  1.
</event>
<event>
 5   0  0.2204862E-03  0.9903776E+03  0.7818609E-02  0.9319162E-01
       -2   -1    0    0    0  501  0.00000000000E+00  0.00000000000E+00  0.18598245868E+03  0.18598245870E+03  0.25500000920E-02 0.  1.
        2   -1    0    0  501    0  0.00000000000E+00  0.00000000000E+00 -0.13184680840E+04  0.13184680840E+04  0.25500000920E-02 0. -1.
    10030    2    1    2    0    0  0.00000000000E+00  0.00000000000E+00 -0.11324856253E+04  0.15044505427E+04  0.99037757644E+03 0.  0.
        1    1    3    3  502    0  0.74700300351E+02  0.41367699013E+03 -0.96383000359E+03  0.10515117987E+04  0.50400001928E-02 0. -1.
       -1    1    3    3    0  502 -0.74700300351E+02 -0.41367699013E+03 -0.16865562176E+03  0.45293874400E+03  0.50400001928E-02 0.  1.
</event>
<event>
 5   0  0.2255142E-03  0.1004026E+04  0.7818609E-02  0.9304141E-01
       -2   -1    0    0    0  501  0.00000000000E+00  0.00000000000E+00  0.11644434525E+04  0.11644434525E+04  0.25500000920E-02 0.  1.
        2   -1    0    0  501    0  0.00000000000E+00  0.00000000000E+00 -0.21642687995E+03  0.21642687996E+03  0.25500000920E-02 0. -1.
    10030    2    1    2    0    0  0.00000000000E+00  0.00000000000E+00  0.94801657251E+03  0.13808703324E+04  0.10040256238E+04 0.  0.
        4    1    3    3  502    0 -0.38767487553E+02 -0.46478977862E+03  0.21861508829E+03  0.51509865669E+03  0.12699999809E+01 0. -1.
       -4    1    3    3    0  502  0.38767487553E+02  0.46478977862E+03  0.72940148422E+03  0.86577167572E+03  0.12699999809E+01 0.  1.
</event>
<event>
 5   0  0.2255142E-03  0.9990099E+03  0.7818609E-02  0.9309631E-01
        2   -1    0    0  501    0  0.00000000000E+00  0.00000000000E+00  0.13212424225E+04  0.13212424225E+04  0.25500000920E-02 0. -1.
       -2   -1    0    0    0  501  0.00000000000E+00  0.00000000000E+00 -0.18884133046E+03  0.18884133048E+03  0.25500000920E-02 0.  1.
    10030    2    1    2    0    0  0.00000000000E+00  0.00000000000E+00  0.11324010920E+04  0.15100837530E+04  0.99900986370E+03 0.  0.
        4    1    3    3  502    0 -0.34867844063E+02 -0.47473340204E+03  0.33737705174E+03  0.58344876168E+03  0.12699999809E+01 0. -1.
       -4    1    3    3    0  502  0.34867844063E+02  0.47473340204E+03  0.79502404027E+03  0.92663499128E+03  0.12699999809E+01 0.  1.
</event>
<event>
 5   0  0.2277570E-03  0.9976609E+03  0.7818609E-02  0.9311114E-01
        2   -1    0    0  501    0  0.00000000000E+00  0.00000000000E+00  0.14875303667E+04  0.14875303667E+04  0.25500000920E-02 0. -1.
       -2   -1    0    0    0  501  0.00000000000E+00  0.00000000000E+00 -0.16727848758E+03  0.16727848760E+03  0.25500000920E-02 0.  1.
    10030    2    1    2    0    0  0.00000000000E+00  0.00000000000E+00  0.13202518792E+04  0.16548088543E+04  0.99766092435E+03 0.  0.
        3    1    3    3  502    0  0.29414526341E+03 -0.14467295246E+03  0.36449917387E+02  0.32981859535E+03  0.10100000352E+00 0.  1.
       -3    1    3    3    0  502 -0.29414526341E+03  0.14467295246E+03  0.12838019618E+04  0.13249902590E+04  0.10100000352E+00 0. -1.
</event>
<event>
 5   0  0.1353789E-03  0.1000237E+04  0.7818609E-02  0.9308285E-01
        1   -1    0    0  501    0  0.00000000000E+00  0.00000000000E+00  0.87763813020E+03  0.87763813022E+03  0.50400001928E-02 0. -1.
       -1   -1    0    0    0  501  0.00000000000E+00  0.00000000000E+00 -0.28499020564E+03  0.28499020569E+03  0.50400001928E-02 0.  1.
    10030    2    1    2    0    0  0.00000000000E+00  0.00000000000E+00  0.59264792456E+03  0.11626283359E+04  0.10002365145E+04 0.  0.
        1    1    3    3  502    0 -0.37959381376E+03  0.16031677272E+03 -0.33107053485E+02  0.41338723743E+03  0.50400001928E-02 0.  1.
       -1    1    3    3    0  502  0.37959381376E+03 -0.16031677272E+03  0.62575497805E+03  0.74924109847E+03  0.50400001928E-02 0. -1.
</event>
<event>
 5   0  0.2284843E-03  0.9969290E+03  0.7818609E-02  0.9311919E-01
        2   -1    0    0  501    0  0.00000000000E+00  0.00000000000E+00  0.77164481865E+03  0.77164481866E+03  0.25500000920E-02 0. -1.
       -2   -1    0    0    0  501  0.00000000000E+00  0.00000000000E+00 -0.32199641365E+03  0.32199641366E+03  0.25500000920E-02 0.  1.
    10030    2    1    2    0    0  0.00000000000E+00  0.00000000000E+00  0.44964840500E+03  0.10936412323E+04  0.99692901297E+03 0.  0.
        2    1    3    3  502    0  0.85529188276E+02  0.46788816785E+03  0.61254566726E+02  0.47956928761E+03  0.25500000920E-02 0.  1.
       -2    1    3    3    0  502 -0.85529188276E+02 -0.46788816785E+03  0.38839383827E+03  0.61407194471E+03  0.25500000920E-02 0. -1.
</event>
<event>
 5   0  0.2204862E-03  0.9985521E+03  0.7818609E-02  0.9310134E-01
        2   -1    0    0  501    0  0.00000000000E+00  0.00000000000E+00  0.68776014364E+03  0.68776014365E+03  0.25500000920E-02 0.  1.
       -2   -1    0    0    0  501  0.00000000000E+00  0.00000000000E+00 -0.36244699716E+03  0.36244699716E+03  0.25500000920E-02 0. -1.
    10030    2    1    2    0    0  0.00000000000E+00  0.00000000000E+00  0.32531314649E+03  0.10502071408E+04  0.99855214953E+03 0.  0.
        1    1    3    3  502    0 -0.68558126397E+01 -0.33021266507E+03  0.55644367143E+03  0.64708343036E+03  0.50400001928E-02 0.  1.
       -1    1    3    3    0  502  0.68558126397E+01  0.33021266507E+03 -0.23113052494E+03  0.40312371045E+03  0.50400001928E-02 0. -1.
</event>
<event>
 5   0  0.1249195E-03  0.9999155E+03  0.7818609E-02  0.9308637E-01
        1   -1    0    0  501    0  0.00000000000E+00  0.00000000000E+00  0.46818097850E+03  0.46818097853E+03  0.50400001928E-02 0. -1.
       -1   -1    0    0    0  501  0.00000000000E+00  0.00000000000E+00 -0.53389129535E+03  0.53389129538E+03  0.50400001928E-02 0.  1.
    10030    2    1    2    0    0  0.00000000000E+00  0.00000000000E+00 -0.65710316851E+02  0.10020722739E+04  0.99991549462E+03 0.  0.
        2    1    3    3  502    0  0.30591227825E+03  0.87547429243E+02  0.35360712161E+03  0.47569409373E+03  0.25500000920E-02 0. -1.
       -2    1    3    3    0  502 -0.30591227825E+03 -0.87547429243E+02 -0.41931743846E+03  0.52637818017E+03  0.25500000920E-02 0.  1.
</event>
<event>
 5   0  0.1249195E-03  0.9965011E+03  0.7818609E-02  0.9312391E-01
       -1   -1    0    0    0  501  0.00000000000E+00  0.00000000000E+00  0.45609738522E+03  0.45609738525E+03  0.50400001928E-02 0.  1.
        1   -1    0    0  501    0  0.00000000000E+00  0.00000000000E+00 -0.54429952549E+03  0.54429952551E+03  0.50400001928E-02 0. -1.
    10030    2    1    2    0    0  0.00000000000E+00  0.00000000000E+00 -0.88202140268E+02  0.10003969108E+04  0.99650105946E+03 0.  0.
        2    1    3    3  502    0  0.22498236678E+03 -0.99773093865E+02 -0.47901740604E+03  0.53854378737E+03  0.25500000920E-02 0. -1.
       -2    1    3    3    0  502 -0.22498236678E+03  0.99773093865E+02  0.39081526577E+03  0.46185312339E+03  0.25500000920E-02 0.  1.
</event>
<event>
 5   0  0.2204862E-03  0.9987607E+03  0.7818609E-02  0.9309905E-01
       -2   -1    0    0    0  501  0.00000000000E+00  0.00000000000E+00  0.21192216898E+03  0.21192216900E+03  0.25500000920E-02 0. -1.
        2   -1    0    0  501    0  0.00000000000E+00  0.00000000000E+00 -0.11767562883E+04  0.11767562883E+04  0.25500000920E-02 0.  1.
    10030    2    1    2    0    0  0.00000000000E+00  0.00000000000E+00 -0.96483411932E+03  0.13886784573E+04  0.99876072208E+03 0.  0.
        1    1    3    3  502    0  0.46347515821E+03  0.76693857811E+02 -0.71792323529E+03  0.85796558316E+03  0.50400001928E-02 0.  1.
       -1    1    3    3    0  502 -0.46347515821E+03 -0.76693857811E+02 -0.24691088403E+03  0.53071287414E+03  0.50400001928E-02 0. -1.
</event>
<event>
 5   0  0.2255142E-03  0.9934357E+03  0.7818609E-02  0.9315774E-01
        2   -1    0    0  501    0  0.00000000000E+00  0.00000000000E+00  0.10839955840E+04  0.10839955840E+04  0.25500000920E-02 0.  1.
       -2   -1    0    0    0  501  0.00000000000E+00  0.00000000000E+00 -0.22761033618E+03  0.22761033619E+03  0.25500000920E-02 0. -1.
    10030    2    1    2    0    0  0.00000000000E+00  0.00000000000E+00  0.85638524784E+03  0.13116059202E+04  0.99343565328E+03 0.  0.
        4    1    3    3  502    0 -0.12041712776E+03  0.35128936618E+03  0.86372750392E+03  0.94017621613E+03  0.12699999809E+01 0.  1.
       -4    1    3    3    0  502  0.12041712776E+03 -0.35128936618E+03 -0.73422560815E+01  0.37142970408E+03  0.12699999809E+01 0. -1.
</event>
<event>
 5   0  0.2255142E-03  0.9973943E+03  0.7818609E-02  0.9311407E-01
        2   -1    0    0  501    0  0.00000000000E+00  0.00000000000E+00  0.10082537336E+04  0.10082537336E+04  0.25500000920E-02 0.  1.
       -2   -1    0    0    0  501  0.00000000000E+00  0.00000000000E+00 -0.24666294684E+03  0.24666294685E+03  0.25500000920E-02 0. -1.
    10030    2    1    2    0    0  0.00000000000E+00  0.00000000000E+00  0.76159078677E+03  0.12549166805E+04  0.99739427931E+03 0.  0.
        4    1    3    3  502    0 -0.36386865445E+03  0.33954035300E+03  0.42076513144E+03  0.65171539628E+03  0.12699999809E+01 0.  1.
       -4    1    3    3    0  502  0.36386865445E+03 -0.33954035300E+03  0.34082565532E+03  0.60320128418E+03  0.12699999809E+01 0. -1.
</event>
<event>
 5   0  0.1293716E-03  0.9928384E+03  0.7818609E-02  0.9316435E-01
        1   -1    0    0  501    0  0.00000000000E+00  0.00000000000E+00  0.53848021349E+03  0.53848021351E+03  0.50400001928E-02 0.  1.
       -1   -1    0    0    0  501  0.00000000000E+00  0.00000000000E+00 -0.45764359229E+03  0.45764359232E+03  0.50400001928E-02 0. -1.
    10030    2    1    2    0    0  0.00000000000E+00  0.00000000000E+00  0.80836621198E+02  0.99612380583E+03  0.99283839431E+03 0.  0.
        3    1    3    3  502    0 -0.10179340576E+03  0.46252331267E+03  0.18971359500E+03  0.51017739125E+03  0.10100000352E+00 0.  1.
       -3    1    3    3    0  502  0.10179340576E+03 -0.46252331267E+03 -0.10887697380E+03  0.48594641458E+03  0.10100000352E+00 0. -1.
</event>
<event>
 5   0  0.8680125E-04  0.9998888E+03  0.7818609E-02  0.9308667E-01
        3   -1    0    0  501    0  0.00000000000E+00  0.00000000000E+00  0.15210490370E+04  0.15210490404E+04  0.10100000352E+00 0.  1.
       -3   -1    0    0    0  501  0.00000000000E+00  0.00000000000E+00 -0.16432369224E+03  0.16432372328E+03  0.10100000352E+00 0. -1.
    10030    2    1    2    0    0  0.00000000000E+00  0.00000000000E+00  0.13567253448E+04  0.16853727636E+04  0.99988883945E+03 0.  0.
        3    1    3    3  502    0 -0.30835906024E+03 -0.39349191291E+03  0.68648438940E+03  0.84922436532E+03  0.10100000352E+00 0. -1.
       -3    1    3    3    0  502  0.30835906024E+03  0.39349191291E+03  0.67024095536E+03  0.83614839831E+03  0.10100000352E+00 0.  1.
</event>
<event>
 5   0  0.1293716E-03  0.1001974E+04  0.7818609E-02  0.9306382E-01
        1   -1    0    0  501    0  0.00000000000E+00  0.00000000000E+00  0.14709164181E+04  0.14709164181E+04  0.50400001928E-02 0. -1.
       -1   -1    0    0    0  501  0.00000000000E+00  0.00000000000E+00 -0.17063389100E+03  0.17063389108E+03  0.50400001928E-02 0.  1.
    10030    2    1    2    0    0  0.00000000000E+00  0.00000000000E+00  0.13002825271E+04  0.16415503092E+04  0.10019744345E+04 0.  0.
        3    1    3    3  502    0 -0.20500963609E+03  0.45702347540E+03  0.63470508992E+03  0.80854806247E+03  0.10100000352E+00 0. -1.
       -3    1    3    3    0  502  0.20500963609E+03 -0.45702347540E+03  0.66557743719E+03  0.83300224673E+03  0.10100000352E+00 0.  1.
</event>
<event>
 5   0  0.2284843E-03  0.1004860E+04  0.7818609E-02  0.9303230E-01
       -2   -1    0    0    0  501  0.00000000000E+00  0.00000000000E+00  0.12866836105E+03  0.12866836107E+03  0.25500000920E-02 0.  1.
        2   -1    0    0  501    0  0.00000000000E+00  0.00000000000E+00 -0.19619113423E+04  0.19619113423E+04  0.25500000920E-02 0. -1.
    10030    2    1    2    0    0  0.00000000000E+00  0.00000000000E+00 -0.18332429812E+04  0.20905797034E+04  0.10048600240E+04 0.  0.
        2    1    3    3  502    0 -0.36807294609E+03  0.52317320206E+02 -0.21349352722E+03  0.42871235322E+03  0.25500000920E-02 0.  1.
       -2    1    3    3    0  502  0.36807294609E+03 -0.52317320206E+02 -0.16197494540E+04  0.16618673501E+04  0.25500000920E-02 0. -1.
</event>
<event>
 5   0  0.1249195E-03  0.1008117E+04  0.7818609E-02  0.9299687E-01
       -1   -1    0    0    0  501  0.00000000000E+00  0.00000000000E+00  0.79679103141E+03  0.79679103142E+03  0.50400001928E-02 0. -1.
        1   -1    0    0  501    0  0.00000000000E+00  0.00000000000E+00 -0.31887268720E+03  0.31887268724E+03  0.50400001928E-02 0.  1.
    10030    2    1    2    0    0  0.00000000000E+00  0.00000000000E+00  0.47791834421E+03  0.11156637187E+04  0.10081168530E+04 0.  0.
        2    1    3    3  502    0  0.18222270302E+03 -0.18248403535E+03  0.71825470806E+03  0.76314832261E+03  0.25500000920E-02 0. -1.
       -2    1    3    3    0  502 -0.18222270302E+03  0.18248403535E+03 -0.24033636385E+03  0.35251539605E+03  0.25500000920E-02 0.  1.
</event>
<event>
 5   0  0.1249195E-03  0.9973339E+03  0.7818609E-02  0.9311474E-01
       -1   -1    0    0    0  501  0.00000000000E+00  0.00000000000E+00  0.85720668299E+03  0.85720668301E+03  0.50400001928E-02 0. -1.
        1   -1    0    0  501    0  0.00000000000E+00  0.00000000000E+00 -0.29009188508E+03  0.29009188512E+03  0.50400001928E-02 0.  1.
    10030    2    1    2    0    0  0.00000000000E+00  0.00000000000E+00  0.56711479792E+03  0.11472985681E+04  0.99733385103E+03 0.  0.
        2    1    3    3  502    0  0.50350870190E+02  0.48963645947E+03  0.19160273792E+03  0.52819568510E+03  0.25500000920E-02 0.  1.
       -2    1    3    3    0  502 -0.50350870190E+02 -0.48963645947E+03  0.37551206000E+03  0.61910288303E+03  0.25500000920E-02 0. -1.
</event>
<event>
 5   0  0.1353789E-03  0.9977839E+03  0.7818609E-02  0.9310979E-01
       -1   -1    0    0    0  501  0.00000000000E+00  0.00000000000E+00  0.19650025879E+03  0.19650025885E+03  0.50400001928E-02 0.  1.
        1   -1    0    0  501    0  0.00000000000E+00  0.00000000000E+00 -0.12666302003E+04  0.12666302003E+04  0.50400001928E-02 0. -1.
    10030    2    1    2    0    0  0.00000000000E+00  0.00000000000E+00 -0.10701299415E+04  0.14631304592E+04  0.99778386880E+03 0.  0.
        1    1    3    3  502    0  0.34863770599E+02  0.49761297859E+03 -0.54632875802E+03  0.73980353529E+03  0.50400001928E-02 0.  1.
       -1    1    3    3    0  502 -0.34863770599E+02 -0.49761297859E+03 -0.52380118352E+03  0.72332692390E+03  0.50400001928E-02 0. -1.
</event>
<event>
 5   0  0.2284843E-03  0.1004837E+04  0.7818609E-02  0.9303256E-01
        2   -1    0    0  501    0  0.00000000000E+00  0.00000000000E+00  0.69027639905E+03  0.69027639906E+03  0.25500000920E-02 0. -1.
       -2   -1    0    0    0  501  0.00000000000E+00  0.00000000000E+00 -0.36568555451E+03  0.36568555452E+03  0.25500000920E-02 0.  1.
    10030    2    1    2    0    0  0.00000000000E+00  0.00000000000E+00  0.32459084454E+03  0.10559619536E+04  0.10048365196E+04 0.  0.
        2    1    3    3  502    0 -0.92692964707E+01 -0.45818831936E+03  0.37868894071E+03  0.59449791394E+03  0.25500000920E-02 0. -1.
       -2    1    3    3    0  502  0.92692964707E+01  0.45818831936E+03 -0.54098096169E+02  0.46146403963E+03  0.25500000920E-02 0.  1.
</event>
<event>
 5   0  0.2255142E-03  0.1001032E+04  0.7818609E-02  0.9307413E-01
       -2   -1    0    0    0  501  0.00000000000E+00  0.00000000000E+00  0.14017829177E+03  0.14017829179E+03  0.25500000920E-02 0. -1.
        2   -1    0    0  501    0  0.00000000000E+00  0.00000000000E+00 -0.17871270852E+04  0.17871270852E+04  0.25500000920E-02 0.  1.
    10030    2    1    2    0    0  0.00000000000E+00  0.00000000000E+00 -0.16469487934E+04  0.19273053770E+04  0.10010323112E+04 0.  0.
        4    1    3    3  502    0  0.12544865276E+03 -0.67946252388E+02  0.10019822411E+03  0.17434263594E+03  0.12699999809E+01 0. -1.
       -4    1    3    3    0  502 -0.12544865276E+03  0.67946252388E+02 -0.17471470175E+04  0.17529627410E+04  0.12699999809E+01 0.  1.
</event>
<event>
 5   0  0.1353789E-03  0.9972270E+03  0.7818609E-02  0.9311591E-01
        1   -1    0    0  501    0  0.00000000000E+00  0.00000000000E+00  0.62898492353E+03  0.62898492355E+03  0.50400001928E-02 0.  1.
       -1   -1    0    0    0  501  0.00000000000E+00  0.00000000000E+00 -0.39526453534E+03  0.39526453537E+03  0.50400001928E-02 0. -1.
    10030    2    1    2    0    0  0.00000000000E+00  0.00000000000E+00  0.23372038820E+03  0.10242494589E+04  0.99722702242E+03 0.  0.
        1    1    3    3  502    0 -0.48741531704E+03 -0.47973825246E+02  0.21288285582E+03  0.53403585041E+03  0.50400001928E-02 0.  1.
       -1    1    3    3    0  502  0.48741531704E+03  0.47973825246E+02  0.20837532376E+02  0.49021360852E+03  0.50400001928E-02 0. -1.
</event>
<event>
 5   0  0.2204862E-03  0.1002216E+04  0.7818609E-02  0.9306117E-01
        2   -1    0    0  501    0  0.00000000000E+00  0.00000000000E+00  0.12456772108E+04  0.12456772108E+04  0.25500000920E-02 0.  1.
       -2   -1    0    0    0  501  0.00000000000E+00  0.00000000000E+00 -0.20158470160E+03  0.20158470162E+03  0.25500000920E-02 0. -1.
    10030    2    1    2    0    0  0.00000000000E+00  0.00000000000E+00  0.10440925092E+04  0.14472619124E+04  0.10022164813E+04 0.  0.
        1    1    3    3  502    0 -0.42374903548E+03  0.71226795084E+02  0.14973331880E+03  0.45503468900E+03  0.50400001928E-02 0. -1.
       -1    1    3    3    0  502  0.42374903548E+03 -0.71226795084E+02  0.89435919040E+03  0.99222722342E+03  0.50400001928E-02 0.  1.
</event>
<event>
 5   0  0.1249195E-03  0.1000459E+04  0.7818609E-02  0.9308041E-01
       -1   -1    0    0    0  501  0.00000000000E+00  0.00000000000E+00  0.86535004719E+03  0.86535004721E+03  0.50400001928E-02 0.  1.
        1   -1    0    0  501    0  0.00000000000E+00  0.00000000000E+00 -0.28916572086E+03  0.28916572091E+03  0.50400001928E-02 0. -1.
    10030    2    1    2    0    0  0.00000000000E+00  0.00000000000E+00  0.57618432633E+03  0.11545157681E+04  0.10004590351E+04 0.  0.
        2    1    3    3  502    0  0.33257707840E+03  0.16432809901E+03  0.67535436059E+03  0.77052887654E+03  0.25500000920E-02 0.  1.
       -2    1    3    3    0  502 -0.33257707840E+03 -0.16432809901E+03 -0.99170034264E+02  0.38398689158E+03  0.25500000920E-02 0. -1.
</event>
<event>
 5   0  0.1293575E-03  0.1017021E+04  0.7818609E-02  0.9290071E-01
        1   -1    0    0  501    0  0.00000000000E+00  0.00000000000E+00  0.79418109821E+03  0.79418109823E+03  0.50400001928E-02 0.  1.
       -1   -1    0    0    0  501  0.00000000000E+00  0.00000000000E+00 -0.32559693395E+03  0.32559693399E+03  0.50400001928E-02 0. -1.
    10030    2    1    2    0    0  0.00000000000E+00  0.00000000000E+00  0.46858416426E+03  0.11197780322E+04  0.10170210039E+04 0.  0.
        4    1    3    3  502    0  0.30363807980E+03 -0.22312679369E+03  0.61025990560E+03  0.71721713229E+03  0.12699999809E+01 0.  1.
       -4    1    3    3    0  502 -0.30363807980E+03  0.22312679369E+03 -0.14167574133E+03  0.40256089993E+03  0.12699999809E+01 0. -1.
</event>
<event>
 5   0  0.1353789E-03  0.1000889E+04  0.7818609E-02  0.9307571E-01
        1   -1    0    0  501    0  0.00000000000E+00  0.00000000000E+00  0.91755647690E+03  0.91755647691E+03  0.50400001928E-02 0.  1.
       -1   -1    0    0    0  501  0.00000000000E+00  0.00000000000E+00 -0.27294718397E+03  0.27294718401E+03  0.50400001928E-02 0. -1.
    10030    2    1    2    0    0  0.00000000000E+00  0.00000000000E+00  0.64460929293E+03  0.11905036609E+04  0.10008885183E+04 0.  0.
        1    1    3    3  502    0 -0.42896473706E+03 -0.23240412671E+03  0.45487345802E+03  0.66703244793E+03  0.50400001928E-02 0.  1.
       -1    1    3    3    0  502  0.42896473706E+03  0.23240412671E+03  0.18973583491E+03  0.52347121299E+03  0.50400001928E-02 0. -1.
</event>
<event>
 5   0  0.1353789E-03  0.1001174E+04  0.7818609E-02  0.9307259E-01
       -1   -1    0    0    0  501  0.00000000000E+00  0.00000000000E+00  0.43558967415E+03  0.43558967418E+03  0.50400001928E-02 0. -1.
        1   -1    0    0  501    0  0.00000000000E+00  0.00000000000E+00 -0.57528254021E+03  0.57528254023E+03  0.50400001928E-02 0.  1.
    10030    2    1    2    0    0  0.00000000000E+00  0.00000000000E+00 -0.13969286605E+03  0.10108722144E+04  0.10011735799E+04 0.  0.
        1    1    3    3  502    0  0.40861498316E+03 -0.18331941617E+02 -0.36123327338E+03  0.54570297999E+03  0.50400001928E-02 0.  1.
       -1    1    3    3    0  502 -0.40861498316E+03  0.18331941617E+02  0.22154040733E+03  0.46516923442E+03  0.50400001928E-02 0. -1.
</event>
<event>
 5   0  0.1353789E-03  0.1007785E+04  0.7818609E-02  0.9300048E-01
        1   -1    0    0  501    0  0.00000000000E+00  0.00000000000E+00  0.56673989960E+03  0.56673989963E+03  0.50400001928E-02 0.  1.
       -1   -1    0    0    0  501  0.00000000000E+00  0.00000000000E+00 -0.44801411785E+03  0.44801411788E+03  0.50400001928E-02 0. -1.
    10030    2    1    2    0    0  0.00000000000E+00  0.00000000000E+00  0.11872578175E+03  0.10147540175E+04  0.10077846520E+04 0.  0.
        1    1    3    3  502    0 -0.38864807424E+02 -0.10942290250E+03 -0.43435812690E+03  0.44961186292E+03  0.50400001928E-02 0. -1.
       -1    1    3    3    0  502  0.38864807424E+02  0.10942290250E+03  0.55308390866E+03  0.56514215458E+03  0.50400001928E-02 0.  1.
</event>
<event>
 5   0  0.1249195E-03  0.1007823E+04  0.7818609E-02  0.9300006E-01
       -1   -1    0    0    0  501  0.00000000000E+00  0.00000000000E+00  0.31766039866E+03  0.31766039870E+03  0.50400001928E-02 0. -1.
        1   -1    0    0  501    0  0.00000000000E+00  0.00000000000E+00 -0.79936609790E+03  0.79936609791E+03  0.50400001928E-02 0.  1.
    10030    2    1    2    0    0  0.00000000000E+00  0.00000000000E+00 -0.48170569924E+03  0.11170264966E+04  0.10078233047E+04 0.  0.
        2    1    3    3  502    0  0.45938664818E+03 -0.20379436901E+01 -0.11322334232E+02  0.45953067471E+03  0.25500000920E-02 0. -1.
       -2    1    3    3    0  502 -0.45938664818E+03  0.20379436901E+01 -0.47038336501E+03  0.65749582190E+03  0.25500000920E-02 0.  1.
</event>
<event>
 5   0  0.1293575E-03  0.9982395E+03  0.7818609E-02  0.9310478E-01
       -1   -1    0    0    0  501  0.00000000000E+00  0.00000000000E+00  0.59757634847E+03  0.59757634849E+03  0.50400001928E-02 0. -1.
        1   -1    0    0  501    0  0.00000000000E+00  0.00000000000E+00 -0.41688481306E+03  0.41688481310E+03  0.50400001928E-02 0.  1.
    10030    2    1    2    0    0  0.00000000000E+00  0.00000000000E+00  0.18069153541E+03  0.10144611616E+04  0.99823945895E+03 0.  0.
        4    1    3    3  502    0 -0.11390003793E+03  0.67781981020E+02  0.57936313259E+03  0.59433228744E+03  0.12699999809E+01 0. -1.
       -4    1    3    3    0  502  0.11390003793E+03 -0.67781981020E+02 -0.39867159718E+03  0.42012887415E+03  0.12699999809E+01 0.  1.
</event>
<event>
 5   0  0.2284843E-03  0.1002523E+04  0.7818609E-02  0.9305782E-01
        2   -1    0    0  501    0  0.00000000000E+00  0.00000000000E+00  0.69541062642E+03  0.69541062642E+03  0.25500000920E-02 0.  1.
       -2   -1    0    0    0  501  0.00000000000E+00  0.00000000000E+00 -0.36131630788E+03  0.36131630789E+03  0.25500000920E-02 0. -1.
    10030    2    1    2    0    0  0.00000000000E+00  0.00000000000E+00  0.33409431854E+03  0.10567269343E+04  0.10025232167E+04 0.  0.
        2    1    3    3  502    0  0.30991286821E+03  0.26333046631E+03 -0.14184002628E+03  0.43070583166E+03  0.25500000920E-02 0. -1.
       -2    1    3    3    0  502 -0.30991286821E+03 -0.26333046631E+03  0.47593434482E+03  0.62602110264E+03  0.25500000920E-02 0.  1.
</event>
<event>
 5   0  0.1249195E-03  0.9977311E+03  0.7818609E-02  0.9311037E-01
       -1   -1    0    0    0  501  0.00000000000E+00  0.00000000000E+00  0.94362998886E+03  0.94362998887E+03  0.50400001928E-02 0. -1.
        1   -1    0    0  501    0  0.00000000000E+00  0.00000000000E+00 -0.26373348437E+03  0.26373348442E+03  0.50400001928E-02 0.  1.
    10030    2    1    2    0    0  0.00000000000E+00  0.00000000000E+00  0.67989650448E+03  0.12073634733E+04  0.99773107591E+03 0.  0.
        2    1    3    3  502    0 -0.30162870331E+03 -0.29975252270E+03  0.24308330899E+02  0.42593701938E+03  0.25500000920E-02 0.  1.
       -2    1    3    3    0  502  0.30162870331E+03  0.29975252270E+03  0.65558817359E+03  0.78142645391E+03  0.25500000920E-02 0. -1.
</event>
<event>
 5   0  0.1285769E-03  0.1000152E+04  0.7818609E-02  0.9308378E-01
        1   -1    0    0  501    0  0.00000000000E+00  0.00000000000E+00  0.33640766990E+03  0.33640766994E+03  0.50400001928E-02 0. -1.
       -1   -1    0    0    0  501  0.00000000000E+00  0.00000000000E+00 -0.74337190201E+03  0.74337190202E+03  0.50400001928E-02 0.  1.
    10030    2    1    2    0    0  0.00000000000E+00  0.00000000000E+00 -0.40696423211E+03  0.10797795720E+04  0.10001520074E+04 0.  0.
        5    1    3    3  502    0  0.47743452219E+03 -0.35018222342E+02 -0.47463970162E+02  0.48108722425E+03  0.46999998093E+01 0. -1.
       -5    1    3    3    0  502 -0.47743452219E+03  0.35018222342E+02 -0.35950026195E+03  0.59869234771E+03  0.46999998093E+01 0.  1.
</event>
<event>
 5   0  0.2204862E-03  0.9991138E+03  0.7818609E-02  0.9309517E-01
        2   -1    0    0  501    0  0.00000000000E+00  0.00000000000E+00  0.14933391013E+04  0.14933391013E+04  0.25500000920E-02 0. -1.
       -2   -1    0    0    0  501  0.00000000000E+00  0.00000000000E+00 -0.16711348712E+03  0.16711348714E+03  0.25500000920E-02 0.  1.
    10030    2    1    2    0    0  0.00000000000E+00  0.00000000000E+00  0.13262256142E+04  0.16604525884E+04  0.99911381672E+03 0.  0.
        1    1    3    3  502    0 -0.34596710152E+03 -0.84646512031E+02  0.80967047445E+02  0.36525871671E+03  0.50400001928E-02 0.  1.
       -1    1    3    3    0  502  0.34596710152E+03  0.84646512031E+02  0.12452585667E+04  0.12951938717E+04  0.50400001928E-02 0. -1.
</event>
<event>
 5   0  0.2204862E-03  0.9805785E+03  0.7818609E-02  0.9330106E-01
       -2   -1    0    0    0  501  0.00000000000E+00  0.00000000000E+00  0.14281256598E+03  0.14281256600E+03  0.25500000920E-02 0.  1.
        2   -1    0    0  501    0  0.00000000000E+00  0.00000000000E+00 -0.16832100143E+04  0.16832100143E+04  0.25500000920E-02 0. -1.
    10030    2    1    2    0    0  0.00000000000E+00  0.00000000000E+00 -0.15403974483E+04  0.18260225803E+04  0.98057848487E+03 0.  0.
        1    1    3    3  502    0  0.18658385537E+03  0.44041192953E+03 -0.97082606077E+03  0.10822566438E+04  0.50400001928E-02 0. -1.
       -1    1    3    3    0  502 -0.18658385537E+03 -0.44041192953E+03 -0.56957138752E+03  0.74376593648E+03  0.50400001928E-02 0.  1.
</event>
<event>
 5   0  0.2284843E-03  0.1001440E+04  0.7818609E-02  0.9306967E-01
       -2   -1    0    0    0  501  0.00000000000E+00  0.00000000000E+00  0.18992597420E+03  0.18992597422E+03  0.25500000920E-02 0. -1.
        2   -1    0    0  501    0  0.00000000000E+00  0.00000000000E+00 -0.13200959988E+04  0.13200959988E+04  0.25500000920E-02 0.  1.
    10030    2    1    2    0    0  0.00000000000E+00  0.00000000000E+00 -0.11301700246E+04  0.15100219730E+04  0.10014400004E+04 0.  0.
        2    1    3    3  502    0 -0.36376206340E+03  0.32575769164E+03 -0.73217504802E+03  0.88006886854E+03  0.25500000920E-02 0.  1.
       -2    1    3    3    0  502  0.36376206340E+03 -0.32575769164E+03 -0.39799497654E+03  0.62995310444E+03  0.25500000920E-02 0. -1.
</event>
<event>
 5   0  0.2264577E-03  0.1004413E+04  0.7818609E-02  0.9303718E-01
       -2   -1    0    0    0  501  0.00000000000E+00  0.00000000000E+00  0.12412341079E+03  0.12412341082E+03  0.25500000920E-02 0. -1.
        2   -1    0    0  501    0  0.00000000000E+00  0.00000000000E+00 -0.20319400420E+04  0.20319400420E+04  0.25500000920E-02 0.  1.
    10030    2    1    2    0    0  0.00000000000E+00  0.00000000000E+00 -0.19078166312E+04  0.21560634528E+04  0.10044129202E+04 0.  0.
        5    1    3    3  502    0  0.10563041329E+03  0.48985919464E+03 -0.10241062230E+04  0.11401471224E+04  0.46999998093E+01 0.  1.
       -5    1    3    3    0  502 -0.10563041329E+03 -0.48985919464E+03 -0.88371040821E+03  0.10159163304E+04  0.46999998093E+01 0. -1.
</event>
<event>
 5   0  0.1293575E-03  0.1001460E+04  0.7818609E-02  0.9306945E-01
       -1   -1    0    0    0  501  0.00000000000E+00  0.00000000000E+00  0.18918637371E+03  0.18918637377E+03  0.50400001928E-02 0. -1.
        1   -1    0    0  501    0  0.00000000000E+00  0.00000000000E+00 -0.13253085366E+04  0.13253085366E+04  0.50400001928E-02 0.  1.
    10030    2    1    2    0    0  0.00000000000E+00  0.00000000000E+00 -0.11361221628E+04  0.15144949103E+04  0.10014595671E+04 0.  0.
        4    1    3    3  502    0 -0.27674132817E+03 -0.22325890101E+03 -0.11012328849E+04  0.11572146643E+04  0.12699999809E+01 0.  1.
       -4    1    3    3    0  502  0.27674132817E+03  0.22325890101E+03 -0.34889277962E+02  0.35728024604E+03  0.12699999809E+01 0. -1.
</event>
<event>
 5   0  0.2204862E-03  0.1004511E+04  0.7818609E-02  0.9303611E-01
        2   -1    0    0  501    0  0.00000000000E+00  0.00000000000E+00  0.44459643354E+03  0.44459643355E+03  0.25500000920E-02 0. -1.
       -2   -1    0    0    0  501  0.00000000000E+00  0.00000000000E+00 -0.56739262873E+03  0.56739262874E+03  0.25500000920E-02 0.  1.
    10030    2    1    2    0    0  0.00000000000E+00  0.00000000000E+00 -0.12279619519E+03  0.10119890623E+04  0.10045113024E+04 0.  0.
        1    1    3    3  502    0  0.22031434528E+03  0.15517993087E+03 -0.48839463027E+03  0.55780689901E+03  0.50400001928E-02 0.  1.
       -1    1    3    3    0  502 -0.22031434528E+03 -0.15517993087E+03  0.36559843508E+03  0.45418216328E+03  0.50400001928E-02 0. -1.
</event>
<event>
 5   0  0.1353789E-03  0.9939932E+03  0.7818609E-02  0.9315158E-01
       -1   -1    0    0    0  501  0.00000000000E+00  0.00000000000E+00  0.45181064562E+03  0.45181064565E+03  0.50400001928E-02 0. -1.
        1   -1    0    0  501    0  0.00000000000E+00  0.00000000000E+00 -0.54670167484E+03  0.54670167486E+03  0.50400001928E-02 0.  1.
    10030    2    1    2    0    0  0.00000000000E+00  0.00000000000E+00 -0.94891029213E+02  0.99851232051E+03  0.99399323277E+03 0.  0.
        1    1    3    3  502    0  0.37855522057E+03 -0.74060903073E+02 -0.36226555426E+03  0.52917426639E+03  0.50400001928E-02 0.  1.
       -1    1    3    3    0  502 -0.37855522057E+03  0.74060903073E+02  0.26737452504E+03  0.46933805412E+03  0.50400001928E-02 0. -1.
</event>
<event>
 5   0  0.1249195E-03  0.1002086E+04  0.7818609E-02  0.9306260E-01
        1   -1    0    0  501    0  0.00000000000E+00  0.00000000000E+00  0.15643730639E+04  0.15643730640E+04  0.50400001928E-02 0.  1.
       -1   -1    0    0    0  501  0.00000000000E+00  0.00000000000E+00 -0.16047581192E+03  0.16047581200E+03  0.50400001928E-02 0. -1.
    10030    2    1    2    0    0  0.00000000000E+00  0.00000000000E+00  0.14038972520E+04  0.17248488760E+04  0.10020858998E+04 0.  0.
        2    1    3    3  502    0 -0.13329925467E+03  0.45201335962E+03  0.99486246904E+03  0.11008342749E+04  0.25500000920E-02 0. -1.
       -2    1    3    3    0  502  0.13329925467E+03 -0.45201335962E+03  0.40903478299E+03  0.62401460101E+03  0.25500000920E-02 0.  1.
</event>
<event>
 5   0  0.1353789E-03  0.9976351E+03  0.7818609E-02  0.9311142E-01
       -1   -1    0    0    0  501  0.00000000000E+00  0.00000000000E+00  0.18561105878E+03  0.18561105884E+03  0.50400001928E-02 0.  1.
        1   -1    0    0  501    0  0.00000000000E+00  0.00000000000E+00 -0.13405394086E+04  0.13405394086E+04  0.50400001928E-02 0. -1.
    10030    2    1    2    0    0  0.00000000000E+00  0.00000000000E+00 -0.11549283498E+04  0.15261504674E+04  0.99763508162E+03 0.  0.
        1    1    3    3  502    0 -0.27913937477E+03  0.40922315554E+02  0.51837025956E+02  0.28684578391E+03  0.50400001928E-02 0.  1.
       -1    1    3    3    0  502  0.27913937477E+03 -0.40922315554E+02 -0.12067653758E+04  0.12393046835E+04  0.50400001928E-02 0. -1.
</event>
<event>
 5   0  0.1285769E-03  0.9972353E+03  0.7818609E-02  0.9311582E-01
       -1   -1    0    0    0  501  0.00000000000E+00  0.00000000000E+00  0.21533930566E+03  0.21533930572E+03  0.50400001928E-02 0. -1.
        1   -1    0    0  501    0  0.00000000000E+00  0.00000000000E+00 -0.11545479970E+04  0.11545479970E+04  0.50400001928E-02 0.  1.
    10030    2    1    2    0    0  0.00000000000E+00  0.00000000000E+00 -0.93920869138E+03  0.13698873028E+04  0.99723530639E+03 0.  0.
        5    1    3    3  502    0  0.25262829275E+03 -0.35277165863E+02  0.11889098796E+03  0.28146525496E+03  0.46999998093E+01 0. -1.
       -5    1    3    3    0  502 -0.25262829275E+03  0.35277165863E+02 -0.10580996793E+04  0.10884220478E+04  0.46999998093E+01 0.  1.
</event>
<event>
 5   0  0.1249195E-03  0.1031381E+04  0.7818609E-02  0.9274781E-01
       -1   -1    0    0    0  501  0.00000000000E+00  0.00000000000E+00  0.52749322568E+03  0.52749322570E+03  0.50400001928E-02 0.  1.
        1   -1    0    0  501    0  0.00000000000E+00  0.00000000000E+00 -0.50415201814E+03  0.50415201817E+03  0.50400001928E-02 0. -1.
    10030    2    1    2    0    0  0.00000000000E+00  0.00000000000E+00  0.23341207533E+02  0.10316452439E+04  0.10313811600E+04 0.  0.
        2    1    3    3  502    0  0.25578045714E+03  0.39712581086E+03 -0.19527418389E+03  0.51114044920E+03  0.25500000920E-02 0. -1.
       -2    1    3    3    0  502 -0.25578045714E+03 -0.39712581086E+03  0.21861539142E+03  0.52050479467E+03  0.25500000920E-02 0.  1.
</event>
<event>
 5   0  0.2204862E-03  0.1007431E+04  0.7818609E-02  0.9300432E-01
       -2   -1    0    0    0  501  0.00000000000E+00  0.00000000000E+00  0.32733961894E+03  0.32733961895E+03  0.25500000920E-02 0. -1.
        2   -1    0    0  501    0  0.00000000000E+00  0.00000000000E+00 -0.77512568408E+03  0.77512568408E+03  0.25500000920E-02 0.  1.
    10030    2    1    2    0    0  0.00000000000E+00  0.00000000000E+00 -0.44778606513E+03  0.11024653030E+04  0.10074310816E+04 0.  0.
        1    1    3    3  502    0  0.43434795923E+03 -0.25451090968E+03 -0.20508471983E+03  0.54359331781E+03  0.50400001928E-02 0.  1.
       -1    1    3    3    0  502 -0.43434795923E+03  0.25451090968E+03 -0.24270134530E+03  0.55887198523E+03  0.50400001928E-02 0. -1.
</event>
<event>
 5   0  0.2277570E-03  0.1004572E+04  0.7818609E-02  0.9303545E-01
       -2   -1    0    0    0  501  0.00000000000E+00  0.00000000000E+00  0.45394843784E+03  0.45394843785E+03  0.25500000920E-02 0.  1.
        2   -1    0    0  501    0  0.00000000000E+00  0.00000000000E+00 -0.55577026847E+03  0.55577026847E+03  0.25500000920E-02 0. -1.
    10030    2    1    2    0    0  0.00000000000E+00  0.00000000000E+00 -0.10182183063E+03  0.10097187063E+04  0.10045716404E+04 0.  0.
        3    1    3    3  502    0  0.12074091264E+03 -0.12260223038E+03  0.42339814554E+03  0.45702918367E+03  0.10100000352E+00 0.  1.
       -3    1    3    3    0  502 -0.12074091264E+03  0.12260223038E+03 -0.52521997617E+03  0.55268952265E+03  0.10100000352E+00 0. -1.
</event>
<event>
 5   0  0.1353789E-03  0.9988228E+03  0.7818609E-02  0.9309837E-01
        1   -1    0    0  501    0  0.00000000000E+00  0.00000000000E+00  0.10754358454E+04  0.10754358454E+04  0.50400001928E-02 0. -1.
       -1   -1    0    0    0  501  0.00000000000E+00  0.00000000000E+00 -0.23191688224E+03  0.23191688230E+03  0.50400001928E-02 0.  1.
    10030    2    1    2    0    0  0.00000000000E+00  0.00000000000E+00  0.84351896319E+03  0.13073527277E+04  0.99882276379E+03 0.  0.
        1    1    3    3  502    0  0.24686844702E+02 -0.47567635634E+03  0.22527588236E+03  0.52690289379E+03  0.50400001928E-02 0.  1.
       -1    1    3    3    0  502 -0.24686844702E+02  0.47567635634E+03  0.61824308083E+03  0.78044983395E+03  0.50400001928E-02 0. -1.
</event>
<event>
 5   0  0.1249195E-03  0.9995062E+03  0.7818609E-02  0.9309087E-01
       -1   -1    0    0    0  501  0.00000000000E+00  0.00000000000E+00  0.21218819263E+03  0.21218819269E+03  0.50400001928E-02 0.  1.
        1   -1    0    0  501    0  0.00000000000E+00  0.00000000000E+00 -0.11770360624E+04  0.11770360624E+04  0.50400001928E-02 0. -1.
    10030    2    1    2    0    0  0.00000000000E+00  0.00000000000E+00 -0.96484786974E+03  0.13892242551E+04  0.99950618763E+03 0.  0.
        2    1    3    3  502    0 -0.16227809114E+03 -0.41527463345E+03 -0.79620515847E+03  0.91254033030E+03  0.25500000920E-02 0. -1.
       -2    1    3    3    0  502  0.16227809114E+03  0.41527463345E+03 -0.16864271127E+03  0.47668392476E+03  0.25500000920E-02 0.  1.
</event>
<event>
 5   0  0.8680125E-04  0.1002022E+04  0.7818609E-02  0.9306330E-01
       -3   -1    0    0    0  501  0.00000000000E+00  0.00000000000E+00  0.26149327911E+03  0.26149329861E+03  0.10100000352E+00 0.  1.
        3   -1    0    0  501    0  0.00000000000E+00  0.00000000000E+00 -0.95991746304E+03  0.95991746836E+03  0.10100000352E+00 0. -1.
    10030    2    1    2    0    0  0.00000000000E+00  0.00000000000E+00 -0.69842418393E+03  0.12214107670E+04  0.10020219164E+04 0.  0.
        1    1    3    3  502    0  0.41848197841E+03 -0.35155909656E+02 -0.16172274514E+02  0.42026735149E+03  0.50400001928E-02 0.  1.
       -1    1    3    3    0  502 -0.41848197841E+03  0.35155909656E+02 -0.68225190942E+03  0.80114341548E+03  0.50400001928E-02 0. -1.
</event>
<event>
 5   0  0.1293575E-03  0.1003213E+04  0.7818609E-02  0.9305028E-01
        1   -1    0    0  501    0  0.00000000000E+00  0.00000000000E+00  0.76543950163E+03  0.76543950165E+03  0.50400001928E-02 0. -1.
       -1   -1    0    0    0  501  0.00000000000E+00  0.00000000000E+00 -0.32871176972E+03  0.32871176976E+03  0.50400001928E-02 0.  1.
    10030    2    1    2    0    0  0.00000000000E+00  0.00000000000E+00  0.43672773192E+03  0.10941512714E+04  0.10032127855E+04 0.  0.
        4    1    3    3  502    0  0.38983498375E+03 -0.21820961649E+03 -0.30391253361E+02  0.44778565460E+03  0.12699999809E+01 0. -1.
       -4    1    3    3    0  502 -0.38983498375E+03  0.21820961649E+03  0.46711898528E+03  0.64636561681E+03  0.12699999809E+01 0.  1.
</event>
<event>
 5   0  0.1249195E-03  0.1000955E+04  0.7818609E-02  0.9307498E-01
        1   -1    0    0  501    0  0.00000000000E+00  0.00000000000E+00  0.31985391546E+03  0.31985391550E+03  0.50400001928E-02 0.  1.
       -1   -1    0    0    0  501  0.00000000000E+00  0.00000000000E+00 -0.78310062504E+03  0.78310062506E+03  0.50400001928E-02 0. -1.
    10030    2    1    2    0    0  0.00000000000E+00  0.00000000000E+00 -0.46324670958E+03  0.11029545406E+04  0.10009551461E+04 0.  0.
        2    1    3    3  502    0  0.76368172822E+02 -0.89161676657E+01  0.31330727377E+03  0.32260353945E+03  0.25500000920E-02 0.  1.
       -2    1    3    3    0  502 -0.76368172822E+02  0.89161676657E+01 -0.77655398335E+03  0.78035100110E+03  0.25500000920E-02 0. -1.
</event>
<event>
 5   0  0.1293716E-03  0.9997945E+03  0.7818609E-02  0.9308770E-01
       -1   -1    0    0    0  501  0.00000000000E+00  0.00000000000E+00  0.34382592370E+03  0.34382592374E+03  0.50400001928E-02 0. -1.
        1   -1    0    0  501    0  0.00000000000E+00  0.00000000000E+00 -0.72681325137E+03  0.72681325139E+03  0.50400001928E-02 0.  1.
    10030    2    1    2    0    0  0.00000000000E+00  0.00000000000E+00 -0.38298732767E+03  0.10706391751E+04  0.99979445396E+03 0.  0.
        3    1    3    3  502    0 -0.36671855605E+03  0.85773062403E+02 -0.54350794762E+03  0.66124157228E+03  0.10100000352E+00 0.  1.
       -3    1    3    3    0  502  0.36671855605E+03 -0.85773062403E+02  0.16052061995E+03  0.40939760285E+03  0.10100000352E+00 0. -1.
</event>
<event>
 5   0  0.2204862E-03  0.9996405E+03  0.7818609E-02  0.9308939E-01
       -2   -1    0    0    0  501  0.00000000000E+00  0.00000000000E+00  0.26930654674E+03  0.26930654675E+03  0.25500000920E-02 0. -1.
        2   -1    0    0  501    0  0.00000000000E+00  0.00000000000E+00 -0.92764272538E+03  0.92764272538E+03  0.25500000920E-02 0.  1.
    10030    2    1    2    0    0  0.00000000000E+00  0.00000000000E+00 -0.65833617863E+03  0.11969492721E+04  0.99964045334E+03 0.  0.
        1    1    3    3  502    0  0.18507078855E+03 -0.45751794031E+03 -0.23453419863E+03  0.54642488307E+03  0.50400001928E-02 0.  1.
       -1    1    3    3    0  502 -0.18507078855E+03  0.45751794031E+03 -0.42380198001E+03  0.65052438907E+03  0.50400001928E-02 0. -1.
</event>
<event>
 5   0  0.1285769E-03  0.1005810E+04  0.7818609E-02  0.9302195E-01
       -1   -1    0    0    0  501  0.00000000000E+00  0.00000000000E+00  0.47206284997E+03  0.47206285000E+03  0.50400001928E-02 0.  1.
        1   -1    0    0  501    0  0.00000000000E+00  0.00000000000E+00 -0.53576228419E+03  0.53576228421E+03  0.50400001928E-02 0. -1.
    10030    2    1    2    0    0  0.00000000000E+00  0.00000000000E+00 -0.63699434220E+02  0.10078251342E+04  0.10058100632E+04 0.  0.
        5    1    3    3  502    0  0.62766504871E+02  0.31554703288E+03  0.35542404730E+03  0.47943498777E+03  0.46999998093E+01 0.  1.
       -5    1    3    3    0  502 -0.62766504871E+02 -0.31554703288E+03 -0.41912348152E+03  0.52839014644E+03  0.46999998093E+01 0. -1.
</event>
<event>
 5   0  0.2284843E-03  0.1001262E+04  0.7818609E-02  0.9307162E-01
       -2   -1    0    0    0  501  0.00000000000E+00  0.00000000000E+00  0.77419170716E+03  0.77419170717E+03  0.25500000920E-02 0. -1.
        2   -1    0    0  501    0  0.00000000000E+00  0.00000000000E+00 -0.32373301982E+03  0.32373301983E+03  0.25500000920E-02 0.  1.
    10030    2    1    2    0    0  0.00000000000E+00  0.00000000000E+00  0.45045868734E+03  0.10979247270E+04  0.10012620422E+04 0.  0.
        2    1    3    3  502    0 -0.49846396781E+03  0.24888812354E+02  0.26833942687E+03  0.56664965208E+03  0.25500000920E-02 0. -1.
       -2    1    3    3    0  502  0.49846396781E+03 -0.24888812354E+02  0.18211926048E+03  0.53127507492E+03  0.25500000920E-02 0.  1.
</event>
<event>
 5   0  0.1249195E-03  0.1005474E+04  0.7818609E-02  0.9302561E-01
        1   -1    0    0  501    0  0.00000000000E+00  0.00000000000E+00  0.13096285967E+04  0.13096285967E+04  0.50400001928E-02 0. -1.
       -1   -1    0    0    0  501  0.00000000000E+00  0.00000000000E+00 -0.19298958758E+03  0.19298958765E+03  0.50400001928E-02 0.  1.
    10030    2    1    2    0    0  0.00000000000E+00  0.00000000000E+00  0.11166390092E+04  0.15026181844E+04  0.10054743812E+04 0.  0.
        2    1    3    3  502    0 -0.23296707377E+03 -0.10367367041E+02  0.12239122184E+04  0.12459302782E+04  0.25500000920E-02 0. -1.
       -2    1    3    3    0  502  0.23296707377E+03  0.10367367041E+02 -0.10727320925E+03  0.25668790620E+03  0.25500000920E-02 0.  1.
</event>
<event>
 5   0  0.2277570E-03  0.1002576E+04  0.7818609E-02  0.9305724E-01
        2   -1    0    0  501    0  0.00000000000E+00  0.00000000000E+00  0.68372760720E+03  0.68372760720E+03  0.25500000920E-02 0. -1.
       -2   -1    0    0    0  501  0.00000000000E+00  0.00000000000E+00 -0.36752907587E+03  0.36752907587E+03  0.25500000920E-02 0.  1.
    10030    2    1    2    0    0  0.00000000000E+00  0.00000000000E+00  0.31619853133E+03  0.10512566831E+04  0.10025762328E+04 0.  0.
        3    1    3    3  502    0 -0.47799050395E+03  0.14019556165E+03  0.99155455131E+02  0.50789913551E+03  0.10100000352E+00 0. -1.
       -3    1    3    3    0  502  0.47799050395E+03 -0.14019556165E+03  0.21704307620E+03  0.54335754757E+03  0.10100000352E+00 0.  1.
</event>
<event>
 5   0  0.1353789E-03  0.9941008E+03  0.7818609E-02  0.9315039E-01
        1   -1    0    0  501    0  0.00000000000E+00  0.00000000000E+00  0.13999715267E+04  0.13999715267E+04  0.50400001928E-02 0.  1.
       -1   -1    0    0    0  501  0.00000000000E+00  0.00000000000E+00 -0.17647437623E+03  0.17647437631E+03  0.50400001928E-02 0. -1.
    10030    2    1    2    0    0  0.00000000000E+00  0.00000000000E+00  0.12234971504E+04  0.15764459030E+04  0.99410080370E+03 0.  0.
        1    1    3    3  502    0  0.17706757851E+03  0.44935663582E+03  0.79793529464E+03  0.93272452953E+03  0.50400001928E-02 0.  1.
       -1    1    3    3    0  502 -0.17706757851E+03 -0.44935663582E+03  0.42556185580E+03  0.64372137346E+03  0.50400001928E-02 0. -1.
</event>
<event>
 5   0  0.2277570E-03  0.9997945E+03  0.7818609E-02  0.9308770E-01
        2   -1    0    0  501    0  0.00000000000E+00  0.00000000000E+00  0.18400525243E+04  0.18400525243E+04  0.25500000920E-02 0. -1.
       -2   -1    0    0    0  501  0.00000000000E+00  0.00000000000E+00 -0.13580984336E+03  0.13580984339E+03  0.25500000920E-02 0.  1.
    10030    2    1    2    0    0  0.00000000000E+00  0.00000000000E+00  0.17042426809E+04  0.19758623677E+04  0.99979446913E+03 0.  0.
        3    1    3    3  502    0 -0.35854771420E+03 -0.82804826305E+02  0.18344091783E+03  0.41117354384E+03  0.10100000352E+00 0.  1.
       -3    1    3    3    0  502  0.35854771420E+03  0.82804826305E+02  0.15208017631E+04  0.15646888238E+04  0.10100000352E+00 0. -1.
</event>
<event>
 5   0  0.1293716E-03  0.9983024E+03  0.7818609E-02  0.9310409E-01
        1   -1    0    0  501    0  0.00000000000E+00  0.00000000000E+00  0.65458634595E+03  0.65458634597E+03  0.50400001928E-02 0.  1.
       -1   -1    0    0    0  501  0.00000000000E+00  0.00000000000E+00 -0.38062497908E+03  0.38062497911E+03  0.50400001928E-02 0. -1.
    10030    2    1    2    0    0  0.00000000000E+00  0.00000000000E+00  0.27396136687E+03  0.10352113251E+04  0.99830238758E+03 0.  0.
        3    1    3    3  502    0  0.13911794961E+03 -0.40853556784E+03  0.39704522667E+03  0.58642990742E+03  0.10100000352E+00 0.  1.
       -3    1    3    3    0  502 -0.13911794961E+03  0.40853556784E+03 -0.12308385980E+03  0.44878141766E+03  0.10100000352E+00 0. -1.
</event>
<event>
 5   0  0.1285769E-03  0.9988251E+03  0.7818609E-02  0.9309834E-01
        1   -1    0    0  501    0  0.00000000000E+00  0.00000000000E+00  0.96866527436E+03  0.96866527438E+03  0.50400001928E-02 0. -1.
       -1   -1    0    0    0  501  0.00000000000E+00  0.00000000000E+00 -0.25748101226E+03  0.25748101231E+03  0.50400001928E-02 0.  1.
    10030    2    1    2    0    0  0.00000000000E+00  0.00000000000E+00  0.71118426210E+03  0.12261462867E+04  0.99882514071E+03 0.  0.
        5    1    3    3  502    0 -0.37912695515E+03 -0.16599567843E+03  0.69865648268E+03  0.81205589965E+03  0.46999998093E+01 0. -1.
       -5    1    3    3    0  502  0.37912695515E+03  0.16599567843E+03  0.12527779425E+02  0.41409038704E+03  0.46999998093E+01 0.  1.
</event>
<event>
 5   0  0.1293716E-03  0.1000100E+04  0.7818609E-02  0.9308435E-01
       -1   -1    0    0    0  501  0.00000000000E+00  0.00000000000E+00  0.46771438828E+03  0.46771438831E+03  0.50400001928E-02 0.  1.
        1   -1    0    0  501    0  0.00000000000E+00  0.00000000000E+00 -0.53462094284E+03  0.53462094287E+03  0.50400001928E-02 0. -1.
    10030    2    1    2    0    0  0.00000000000E+00  0.00000000000E+00 -0.66906554561E+02  0.10023353312E+04  0.10000998096E+04 0.  0.
        3    1    3    3  502    0  0.39872431356E+03  0.21161617156E+02  0.26825285058E+03  0.48102857952E+03  0.10100000352E+00 0.  1.
       -3    1    3    3    0  502 -0.39872431356E+03 -0.21161617156E+02 -0.33515940514E+03  0.52130675166E+03  0.10100000352E+00 0. -1.
</event>
<event>
 5   0  0.2264577E-03  0.9833189E+03  0.7818609E-02  0.9327032E-01
       -2   -1    0    0    0  501  0.00000000000E+00  0.00000000000E+00  0.40430644251E+03  0.40430644251E+03  0.25500000920E-02 0.  1.
        2   -1    0    0  501    0  0.00000000000E+00  0.00000000000E+00 -0.59788558919E+03  0.59788558920E+03  0.25500000920E-02 0. -1.
    10030    2    1    2    0    0  0.00000000000E+00  0.00000000000E+00 -0.19357914668E+03  0.10021920317E+04  0.98331886100E+03 0.  0.
        5    1    3    3  502    0 -0.20856695559E+03  0.15769706451E+03 -0.52111975742E+03  0.58305782791E+03  0.46999998093E+01 0. -1.
       -5    1    3    3    0  502  0.20856695559E+03 -0.15769706451E+03  0.32754061073E+03  0.41913420380E+03  0.46999998093E+01 0.  1.
</event>
<event>
 5   0  0.2204862E-03  0.1000954E+04  0.7818609E-02  0.9307499E-01
        2   -1    0    0  501    0  0.00000000000E+00  0.00000000000E+00  0.67830174550E+03  0.67830174550E+03  0.25500000920E-02 0.  1.
       -2   -1    0    0    0  501  0.00000000000E+00  0.00000000000E+00 -0.36927125433E+03  0.36927125434E+03  0.25500000920E-02 0. -1.
    10030    2    1    2    0    0  0.00000000000E+00  0.00000000000E+00  0.30903049117E+03  0.10475729998E+04  0.10009542175E+04 0.  0.
        1    1    3    3  502    0 -0.15057556240E+03 -0.15967131043E+03  0.62525201581E+03  0.66265225470E+03  0.50400001928E-02 0.  1.
       -1    1    3    3    0  502  0.15057556240E+03  0.15967131043E+03 -0.31622152464E+03  0.38492074514E+03  0.50400001928E-02 0. -1.
</event>
<event>
 5   0  0.2204862E-03  0.9996411E+03  0.7818609E-02  0.9308938E-01
        2   -1    0    0  501    0  0.00000000000E+00  0.00000000000E+00  0.61281098897E+03  0.61281098897E+03  0.25500000920E-02 0.  1.
       -2   -1    0    0    0  501  0.00000000000E+00  0.00000000000E+00 -0.40766339306E+03  0.40766339307E+03  0.25500000920E-02 0. -1.
    10030    2    1    2    0    0  0.00000000000E+00  0.00000000000E+00  0.20514759591E+03  0.10204743820E+04  0.99964114977E+03 0.  0.
        1    1    3    3  502    0 -0.41314026892E+03 -0.27038978555E+03  0.18181293166E+03  0.52616676071E+03  0.50400001928E-02 0.  1.
       -1    1    3    3    0  502  0.41314026892E+03  0.27038978555E+03  0.23334664246E+02  0.49430762134E+03  0.50400001928E-02 0. -1.
</event>
<event>
 5   0  0.1249195E-03  0.9977128E+03  0.7818609E-02  0.9311057E-01
       -1   -1    0    0    0  501  0.00000000000E+00  0.00000000000E+00  0.27729098658E+03  0.27729098662E+03  0.50400001928E-02 0. -1.
        1   -1    0    0  501    0  0.00000000000E+00  0.00000000000E+00 -0.89746041921E+03  0.89746041922E+03  0.50400001928E-02 0.  1.
    10030    2    1    2    0    0  0.00000000000E+00  0.00000000000E+00 -0.62016943263E+03  0.11747514058E+04  0.99771275444E+03 0.  0.
        2    1    3    3  502    0  0.93179143832E+02 -0.39408994403E+03 -0.65310008593E+03  0.76845882068E+03  0.25500000920E-02 0.  1.
       -2    1    3    3    0  502 -0.93179143832E+02  0.39408994403E+03  0.32930653300E+02  0.40629258517E+03  0.25500000920E-02 0. -1.
</event>
<event>
 5   0  0.8680125E-04  0.9971880E+03  0.7818609E-02  0.9311634E-01
       -4   -1    0    0    0  501  0.00000000000E+00  0.00000000000E+00  0.16352609393E+04  0.16352614325E+04  0.12699999809E+01 0. -1.
        4   -1    0    0  501    0  0.00000000000E+00  0.00000000000E+00 -0.15201904245E+03  0.15202434729E+03  0.12699999809E+01 0.  1.
    10030    2    1    2    0    0  0.00000000000E+00  0.00000000000E+00  0.14832418968E+04  0.17872857797E+04  0.99718801333E+03 0.  0.
        1    1    3    3  502    0 -0.26024986170E+03 -0.34472755553E+03  0.29523140865E+03  0.52319084733E+03  0.50400001928E-02 0.  1.
       -1    1    3    3    0  502  0.26024986170E+03  0.34472755553E+03  0.11880104882E+04  0.12640949324E+04  0.50400001928E-02 0. -1.
</event>
<event>
 5   0  0.2284843E-03  0.9943071E+03  0.7818609E-02  0.9314811E-01
        2   -1    0    0  501    0  0.00000000000E+00  0.00000000000E+00  0.21239919657E+04  0.21239919657E+04  0.25500000920E-02 0. -1.
       -2   -1    0    0    0  501  0.00000000000E+00  0.00000000000E+00 -0.11636655855E+03  0.11636655858E+03  0.25500000920E-02 0.  1.
    10030    2    1    2    0    0  0.00000000000E+00  0.00000000000E+00  0.20076254072E+04  0.22403585243E+04  0.99430706620E+03 0.  0.
        2    1    3    3  502    0 -0.22681851993E+03 -0.36555182680E+02  0.10419122472E+02  0.22998147857E+03  0.25500000920E-02 0.  1.
       -2    1    3    3    0  502  0.22681851993E+03  0.36555182680E+02  0.19972062847E+04  0.20103770458E+04  0.25500000920E-02 0. -1.
</event>
<event>
 5   0  0.1285769E-03  0.9799685E+03  0.7818609E-02  0.9330792E-01
        1   -1    0    0  501    0  0.00000000000E+00  0.00000000000E+00  0.42358508404E+03  0.42358508407E+03  0.50400001928E-02 0.  1.
       -1   -1    0    0    0  501  0.00000000000E+00  0.00000000000E+00 -0.56679181659E+03  0.56679181661E+03  0.50400001928E-02 0. -1.
    10030    2    1    2    0    0  0.00000000000E+00  0.00000000000E+00 -0.14320673255E+03  0.99037690068E+03  0.97996848784E+03 0.  0.
        5    1    3    3  502    0  0.17582673399E+03 -0.28266377466E+03 -0.43493344101E+03  0.54772533080E+03  0.46999998093E+01 0. -1.
       -5    1    3    3    0  502 -0.17582673399E+03  0.28266377466E+03  0.29172670846E+03  0.44265156988E+03  0.46999998093E+01 0.  1.
</event>
<event>
 5   0  0.1293575E-03  0.9975891E+03  0.7818609E-02  0.9311193E-01
        1   -1    0    0  501    0  0.00000000000E+00  0.00000000000E+00  0.11577417598E+04  0.11577417598E+04  0.50400001928E-02 0.  1.
       -1   -1    0    0    0  501  0.00000000000E+00  0.00000000000E+00 -0.21489765687E+03  0.21489765693E+03  0.50400001928E-02 0. -1.
    10030    2    1    2    0    0  0.00000000000E+00  0.00000000000E+00  0.94284410295E+03  0.13726394168E+04  0.99758907671E+03 0.  0.
        4    1    3    3  502    0  0.20604989718E+03 -0.51190584733E+01 -0.15355866682E+03  0.25703043000E+03  0.12699999809E+01 0. -1.
       -4    1    3    3    0  502 -0.20604989718E+03  0.51190584733E+01  0.10964027698E+04  0.11156089868E+04  0.12699999809E+01 0.  1.
</event>
<event>
 5   0  0.1293716E-03  0.1023568E+04  0.7818609E-02  0.9283067E-01
       -1   -1    0    0    0  501  0.00000000000E+00  0.00000000000E+00  0.30581967430E+03  0.30581967434E+03  0.50400001928E-02 0. -1.
        1   -1    0    0  501    0  0.00000000000E+00  0.00000000000E+00 -0.85646239639E+03  0.85646239640E+03  0.50400001928E-02 0.  1.
    10030    2    1    2    0    0  0.00000000000E+00  0.00000000000E+00 -0.55064272209E+03  0.11622820707E+04  0.10235683683E+04 0.  0.
        3    1    3    3  502    0  0.19780377982E+03 -0.25379419021E+03  0.17658869028E+03  0.36704414181E+03  0.10100000352E+00 0. -1.
       -3    1    3    3    0  502 -0.19780377982E+03  0.25379419021E+03 -0.72723141236E+03  0.79523792894E+03  0.10100000352E+00 0.  1.
</event>
<event>
 5   0  0.1285769E-03  0.9942347E+03  0.7818609E-02  0.9314891E-01
        1   -1    0    0  501    0  0.00000000000E+00  0.00000000000E+00  0.58185863902E+03  0.58185863904E+03  0.50400001928E-02 0. -1.
       -1   -1    0    0    0  501  0.00000000000E+00  0.00000000000E+00 -0.42471766024E+03  0.42471766027E+03  0.50400001928E-02 0.  1.
    10030    2    1    2    0    0  0.00000000000E+00  0.00000000000E+00  0.15714097878E+03  0.10065762993E+04  0.99423465999E+03 0.  0.
        5    1    3    3  502    0 -0.11144452008E+03  0.83024398513E+02  0.56176914552E+03  0.57872238134E+03  0.46999998093E+01 0. -1.
       -5    1    3    3    0  502  0.11144452008E+03 -0.83024398513E+02 -0.40462816674E+03  0.42785391797E+03  0.46999998093E+01 0.  1.
</event>
<event>
 5   0  0.2284843E-03  0.9909549E+03  0.7818609E-02  0.9318521E-01
       -2   -1    0    0    0  501  0.00000000000E+00  0.00000000000E+00  0.16633825303E+03  0.16633825305E+03  0.25500000920E-02 0. -1.
        2   -1    0    0  501    0  0.00000000000E+00  0.00000000000E+00 -0.14758956308E+04  0.14758956308E+04  0.25500000920E-02 0.  1.
    10030    2    1    2    0    0  0.00000000000E+00  0.00000000000E+00 -0.13095573778E+04  0.16422338839E+04  0.99095489484E+03 0.  0.
        2    1    3    3  502    0 -0.16074258968E+03  0.40463748924E+03 -0.10466979719E+04  0.11336429430E+04  0.25500000920E-02 0.  1.
       -2    1    3    3    0  502  0.16074258968E+03 -0.40463748924E+03 -0.26285940584E+03  0.50859094082E+03  0.25500000920E-02 0. -1.
</event>
<event>
 5   0  0.2284843E-03  0.9984337E+03  0.7818609E-02  0.9310264E-01
        2   -1    0    0  501    0  0.00000000000E+00  0.00000000000E+00  0.11999791393E+04  0.11999791393E+04  0.25500000920E-02 0.  1.
       -2   -1    0    0    0  501  0.00000000000E+00  0.00000000000E+00 -0.20768484202E+03  0.20768484203E+03  0.25500000920E-02 0. -1.
    10030    2    1    2    0    0  0.00000000000E+00  0.00000000000E+00  0.99229429727E+03  0.14076639813E+04  0.99843372936E+03 0.  0.
        2    1    3    3  502    0 -0.15881415182E+03 -0.26121798704E+03  0.10525748056E+04  0.10960704781E+04  0.25500000920E-02 0.  1.
       -2    1    3    3    0  502  0.15881415182E+03  0.26121798704E+03 -0.60280508312E+02  0.31159350324E+03  0.25500000920E-02 0. -1.
</event>
<event>
 5   0  0.1293575E-03  0.9966689E+03  0.7818609E-02  0.9312206E-01
        1   -1    0    0  501    0  0.00000000000E+00  0.00000000000E+00  0.99611306938E+03  0.99611306939E+03  0.50400001928E-02 0. -1.
       -1   -1    0    0    0  501  0.00000000000E+00  0.00000000000E+00 -0.24930626168E+03  0.24930626173E+03  0.50400001928E-02 0.  1.
    10030    2    1    2    0    0  0.00000000000E+00  0.00000000000E+00  0.74680680770E+03  0.12454193311E+04  0.99666890304E+03 0.  0.
        4    1    3    3  502    0  0.14392267805E+03 -0.47646073351E+03  0.34261585735E+03  0.60424813317E+03  0.12699999809E+01 0. -1.
       -4    1    3    3    0  502 -0.14392267805E+03  0.47646073351E+03  0.40419095035E+03  0.64117119795E+03  0.12699999809E+01 0.  1.
</event>
<event>
 5   0  0.1353789E-03  0.9738118E+03  0.7818609E-02  0.9337743E-01
       -1   -1    0    0    0  501  0.00000000000E+00  0.00000000000E+00  0.14399732218E+03  0.14399732227E+03  0.50400001928E-02 0.  1.
        1   -1    0    0  501    0  0.00000000000E+00  0.00000000000E+00 -0.16464012635E+04  0.16464012635E+04  0.50400001928E-02 0. -1.
    10030    2    1    2    0    0  0.00000000000E+00  0.00000000000E+00 -0.15024039413E+04  0.17903985858E+04  0.97381183659E+03 0.  0.
        1    1    3    3  502    0  0.20621667429E+03  0.41184993173E+03 -0.10415043117E+04  0.11388050379E+04  0.50400001928E-02 0. -1.
       -1    1    3    3    0  502 -0.20621667429E+03 -0.41184993173E+03 -0.46089962956E+03  0.65159354783E+03  0.50400001928E-02 0.  1.
</event>
<event>
 5   0  0.1353789E-03  0.9978472E+03  0.7818609E-02  0.9310909E-01
        1   -1    0    0  501    0  0.00000000000E+00  0.00000000000E+00  0.10779474629E+04  0.10779474629E+04  0.50400001928E-02 0.  1.
       -1   -1    0    0    0  501  0.00000000000E+00  0.00000000000E+00 -0.23092475244E+03  0.23092475250E+03  0.50400001928E-02 0. -1.
    10030    2    1    2    0    0  0.00000000000E+00  0.00000000000E+00  0.84702271044E+03  0.13088722154E+04  0.99784718481E+03 0.  0.
        1    1    3    3  502    0  0.42442027199E+03 -0.26225150542E+03  0.41821046973E+03  0.65100569613E+03  0.50400001928E-02 0. -1.
       -1    1    3    3    0  502 -0.42442027199E+03  0.26225150542E+03  0.42881224071E+03  0.65786651927E+03  0.50400001928E-02 0.  1.
</event>
<event>
 5   0  0.8680125E-04  0.9670472E+03  0.7818609E-02  0.9345444E-01
        3   -1    0    0  501    0  0.00000000000E+00  0.00000000000E+00  0.16251452932E+04  0.16251452963E+04  0.10100000352E+00 0. -1.
       -3   -1    0    0    0  501  0.00000000000E+00  0.00000000000E+00 -0.14386099671E+03  0.14386103216E+03  0.10100000352E+00 0.  1.
    10030    2    1    2    0    0  0.00000000000E+00  0.00000000000E+00  0.14812842964E+04  0.17690063285E+04  0.96704716701E+03 0.  0.
        1    1    3    3  502    0 -0.27087246241E+03 -0.16013403635E+03  0.69066612960E+02  0.32215679030E+03  0.50400001928E-02 0.  1.
       -1    1    3    3    0  502  0.27087246241E+03  0.16013403635E+03  0.14122176835E+04  0.14468495382E+04  0.50400001928E-02 0. -1.
</event>
<event>
 5   0  0.1285769E-03  0.9994065E+03  0.7818609E-02  0.9309196E-01
        1   -1    0    0  501    0  0.00000000000E+00  0.00000000000E+00  0.72336646062E+03  0.72336646064E+03  0.50400001928E-02 0. -1.
       -1   -1    0    0    0  501  0.00000000000E+00  0.00000000000E+00 -0.34519621047E+03  0.34519621051E+03  0.50400001928E-02 0.  1.
    10030    2    1    2    0    0  0.00000000000E+00  0.00000000000E+00  0.37817025014E+03  0.10685626711E+04  0.99940654594E+03 0.  0.
        5    1    3    3  502    0  0.47792762496E+03  0.94032896218E+02  0.30826234830E+03  0.57645881523E+03  0.46999998093E+01 0. -1.
       -5    1    3    3    0  502 -0.47792762496E+03 -0.94032896218E+02  0.69907901840E+02  0.49210385592E+03  0.46999998093E+01 0.  1.
</event>
<event>
 5   0  0.2204862E-03  0.1000811E+04  0.7818609E-02  0.9307656E-01
        2   -1    0    0  501    0  0.00000000000E+00  0.00000000000E+00  0.38133299775E+03  0.38133299775E+03  0.25500000920E-02 0.  1.
       -2   -1    0    0    0  501  0.00000000000E+00  0.00000000000E+00 -0.65665904649E+03  0.65665904650E+03  0.25500000920E-02 0. -1.
    10030    2    1    2    0    0  0.00000000000E+00  0.00000000000E+00 -0.27532604875E+03  0.10379920443E+04  0.10008111964E+04 0.  0.
        1    1    3    3  502    0  0.20573086745E+03 -0.33871379145E+03  0.17922604999E+03  0.43494160454E+03  0.50400001928E-02 0.  1.
       -1    1    3    3    0  502 -0.20573086745E+03  0.33871379145E+03 -0.45455209874E+03  0.60305043971E+03  0.50400001928E-02 0. -1.
</event>
<event>
 5   0  0.2277570E-03  0.9770415E+03  0.7818609E-02  0.9334090E-01
        2   -1    0    0  501    0  0.00000000000E+00  0.00000000000E+00  0.22809870375E+03  0.22809870377E+03  0.25500000920E-02 0.  1.
       -2   -1    0    0    0  501  0.00000000000E+00  0.00000000000E+00 -0.10462687052E+04  0.10462687052E+04  0.25500000920E-02 0. -1.
    10030    2    1    2    0    0  0.00000000000E+00  0.00000000000E+00 -0.81817000141E+03  0.12743674089E+04  0.97704152508E+03 0.  0.
        3    1    3    3  502    0  0.13197238350E+01  0.47932674879E+03 -0.53211043940E+03  0.71616855816E+03  0.10100000352E+00 0.  1.
       -3    1    3    3    0  502 -0.13197238350E+01 -0.47932674879E+03 -0.28605956200E+03  0.55819885076E+03  0.10100000352E+00 0. -1.
</event>
<event>
 5   0  0.2204862E-03  0.9942314E+03  0.7818609E-02  0.9314894E-01
        2   -1    0    0  501    0  0.00000000000E+00  0.00000000000E+00  0.12821622139E+04  0.12821622139E+04  0.25500000920E-02 0. -1.
       -2   -1    0    0    0  501  0.00000000000E+00  0.00000000000E+00 -0.19274005036E+03  0.19274005038E+03  0.25500000920E-02 0.  1.
    10030    2    1    2    0    0  0.00000000000E+00  0.00000000000E+00  0.10894221635E+04  0.14749022643E+04  0.99423138090E+03 0.  0.
        1    1    3    3  502    0  0.21655411175E+03  0.40707300631E+03  0.26909122562E+03  0.53386721524E+03  0.50400001928E-02 0. -1.
       -1    1    3    3    0  502 -0.21655411175E+03 -0.40707300631E+03  0.82033093788E+03  0.94103504901E+03  0.50400001928E-02 0.  1.
</event>
<event>
 5   0  0.2277570E-03  0.9956131E+03  0.7818609E-02  0.9313369E-01
       -2   -1    0    0    0  501  0.00000000000E+00  0.00000000000E+00  0.96830348754E+02  0.96830348788E+02  0.25500000920E-02 0. -1.
        2   -1    0    0  501    0  0.00000000000E+00  0.00000000000E+00 -0.25592325232E+04  0.25592325232E+04  0.25500000920E-02 0.  1.
    10030    2    1    2    0    0  0.00000000000E+00  0.00000000000E+00 -0.24624021744E+04  0.26560628719E+04  0.99561313331E+03 0.  0.
        3    1    3    3  502    0  0.11444996217E+03  0.45856361983E+03 -0.81420971501E+03  0.94144402781E+03  0.10100000352E+00 0. -1.
       -3    1    3    3    0  502 -0.11444996217E+03 -0.45856361983E+03 -0.16481924594E+04  0.17146188441E+04  0.10100000352E+00 0.  1.
</event>
<event>
 5   0  0.2264577E-03  0.9999530E+03  0.7818609E-02  0.9308596E-01
        2   -1    0    0  501    0  0.00000000000E+00  0.00000000000E+00  0.46926901553E+03  0.46926901554E+03  0.25500000920E-02 0. -1.
       -2   -1    0    0    0  501  0.00000000000E+00  0.00000000000E+00 -0.53269333842E+03  0.53269333843E+03  0.25500000920E-02 0.  1.
    10030    2    1    2    0    0  0.00000000000E+00  0.00000000000E+00 -0.63424322889E+02  0.10019623540E+04  0.99995295591E+03 0.  0.
        5    1    3    3  502    0  0.24914606489E+02 -0.49711989220E+03  0.15344573507E+02  0.49800248069E+03  0.46999998093E+01 0.  1.
       -5    1    3    3    0  502 -0.24914606489E+02  0.49711989220E+03 -0.78768896396E+02  0.50395987328E+03  0.46999998093E+01 0. -1.
</event>
<event>
 5   0  0.8680125E-04  0.1005796E+04  0.7818609E-02  0.9302210E-01
       -4   -1    0    0    0  501  0.00000000000E+00  0.00000000000E+00  0.46676904779E+03  0.46677077552E+03  0.12699999809E+01 0.  1.
        4   -1    0    0  501    0  0.00000000000E+00  0.00000000000E+00 -0.54182008956E+03  0.54182157797E+03  0.12699999809E+01 0. -1.
    10030    2    1    2    0    0  0.00000000000E+00  0.00000000000E+00 -0.75051041770E+02  0.10085923535E+04  0.10057961407E+04 0.  0.
        1    1    3    3  502    0 -0.47909052903E+03  0.12961129439E+03  0.43815007074E+02  0.49824349219E+03  0.50400001928E-02 0. -1.
       -1    1    3    3    0  502  0.47909052903E+03 -0.12961129439E+03 -0.11886604884E+03  0.51034886130E+03  0.50400001928E-02 0.  1.
</event>
<event>
 5   0  0.1353789E-03  0.1005850E+04  0.7818609E-02  0.9302151E-01
       -1   -1    0    0    0  501  0.00000000000E+00  0.00000000000E+00  0.10884274982E+04  0.10884274982E+04  0.50400001928E-02 0.  1.
        1   -1    0    0  501    0  0.00000000000E+00  0.00000000000E+00 -0.23238453151E+03  0.23238453157E+03  0.50400001928E-02 0. -1.
    10030    2    1    2    0    0  0.00000000000E+00  0.00000000000E+00  0.85604296671E+03  0.13208120298E+04  0.10058503155E+04 0.  0.
        1    1    3    3  502    0 -0.46763110069E+03  0.17477090713E+03  0.34803907166E+03  0.60856791876E+03  0.50400001928E-02 0.  1.
       -1    1    3    3    0  502  0.46763110069E+03 -0.17477090713E+03  0.50800389505E+03  0.71224411105E+03  0.50400001928E-02 0. -1.
</event>
<event>
 5   0  0.2204862E-03  0.1004801E+04  0.7818609E-02  0.9303295E-01
        2   -1    0    0  501    0  0.00000000000E+00  0.00000000000E+00  0.16487880630E+04  0.16487880630E+04  0.25500000920E-02 0.  1.
       -2   -1    0    0    0  501  0.00000000000E+00  0.00000000000E+00 -0.15308583682E+03  0.15308583684E+03  0.25500000920E-02 0. -1.
    10030    2    1    2    0    0  0.00000000000E+00  0.00000000000E+00  0.14957022262E+04  0.18018738998E+04  0.10048006775E+04 0.  0.
        1    1    3    3  502    0  0.46584004313E+03  0.62010977568E+02  0.10663957246E+04  0.11653549454E+04  0.50400001928E-02 0.  1.
       -1    1    3    3    0  502 -0.46584004313E+03 -0.62010977568E+02  0.42930650152E+03  0.63651895446E+03  0.50400001928E-02 0. -1.
</event>
<event>
 5   0  0.1293716E-03  0.9996150E+03  0.7818609E-02  0.9308967E-01
        1   -1    0    0  501    0  0.00000000000E+00  0.00000000000E+00  0.35058710336E+03  0.35058710339E+03  0.50400001928E-02 0. -1.
       -1   -1    0    0    0  501  0.00000000000E+00  0.00000000000E+00 -0.71254063487E+03  0.71254063488E+03  0.50400001928E-02 0.  1.
    10030    2    1    2    0    0  0.00000000000E+00  0.00000000000E+00 -0.36195353151E+03  0.10631277383E+04  0.99961504036E+03 0.  0.
        3    1    3    3  502    0 -0.44147203227E+03  0.20711381066E+03 -0.29754869189E+03  0.57125206353E+03  0.10100000352E+00 0.  1.
       -3    1    3    3    0  502  0.44147203227E+03 -0.20711381066E+03 -0.64404839620E+02  0.49187567475E+03  0.10100000352E+00 0. -1.
</event>
<event>
 5   0  0.1249195E-03  0.1000094E+04  0.7818609E-02  0.9308442E-01
        1   -1    0    0  501    0  0.00000000000E+00  0.00000000000E+00  0.14671089615E+04  0.14671089615E+04  0.50400001928E-02 0.  1.
       -1   -1    0    0    0  501  0.00000000000E+00  0.00000000000E+00 -0.17043519567E+03  0.17043519574E+03  0.50400001928E-02 0. -1.
    10030    2    1    2    0    0  0.00000000000E+00  0.00000000000E+00  0.12966737659E+04  0.16375441573E+04  0.10000940016E+04 0.  0.
        2    1    3    3  502    0 -0.13379757466E+03 -0.46557121242E+03  0.44521693637E+03  0.65793348088E+03  0.25500000920E-02 0. -1.
       -2    1    3    3    0  502  0.13379757466E+03  0.46557121242E+03  0.85145682949E+03  0.97961067640E+03  0.25500000920E-02 0.  1.
</event>
<event>
 5   0  0.1293575E-03  0.9927739E+03  0.7818609E-02  0.9316506E-01
        1   -1    0    0  501    0  0.00000000000E+00  0.00000000000E+00  0.38370279517E+03  0.38370279520E+03  0.50400001928E-02 0. -1.
       -1   -1    0    0    0  501  0.00000000000E+00  0.00000000000E+00 -0.64216372709E+03  0.64216372711E+03  0.50400001928E-02 0.  1.
    10030    2    1    2    0    0  0.00000000000E+00  0.00000000000E+00 -0.25846093192E+03  0.10258665223E+04  0.99277392606E+03 0.  0.
        4    1    3    3  502    0  0.10292025945E+03 -0.35061914718E+03 -0.47639366235E+03  0.60039895120E+03  0.12699999809E+01 0.  1.
       -4    1    3    3    0  502 -0.10292025945E+03  0.35061914718E+03  0.21793273043E+03  0.42546757111E+03  0.12699999809E+01 0. -1.
</event>
<event>
 5   0  0.2255142E-03  0.9920299E+03  0.7818609E-02  0.9317330E-01
       -2   -1    0    0    0  501  0.00000000000E+00  0.00000000000E+00  0.11950279651E+03  0.11950279653E+03  0.25500000920E-02 0. -1.
        2   -1    0    0  501    0  0.00000000000E+00  0.00000000000E+00 -0.20587870413E+04  0.20587870413E+04  0.25500000920E-02 0.  1.
    10030    2    1    2    0    0  0.00000000000E+00  0.00000000000E+00 -0.19392842448E+04  0.21782898379E+04  0.99202985616E+03 0.  0.
        4    1    3    3  502    0  0.19672276225E+03 -0.42393142581E+03 -0.13345102258E+04  0.14139790856E+04  0.12699999809E+01 0.  1.
       -4    1    3    3    0  502 -0.19672276225E+03  0.42393142581E+03 -0.60477401907E+03  0.76431075226E+03  0.12699999809E+01 0. -1.
</event>
<event>
 5   0  0.1285769E-03  0.9986616E+03  0.7818609E-02  0.9310014E-01
        1   -1    0    0  501    0  0.00000000000E+00  0.00000000000E+00  0.48240627508E+03  0.48240627510E+03  0.50400001928E-02 0.  1.
       -1   -1    0    0    0  501  0.00000000000E+00  0.00000000000E+00 -0.51684905171E+03  0.51684905173E+03  0.50400001928E-02 0. -1.
    10030    2    1    2    0    0  0.00000000000E+00  0.00000000000E+00 -0.34442776633E+02  0.99925532684E+03  0.99866155596E+03 0.  0.
        5    1    3    3  502    0  0.64002377337E+02  0.47954860986E+03 -0.14076934332E+03  0.50388616923E+03  0.46999998093E+01 0. -1.
       -5    1    3    3    0  502 -0.64002377337E+02 -0.47954860986E+03  0.10632656669E+03  0.49536915761E+03  0.46999998093E+01 0.  1.
</event>
<event>
 5   0  0.1285769E-03  0.1004718E+04  0.7818609E-02  0.9303386E-01
        1   -1    0    0  501    0  0.00000000000E+00  0.00000000000E+00  0.37115069066E+03  0.37115069069E+03  0.50400001928E-02 0. -1.
       -1   -1    0    0    0  501  0.00000000000E+00  0.00000000000E+00 -0.67995139813E+03  0.67995139815E+03  0.50400001928E-02 0.  1.
    10030    2    1    2    0    0  0.00000000000E+00  0.00000000000E+00 -0.30880070747E+03  0.10511020888E+04  0.10047177336E+04 0.  0.
        5    1    3    3  502    0 -0.30443772854E+02 -0.36628578982E+03 -0.51262684372E+03  0.63079352726E+03  0.46999998093E+01 0.  1.
       -5    1    3    3    0  502  0.30443772854E+02  0.36628578982E+03  0.20382613625E+03  0.42030856159E+03  0.46999998093E+01 0. -1.
</event>
<event>
 5   0  0.1285769E-03  0.9994450E+03  0.7818609E-02  0.9309154E-01
        1   -1    0    0  501    0  0.00000000000E+00  0.00000000000E+00  0.44202846304E+03  0.44202846307E+03  0.50400001928E-02 0. -1.
       -1   -1    0    0    0  501  0.00000000000E+00  0.00000000000E+00 -0.56494686803E+03  0.56494686806E+03  0.50400001928E-02 0.  1.
    10030    2    1    2    0    0  0.00000000000E+00  0.00000000000E+00 -0.12291840499E+03  0.10069753311E+04  0.99944503762E+03 0.  0.
        5    1    3    3  502    0 -0.44505300732E+03  0.22591726256E+03 -0.36992146112E+02  0.50050104667E+03  0.46999998093E+01 0. -1.
       -5    1    3    3    0  502  0.44505300732E+03 -0.22591726256E+03 -0.85926258880E+02  0.50647428445E+03  0.46999998093E+01 0.  1.
</event>
<event>
 5   0  0.2264577E-03  0.1007369E+04  0.7818609E-02  0.9300499E-01
       -2   -1    0    0    0  501  0.00000000000E+00  0.00000000000E+00  0.45569846770E+03  0.45569846771E+03  0.25500000920E-02 0. -1.
        2   -1    0    0  501    0  0.00000000000E+00  0.00000000000E+00 -0.55672361684E+03  0.55672361684E+03  0.25500000920E-02 0.  1.
    10030    2    1    2    0    0  0.00000000000E+00  0.00000000000E+00 -0.10102514914E+03  0.10124220846E+04  0.10073690468E+04 0.  0.
        5    1    3    3  502    0  0.47462806863E+02 -0.49069956903E+03 -0.15416683595E+03  0.51655424535E+03  0.46999998093E+01 0.  1.
       -5    1    3    3    0  502 -0.47462806863E+02  0.49069956903E+03  0.53141686815E+02  0.49586783920E+03  0.46999998093E+01 0. -1.
</event>
<event>
 5   0  0.2204862E-03  0.1003012E+04  0.7818609E-02  0.9305248E-01
       -2   -1    0    0    0  501  0.00000000000E+00  0.00000000000E+00  0.36180507372E+03  0.36180507372E+03  0.25500000920E-02 0.  1.
        2   -1    0    0  501    0  0.00000000000E+00  0.00000000000E+00 -0.69514835803E+03  0.69514835803E+03  0.25500000920E-02 0. -1.
    10030    2    1    2    0    0  0.00000000000E+00  0.00000000000E+00 -0.33334328431E+03  0.10569534318E+04  0.10030118702E+04 0.  0.
        1    1    3    3  502    0  0.23150802716E+03  0.13839520983E+03 -0.61220860636E+03  0.66899071628E+03  0.50400001928E-02 0. -1.
       -1    1    3    3    0  502 -0.23150802716E+03 -0.13839520983E+03  0.27886532204E+03  0.38796271548E+03  0.50400001928E-02 0.  1.
</event>
<event>
 5   0  0.1249195E-03  0.1007308E+04  0.7818609E-02  0.9300566E-01
        1   -1    0    0  501    0  0.00000000000E+00  0.00000000000E+00  0.20680607478E+04  0.20680607479E+04  0.50400001928E-02 0. -1.
       -1   -1    0    0    0  501  0.00000000000E+00  0.00000000000E+00 -0.12265949340E+03  0.12265949351E+03  0.50400001928E-02 0.  1.
    10030    2    1    2    0    0  0.00000000000E+00  0.00000000000E+00  0.19454012544E+04  0.21907202414E+04  0.10073078651E+04 0.  0.
        2    1    3    3  502    0  0.86772105315E+02  0.22249565677E+03  0.19370924652E+04  0.19517584211E+04  0.25500000920E-02 0. -1.
       -2    1    3    3    0  502 -0.86772105315E+02 -0.22249565677E+03  0.83087891971E+01  0.23896182023E+03  0.25500000920E-02 0.  1.
</event>
<event>
 5   0  0.8680125E-04  0.1004395E+04  0.7818609E-02  0.9303738E-01
        4   -1    0    0  501    0  0.00000000000E+00  0.00000000000E+00  0.86176310697E+03  0.86176404278E+03  0.12699999809E+01 0. -1.
       -4   -1    0    0    0  501  0.00000000000E+00  0.00000000000E+00 -0.29265581643E+03  0.29265857204E+03  0.12699999809E+01 0.  1.
    10030    2    1    2    0    0  0.00000000000E+00  0.00000000000E+00  0.56910729054E+03  0.11544226148E+04  0.10043945766E+04 0.  0.
        4    1    3    3  502    0 -0.23789146530E+03 -0.43393061863E+03  0.38283918292E+03  0.62566411431E+03  0.12699999809E+01 0.  1.
       -4    1    3    3    0  502  0.23789146530E+03  0.43393061863E+03  0.18626810761E+03  0.52875850051E+03  0.12699999809E+01 0. -1.
</event>
<event>
 5   0  0.2204862E-03  0.1000971E+04  0.7818609E-02  0.9307481E-01
        2   -1    0    0  501    0  0.00000000000E+00  0.00000000000E+00  0.51512145236E+03  0.51512145236E+03  0.25500000920E-02 0. -1.
       -2   -1    0    0    0  501  0.00000000000E+00  0.00000000000E+00 -0.48626525683E+03  0.48626525683E+03  0.25500000920E-02 0.  1.
    10030    2    1    2    0    0  0.00000000000E+00  0.00000000000E+00  0.28856195529E+02  0.10013867092E+04  0.10009708594E+04 0.  0.
        1    1    3    3  502    0 -0.21488780319E+00 -0.64329774935E+02 -0.48211196098E+03  0.48638493919E+03  0.50400001928E-02 0.  1.
       -1    1    3    3    0  502  0.21488780319E+00  0.64329774935E+02  0.51096815651E+03  0.51500177001E+03  0.50400001928E-02 0. -1.
</event>
<event>
 5   0  0.8680125E-04  0.1000903E+04  0.7818609E-02  0.9307554E-01
       -3   -1    0    0    0  501  0.00000000000E+00  0.00000000000E+00  0.39643689297E+03  0.39643690584E+03  0.10100000352E+00 0. -1.
        3   -1    0    0  501    0  0.00000000000E+00  0.00000000000E+00 -0.63175733083E+03  0.63175733891E+03  0.10100000352E+00 0.  1.
    10030    2    1    2    0    0  0.00000000000E+00  0.00000000000E+00 -0.23532043786E+03  0.10281942447E+04  0.10009034401E+04 0.  0.
        4    1    3    3  502    0  0.47851583118E+03  0.12197715923E+03 -0.20108083022E+03  0.53318940467E+03  0.12699999809E+01 0.  1.
       -4    1    3    3    0  502 -0.47851583118E+03 -0.12197715923E+03 -0.34239607643E+02  0.49500484008E+03  0.12699999809E+01 0. -1.
</event>
<event>
 5   0  0.2204862E-03  0.9989393E+03  0.7818609E-02  0.9309709E-01
       -2   -1    0    0    0  501  0.00000000000E+00  0.00000000000E+00  0.15510558625E+04  0.15510558625E+04  0.25500000920E-02 0.  1.
        2   -1    0    0  501    0  0.00000000000E+00  0.00000000000E+00 -0.16083878146E+03  0.16083878148E+03  0.25500000920E-02 0. -1.
    10030    2    1    2    0    0  0.00000000000E+00  0.00000000000E+00  0.13902170811E+04  0.17118946440E+04  0.99893930730E+03 0.  0.
        1    1    3    3  502    0 -0.35850184704E+03 -0.26149017922E+03  0.30218883703E+03  0.53686011344E+03  0.50400001928E-02 0. -1.
       -1    1    3    3    0  502  0.35850184704E+03  0.26149017922E+03  0.10880282440E+04  0.11750345306E+04  0.50400001928E-02 0.  1.
</event>
<event>
 5   0  0.2277570E-03  0.1002436E+04  0.7818609E-02  0.9305877E-01
       -2   -1    0    0    0  501  0.00000000000E+00  0.00000000000E+00  0.18065990466E+03  0.18065990467E+03  0.25500000920E-02 0.  1.
        2   -1    0    0  501    0  0.00000000000E+00  0.00000000000E+00 -0.13905660268E+04  0.13905660268E+04  0.25500000920E-02 0. -1.
    10030    2    1    2    0    0  0.00000000000E+00  0.00000000000E+00 -0.12099061221E+04  0.15712259315E+04  0.10024360844E+04 0.  0.
        3    1    3    3  502    0  0.47792001969E+03  0.15103525065E+03 -0.60406159509E+03  0.78492650166E+03  0.10100000352E+00 0.  1.
       -3    1    3    3    0  502 -0.47792001969E+03 -0.15103525065E+03 -0.60584452705E+03  0.78629942981E+03  0.10100000352E+00 0. -1.
</event>
<event>
 5   0  0.1293575E-03  0.9979522E+03  0.7818609E-02  0.9310794E-01
       -1   -1    0    0    0  501  0.00000000000E+00  0.00000000000E+00  0.38109880630E+03  0.38109880633E+03  0.50400001928E-02 0. -1.
        1   -1    0    0  501    0  0.00000000000E+00  0.00000000000E+00 -0.65331386871E+03  0.65331386873E+03  0.50400001928E-02 0.  1.
    10030    2    1    2    0    0  0.00000000000E+00  0.00000000000E+00 -0.27221506241E+03  0.10344126751E+04  0.99795217427E+03 0.  0.
        4    1    3    3  502    0  0.26338055939E+03 -0.59961941233E+02  0.29875673803E+03  0.40276786723E+03  0.12699999809E+01 0. -1.
       -4    1    3    3    0  502 -0.26338055939E+03  0.59961941233E+02 -0.57097180044E+03  0.63164480783E+03  0.12699999809E+01 0.  1.
</event>
<event>
 5   0  0.1293575E-03  0.1007762E+04  0.7818609E-02  0.9300072E-01
       -1   -1    0    0    0  501  0.00000000000E+00  0.00000000000E+00  0.17795766282E+03  0.17795766289E+03  0.50400001928E-02 0.  1.
        1   -1    0    0  501    0  0.00000000000E+00  0.00000000000E+00 -0.14267225211E+04  0.14267225212E+04  0.50400001928E-02 0. -1.
    10030    2    1    2    0    0  0.00000000000E+00  0.00000000000E+00 -0.12487648583E+04  0.16046801840E+04  0.10077622843E+04 0.  0.
        4    1    3    3  502    0  0.44051273029E+02  0.26194177787E+03  0.57421802999E+02  0.27175887475E+03  0.12699999809E+01 0.  1.
       -4    1    3    3    0  502 -0.44051273029E+02 -0.26194177787E+03 -0.13061866613E+04  0.13329213093E+04  0.12699999809E+01 0. -1.
</event>
<event>
 5   0  0.1353789E-03  0.1000622E+04  0.7818609E-02  0.9307863E-01
        1   -1    0    0  501    0  0.00000000000E+00  0.00000000000E+00  0.15026452949E+04  0.15026452949E+04  0.50400001928E-02 0.  1.
       -1   -1    0    0    0  501  0.00000000000E+00  0.00000000000E+00 -0.16658032336E+03  0.16658032344E+03  0.50400001928E-02 0. -1.
    10030    2    1    2    0    0  0.00000000000E+00  0.00000000000E+00  0.13360649716E+04  0.16692256184E+04  0.10006220849E+04 0.  0.
        1    1    3    3  502    0 -0.11060456820E+03  0.46346223677E+03  0.41350110662E+03  0.63088333360E+03  0.50400001928E-02 0. -1.
       -1    1    3    3    0  502  0.11060456820E+03 -0.46346223677E+03  0.92256386494E+03  0.10383422848E+04  0.50400001928E-02 0.  1.
</event>
<event>
 5   0  0.2264577E-03  0.9986836E+03  0.7818609E-02  0.9309990E-01
        2   -1    0    0  501    0  0.00000000000E+00  0.00000000000E+00  0.23980217738E+04  0.23980217738E+04  0.25500000920E-02 0. -1.
       -2   -1    0    0    0  501  0.00000000000E+00  0.00000000000E+00 -0.10397830639E+03  0.10397830642E+03  0.25500000920E-02 0.  1.
    10030    2    1    2    0    0  0.00000000000E+00  0.00000000000E+00  0.22940434674E+04  0.25020000802E+04  0.99868361911E+03 0.  0.
        5    1    3    3  502    0 -0.48490181356E+03  0.11366087073E+03  0.12363590742E+04  0.13329120048E+04  0.46999998093E+01 0. -1.
       -5    1    3    3    0  502  0.48490181356E+03 -0.11366087073E+03  0.10576843932E+04  0.11690880754E+04  0.46999998093E+01 0.  1.
</event>
<event>
 5   0  0.1353789E-03  0.9999348E+03  0.7818609E-02  0.9308616E-01
        1   -1    0    0  501    0  0.00000000000E+00  0.00000000000E+00  0.29725799902E+03  0.29725799907E+03  0.50400001928E-02 0. -1.
       -1   -1    0    0    0  501  0.00000000000E+00  0.00000000000E+00 -0.84091055622E+03  0.84091055624E+03  0.50400001928E-02 0.  1.
    10030    2    1    2    0    0  0.00000000000E+00  0.00000000000E+00 -0.54365255720E+03  0.11381685553E+04  0.99993477654E+03 0.  0.
        1    1    3    3  502    0 -0.33084040279E+03 -0.26646303009E+03 -0.57191999443E+03  0.71242571443E+03  0.50400001928E-02 0.  1.
       -1    1    3    3    0  502  0.33084040279E+03  0.26646303009E+03  0.28267437230E+02  0.42574284088E+03  0.50400001928E-02 0. -1.
</event>
<event>
 5   0  0.8680125E-04  0.9985727E+03  0.7818609E-02  0.9310112E-01
        3   -1    0    0  501    0  0.00000000000E+00  0.00000000000E+00  0.51738688974E+03  0.51738689960E+03  0.10100000352E+00 0. -1.
       -3   -1    0    0    0  501  0.00000000000E+00  0.00000000000E+00 -0.48181898615E+03  0.48181899673E+03  0.10100000352E+00 0.  1.
    10030    2    1    2    0    0  0.00000000000E+00  0.00000000000E+00  0.35567903591E+02  0.99920589633E+03  0.99857265509E+03 0.  0.
        1    1    3    3  502    0 -0.18849166191E+03 -0.45255594001E+03 -0.76884983428E+02  0.49623309659E+03  0.50400001928E-02 0. -1.
       -1    1    3    3    0  502  0.18849166191E+03  0.45255594001E+03  0.11245288702E+03  0.50297279974E+03  0.50400001928E-02 0.  1.
</event>
<event>
 5   0  0.2264577E-03  0.1003621E+04  0.7818609E-02  0.9304582E-01
       -2   -1    0    0    0  501  0.00000000000E+00  0.00000000000E+00  0.41185135201E+03  0.41185135202E+03  0.25500000920E-02 0.  1.
        2   -1    0    0  501    0  0.00000000000E+00  0.00000000000E+00 -0.61141967669E+03  0.61141967670E+03  0.25500000920E-02 0. -1.
    10030    2    1    2    0    0  0.00000000000E+00  0.00000000000E+00 -0.19956832468E+03  0.10232710287E+04  0.10036214834E+04 0.  0.
        5    1    3    3  502    0  0.16833660868E+03 -0.47261497745E+03 -0.90122355914E+02  0.50975117437E+03  0.46999998093E+01 0.  1.
       -5    1    3    3    0  502 -0.16833660868E+03  0.47261497745E+03 -0.10944596877E+03  0.51351985435E+03  0.46999998093E+01 0. -1.
</event>
<event>
 5   0  0.2204862E-03  0.1001649E+04  0.7818609E-02  0.9306738E-01
        2   -1    0    0  501    0  0.00000000000E+00  0.00000000000E+00  0.18494505836E+04  0.18494505836E+04  0.25500000920E-02 0.  1.
       -2   -1    0    0    0  501  0.00000000000E+00  0.00000000000E+00 -0.13562155922E+03  0.13562155925E+03  0.25500000920E-02 0. -1.
    10030    2    1    2    0    0  0.00000000000E+00  0.00000000000E+00  0.17138290244E+04  0.19850721429E+04  0.10016493835E+04 0.  0.
        1    1    3    3  502    0  0.12193485116E+03 -0.40040172674E+03  0.14019490741E+04  0.14630963253E+04  0.50400001928E-02 0.  1.
       -1    1    3    3    0  502 -0.12193485116E+03  0.40040172674E+03  0.31187995029E+03  0.52197581757E+03  0.50400001928E-02 0. -1.
</event>
<event>
 5   0  0.2255142E-03  0.1003482E+04  0.7818609E-02  0.9304734E-01
       -2   -1    0    0    0  501  0.00000000000E+00  0.00000000000E+00  0.24938610647E+03  0.24938610648E+03  0.25500000920E-02 0.  1.
        2   -1    0    0  501    0  0.00000000000E+00  0.00000000000E+00 -0.10094540842E+04  0.10094540842E+04  0.25500000920E-02 0. -1.
    10030    2    1    2    0    0  0.00000000000E+00  0.00000000000E+00 -0.76006797774E+03  0.12588401907E+04  0.10034815867E+04 0.  0.
        4    1    3    3  502    0 -0.27148746329E+01  0.43897850464E+03 -0.68482879542E+03  0.81345042259E+03  0.12699999809E+01 0. -1.
       -4    1    3    3    0  502  0.27148746329E+01 -0.43897850464E+03 -0.75239182326E+02  0.44538976811E+03  0.12699999809E+01 0.  1.
</event>
<event>
 5   0  0.2264577E-03  0.1002818E+04  0.7818609E-02  0.9305459E-01
       -2   -1    0    0    0  501  0.00000000000E+00  0.00000000000E+00  0.15737472791E+03  0.15737472793E+03  0.25500000920E-02 0.  1.
        2   -1    0    0  501    0  0.00000000000E+00  0.00000000000E+00 -0.15975317814E+04  0.15975317815E+04  0.25500000920E-02 0. -1.
    10030    2    1    2    0    0  0.00000000000E+00  0.00000000000E+00 -0.14401570535E+04  0.17549065094E+04  0.10028182875E+04 0.  0.
        5    1    3    3  502    0  0.27830981323E+03  0.25888958613E+03 -0.14789070755E+03  0.40788959452E+03  0.46999998093E+01 0.  1.
       -5    1    3    3    0  502 -0.27830981323E+03 -0.25888958613E+03 -0.12922663460E+04  0.13470169149E+04  0.46999998093E+01 0. -1.
</event>
<event>
 5   0  0.1293575E-03  0.9974892E+03  0.7818609E-02  0.9311303E-01
       -1   -1    0    0    0  501  0.00000000000E+00  0.00000000000E+00  0.18324204622E+03  0.18324204629E+03  0.50400001928E-02 0.  1.
        1   -1    0    0  501    0  0.00000000000E+00  0.00000000000E+00 -0.13574731870E+04  0.13574731870E+04  0.50400001928E-02 0. -1.
    10030    2    1    2    0    0  0.00000000000E+00  0.00000000000E+00 -0.11742311408E+04  0.15407152333E+04  0.99748917696E+03 0.  0.
        4    1    3    3  502    0 -0.29515702871E+03 -0.20197110216E+03 -0.50195354729E+02  0.36115257751E+03  0.12699999809E+01 0.  1.
       -4    1    3    3    0  502  0.29515702871E+03  0.20197110216E+03 -0.11240357860E+04  0.11795626558E+04  0.12699999809E+01 0. -1.
</event>
<event>
 5   0  0.2204862E-03  0.9991480E+03  0.7818609E-02  0.9309480E-01
        2   -1    0    0  501    0  0.00000000000E+00  0.00000000000E+00  0.52986840513E+03  0.52986840514E+03  0.25500000920E-02 0.  1.
       -2   -1    0    0    0  501  0.00000000000E+00  0.00000000000E+00 -0.47101160717E+03  0.47101160718E+03  0.25500000920E-02 0. -1.
    10030    2    1    2    0    0  0.00000000000E+00  0.00000000000E+00  0.58856797957E+02  0.10008800123E+04  0.99914797522E+03 0.  0.
        1    1    3    3  502    0  0.15890006934E+03  0.34078446773E+03  0.35892241949E+03  0.51981591811E+03  0.50400001928E-02 0.  1.
       -1    1    3    3    0  502 -0.15890006934E+03 -0.34078446773E+03 -0.30006562154E+03  0.48106409420E+03  0.50400001928E-02 0. -1.
</event>
<event>
 5   0  0.1293575E-03  0.1001501E+04  0.7818609E-02  0.9306900E-01
        1   -1    0    0  501    0  0.00000000000E+00  0.00000000000E+00  0.10371506094E+04  0.10371506094E+04  0.50400001928E-02 0.  1.
       -1   -1    0    0    0  501  0.00000000000E+00  0.00000000000E+00 -0.24176919904E+03  0.24176919909E+03  0.50400001928E-02 0. -1.
    10030    2    1    2    0    0  0.00000000000E+00  0.00000000000E+00  0.79538141034E+03  0.12789198085E+04  0.10015010178E+04 0.  0.
        4    1    3    3  502    0  0.28099744943E+03 -0.35965993521E+03  0.66074905806E+03  0.80306025067E+03  0.12699999809E+01 0.  1.
       -4    1    3    3    0  502 -0.28099744943E+03  0.35965993521E+03  0.13463235228E+03  0.47585955781E+03  0.12699999809E+01 0. -1.
</event>
<event>
 5   0  0.1249195E-03  0.1002464E+04  0.7818609E-02  0.9305847E-01
       -1   -1    0    0    0  501  0.00000000000E+00  0.00000000000E+00  0.40732080267E+03  0.40732080271E+03  0.50400001928E-02 0. -1.
        1   -1    0    0  501    0  0.00000000000E+00  0.00000000000E+00 -0.61679479155E+03  0.61679479157E+03  0.50400001928E-02 0.  1.
    10030    2    1    2    0    0  0.00000000000E+00  0.00000000000E+00 -0.20947398887E+03  0.10241155943E+04  0.10024636644E+04 0.  0.
        2    1    3    3  502    0  0.27792595437E+03  0.11167603771E+03  0.30583764072E+03  0.42807830592E+03  0.25500000920E-02 0. -1.
       -2    1    3    3    0  502 -0.27792595437E+03 -0.11167603771E+03 -0.51531162959E+03  0.59603728835E+03  0.25500000920E-02 0.  1.
</event>
<event>
 5   0  0.8680125E-04  0.1004280E+04  0.7818609E-02  0.9303863E-01
        4   -1    0    0  501    0  0.00000000000E+00  0.00000000000E+00  0.13187227602E+04  0.13187233717E+04  0.12699999809E+01 0.  1.
       -4   -1    0    0    0  501  0.00000000000E+00  0.00000000000E+00 -0.19120089589E+03  0.19120511366E+03  0.12699999809E+01 0. -1.
    10030    2    1    2    0    0  0.00000000000E+00  0.00000000000E+00  0.11275218643E+04  0.15099284854E+04  0.10042800787E+04 0.  0.
        5    1    3    3  502    0  0.46536577355E+03 -0.11420269882E+03  0.78935995390E+03  0.92342773753E+03  0.46999998093E+01 0.  1.
       -5    1    3    3    0  502 -0.46536577355E+03  0.11420269882E+03  0.33816191041E+03  0.58650074788E+03  0.46999998093E+01 0. -1.
</event>
<event>
 5   0  0.1353789E-03  0.9871339E+03  0.7818609E-02  0.9322770E-01
       -1   -1    0    0    0  501  0.00000000000E+00  0.00000000000E+00  0.70764988693E+03  0.70764988695E+03  0.50400001928E-02 0.  1.
        1   -1    0    0  501    0  0.00000000000E+00  0.00000000000E+00 -0.34424979880E+03  0.34424979884E+03  0.50400001928E-02 0. -1.
    10030    2    1    2    0    0  0.00000000000E+00  0.00000000000E+00  0.36340008813E+03  0.10518996858E+04  0.98713389411E+03 0.  0.
        1    1    3    3  502    0  0.20029361159E+03 -0.19611184663E+02  0.66194172854E+03  0.69185907627E+03  0.50400001928E-02 0.  1.
       -1    1    3    3    0  502 -0.20029361159E+03  0.19611184663E+02 -0.29854164042E+03  0.36004060951E+03  0.50400001928E-02 0. -1.
</event>
<event>
 5   0  0.1293575E-03  0.9945551E+03  0.7818609E-02  0.9314537E-01
        1   -1    0    0  501    0  0.00000000000E+00  0.00000000000E+00  0.24569456229E+04  0.24569456229E+04  0.50400001928E-02 0.  1.
       -1   -1    0    0    0  501  0.00000000000E+00  0.00000000000E+00 -0.10064729958E+03  0.10064729970E+03  0.50400001928E-02 0. -1.
    10030    2    1    2    0    0  0.00000000000E+00  0.00000000000E+00  0.23562983233E+04  0.25575929226E+04  0.99455506096E+03 0.  0.
        4    1    3    3  502    0  0.47051116284E+03  0.15037525728E+03  0.10306494728E+04  0.11429056921E+04  0.12699999809E+01 0. -1.
       -4    1    3    3    0  502 -0.47051116284E+03 -0.15037525728E+03  0.13256488505E+04  0.14146872305E+04  0.12699999809E+01 0.  1.
</event>
<event>
 5   0  0.2255142E-03  0.1007278E+04  0.7818609E-02  0.9300598E-01
       -2   -1    0    0    0  501  0.00000000000E+00  0.00000000000E+00  0.51452746219E+03  0.51452746220E+03  0.25500000920E-02 0. -1.
        2   -1    0    0  501    0  0.00000000000E+00  0.00000000000E+00 -0.49298081557E+03  0.49298081558E+03  0.25500000920E-02 0.  1.
    10030    2    1    2    0    0  0.00000000000E+00  0.00000000000E+00  0.21546646621E+02  0.10075082778E+04  0.10072778523E+04 0.  0.
        4    1    3    3  502    0  0.36251221374E+03  0.25744912169E+03  0.24737637357E+03  0.50881414924E+03  0.12699999809E+01 0. -1.
       -4    1    3    3    0  502 -0.36251221374E+03 -0.25744912169E+03 -0.22582972694E+03  0.49869412854E+03  0.12699999809E+01 0.  1.
</event>
<event>
 5   0  0.2255142E-03  0.9908363E+03  0.7818609E-02  0.9318653E-01
       -2   -1    0    0    0  501  0.00000000000E+00  0.00000000000E+00  0.47905567379E+03  0.47905567379E+03  0.25500000920E-02 0.  1.
        2   -1    0    0  501    0  0.00000000000E+00  0.00000000000E+00 -0.51233951596E+03  0.51233951597E+03  0.25500000920E-02 0. -1.
    10030    2    1    2    0    0  0.00000000000E+00  0.00000000000E+00 -0.33283842177E+02  0.99139518976E+03  0.99083631753E+03 0.  0.
        4    1    3    3  502    0 -0.21331319613E+03 -0.38989063018E+03  0.20238864589E+03  0.48834414098E+03  0.12699999809E+01 0.  1.
       -4    1    3    3    0  502  0.21331319613E+03  0.38989063018E+03 -0.23567248806E+03  0.50305104878E+03  0.12699999809E+01 0. -1.
</event>
<event>
 5   0  0.1293716E-03  0.9793249E+03  0.7818609E-02  0.9331516E-01
       -1   -1    0    0    0  501  0.00000000000E+00  0.00000000000E+00  0.73246646905E+03  0.73246646907E+03  0.50400001928E-02 0. -1.
        1   -1    0    0  501    0  0.00000000000E+00  0.00000000000E+00 -0.32734512827E+03  0.32734512831E+03  0.50400001928E-02 0.  1.
    10030    2    1    2    0    0  0.00000000000E+00  0.00000000000E+00  0.40512134077E+03  0.10598115974E+04  0.97932493136E+03 0.  0.
        3    1    3    3  502    0  0.18475373713E+03  0.19705130660E+03 -0.23942470378E+03  0.36095340392E+03  0.10100000352E+00 0.  1.
       -3    1    3    3    0  502 -0.18475373713E+03 -0.19705130660E+03  0.64454604455E+03  0.69885819346E+03  0.10100000352E+00 0. -1.
</event>
<event>
 5   0  0.2284843E-03  0.1009132E+04  0.7818609E-02  0.9298585E-01
       -2   -1    0    0    0  501  0.00000000000E+00  0.00000000000E+00  0.30124003093E+03  0.30124003094E+03  0.25500000920E-02 0. -1.
        2   -1    0    0  501    0  0.00000000000E+00  0.00000000000E+00 -0.84512949100E+03  0.84512949100E+03  0.25500000920E-02 0.  1.
    10030    2    1    2    0    0  0.00000000000E+00  0.00000000000E+00 -0.54388946007E+03  0.11463695219E+04  0.10091319716E+04 0.  0.
        2    1    3    3  502    0 -0.30975563739E+03 -0.13305151005E+03  0.15452379176E+03  0.37084883908E+03  0.25500000920E-02 0. -1.
       -2    1    3    3    0  502  0.30975563739E+03  0.13305151005E+03 -0.69841325183E+03  0.77552068287E+03  0.25500000920E-02 0.  1.
</event>
<event>
 5   0  0.1285769E-03  0.9980739E+03  0.7818609E-02  0.9310660E-01
       -1   -1    0    0    0  501  0.00000000000E+00  0.00000000000E+00  0.27281890670E+03  0.27281890675E+03  0.50400001928E-02 0.  1.
        1   -1    0    0  501    0  0.00000000000E+00  0.00000000000E+00 -0.91283226112E+03  0.91283226114E+03  0.50400001928E-02 0. -1.
    10030    2    1    2    0    0  0.00000000000E+00  0.00000000000E+00 -0.64001335442E+03  0.11856511679E+04  0.99807394418E+03 0.  0.
        5    1    3    3  502    0  0.33741692702E+03  0.13245598828E+03  0.87408045825E+02  0.37290351024E+03  0.46999998093E+01 0.  1.
       -5    1    3    3    0  502 -0.33741692702E+03 -0.13245598828E+03 -0.72742140025E+03  0.81274765765E+03  0.46999998093E+01 0. -1.
</event>
<event>
 5   0  0.2204862E-03  0.9771093E+03  0.7818609E-02  0.9334013E-01
       -2   -1    0    0    0  501  0.00000000000E+00  0.00000000000E+00  0.13681419053E+03  0.13681419055E+03  0.25500000920E-02 0.  1.
        2   -1    0    0  501    0  0.00000000000E+00  0.00000000000E+00 -0.17445969745E+04  0.17445969745E+04  0.25500000920E-02 0. -1.
    10030    2    1    2    0    0  0.00000000000E+00  0.00000000000E+00 -0.16077827839E+04  0.18814111650E+04  0.97710925261E+03 0.  0.
        1    1    3    3  502    0  0.53944222060E+01 -0.34581431219E+03 -0.14683071377E+04  0.15084901356E+04  0.50400001928E-02 0. -1.
       -1    1    3    3    0  502 -0.53944222060E+01  0.34581431219E+03 -0.13947564619E+03  0.37292102946E+03  0.50400001928E-02 0.  1.
</event>
<event>
 5   0  0.2255142E-03  0.9996743E+03  0.7818609E-02  0.9308902E-01
        2   -1    0    0  501    0  0.00000000000E+00  0.00000000000E+00  0.24824723882E+03  0.24824723883E+03  0.25500000920E-02 0. -1.
       -2   -1    0    0    0  501  0.00000000000E+00  0.00000000000E+00 -0.10064046171E+04  0.10064046171E+04  0.25500000920E-02 0.  1.
    10030    2    1    2    0    0  0.00000000000E+00  0.00000000000E+00 -0.75815737828E+03  0.12546518559E+04  0.99967428162E+03 0.  0.
        4    1    3    3  502    0 -0.46788419919E+03 -0.13044086542E+03 -0.23108201783E+03  0.53789492941E+03  0.12699999809E+01 0.  1.
       -4    1    3    3    0  502  0.46788419919E+03  0.13044086542E+03 -0.52707536044E+03  0.71675692651E+03  0.12699999809E+01 0. -1.
</event>
<event>
 5   0  0.1293716E-03  0.1003094E+04  0.7818609E-02  0.9305158E-01
       -1   -1    0    0    0  501  0.00000000000E+00  0.00000000000E+00  0.53673330781E+03  0.53673330784E+03  0.50400001928E-02 0. -1.
        1   -1    0    0  501    0  0.00000000000E+00  0.00000000000E+00 -0.46866766668E+03  0.46866766671E+03  0.50400001928E-02 0.  1.
    10030    2    1    2    0    0  0.00000000000E+00  0.00000000000E+00  0.68065641133E+02  0.10054009745E+04  0.10030943067E+04 0.  0.
        3    1    3    3  502    0 -0.24987134984E+03  0.20414627997E+03 -0.35082690039E+03  0.47664548602E+03  0.10100000352E+00 0.  1.
       -3    1    3    3    0  502  0.24987134984E+03 -0.20414627997E+03  0.41889254153E+03  0.52875548853E+03  0.10100000352E+00 0. -1.
</event>
<event>
 5   0  0.2255142E-03  0.1006117E+04  0.7818609E-02  0.9301861E-01
        2   -1    0    0  501    0  0.00000000000E+00  0.00000000000E+00  0.11982542636E+04  0.11982542636E+04  0.25500000920E-02 0.  1.
       -2   -1    0    0    0  501  0.00000000000E+00  0.00000000000E+00 -0.21119725606E+03  0.21119725607E+03  0.25500000920E-02 0. -1.
    10030    2    1    2    0    0  0.00000000000E+00  0.00000000000E+00  0.98705700753E+03  0.14094515197E+04  0.10061173143E+04 0.  0.
        4    1    3    3  502    0  0.38530713123E+03  0.30259633564E+03  0.65350082372E+03  0.81675643078E+03  0.12699999809E+01 0. -1.
       -4    1    3    3    0  502 -0.38530713123E+03 -0.30259633564E+03  0.33355618381E+03  0.59269508888E+03  0.12699999809E+01 0.  1.
</event>
<event>
 5   0  0.2264577E-03  0.9980946E+03  0.7818609E-02  0.9310637E-01
       -2   -1    0    0    0  501  0.00000000000E+00  0.00000000000E+00  0.17433370370E+03  0.17433370372E+03  0.25500000920E-02 0.  1.
        2   -1    0    0  501    0  0.00000000000E+00  0.00000000000E+00 -0.14285716583E+04  0.14285716583E+04  0.25500000920E-02 0. -1.
    10030    2    1    2    0    0  0.00000000000E+00  0.00000000000E+00 -0.12542379546E+04  0.16029053620E+04  0.99809456105E+03 0.  0.
        5    1    3    3  502    0  0.26265219153E+03  0.16098573326E+03 -0.12575980122E+04  0.12947885659E+04  0.46999998093E+01 0. -1.
       -5    1    3    3    0  502 -0.26265219153E+03 -0.16098573326E+03  0.33600576849E+01  0.30811679606E+03  0.46999998093E+01 0.  1.
</event>
<event>
 5   0  0.2204862E-03  0.9988898E+03  0.7818609E-02  0.9309763E-01
       -2   -1    0    0    0  501  0.00000000000E+00  0.00000000000E+00  0.10049660886E+04  0.10049660886E+04  0.25500000920E-02 0.  1.
        2   -1    0    0  501    0  0.00000000000E+00  0.00000000000E+00 -0.24821256741E+03  0.24821256742E+03  0.25500000920E-02 0. -1.
    10030    2    1    2    0    0  0.00000000000E+00  0.00000000000E+00  0.75675352118E+03  0.12531786560E+04  0.99888980977E+03 0.  0.
        1    1    3    3  502    0 -0.10716214759E+03 -0.41815468543E+03  0.69354185952E+03  0.81690720265E+03  0.50400001928E-02 0.  1.
       -1    1    3    3    0  502  0.10716214759E+03  0.41815468543E+03  0.63211661664E+02  0.43627145336E+03  0.50400001928E-02 0. -1.
</event>
<event>
 5   0  0.1293575E-03  0.1003580E+04  0.7818609E-02  0.9304627E-01
        1   -1    0    0  501    0  0.00000000000E+00  0.00000000000E+00  0.10175738870E+04  0.10175738870E+04  0.50400001928E-02 0.  1.
       -1   -1    0    0    0  501  0.00000000000E+00  0.00000000000E+00 -0.24744471858E+03  0.24744471863E+03  0.50400001928E-02 0. -1.
    10030    2    1    2    0    0  0.00000000000E+00  0.00000000000E+00  0.77012916841E+03  0.12650186056E+04  0.10035801595E+04 0.  0.
        4    1    3    3  502    0  0.38058559637E+01  0.90615400165E+02 -0.23702540155E+03  0.25378788223E+03  0.12699999809E+01 0. -1.
       -4    1    3    3    0  502 -0.38058559637E+01 -0.90615400165E+02  0.10071545700E+04  0.10112307234E+04  0.12699999809E+01 0.  1.
</event>
<event>
 5   0  0.2204862E-03  0.1021318E+04  0.7818609E-02  0.9285467E-01
       -2   -1    0    0    0  501  0.00000000000E+00  0.00000000000E+00  0.39953310443E+03  0.39953310444E+03  0.25500000920E-02 0. -1.
        2   -1    0    0  501    0  0.00000000000E+00  0.00000000000E+00 -0.65269375170E+03  0.65269375170E+03  0.25500000920E-02 0.  1.
    10030    2    1    2    0    0  0.00000000000E+00  0.00000000000E+00 -0.25316064727E+03  0.10522268561E+04  0.10213182870E+04 0.  0.
        1    1    3    3  502    0  0.28829918685E+03 -0.53960290359E+02  0.30409519882E+03  0.42249499884E+03  0.50400001928E-02 0. -1.
       -1    1    3    3    0  502 -0.28829918685E+03  0.53960290359E+02 -0.55725584609E+03  0.62973185730E+03  0.50400001928E-02 0.  1.
</event>
<event>
 5   0  0.1249195E-03  0.9961561E+03  0.7818609E-02  0.9312771E-01
        1   -1    0    0  501    0  0.00000000000E+00  0.00000000000E+00  0.67852638164E+03  0.67852638166E+03  0.50400001928E-02 0.  1.
       -1   -1    0    0    0  501  0.00000000000E+00  0.00000000000E+00 -0.36561843988E+03  0.36561843991E+03  0.50400001928E-02 0. -1.
    10030    2    1    2    0    0  0.00000000000E+00  0.00000000000E+00  0.31290794176E+03  0.10441448216E+04  0.99615612652E+03 0.  0.
        2    1    3    3  502    0 -0.75314601116E+02 -0.47071878396E+03  0.51632459043E+01  0.47673380604E+03  0.25500000920E-02 0.  1.
       -2    1    3    3    0  502  0.75314601116E+02  0.47071878396E+03  0.30774469585E+03  0.56741101553E+03  0.25500000920E-02 0. -1.
</event>
<event>
 5   0  0.2277570E-03  0.1006981E+04  0.7818609E-02  0.9300921E-01
       -2   -1    0    0    0  501  0.00000000000E+00  0.00000000000E+00  0.24203554542E+03  0.24203554543E+03  0.25500000920E-02 0. -1.
        2   -1    0    0  501    0  0.00000000000E+00  0.00000000000E+00 -0.10473789407E+04  0.10473789407E+04  0.25500000920E-02 0.  1.
    10030    2    1    2    0    0  0.00000000000E+00  0.00000000000E+00 -0.80534339528E+03  0.12894144861E+04  0.10069814957E+04 0.  0.
        3    1    3    3  502    0  0.49157893366E+03 -0.30331191450E+02 -0.26878340858E+03  0.56108320250E+03  0.10100000352E+00 0.  1.
       -3    1    3    3    0  502 -0.49157893366E+03  0.30331191450E+02 -0.53655998670E+03  0.72833128364E+03  0.10100000352E+00 0. -1.
</event>
<event>
 5   0  0.1293575E-03  0.1002223E+04  0.7818609E-02  0.9306110E-01
        1   -1    0    0  501    0  0.00000000000E+00  0.00000000000E+00  0.71517581829E+03  0.71517581831E+03  0.50400001928E-02 0. -1.
       -1   -1    0    0    0  501  0.00000000000E+00  0.00000000000E+00 -0.35111999432E+03  0.35111999436E+03  0.50400001928E-02 0.  1.
    10030    2    1    2    0    0  0.00000000000E+00  0.00000000000E+00  0.36405582397E+03  0.10662958127E+04  0.10022225886E+04 0.  0.
        4    1    3    3  502    0  0.34344050963E+03 -0.35705807809E+03  0.10192116336E+03  0.50579777701E+03  0.12699999809E+01 0.  1.
       -4    1    3    3    0  502 -0.34344050963E+03  0.35705807809E+03  0.26213466060E+03  0.56049803566E+03  0.12699999809E+01 0. -1.
</event>
<event>
 5   0  0.1293575E-03  0.9975147E+03  0.7818609E-02  0.9311275E-01
       -1   -1    0    0    0  501  0.00000000000E+00  0.00000000000E+00  0.22172919886E+03  0.22172919892E+03  0.50400001928E-02 0. -1.
        1   -1    0    0  501    0  0.00000000000E+00  0.00000000000E+00 -0.11219041074E+04  0.11219041074E+04  0.50400001928E-02 0.  1.
    10030    2    1    2    0    0  0.00000000000E+00  0.00000000000E+00 -0.90017490851E+03  0.13436333063E+04  0.99751470962E+03 0.  0.
        4    1    3    3  502    0 -0.49704493917E+03  0.35110682839E+02 -0.42085907050E+03  0.65223492832E+03  0.12699999809E+01 0.  1.
       -4    1    3    3    0  502  0.49704493917E+03 -0.35110682839E+02 -0.47931583801E+03  0.69139837798E+03  0.12699999809E+01 0. -1.
</event>
<event>
 5   0  0.2204862E-03  0.9967607E+03  0.7818609E-02  0.9312105E-01
        2   -1    0    0  501    0  0.00000000000E+00  0.00000000000E+00  0.14424625885E+04  0.14424625885E+04  0.25500000920E-02 0.  1.
       -2   -1    0    0    0  501  0.00000000000E+00  0.00000000000E+00 -0.17219371794E+03  0.17219371796E+03  0.25500000920E-02 0. -1.
    10030    2    1    2    0    0  0.00000000000E+00  0.00000000000E+00  0.12702688705E+04  0.16146563065E+04  0.99676074586E+03 0.  0.
        1    1    3    3  502    0 -0.23188812101E+03  0.22332829705E+02 -0.78565267196E+02  0.24585230766E+03  0.50400001928E-02 0. -1.
       -1    1    3    3    0  502  0.23188812101E+03 -0.22332829705E+02  0.13488341377E+04  0.13688039988E+04  0.50400001928E-02 0.  1.
</event>
<event>
 5   0  0.2255142E-03  0.9990084E+03  0.7818609E-02  0.9309633E-01
       -2   -1    0    0    0  501  0.00000000000E+00  0.00000000000E+00  0.50781977436E+03  0.50781977436E+03  0.25500000920E-02 0.  1.
        2   -1    0    0  501    0  0.00000000000E+00  0.00000000000E+00 -0.49132484010E+03  0.49132484011E+03  0.25500000920E-02 0. -1.
    10030    2    1    2    0    0  0.00000000000E+00  0.00000000000E+00  0.16494934252E+02  0.99914461447E+03  0.99900844730E+03 0.  0.
        4    1    3    3  502    0 -0.37381813542E+03 -0.29542022885E+03  0.15823372580E+03  0.50204843876E+03  0.12699999809E+01 0.  1.
       -4    1    3    3    0  502  0.37381813542E+03  0.29542022885E+03 -0.14173879155E+03  0.49709617571E+03  0.12699999809E+01 0. -1.
</event>
<event>
 5   0  0.1285769E-03  0.9991676E+03  0.7818609E-02  0.9309458E-01
        1   -1    0    0  501    0  0.00000000000E+00  0.00000000000E+00  0.48570524495E+03  0.48570524497E+03  0.50400001928E-02 0. -1.
       -1   -1    0    0    0  501  0.00000000000E+00  0.00000000000E+00 -0.51385893679E+03  0.51385893682E+03  0.50400001928E-02 0.  1.
    10030    2    1    2    0    0  0.00000000000E+00  0.00000000000E+00 -0.28153691845E+02  0.99956418179E+03  0.99916761514E+03 0.  0.
        5    1    3    3  502    0  0.32056561320E+03  0.65368336262E+02  0.36359989181E+03  0.48914446033E+03  0.46999998093E+01 0. -1.
       -5    1    3    3    0  502 -0.32056561320E+03 -0.65368336262E+02 -0.39175358365E+03  0.51041972146E+03  0.46999998093E+01 0.  1.
</event>
<event>
 5   0  0.2204862E-03  0.1007450E+04  0.7818609E-02  0.9300412E-01
        2   -1    0    0  501    0  0.00000000000E+00  0.00000000000E+00  0.15577604748E+04  0.15577604748E+04  0.25500000920E-02 0. -1.
       -2   -1    0    0    0  501  0.00000000000E+00  0.00000000000E+00 -0.16288685180E+03  0.16288685182E+03  0.25500000920E-02 0.  1.
    10030    2    1    2    0    0  0.00000000000E+00  0.00000000000E+00  0.13948736230E+04  0.17206473266E+04  0.10074496506E+04 0.  0.
        1    1    3    3  502    0  0.42969153356E+03  0.11621695077E+03  0.29472333014E+03  0.53385675514E+03  0.50400001928E-02 0.  1.
       -1    1    3    3    0  502 -0.42969153356E+03 -0.11621695077E+03  0.11001502929E+04  0.11867905715E+04  0.50400001928E-02 0. -1.
</event>
<event>
 5   0  0.2277570E-03  0.1001301E+04  0.7818609E-02  0.9307119E-01
        2   -1    0    0  501    0  0.00000000000E+00  0.00000000000E+00  0.92531951395E+03  0.92531951396E+03  0.25500000920E-02 0. -1.
       -2   -1    0    0    0  501  0.00000000000E+00  0.00000000000E+00 -0.27088049992E+03  0.27088049993E+03  0.25500000920E-02 0.  1.
    10030    2    1    2    0    0  0.00000000000E+00  0.00000000000E+00  0.65443901404E+03  0.11962000139E+04  0.10013011785E+04 0.  0.
        3    1    3    3  502    0  0.95204032272E+02 -0.44064699891E+03  0.67078976377E+02  0.45577756053E+03  0.10100000352E+00 0.  1.
       -3    1    3    3    0  502 -0.95204032272E+02  0.44064699891E+03  0.58736003766E+03  0.74042245336E+03  0.10100000352E+00 0. -1.
</event>
<event>
 5   0  0.1353789E-03  0.9915991E+03  0.7818609E-02  0.9317807E-01
        1   -1    0    0  501    0  0.00000000000E+00  0.00000000000E+00  0.10799635242E+04  0.10799635242E+04  0.50400001928E-02 0.  1.
       -1   -1    0    0    0  501  0.00000000000E+00  0.00000000000E+00 -0.22761621501E+03  0.22761621507E+03  0.50400001928E-02 0. -1.
    10030    2    1    2    0    0  0.00000000000E+00  0.00000000000E+00  0.85234730918E+03  0.13075797393E+04  0.99159913225E+03 0.  0.
        1    1    3    3  502    0 -0.20203162226E+03 -0.22767866564E+03  0.94224384787E+03  0.99019079983E+03  0.50400001928E-02 0.  1.
       -1    1    3    3    0  502  0.20203162226E+03  0.22767866564E+03 -0.89896538695E+02  0.31738893944E+03  0.50400001928E-02 0. -1.
</event>
<event>
 5   0  0.1293575E-03  0.1000211E+04  0.7818609E-02  0.9308313E-01
       -1   -1    0    0    0  501  0.00000000000E+00  0.00000000000E+00  0.11634430423E+04  0.11634430423E+04  0.50400001928E-02 0. -1.
        1   -1    0    0  501    0  0.00000000000E+00  0.00000000000E+00 -0.21497029804E+03  0.21497029810E+03  0.50400001928E-02 0.  1.
    10030    2    1    2    0    0  0.00000000000E+00  0.00000000000E+00  0.94847274428E+03  0.13784133404E+04  0.10002113729E+04 0.  0.
        4    1    3    3  502    0  0.43349683645E+03 -0.24934555776E+03  0.47888338741E+03  0.69240423599E+03  0.12699999809E+01 0. -1.
       -4    1    3    3    0  502 -0.43349683645E+03  0.24934555776E+03  0.46958935687E+03  0.68600910444E+03  0.12699999809E+01 0.  1.
</event>
<event>
 5   0  0.1293716E-03  0.9980723E+03  0.7818609E-02  0.9310662E-01
       -1   -1    0    0    0  501  0.00000000000E+00  0.00000000000E+00  0.19161152232E+03  0.19161152239E+03  0.50400001928E-02 0.  1.
        1   -1    0    0  501    0  0.00000000000E+00  0.00000000000E+00 -0.12996977013E+04  0.12996977013E+04  0.50400001928E-02 0. -1.
    10030    2    1    2    0    0  0.00000000000E+00  0.00000000000E+00 -0.11080861790E+04  0.14913092237E+04  0.99807225222E+03 0.  0.
        3    1    3    3  502    0  0.13746431301E+03 -0.30715472327E+03 -0.11046607593E+04  0.11547795741E+04  0.10100000352E+00 0. -1.
       -3    1    3    3    0  502 -0.13746431301E+03  0.30715472327E+03 -0.34254196930E+01  0.33652964963E+03  0.10100000352E+00 0.  1.
</event>
<event>
 5   0  0.1285769E-03  0.1061864E+04  0.7818609E-02  0.9243180E-01
        1   -1    0    0  501    0  0.00000000000E+00  0.00000000000E+00  0.85024693908E+03  0.85024693909E+03  0.50400001928E-02 0. -1.
       -1   -1    0    0    0  501  0.00000000000E+00  0.00000000000E+00 -0.33153747326E+03  0.33153747330E+03  0.50400001928E-02 0.  1.
    10030    2    1    2    0    0  0.00000000000E+00  0.00000000000E+00  0.51870946582E+03  0.11817844124E+04  0.10618638742E+04 0.  0.
        5    1    3    3  502    0 -0.43334668555E+03 -0.73871841803E+01  0.60061505572E+03  0.74067837522E+03  0.46999998093E+01 0. -1.
       -5    1    3    3    0  502  0.43334668555E+03  0.73871841803E+01 -0.81905589896E+02  0.44110603717E+03  0.46999998093E+01 0.  1.
</event>
<event>
 5   0  0.8680125E-04  0.1018902E+04  0.7818609E-02  0.9288053E-01
       -3   -1    0    0    0  501  0.00000000000E+00  0.00000000000E+00  0.21087095459E+03  0.21087097878E+03  0.10100000352E+00 0.  1.
        3   -1    0    0  501    0  0.00000000000E+00  0.00000000000E+00 -0.12308018905E+04  0.12308018946E+04  0.10100000352E+00 0. -1.
    10030    2    1    2    0    0  0.00000000000E+00  0.00000000000E+00 -0.10199309359E+04  0.14416728734E+04  0.10189021346E+04 0.  0.
        3    1    3    3  502    0  0.28160784758E+03  0.33289734691E+03 -0.13717361464E+03  0.45709980765E+03  0.10100000352E+00 0.  1.
       -3    1    3    3    0  502 -0.28160784758E+03 -0.33289734691E+03 -0.88275732124E+03  0.98457306575E+03  0.10100000352E+00 0. -1.
</event>
<event>
 5   0  0.1293716E-03  0.1000816E+04  0.7818609E-02  0.9307650E-01
        1   -1    0    0  501    0  0.00000000000E+00  0.00000000000E+00  0.18233524046E+04  0.18233524046E+04  0.50400001928E-02 0. -1.
       -1   -1    0    0    0  501  0.00000000000E+00  0.00000000000E+00 -0.13733404276E+03  0.13733404286E+03  0.50400001928E-02 0.  1.
    10030    2    1    2    0    0  0.00000000000E+00  0.00000000000E+00  0.16860183619E+04  0.19606864475E+04  0.10008163812E+04 0.  0.
        3    1    3    3  502    0 -0.58312891088E+02  0.10294231723E+03 -0.10954004499E+03  0.16123444297E+03  0.10100000352E+00 0.  1.
       -3    1    3    3    0  502  0.58312891088E+02 -0.10294231723E+03  0.17955584069E+04  0.17994520045E+04  0.10100000352E+00 0. -1.
</event>
<event>
 5   0  0.2255142E-03  0.9914576E+03  0.7818609E-02  0.9317964E-01
        2   -1    0    0  501    0  0.00000000000E+00  0.00000000000E+00  0.25944082664E+04  0.25944082664E+04  0.25500000920E-02 0. -1.
       -2   -1    0    0    0  501  0.00000000000E+00  0.00000000000E+00 -0.94721799753E+02  0.94721799787E+02  0.25500000920E-02 0.  1.
    10030    2    1    2    0    0  0.00000000000E+00  0.00000000000E+00  0.24996864667E+04  0.26891300662E+04  0.99145755398E+03 0.  0.
        4    1    3    3  502    0  0.95298971705E+01 -0.37239800650E+02 -0.90668995479E+02  0.98489092461E+02  0.12699999809E+01 0.  1.
       -4    1    3    3    0  502 -0.95298971705E+01  0.37239800650E+02  0.25903554621E+04  0.25906409737E+04  0.12699999809E+01 0. -1.
</event>
<event>
 5   0  0.2204862E-03  0.9942208E+03  0.7818609E-02  0.9314906E-01
       -2   -1    0    0    0  501  0.00000000000E+00  0.00000000000E+00  0.27813615270E+03  0.27813615271E+03  0.25500000920E-02 0.  1.
        2   -1    0    0  501    0  0.00000000000E+00  0.00000000000E+00 -0.88848117187E+03  0.88848117187E+03  0.25500000920E-02 0. -1.
    10030    2    1    2    0    0  0.00000000000E+00  0.00000000000E+00 -0.61034501916E+03  0.11666173246E+04  0.99422077005E+03 0.  0.
        1    1    3    3  502    0  0.11847209776E+03 -0.25095286011E+03 -0.78912764016E+03  0.83650188789E+03  0.50400001928E-02 0. -1.
       -1    1    3    3    0  502 -0.11847209776E+03  0.25095286011E+03  0.17878262100E+03  0.33011543669E+03  0.50400001928E-02 0.  1.
</event>
<event>
 5   0  0.1249195E-03  0.9952301E+03  0.7818609E-02  0.9313792E-01
       -1   -1    0    0    0  501  0.00000000000E+00  0.00000000000E+00  0.69751884892E+03  0.69751884893E+03  0.50400001928E-02 0. -1.
        1   -1    0    0  501    0  0.00000000000E+00  0.00000000000E+00 -0.35500219559E+03  0.35500219563E+03  0.50400001928E-02 0.  1.
    10030    2    1    2    0    0  0.00000000000E+00  0.00000000000E+00  0.34251665332E+03  0.10525210446E+04  0.99523006961E+03 0.  0.
        2    1    3    3  502    0 -0.19143978930E+03 -0.47398145522E+02 -0.31190557236E+03  0.36902691393E+03  0.25500000920E-02 0.  1.
       -2    1    3    3    0  502  0.19143978930E+03  0.47398145522E+02  0.65442222569E+03  0.68349413063E+03  0.25500000920E-02 0. -1.
</event>
<event>
 5   0  0.2264577E-03  0.9979425E+03  0.7818609E-02  0.9310804E-01
       -2   -1    0    0    0  501  0.00000000000E+00  0.00000000000E+00  0.39767658096E+03  0.39767658097E+03  0.25500000920E-02 0.  1.
        2   -1    0    0  501    0  0.00000000000E+00  0.00000000000E+00 -0.62606727351E+03  0.62606727351E+03  0.25500000920E-02 0. -1.
    10030    2    1    2    0    0  0.00000000000E+00  0.00000000000E+00 -0.22839069254E+03  0.10237438545E+04  0.99794246886E+03 0.  0.
        5    1    3    3  502    0  0.31619656076E+02 -0.37566956472E+03 -0.44948313547E+03  0.58667248408E+03  0.46999998093E+01 0. -1.
       -5    1    3    3    0  502 -0.31619656076E+02  0.37566956472E+03  0.22109244293E+03  0.43707137040E+03  0.46999998093E+01 0.  1.
</event>
<event>
 5   0  0.1249195E-03  0.9998226E+03  0.7818609E-02  0.9308739E-01
       -1   -1    0    0    0  501  0.00000000000E+00  0.00000000000E+00  0.24123072472E+03  0.24123072477E+03  0.50400001928E-02 0.  1.
        1   -1    0    0  501    0  0.00000000000E+00  0.00000000000E+00 -0.10359844974E+04  0.10359844975E+04  0.50400001928E-02 0. -1.
    10030    2    1    2    0    0  0.00000000000E+00  0.00000000000E+00 -0.79475377272E+03  0.12772152222E+04  0.99982256658E+03 0.  0.
        2    1    3    3  502    0 -0.94577705439E+02  0.26618999680E+03 -0.92424885847E+03  0.96645641865E+03  0.25500000920E-02 0. -1.
       -2    1    3    3    0  502  0.94577705439E+02 -0.26618999680E+03  0.12949508575E+03  0.31075880358E+03  0.25500000920E-02 0.  1.
</event>
<event>
 5   0  0.2284843E-03  0.9996255E+03  0.7818609E-02  0.9308956E-01
       -2   -1    0    0    0  501  0.00000000000E+00  0.00000000000E+00  0.14928647212E+03  0.14928647214E+03  0.25500000920E-02 0. -1.
        2   -1    0    0  501    0  0.00000000000E+00  0.00000000000E+00 -0.16733785282E+04  0.16733785282E+04  0.25500000920E-02 0.  1.
    10030    2    1    2    0    0  0.00000000000E+00  0.00000000000E+00 -0.15240920560E+04  0.18226650003E+04  0.99962548390E+03 0.  0.
        2    1    3    3  502    0  0.26575297673E+03  0.12360627388E+02  0.94592941232E+01  0.26620839206E+03  0.25500000920E-02 0. -1.
       -2    1    3    3    0  502 -0.26575297673E+03 -0.12360627388E+02 -0.15335513502E+04  0.15564566082E+04  0.25500000920E-02 0.  1.
</event>
<event>
 5   0  0.2277570E-03  0.1001916E+04  0.7818609E-02  0.9306445E-01
       -2   -1    0    0    0  501  0.00000000000E+00  0.00000000000E+00  0.21725369487E+03  0.21725369489E+03  0.25500000920E-02 0. -1.
        2   -1    0    0  501    0  0.00000000000E+00  0.00000000000E+00 -0.11551432529E+04  0.11551432529E+04  0.25500000920E-02 0.  1.
    10030    2    1    2    0    0  0.00000000000E+00  0.00000000000E+00 -0.93788955804E+03  0.13723969478E+04  0.10019164432E+04 0.  0.
        3    1    3    3  502    0 -0.37784558607E+03  0.31826148671E+03 -0.35515087351E+03  0.60843225916E+03  0.10100000352E+00 0.  1.
       -3    1    3    3    0  502  0.37784558607E+03 -0.31826148671E+03 -0.58273868453E+03  0.76396468864E+03  0.10100000352E+00 0. -1.
</event>
<event>
 5   0  0.8680125E-04  0.1001082E+04  0.7818609E-02  0.9307358E-01
       -3   -1    0    0    0  501  0.00000000000E+00  0.00000000000E+00  0.47532542498E+03  0.47532543571E+03  0.10100000352E+00 0.  1.
        3   -1    0    0  501    0  0.00000000000E+00  0.00000000000E+00 -0.52709460136E+03  0.52709461104E+03  0.10100000352E+00 0. -1.
    10030    2    1    2    0    0  0.00000000000E+00  0.00000000000E+00 -0.51769176378E+02  0.10024200468E+04  0.10010823655E+04 0.  0.
        4    1    3    3  502    0  0.44501969148E+03 -0.14914513312E+03 -0.20005109074E+03  0.51020471220E+03  0.12699999809E+01 0. -1.
       -4    1    3    3    0  502 -0.44501969148E+03  0.14914513312E+03  0.14828191437E+03  0.49221533455E+03  0.12699999809E+01 0.  1.
</event>
<event>
 5   0  0.2204862E-03  0.9997434E+03  0.7818609E-02  0.9308826E-01
        2   -1    0    0  501    0  0.00000000000E+00  0.00000000000E+00  0.28360866926E+03  0.28360866927E+03  0.25500000920E-02 0.  1.
       -2   -1    0    0    0  501  0.00000000000E+00  0.00000000000E+00 -0.88104392915E+03  0.88104392916E+03  0.25500000920E-02 0. -1.
    10030    2    1    2    0    0  0.00000000000E+00  0.00000000000E+00 -0.59743525989E+03  0.11646525984E+04  0.99974335970E+03 0.  0.
        1    1    3    3  502    0 -0.34367566085E+02 -0.49104509424E+03 -0.40004352193E+03  0.63430373926E+03  0.50400001928E-02 0. -1.
       -1    1    3    3    0  502  0.34367566085E+02  0.49104509424E+03 -0.19739173796E+03  0.53034885916E+03  0.50400001928E-02 0.  1.
</event>
<event>
 5   0  0.2255142E-03  0.1000323E+04  0.7818609E-02  0.9308191E-01
       -2   -1    0    0    0  501  0.00000000000E+00  0.00000000000E+00  0.27498123086E+03  0.27498123087E+03  0.25500000920E-02 0.  1.
        2   -1    0    0  501    0  0.00000000000E+00  0.00000000000E+00 -0.90974036424E+03  0.90974036424E+03  0.25500000920E-02 0. -1.
    10030    2    1    2    0    0  0.00000000000E+00  0.00000000000E+00 -0.63475913338E+03  0.11847215951E+04  0.10003229981E+04 0.  0.
        4    1    3    3  502    0 -0.29955338959E+03  0.61951219970E+02 -0.78603934463E+03  0.84346289253E+03  0.12699999809E+01 0. -1.
       -4    1    3    3    0  502  0.29955338959E+03 -0.61951219970E+02  0.15128021125E+03  0.34125870258E+03  0.12699999809E+01 0.  1.
</event>
<event>
 5   0  0.1285769E-03  0.1002999E+04  0.7818609E-02  0.9305262E-01
        1   -1    0    0  501    0  0.00000000000E+00  0.00000000000E+00  0.41991641343E+03  0.41991641346E+03  0.50400001928E-02 0. -1.
       -1   -1    0    0    0  501  0.00000000000E+00  0.00000000000E+00 -0.59893267699E+03  0.59893267701E+03  0.50400001928E-02 0.  1.
    10030    2    1    2    0    0  0.00000000000E+00  0.00000000000E+00 -0.17901626356E+03  0.10188490905E+04  0.10029988268E+04 0.  0.
        5    1    3    3  502    0  0.37484411635E+02 -0.20133663567E+02  0.41805709109E+03  0.42024310456E+03  0.46999998093E+01 0. -1.
       -5    1    3    3    0  502 -0.37484411635E+02  0.20133663567E+02 -0.59707335465E+03  0.59860598590E+03  0.46999998093E+01 0.  1.
</event>
<event>
 5   0  0.1249195E-03  0.9997193E+03  0.7818609E-02  0.9308853E-01
       -1   -1    0    0    0  501  0.00000000000E+00  0.00000000000E+00  0.40860133245E+03  0.40860133248E+03  0.50400001928E-02 0.  1.
        1   -1    0    0  501    0  0.00000000000E+00  0.00000000000E+00 -0.61149987459E+03  0.61149987461E+03  0.50400001928E-02 0. -1.
    10030    2    1    2    0    0  0.00000000000E+00  0.00000000000E+00 -0.20289854214E+03  0.10201012071E+04  0.99971928775E+03 0.  0.
        2    1    3    3  502    0 -0.13101866385E+03  0.42192912201E+03 -0.34003150240E+03  0.55750470573E+03  0.25500000920E-02 0.  1.
       -2    1    3    3    0  502  0.13101866385E+03 -0.42192912201E+03  0.13713296026E+03  0.46259650136E+03  0.25500000920E-02 0. -1.
</event>
<event>
 5   0  0.1285769E-03  0.9986331E+03  0.7818609E-02  0.9310045E-01
       -1   -1    0    0    0  501  0.00000000000E+00  0.00000000000E+00  0.61750128240E+03  0.61750128242E+03  0.50400001928E-02 0. -1.
        1   -1    0    0  501    0  0.00000000000E+00  0.00000000000E+00 -0.40375143258E+03  0.40375143261E+03  0.50400001928E-02 0.  1.
    10030    2    1    2    0    0  0.00000000000E+00  0.00000000000E+00  0.21374984983E+03  0.10212527150E+04  0.99863312065E+03 0.  0.
        5    1    3    3  502    0 -0.29063027350E+02 -0.31965052322E+03  0.49799540857E+03  0.59248850918E+03  0.46999998093E+01 0. -1.
       -5    1    3    3    0  502  0.29063027350E+02  0.31965052322E+03 -0.28424555874E+03  0.42876420585E+03  0.46999998093E+01 0.  1.
</event>
<event>
 5   0  0.2277570E-03  0.9917743E+03  0.7818609E-02  0.9317613E-01
       -2   -1    0    0    0  501  0.00000000000E+00  0.00000000000E+00  0.40754425150E+03  0.40754425151E+03  0.25500000920E-02 0. -1.
        2   -1    0    0  501    0  0.00000000000E+00  0.00000000000E+00 -0.60338003710E+03  0.60338003711E+03  0.25500000920E-02 0.  1.
    10030    2    1    2    0    0  0.00000000000E+00  0.00000000000E+00 -0.19583578560E+03  0.10109242886E+04  0.99177430012E+03 0.  0.
        3    1    3    3  502    0  0.21784369175E+03 -0.19229395051E+03  0.31167587637E+03  0.42611582879E+03  0.10100000352E+00 0. -1.
       -3    1    3    3    0  502 -0.21784369175E+03  0.19229395051E+03 -0.50751166197E+03  0.58480845982E+03  0.10100000352E+00 0.  1.
</event>
<event>
 5   0  0.2284843E-03  0.9853750E+03  0.7818609E-02  0.9324732E-01
       -2   -1    0    0    0  501  0.00000000000E+00  0.00000000000E+00  0.22259851271E+03  0.22259851273E+03  0.25500000920E-02 0. -1.
        2   -1    0    0  501    0  0.00000000000E+00  0.00000000000E+00 -0.10904879491E+04  0.10904879491E+04  0.25500000920E-02 0.  1.
    10030    2    1    2    0    0  0.00000000000E+00  0.00000000000E+00 -0.86788943641E+03  0.13130864619E+04  0.98537504660E+03 0.  0.
        2    1    3    3  502    0  0.25709311666E+03 -0.38111872209E+03 -0.67005000709E+03  0.81259790978E+03  0.25500000920E-02 0.  1.
       -2    1    3    3    0  502 -0.25709311666E+03  0.38111872209E+03 -0.19783942931E+03  0.50048855208E+03  0.25500000920E-02 0. -1.
</event>
<event>
 5   0  0.2264577E-03  0.9948844E+03  0.7818609E-02  0.9314173E-01
       -2   -1    0    0    0  501  0.00000000000E+00  0.00000000000E+00  0.29033348377E+03  0.29033348378E+03  0.25500000920E-02 0. -1.
        2   -1    0    0  501    0  0.00000000000E+00  0.00000000000E+00 -0.85229138054E+03  0.85229138054E+03  0.25500000920E-02 0.  1.
    10030    2    1    2    0    0  0.00000000000E+00  0.00000000000E+00 -0.56195789677E+03  0.11426248643E+04  0.99488436656E+03 0.  0.
        5    1    3    3  502    0  0.15917306862E+03  0.37362666259E+03  0.48889988642E+02  0.40907856184E+03  0.46999998093E+01 0. -1.
       -5    1    3    3    0  502 -0.15917306862E+03 -0.37362666259E+03 -0.61084788541E+03  0.73354630248E+03  0.46999998093E+01 0.  1.
</event>
<event>
 5   0  0.1293575E-03  0.1034843E+04  0.7818609E-02  0.9271134E-01
        1   -1    0    0  501    0  0.00000000000E+00  0.00000000000E+00  0.31950119008E+03  0.31950119012E+03  0.50400001928E-02 0. -1.
       -1   -1    0    0    0  501  0.00000000000E+00  0.00000000000E+00 -0.83794746708E+03  0.83794746709E+03  0.50400001928E-02 0.  1.
    10030    2    1    2    0    0  0.00000000000E+00  0.00000000000E+00 -0.51844627699E+03  0.11574486572E+04  0.10348433949E+04 0.  0.
        4    1    3    3  502    0  0.27158248444E+03  0.41636706248E+03 -0.98671899797E+02  0.50680995776E+03  0.12699999809E+01 0. -1.
       -4    1    3    3    0  502 -0.27158248444E+03 -0.41636706248E+03 -0.41977437719E+03  0.65063869945E+03  0.12699999809E+01 0.  1.
</event>
<event>
 5   0  0.1353789E-03  0.1010759E+04  0.7818609E-02  0.9296823E-01
        1   -1    0    0  501    0  0.00000000000E+00  0.00000000000E+00  0.42413586565E+03  0.42413586568E+03  0.50400001928E-02 0.  1.
       -1   -1    0    0    0  501  0.00000000000E+00  0.00000000000E+00 -0.60218540382E+03  0.60218540384E+03  0.50400001928E-02 0. -1.
    10030    2    1    2    0    0  0.00000000000E+00  0.00000000000E+00 -0.17804953817E+03  0.10263212695E+04  0.10107589773E+04 0.  0.
        1    1    3    3  502    0  0.49507980720E+03  0.89932529579E+02 -0.13682992068E+03  0.52145402730E+03  0.50400001928E-02 0. -1.
       -1    1    3    3    0  502 -0.49507980720E+03 -0.89932529579E+02 -0.41219617495E+02  0.50486724222E+03  0.50400001928E-02 0.  1.
</event>
<event>
 5   0  0.2284843E-03  0.1000786E+04  0.7818609E-02  0.9307683E-01
       -2   -1    0    0    0  501  0.00000000000E+00  0.00000000000E+00  0.11064417291E+04  0.11064417291E+04  0.25500000920E-02 0. -1.
        2   -1    0    0  501    0  0.00000000000E+00  0.00000000000E+00 -0.22630489243E+03  0.22630489244E+03  0.25500000920E-02 0.  1.
    10030    2    1    2    0    0  0.00000000000E+00  0.00000000000E+00  0.88013683668E+03  0.13327466216E+04  0.10007860441E+04 0.  0.
        2    1    3    3  502    0 -0.38225477897E+02 -0.29980994207E+03 -0.91021073945E+02  0.31564540933E+03  0.25500000920E-02 0.  1.
       -2    1    3    3    0  502  0.38225477897E+02  0.29980994207E+03  0.97115791063E+03  0.10171012122E+04  0.25500000920E-02 0. -1.
</event>
<event>
 5   0  0.8680125E-04  0.1000234E+04  0.7818609E-02  0.9308288E-01
       -3   -1    0    0    0  501  0.00000000000E+00  0.00000000000E+00  0.32670184696E+03  0.32670186257E+03  0.10100000352E+00 0. -1.
        3   -1    0    0  501    0  0.00000000000E+00  0.00000000000E+00 -0.76558154576E+03  0.76558155242E+03  0.10100000352E+00 0.  1.
    10030    2    1    2    0    0  0.00000000000E+00  0.00000000000E+00 -0.43887969881E+03  0.10922834150E+04  0.10002338070E+04 0.  0.
        2    1    3    3  502    0  0.34823684115E+03 -0.70106641838E+02 -0.60387884056E+03  0.70060937251E+03  0.25500000920E-02 0.  1.
       -2    1    3    3    0  502 -0.34823684115E+03  0.70106641838E+02  0.16499914176E+03  0.39167404248E+03  0.25500000920E-02 0. -1.
</event>
<event>
 5   0  0.1293575E-03  0.9989117E+03  0.7818609E-02  0.9309739E-01
       -1   -1    0    0    0  501  0.00000000000E+00  0.00000000000E+00  0.32305562431E+03  0.32305562435E+03  0.50400001928E-02 0.  1.
        1   -1    0    0  501    0  0.00000000000E+00  0.00000000000E+00 -0.77217700281E+03  0.77217700283E+03  0.50400001928E-02 0. -1.
    10030    2    1    2    0    0  0.00000000000E+00  0.00000000000E+00 -0.44912137850E+03  0.10952326272E+04  0.99891165525E+03 0.  0.
        4    1    3    3  502    0 -0.10390262091E+03  0.34351790195E+03  0.15628630100E+03  0.39144261951E+03  0.12699999809E+01 0.  1.
       -4    1    3    3    0  502  0.10390262091E+03 -0.34351790195E+03 -0.60540767950E+03  0.70379000766E+03  0.12699999809E+01 0. -1.
</event>
<event>
 5   0  0.2255142E-03  0.9997028E+03  0.7818609E-02  0.9308871E-01
       -2   -1    0    0    0  501  0.00000000000E+00  0.00000000000E+00  0.99006731878E+02  0.99006731911E+02  0.25500000920E-02 0. -1.
        2   -1    0    0  501    0  0.00000000000E+00  0.00000000000E+00 -0.25235800765E+04  0.25235800765E+04  0.25500000920E-02 0.  1.
    10030    2    1    2    0    0  0.00000000000E+00  0.00000000000E+00 -0.24245733446E+04  0.26225868084E+04  0.99970278793E+03 0.  0.
        4    1    3    3  502    0  0.31833333233E+03  0.37741844502E+03 -0.10079163184E+04  0.11223536479E+04  0.12699999809E+01 0. -1.
       -4    1    3    3    0  502 -0.31833333233E+03 -0.37741844502E+03 -0.14166570262E+04  0.15002331605E+04  0.12699999809E+01 0.  1.
</event>
<event>
 5   0  0.1285769E-03  0.1001606E+04  0.7818609E-02  0.9306785E-01
        1   -1    0    0  501    0  0.00000000000E+00  0.00000000000E+00  0.83065252394E+03  0.83065252395E+03  0.50400001928E-02 0.  1.
       -1   -1    0    0    0  501  0.00000000000E+00  0.00000000000E+00 -0.30193548780E+03  0.30193548785E+03  0.50400001928E-02 0. -1.
    10030    2    1    2    0    0  0.00000000000E+00  0.00000000000E+00  0.52871703613E+03  0.11325880118E+04  0.10016056610E+04 0.  0.
        5    1    3    3  502    0  0.11042548000E+03 -0.32327499132E+03  0.67841407079E+03  0.75958426004E+03  0.46999998093E+01 0.  1.
       -5    1    3    3    0  502 -0.11042548000E+03  0.32327499132E+03 -0.14969703466E+03  0.37300375176E+03  0.46999998093E+01 0. -1.
</event>
<event>
 5   0  0.2264577E-03  0.1007096E+04  0.7818609E-02  0.9300796E-01
        2   -1    0    0  501    0  0.00000000000E+00  0.00000000000E+00  0.11771196645E+04  0.11771196645E+04  0.25500000920E-02 0.  1.
       -2   -1    0    0    0  501  0.00000000000E+00  0.00000000000E+00 -0.21540756533E+03  0.21540756535E+03  0.25500000920E-02 0. -1.
    10030    2    1    2    0    0  0.00000000000E+00  0.00000000000E+00  0.96171209913E+03  0.13925272298E+04  0.10070957870E+04 0.  0.
        5    1    3    3  502    0  0.22267192743E+03  0.17161716275E+03 -0.96753755039E+02  0.29735268105E+03  0.46999998093E+01 0. -1.
       -5    1    3    3    0  502 -0.22267192743E+03 -0.17161716275E+03  0.10584658542E+04  0.10951745488E+04  0.46999998093E+01 0.  1.
</event>
<event>
 5   0  0.2204862E-03  0.9671772E+03  0.7818609E-02  0.9345295E-01
       -2   -1    0    0    0  501  0.00000000000E+00  0.00000000000E+00  0.18145168340E+03  0.18145168342E+03  0.25500000920E-02 0. -1.
        2   -1    0    0  501    0  0.00000000000E+00  0.00000000000E+00 -0.12888165539E+04  0.12888165539E+04  0.25500000920E-02 0.  1.
    10030    2    1    2    0    0  0.00000000000E+00  0.00000000000E+00 -0.11073648705E+04  0.14702682374E+04  0.96717719849E+03 0.  0.
        1    1    3    3  502    0 -0.31471173657E+03 -0.24566543559E+03 -0.96850334958E+03  0.10475656168E+04  0.50400001928E-02 0.  1.
       -1    1    3    3    0  502  0.31471173657E+03  0.24566543559E+03 -0.13886152096E+03  0.42270262054E+03  0.50400001928E-02 0. -1.
</event>
<event>
 5   0  0.1293716E-03  0.1007760E+04  0.7818609E-02  0.9300074E-01
        1   -1    0    0  501    0  0.00000000000E+00  0.00000000000E+00  0.71437441348E+03  0.71437441349E+03  0.50400001928E-02 0.  1.
       -1   -1    0    0    0  501  0.00000000000E+00  0.00000000000E+00 -0.35540899515E+03  0.35540899519E+03  0.50400001928E-02 0. -1.
    10030    2    1    2    0    0  0.00000000000E+00  0.00000000000E+00  0.35896541832E+03  0.10697834087E+04  0.10077600756E+04 0.  0.
        3    1    3    3  502    0 -0.24704728612E+02 -0.50311433243E+03  0.16602462130E+03  0.53037584805E+03  0.10100000352E+00 0. -1.
       -3    1    3    3    0  502  0.24704728612E+02  0.50311433243E+03  0.19294079702E+03  0.53940756063E+03  0.10100000352E+00 0.  1.
</event>
<event>
 5   0  0.8680125E-04  0.9975355E+03  0.7818609E-02  0.9311252E-01
       -3   -1    0    0    0  501  0.00000000000E+00  0.00000000000E+00  0.92192308857E+03  0.92192309410E+03  0.10100000352E+00 0. -1.
        3   -1    0    0  501    0  0.00000000000E+00  0.00000000000E+00 -0.26983733393E+03  0.26983735284E+03  0.10100000352E+00 0.  1.
    10030    2    1    2    0    0  0.00000000000E+00  0.00000000000E+00  0.65208575463E+03  0.11917604469E+04  0.99753552893E+03 0.  0.
        3    1    3    3  502    0 -0.28505972255E+03  0.28638220906E+01  0.81499983091E+03  0.86341877527E+03  0.10100000352E+00 0. -1.
       -3    1    3    3    0  502  0.28505972255E+03 -0.28638220906E+01 -0.16291407628E+03  0.32834167166E+03  0.10100000352E+00 0.  1.
</event>
<event>
 5   0  0.1249195E-03  0.1002241E+04  0.7818609E-02  0.9306091E-01
       -1   -1    0    0    0  501  0.00000000000E+00  0.00000000000E+00  0.57816273337E+03  0.57816273339E+03  0.50400001928E-02 0.  1.
        1   -1    0    0  501    0  0.00000000000E+00  0.00000000000E+00 -0.43434411823E+03  0.43434411826E+03  0.50400001928E-02 0. -1.
    10030    2    1    2    0    0  0.00000000000E+00  0.00000000000E+00  0.14381861514E+03  0.10125068516E+04  0.10022406550E+04 0.  0.
        2    1    3    3  502    0  0.10114811255E+03 -0.20237309836E+03  0.52363126995E+03  0.57041696897E+03  0.25500000920E-02 0.  1.
       -2    1    3    3    0  502 -0.10114811255E+03  0.20237309836E+03 -0.37981265481E+03  0.44208988268E+03  0.25500000920E-02 0. -1.
</event>
<event>
 5   0  0.1293575E-03  0.1037465E+04  0.7818609E-02  0.9268382E-01
       -1   -1    0    0    0  501  0.00000000000E+00  0.00000000000E+00  0.54537279526E+03  0.54537279529E+03  0.50400001928E-02 0. -1.
        1   -1    0    0  501    0  0.00000000000E+00  0.00000000000E+00 -0.49339392243E+03  0.49339392246E+03  0.50400001928E-02 0.  1.
    10030    2    1    2    0    0  0.00000000000E+00  0.00000000000E+00  0.51978872831E+02  0.10387667177E+04  0.10374654166E+04 0.  0.
        4    1    3    3  502    0  0.51482033820E+03  0.53363237279E+01 -0.37442634079E+02  0.51620927997E+03  0.12699999809E+01 0. -1.
       -4    1    3    3    0  502 -0.51482033820E+03 -0.53363237279E+01  0.89421506910E+02  0.52255743778E+03  0.12699999809E+01 0.  1.
</event>
<event>
 5   0  0.1293575E-03  0.9982268E+03  0.7818609E-02  0.9310492E-01
        1   -1    0    0  501    0  0.00000000000E+00  0.00000000000E+00  0.25877634773E+03  0.25877634778E+03  0.50400001928E-02 0.  1.
       -1   -1    0    0    0  501  0.00000000000E+00  0.00000000000E+00 -0.96266212113E+03  0.96266212114E+03  0.50400001928E-02 0. -1.
    10030    2    1    2    0    0  0.00000000000E+00  0.00000000000E+00 -0.70388577340E+03  0.12214384689E+04  0.99822680357E+03 0.  0.
        4    1    3    3  502    0  0.32240788523E+03  0.93800456411E+02  0.99910286234E+02  0.35032705901E+03  0.12699999809E+01 0.  1.
       -4    1    3    3    0  502 -0.32240788523E+03 -0.93800456411E+02 -0.80379605964E+03  0.87111140991E+03  0.12699999809E+01 0. -1.
</event>
<event>
 5   0  0.1353789E-03  0.9871896E+03  0.7818609E-02  0.9322708E-01
       -1   -1    0    0    0  501  0.00000000000E+00  0.00000000000E+00  0.43639489352E+03  0.43639489354E+03  0.50400001928E-02 0. -1.
        1   -1    0    0  501    0  0.00000000000E+00  0.00000000000E+00 -0.55829214606E+03  0.55829214608E+03  0.50400001928E-02 0.  1.
    10030    2    1    2    0    0  0.00000000000E+00  0.00000000000E+00 -0.12189725254E+03  0.99468703963E+03  0.98718963053E+03 0.  0.
        1    1    3    3  502    0  0.25257739255E+03  0.39766900373E+03  0.87478882822E+02  0.47915397392E+03  0.50400001928E-02 0. -1.
       -1    1    3    3    0  502 -0.25257739255E+03 -0.39766900373E+03 -0.20937613537E+03  0.51553306571E+03  0.50400001928E-02 0.  1.
</event>
<event>
 5   0  0.2264577E-03  0.9935945E+03  0.7818609E-02  0.9315598E-01
       -2   -1    0    0    0  501  0.00000000000E+00  0.00000000000E+00  0.37978913373E+03  0.37978913374E+03  0.25500000920E-02 0.  1.
        2   -1    0    0  501    0  0.00000000000E+00  0.00000000000E+00 -0.64985398991E+03  0.64985398991E+03  0.25500000920E-02 0. -1.
    10030    2    1    2    0    0  0.00000000000E+00  0.00000000000E+00 -0.27006485618E+03  0.10296431237E+04  0.99359445225E+03 0.  0.
        5    1    3    3  502    0 -0.14713957674E+03 -0.14761502787E+03  0.33226615762E+03  0.39225392412E+03  0.46999998093E+01 0.  1.
       -5    1    3    3    0  502  0.14713957674E+03  0.14761502787E+03 -0.60233101380E+03  0.63738919953E+03  0.46999998093E+01 0. -1.
</event>
<event>
 5   0  0.2284843E-03  0.1007953E+04  0.7818609E-02  0.9299865E-01
        2   -1    0    0  501    0  0.00000000000E+00  0.00000000000E+00  0.10698009583E+04  0.10698009583E+04  0.25500000920E-02 0.  1.
       -2   -1    0    0    0  501  0.00000000000E+00  0.00000000000E+00 -0.23741992653E+03  0.23741992655E+03  0.25500000920E-02 0. -1.
    10030    2    1    2    0    0  0.00000000000E+00  0.00000000000E+00  0.83238103173E+03  0.13072208848E+04  0.10079525087E+04 0.  0.
        2    1    3    3  502    0 -0.23358461680E+03 -0.13647735990E+03 -0.13526843643E+03  0.30246552344E+03  0.25500000920E-02 0. -1.
       -2    1    3    3    0  502  0.23358461680E+03  0.13647735990E+03  0.96764946815E+03  0.10047553614E+04  0.25500000920E-02 0.  1.
</event>
<event>
 5   0  0.1249195E-03  0.9992508E+03  0.7818609E-02  0.9309367E-01
       -1   -1    0    0    0  501  0.00000000000E+00  0.00000000000E+00  0.29584942981E+03  0.29584942985E+03  0.50400001928E-02 0. -1.
        1   -1    0    0  501    0  0.00000000000E+00  0.00000000000E+00 -0.84375881198E+03  0.84375881199E+03  0.50400001928E-02 0.  1.
    10030    2    1    2    0    0  0.00000000000E+00  0.00000000000E+00 -0.54790938217E+03  0.11396082418E+04  0.99925084629E+03 0.  0.
        2    1    3    3  502    0 -0.11456772537E+03 -0.65867907260E+02 -0.82346506293E+03  0.83400183140E+03  0.25500000920E-02 0.  1.
       -2    1    3    3    0  502  0.11456772537E+03  0.65867907260E+02  0.27555568076E+03  0.30560641045E+03  0.25500000920E-02 0. -1.
</event>
<event>
 5   0  0.1353789E-03  0.1002112E+04  0.7818609E-02  0.9306231E-01
       -1   -1    0    0    0  501  0.00000000000E+00  0.00000000000E+00  0.42158582595E+03  0.42158582598E+03  0.50400001928E-02 0.  1.
        1   -1    0    0  501    0  0.00000000000E+00  0.00000000000E+00 -0.59550693377E+03  0.59550693379E+03  0.50400001928E-02 0. -1.
    10030    2    1    2    0    0  0.00000000000E+00  0.00000000000E+00 -0.17392110782E+03  0.10170927598E+04  0.10021123341E+04 0.  0.
        1    1    3    3  502    0 -0.36547783693E+03 -0.17862823508E+03 -0.38386594496E+03  0.55931668970E+03  0.50400001928E-02 0. -1.
       -1    1    3    3    0  502  0.36547783693E+03  0.17862823508E+03  0.20994483713E+03  0.45777607006E+03  0.50400001928E-02 0.  1.
</event>
<event>
 5   0  0.1293716E-03  0.1006352E+04  0.7818609E-02  0.9301605E-01
       -1   -1    0    0    0  501  0.00000000000E+00  0.00000000000E+00  0.17152867373E+03  0.17152867381E+03  0.50400001928E-02 0.  1.
        1   -1    0    0  501    0  0.00000000000E+00  0.00000000000E+00 -0.14760582846E+04  0.14760582846E+04  0.50400001928E-02 0. -1.
    10030    2    1    2    0    0  0.00000000000E+00  0.00000000000E+00 -0.13045296109E+04  0.16475869584E+04  0.10063524631E+04 0.  0.
        3    1    3    3  502    0  0.20063370800E+03  0.36831432528E+03 -0.19714754110E+03  0.46343984524E+03  0.10100000352E+00 0.  1.
       -3    1    3    3    0  502 -0.20063370800E+03 -0.36831432528E+03 -0.11073820698E+04  0.11841471132E+04  0.10100000352E+00 0. -1.
</event>
<event>
 5   0  0.1353789E-03  0.9990747E+03  0.7818609E-02  0.9309560E-01
       -1   -1    0    0    0  501  0.00000000000E+00  0.00000000000E+00  0.44130995366E+03  0.44130995369E+03  0.50400001928E-02 0.  1.
        1   -1    0    0  501    0  0.00000000000E+00  0.00000000000E+00 -0.56544742724E+03  0.56544742727E+03  0.50400001928E-02 0. -1.
    10030    2    1    2    0    0  0.00000000000E+00  0.00000000000E+00 -0.12413747358E+03  0.10067573810E+04  0.99907472782E+03 0.  0.
        1    1    3    3  502    0  0.44164530465E+03 -0.19680106344E+03  0.64420793253E+02  0.48778199261E+03  0.50400001928E-02 0.  1.
       -1    1    3    3    0  502 -0.44164530465E+03  0.19680106344E+03 -0.18855826684E+03  0.51897538834E+03  0.50400001928E-02 0. -1.
</event>
<event>
 5   0  0.1293575E-03  0.1002598E+04  0.7818609E-02  0.9305700E-01
        1   -1    0    0  501    0  0.00000000000E+00  0.00000000000E+00  0.53977195449E+03  0.53977195451E+03  0.50400001928E-02 0.  1.
       -1   -1    0    0    0  501  0.00000000000E+00  0.00000000000E+00 -0.46556858344E+03  0.46556858347E+03  0.50400001928E-02 0. -1.
    10030    2    1    2    0    0  0.00000000000E+00  0.00000000000E+00  0.74203371047E+02  0.10053405380E+04  0.10025983528E+04 0.  0.
        4    1    3    3  502    0  0.48568021907E+02  0.33343296441E+03  0.40928103995E+03  0.53014052577E+03  0.12699999809E+01 0.  1.
       -4    1    3    3    0  502 -0.48568021907E+02 -0.33343296441E+03 -0.33507766890E+03  0.47520001221E+03  0.12699999809E+01 0. -1.
</event>
<event>
 5   0  0.1293575E-03  0.9817761E+03  0.7818609E-02  0.9328761E-01
       -1   -1    0    0    0  501  0.00000000000E+00  0.00000000000E+00  0.12871933893E+03  0.12871933903E+03  0.50400001928E-02 0. -1.
        1   -1    0    0  501    0  0.00000000000E+00  0.00000000000E+00 -0.18720657868E+04  0.18720657868E+04  0.50400001928E-02 0.  1.
    10030    2    1    2    0    0  0.00000000000E+00  0.00000000000E+00 -0.17433464478E+04  0.20007851258E+04  0.98177608570E+03 0.  0.
        4    1    3    3  502    0  0.27924562412E+03  0.32705034644E+03 -0.13540607018E+04  0.14207118092E+04  0.12699999809E+01 0.  1.
       -4    1    3    3    0  502 -0.27924562412E+03 -0.32705034644E+03 -0.38928574607E+03  0.58007331666E+03  0.12699999809E+01 0. -1.
</event>
<event>
 5   0  0.1293716E-03  0.1003201E+04  0.7818609E-02  0.9305041E-01
        1   -1    0    0  501    0  0.00000000000E+00  0.00000000000E+00  0.64261869669E+03  0.64261869671E+03  0.50400001928E-02 0.  1.
       -1   -1    0    0    0  501  0.00000000000E+00  0.00000000000E+00 -0.39152772629E+03  0.39152772632E+03  0.50400001928E-02 0. -1.
    10030    2    1    2    0    0  0.00000000000E+00  0.00000000000E+00  0.25109097040E+03  0.10341464230E+04  0.10032009514E+04 0.  0.
        3    1    3    3  502    0  0.45101395597E+03 -0.20057853596E+03  0.21750307754E+03  0.53940053440E+03  0.10100000352E+00 0.  1.
       -3    1    3    3    0  502 -0.45101395597E+03  0.20057853596E+03  0.33587892868E+02  0.49474588863E+03  0.10100000352E+00 0. -1.
</event>
<event>
 5   0  0.2284843E-03  0.9970818E+03  0.7818609E-02  0.9311751E-01
       -2   -1    0    0    0  501  0.00000000000E+00  0.00000000000E+00  0.33598594931E+03  0.33598594932E+03  0.25500000920E-02 0.  1.
        2   -1    0    0  501    0  0.00000000000E+00  0.00000000000E+00 -0.73974231049E+03  0.73974231049E+03  0.25500000920E-02 0. -1.
    10030    2    1    2    0    0  0.00000000000E+00  0.00000000000E+00 -0.40375636118E+03  0.10757282598E+04  0.99708178690E+03 0.  0.
        2    1    3    3  502    0  0.29510559558E+03  0.31152826814E+03  0.71922451285E+02  0.43509770557E+03  0.25500000920E-02 0.  1.
       -2    1    3    3    0  502 -0.29510559558E+03 -0.31152826814E+03 -0.47567881246E+03  0.64063055424E+03  0.25500000920E-02 0. -1.
</event>
<event>
 5   0  0.1285769E-03  0.1001413E+04  0.7818609E-02  0.9306996E-01
       -1   -1    0    0    0  501  0.00000000000E+00  0.00000000000E+00  0.34285131039E+03  0.34285131043E+03  0.50400001928E-02 0.  1.
        1   -1    0    0  501    0  0.00000000000E+00  0.00000000000E+00 -0.73124118749E+03  0.73124118750E+03  0.50400001928E-02 0. -1.
    10030    2    1    2    0    0  0.00000000000E+00  0.00000000000E+00 -0.38838987710E+03  0.10740924979E+04  0.10014130005E+04 0.  0.
        5    1    3    3  502    0 -0.43360517102E+02 -0.13308699654E+03 -0.70980514096E+03  0.72348995240E+03  0.46999998093E+01 0. -1.
       -5    1    3    3    0  502  0.43360517102E+02  0.13308699654E+03  0.32141526386E+03  0.35060254553E+03  0.46999998093E+01 0.  1.
</event>
<event>
 5   0  0.2204862E-03  0.1001867E+04  0.7818609E-02  0.9306499E-01
        2   -1    0    0  501    0  0.00000000000E+00  0.00000000000E+00  0.81424167484E+03  0.81424167484E+03  0.25500000920E-02 0. -1.
       -2   -1    0    0    0  501  0.00000000000E+00  0.00000000000E+00 -0.30818197643E+03  0.30818197644E+03  0.25500000920E-02 0.  1.
    10030    2    1    2    0    0  0.00000000000E+00  0.00000000000E+00  0.50605969841E+03  0.11224236513E+04  0.10018674736E+04 0.  0.
        1    1    3    3  502    0 -0.12084920497E+03 -0.14666874044E+03 -0.26622699489E+03  0.32709794038E+03  0.50400001928E-02 0.  1.
       -1    1    3    3    0  502  0.12084920497E+03  0.14666874044E+03  0.77228669330E+03  0.79532571091E+03  0.50400001928E-02 0. -1.
</event>
<event>
 5   0  0.1293716E-03  0.9934454E+03  0.7818609E-02  0.9315763E-01
       -1   -1    0    0    0  501  0.00000000000E+00  0.00000000000E+00  0.14058117225E+04  0.14058117225E+04  0.50400001928E-02 0.  1.
        1   -1    0    0  501    0  0.00000000000E+00  0.00000000000E+00 -0.17550960125E+03  0.17550960133E+03  0.50400001928E-02 0. -1.
    10030    2    1    2    0    0  0.00000000000E+00  0.00000000000E+00  0.12303021213E+04  0.15813213239E+04  0.99344542864E+03 0.  0.
        3    1    3    3  502    0 -0.27337763046E+03  0.34944760266E+03  0.97066683480E+03  0.10672596077E+04  0.10100000352E+00 0.  1.
       -3    1    3    3    0  502  0.27337763046E+03 -0.34944760266E+03  0.25963528646E+03  0.51406171615E+03  0.10100000352E+00 0. -1.
</event>
<event>
 5   0  0.2204862E-03  0.9969836E+03  0.7818609E-02  0.9311859E-01
        2   -1    0    0  501    0  0.00000000000E+00  0.00000000000E+00  0.98340074749E+03  0.98340074750E+03  0.25500000920E-02 0.  1.
       -2   -1    0    0    0  501  0.00000000000E+00  0.00000000000E+00 -0.25268850008E+03  0.25268850009E+03  0.25500000920E-02 0. -1.
    10030    2    1    2    0    0  0.00000000000E+00  0.00000000000E+00  0.73071224742E+03  0.12360892476E+04  0.99698357031E+03 0.  0.
        1    1    3    3  502    0 -0.48126880991E+03 -0.12848441398E+03  0.38908024028E+03  0.63206909862E+03  0.50400001928E-02 0.  1.
       -1    1    3    3    0  502  0.48126880991E+03  0.12848441398E+03  0.34163200714E+03  0.60402014897E+03  0.50400001928E-02 0. -1.
</event>
<event>
 5   0  0.1353789E-03  0.1004560E+04  0.7818609E-02  0.9303557E-01
       -1   -1    0    0    0  501  0.00000000000E+00  0.00000000000E+00  0.35508390623E+03  0.35508390626E+03  0.50400001928E-02 0.  1.
        1   -1    0    0  501    0  0.00000000000E+00  0.00000000000E+00 -0.71049476415E+03  0.71049476417E+03  0.50400001928E-02 0. -1.
    10030    2    1    2    0    0  0.00000000000E+00  0.00000000000E+00 -0.35541085793E+03  0.10655786704E+04  0.10045601151E+04 0.  0.
        1    1    3    3  502    0  0.50011059475E+03  0.96461044468E+01 -0.12930954514E+03  0.51664747440E+03  0.50400001928E-02 0.  1.
       -1    1    3    3    0  502 -0.50011059475E+03 -0.96461044468E+01 -0.22610131279E+03  0.54893119603E+03  0.50400001928E-02 0. -1.
</event>
<event>
 5   0  0.2264577E-03  0.9815811E+03  0.7818609E-02  0.9328980E-01
       -2   -1    0    0    0  501  0.00000000000E+00  0.00000000000E+00  0.68213790274E+03  0.68213790275E+03  0.25500000920E-02 0. -1.
        2   -1    0    0  501    0  0.00000000000E+00  0.00000000000E+00 -0.35311827061E+03  0.35311827062E+03  0.25500000920E-02 0.  1.
    10030    2    1    2    0    0  0.00000000000E+00  0.00000000000E+00  0.32901963214E+03  0.10352561734E+04  0.98158108486E+03 0.  0.
        5    1    3    3  502    0 -0.10474957276E+03  0.24961608386E+03 -0.26723104916E+03  0.38041449230E+03  0.46999998093E+01 0.  1.
       -5    1    3    3    0  502  0.10474957276E+03 -0.24961608386E+03  0.59625068130E+03  0.65484168107E+03  0.46999998093E+01 0. -1.
</event>
<event>
 5   0  0.1249195E-03  0.1008121E+04  0.7818609E-02  0.9299683E-01
        1   -1    0    0  501    0  0.00000000000E+00  0.00000000000E+00  0.34825060441E+03  0.34825060444E+03  0.50400001928E-02 0. -1.
       -1   -1    0    0    0  501  0.00000000000E+00  0.00000000000E+00 -0.72958024486E+03  0.72958024487E+03  0.50400001928E-02 0.  1.
    10030    2    1    2    0    0  0.00000000000E+00  0.00000000000E+00 -0.38132964045E+03  0.10778308493E+04  0.10081205509E+04 0.  0.
        2    1    3    3  502    0 -0.84315991630E+02 -0.19512405406E+03 -0.67931865356E+03  0.71179801629E+03  0.25500000920E-02 0.  1.
       -2    1    3    3    0  502  0.84315991630E+02  0.19512405406E+03  0.29798901311E+03  0.36603283303E+03  0.25500000920E-02 0. -1.
</event>
<event>
 5   0  0.2277570E-03  0.1000466E+04  0.7818609E-02  0.9308033E-01
        2   -1    0    0  501    0  0.00000000000E+00  0.00000000000E+00  0.36927844737E+03  0.36927844738E+03  0.25500000920E-02 0.  1.
       -2   -1    0    0    0  501  0.00000000000E+00  0.00000000000E+00 -0.67762757092E+03  0.67762757092E+03  0.25500000920E-02 0. -1.
    10030    2    1    2    0    0  0.00000000000E+00  0.00000000000E+00 -0.30834912355E+03  0.10469060183E+04  0.10004664058E+04 0.  0.
        3    1    3    3  502    0 -0.45285211388E+03  0.17273155432E+03 -0.24646698524E+02  0.48530268581E+03  0.10100000352E+00 0.  1.
       -3    1    3    3    0  502  0.45285211388E+03 -0.17273155432E+03 -0.28370242502E+03  0.56160333249E+03  0.10100000352E+00 0. -1.
</event>
<event>
 5   0  0.2284843E-03  0.1000258E+04  0.7818609E-02  0.9308262E-01
        2   -1    0    0  501    0  0.00000000000E+00  0.00000000000E+00  0.14295038166E+04  0.14295038166E+04  0.25500000920E-02 0.  1.
       -2   -1    0    0    0  501  0.00000000000E+00  0.00000000000E+00 -0.17497610522E+03  0.17497610524E+03  0.25500000920E-02 0. -1.
    10030    2    1    2    0    0  0.00000000000E+00  0.00000000000E+00  0.12545277114E+04  0.16044799219E+04  0.10002579872E+04 0.  0.
        2    1    3    3  502    0  0.28311539846E+03 -0.26428414437E+03  0.11968763123E+03  0.40537090040E+03  0.25500000920E-02 0. -1.
       -2    1    3    3    0  502 -0.28311539846E+03  0.26428414437E+03  0.11348400802E+04  0.11991090215E+04  0.25500000920E-02 0.  1.
</event>
<event>
 5   0  0.1249195E-03  0.9983533E+03  0.7818609E-02  0.9310353E-01
        1   -1    0    0  501    0  0.00000000000E+00  0.00000000000E+00  0.79903278739E+03  0.79903278741E+03  0.50400001928E-02 0.  1.
       -1   -1    0    0    0  501  0.00000000000E+00  0.00000000000E+00 -0.31184867604E+03  0.31184867608E+03  0.50400001928E-02 0. -1.
    10030    2    1    2    0    0  0.00000000000E+00  0.00000000000E+00  0.48718411135E+03  0.11108814635E+04  0.99835327794E+03 0.  0.
        2    1    3    3  502    0 -0.34335326735E+03 -0.31881840171E+03  0.43516207115E+03  0.63945497702E+03  0.25500000920E-02 0.  1.
       -2    1    3    3    0  502  0.34335326735E+03  0.31881840171E+03  0.52022040204E+02  0.47142648647E+03  0.25500000920E-02 0. -1.
</event>
<event>
 5   0  0.2264577E-03  0.1013546E+04  0.7818609E-02  0.9293811E-01
        2   -1    0    0  501    0  0.00000000000E+00  0.00000000000E+00  0.78156864433E+03  0.78156864434E+03  0.25500000920E-02 0.  1.
       -2   -1    0    0    0  501  0.00000000000E+00  0.00000000000E+00 -0.32859405414E+03  0.32859405415E+03  0.25500000920E-02 0. -1.
    10030    2    1    2    0    0  0.00000000000E+00  0.00000000000E+00  0.45297459019E+03  0.11101626985E+04  0.10135458735E+04 0.  0.
        5    1    3    3  502    0 -0.13769156940E+02 -0.45900913754E+03  0.46119831472E+03  0.65084940925E+03  0.46999998093E+01 0.  1.
       -5    1    3    3    0  502  0.13769156940E+02  0.45900913754E+03 -0.82237245234E+01  0.45931328923E+03  0.46999998093E+01 0. -1.
</event>
<event>
 5   0  0.2264577E-03  0.9944803E+03  0.7818609E-02  0.9314620E-01
        2   -1    0    0  501    0  0.00000000000E+00  0.00000000000E+00  0.15468075840E+04  0.15468075840E+04  0.25500000920E-02 0. -1.
       -2   -1    0    0    0  501  0.00000000000E+00  0.00000000000E+00 -0.15984390450E+03  0.15984390452E+03  0.25500000920E-02 0.  1.
    10030    2    1    2    0    0  0.00000000000E+00  0.00000000000E+00  0.13869636795E+04  0.17066514885E+04  0.99448029392E+03 0.  0.
        5    1    3    3  502    0 -0.24700823940E+03 -0.33172490661E+03  0.21984657383E+03  0.46841124028E+03  0.46999998093E+01 0.  1.
       -5    1    3    3    0  502  0.24700823940E+03  0.33172490661E+03  0.11671171056E+04  0.12382402482E+04  0.46999998093E+01 0. -1.
</event>
<event>
 5   0  0.2277570E-03  0.9961236E+03  0.7818609E-02  0.9312807E-01
        2   -1    0    0  501    0  0.00000000000E+00  0.00000000000E+00  0.16833624276E+04  0.16833624276E+04  0.25500000920E-02 0. -1.
       -2   -1    0    0    0  501  0.00000000000E+00  0.00000000000E+00 -0.14736313469E+03  0.14736313471E+03  0.25500000920E-02 0.  1.
    10030    2    1    2    0    0  0.00000000000E+00  0.00000000000E+00  0.15359992929E+04  0.18307255623E+04  0.99612361515E+03 0.  0.
        3    1    3    3  502    0 -0.90666653614E+02 -0.38238758691E+03  0.20565111411E+03  0.44354605131E+03  0.10100000352E+00 0.  1.
       -3    1    3    3    0  502  0.90666653614E+02  0.38238758691E+03  0.13303481788E+04  0.13871795110E+04  0.10100000352E+00 0. -1.
</event>
<event>
 5   0  0.2204862E-03  0.1006441E+04  0.7818609E-02  0.9301508E-01
       -2   -1    0    0    0  501  0.00000000000E+00  0.00000000000E+00  0.33213950627E+03  0.33213950628E+03  0.25500000920E-02 0. -1.
        2   -1    0    0  501    0  0.00000000000E+00  0.00000000000E+00 -0.76242349472E+03  0.76242349472E+03  0.25500000920E-02 0.  1.
    10030    2    1    2    0    0  0.00000000000E+00  0.00000000000E+00 -0.43028398845E+03  0.10945630010E+04  0.10064411818E+04 0.  0.
        1    1    3    3  502    0 -0.49795333634E+03  0.32854737808E+02 -0.14471051805E+03  0.51959416185E+03  0.50400001928E-02 0. -1.
       -1    1    3    3    0  502  0.49795333634E+03 -0.32854737808E+02 -0.28557347040E+03  0.57496883915E+03  0.50400001928E-02 0.  1.
</event>
<event>
 5   0  0.1285769E-03  0.9991347E+03  0.7818609E-02  0.9309494E-01
        1   -1    0    0  501    0  0.00000000000E+00  0.00000000000E+00  0.21583867471E+04  0.21583867471E+04  0.50400001928E-02 0.  1.
       -1   -1    0    0    0  501  0.00000000000E+00  0.00000000000E+00 -0.11562689574E+03  0.11562689585E+03  0.50400001928E-02 0. -1.
    10030    2    1    2    0    0  0.00000000000E+00  0.00000000000E+00  0.20427598514E+04  0.22740136430E+04  0.99913474470E+03 0.  0.
        5    1    3    3  502    0 -0.72691236212E+01 -0.25627819755E+03  0.19971745759E+04  0.20135689041E+04  0.46999998093E+01 0.  1.
       -5    1    3    3    0  502  0.72691236212E+01  0.25627819755E+03  0.45585275470E+02  0.26044473893E+03  0.46999998093E+01 0. -1.
</event>
<event>
 5   0  0.1353789E-03  0.1000663E+04  0.7818609E-02  0.9307818E-01
       -1   -1    0    0    0  501  0.00000000000E+00  0.00000000000E+00  0.24157999519E+03  0.24157999524E+03  0.50400001928E-02 0. -1.
        1   -1    0    0  501    0  0.00000000000E+00  0.00000000000E+00 -0.10362266618E+04  0.10362266618E+04  0.50400001928E-02 0.  1.
    10030    2    1    2    0    0  0.00000000000E+00  0.00000000000E+00 -0.79464666658E+03  0.12778066570E+04  0.10006630442E+04 0.  0.
        1    1    3    3  502    0 -0.28140879615E+03 -0.24084232503E+03 -0.82683712304E+03  0.90601079693E+03  0.50400001928E-02 0.  1.
       -1    1    3    3    0  502  0.28140879615E+03  0.24084232503E+03  0.32190456461E+02  0.37179586010E+03  0.50400001928E-02 0. -1.
</event>
<event>
 5   0  0.8680125E-04  0.9917865E+03  0.7818609E-02  0.9317599E-01
       -3   -1    0    0    0  501  0.00000000000E+00  0.00000000000E+00  0.28099822350E+03  0.28099824165E+03  0.10100000352E+00 0. -1.
        3   -1    0    0  501    0  0.00000000000E+00  0.00000000000E+00 -0.87513045896E+03  0.87513046479E+03  0.10100000352E+00 0.  1.
    10030    2    1    2    0    0  0.00000000000E+00  0.00000000000E+00 -0.59413223546E+03  0.11561287064E+04  0.99178650558E+03 0.  0.
        1    1    3    3  502    0  0.24840776966E+03 -0.42254309411E+03 -0.38477342635E+03  0.62313696412E+03  0.50400001928E-02 0. -1.
       -1    1    3    3    0  502 -0.24840776966E+03  0.42254309411E+03 -0.20935880911E+03  0.53299174232E+03  0.50400001928E-02 0.  1.
</event>
<event>
 5   0  0.2284843E-03  0.1000366E+04  0.7818609E-02  0.9308144E-01
       -2   -1    0    0    0  501  0.00000000000E+00  0.00000000000E+00  0.23695434965E+03  0.23695434966E+03  0.25500000920E-02 0. -1.
        2   -1    0    0  501    0  0.00000000000E+00  0.00000000000E+00 -0.10558274802E+04  0.10558274802E+04  0.25500000920E-02 0.  1.
    10030    2    1    2    0    0  0.00000000000E+00  0.00000000000E+00 -0.81887313051E+03  0.12927818298E+04  0.10003657609E+04 0.  0.
        2    1    3    3  502    0 -0.28871944308E+03 -0.82856549367E+02  0.10742052074E+03  0.31900359381E+03  0.25500000920E-02 0. -1.
       -2    1    3    3    0  502  0.28871944308E+03  0.82856549367E+02 -0.92629365124E+03  0.97377823601E+03  0.25500000920E-02 0.  1.
</event>
<event>
 5   0  0.1249195E-03  0.9983943E+03  0.7818609E-02  0.9310308E-01
       -1   -1    0    0    0  501  0.00000000000E+00  0.00000000000E+00  0.45840573031E+03  0.45840573034E+03  0.50400001928E-02 0. -1.
        1   -1    0    0  501    0  0.00000000000E+00  0.00000000000E+00 -0.54361843281E+03  0.54361843284E+03  0.50400001928E-02 0.  1.
    10030    2    1    2    0    0  0.00000000000E+00  0.00000000000E+00 -0.85212702504E+02  0.10020241632E+04  0.99839432035E+03 0.  0.
        2    1    3    3  502    0 -0.19997866009E+03  0.12843542229E+03 -0.48319062103E+03  0.53847961749E+03  0.25500000920E-02 0.  1.
       -2    1    3    3    0  502  0.19997866009E+03 -0.12843542229E+03  0.39797791853E+03  0.46354454568E+03  0.25500000920E-02 0. -1.
</event>
<event>
 5   0  0.2277570E-03  0.1000293E+04  0.7818609E-02  0.9308223E-01
        2   -1    0    0  501    0  0.00000000000E+00  0.00000000000E+00  0.10578800180E+04  0.10578800180E+04  0.25500000920E-02 0. -1.
       -2   -1    0    0    0  501  0.00000000000E+00  0.00000000000E+00 -0.23646032389E+03  0.23646032390E+03  0.25500000920E-02 0.  1.
    10030    2    1    2    0    0  0.00000000000E+00  0.00000000000E+00  0.82141969415E+03  0.12943403419E+04  0.10002932604E+04 0.  0.
        3    1    3    3  502    0 -0.38202482748E+02  0.36944073301E+03  0.84413991659E+03  0.92223537879E+03  0.10100000352E+00 0. -1.
       -3    1    3    3    0  502  0.38202482748E+02 -0.36944073301E+03 -0.22720222443E+02  0.37210496315E+03  0.10100000352E+00 0.  1.
</event>
<event>
 5   0  0.2264577E-03  0.1002388E+04  0.7818609E-02  0.9305929E-01
       -2   -1    0    0    0  501  0.00000000000E+00  0.00000000000E+00  0.71227569931E+03  0.71227569931E+03  0.25500000920E-02 0.  1.
        2   -1    0    0  501    0  0.00000000000E+00  0.00000000000E+00 -0.35266617790E+03  0.35266617791E+03  0.25500000920E-02 0. -1.
    10030    2    1    2    0    0  0.00000000000E+00  0.00000000000E+00  0.35960952141E+03  0.10649418772E+04  0.10023882451E+04 0.  0.
        5    1    3    3  502    0  0.46601131871E+02 -0.34487224759E+03  0.56295582748E+03  0.66185337224E+03  0.46999998093E+01 0.  1.
       -5    1    3    3    0  502 -0.46601131871E+02  0.34487224759E+03 -0.20334630607E+03  0.40308850498E+03  0.46999998093E+01 0. -1.
</event>
<event>
 5   0  0.8680125E-04  0.9909008E+03  0.7818609E-02  0.9318581E-01
        3   -1    0    0  501    0  0.00000000000E+00  0.00000000000E+00  0.10431436046E+03  0.10431440935E+03  0.10100000352E+00 0. -1.
       -3   -1    0    0    0  501  0.00000000000E+00  0.00000000000E+00 -0.23531856291E+04  0.23531856313E+04  0.10100000352E+00 0.  1.
    10030    2    1    2    0    0  0.00000000000E+00  0.00000000000E+00 -0.22488712686E+04  0.24575000406E+04  0.99090083598E+03 0.  0.
        1    1    3    3  502    0 -0.13279199581E+03  0.45295375564E+03 -0.75102046959E+03  0.88703583054E+03  0.50400001928E-02 0. -1.
       -1    1    3    3    0  502  0.13279199581E+03 -0.45295375564E+03 -0.14978507991E+04  0.15704642101E+04  0.50400001928E-02 0.  1.
</event>
<event>
 5   0  0.1293716E-03  0.1003385E+04  0.7818609E-02  0.9304840E-01
       -1   -1    0    0    0  501  0.00000000000E+00  0.00000000000E+00  0.37005625055E+03  0.37005625059E+03  0.50400001928E-02 0. -1.
        1   -1    0    0  501    0  0.00000000000E+00  0.00000000000E+00 -0.68015395907E+03  0.68015395909E+03  0.50400001928E-02 0.  1.
    10030    2    1    2    0    0  0.00000000000E+00  0.00000000000E+00 -0.31009770851E+03  0.10502102097E+04  0.10033847197E+04 0.  0.
        3    1    3    3  502    0  0.45931672321E+03 -0.20179843989E+03 -0.15595599294E+03  0.52537295753E+03  0.10100000352E+00 0. -1.
       -3    1    3    3    0  502 -0.45931672321E+03  0.20179843989E+03 -0.15414171557E+03  0.52483725215E+03  0.10100000352E+00 0.  1.
</event>
<event>
 5   0  0.1285769E-03  0.9988126E+03  0.7818609E-02  0.9309848E-01
        1   -1    0    0  501    0  0.00000000000E+00  0.00000000000E+00  0.34540157661E+03  0.34540157665E+03  0.50400001928E-02 0. -1.
       -1   -1    0    0    0  501  0.00000000000E+00  0.00000000000E+00 -0.72207733016E+03  0.72207733018E+03  0.50400001928E-02 0.  1.
    10030    2    1    2    0    0  0.00000000000E+00  0.00000000000E+00 -0.37667575354E+03  0.10674789068E+04  0.99881259164E+03 0.  0.
        5    1    3    3  502    0  0.42660341333E+02  0.60912881690E+01 -0.72006285845E+03  0.72136649398E+03  0.46999998093E+01 0.  1.
       -5    1    3    3    0  502 -0.42660341333E+02 -0.60912881690E+01  0.34338710491E+03  0.34611241285E+03  0.46999998093E+01 0. -1.
</event>
<event>
 5   0  0.2204862E-03  0.9985371E+03  0.7818609E-02  0.9310151E-01
        2   -1    0    0  501    0  0.00000000000E+00  0.00000000000E+00  0.98075367557E+03  0.98075367557E+03  0.25500000920E-02 0. -1.
       -2   -1    0    0    0  501  0.00000000000E+00  0.00000000000E+00 -0.25416072710E+03  0.25416072711E+03  0.25500000920E-02 0.  1.
    10030    2    1    2    0    0  0.00000000000E+00  0.00000000000E+00  0.72659294847E+03  0.12349144027E+04  0.99853706451E+03 0.  0.
        1    1    3    3  502    0 -0.81188060197E+02 -0.24539036070E+03  0.89156879275E+03  0.92827950665E+03  0.50400001928E-02 0. -1.
       -1    1    3    3    0  502  0.81188060197E+02  0.24539036070E+03 -0.16497584428E+03  0.30663489603E+03  0.50400001928E-02 0.  1.
</event>
<event>
 5   0  0.2255142E-03  0.1002801E+04  0.7818609E-02  0.9305478E-01
       -2   -1    0    0    0  501  0.00000000000E+00  0.00000000000E+00  0.73611375493E+03  0.73611375494E+03  0.25500000920E-02 0.  1.
        2   -1    0    0  501    0  0.00000000000E+00  0.00000000000E+00 -0.34152686634E+03  0.34152686635E+03  0.25500000920E-02 0. -1.
    10030    2    1    2    0    0  0.00000000000E+00  0.00000000000E+00  0.39458688859E+03  0.10776406213E+04  0.10028013243E+04 0.  0.
        4    1    3    3  502    0  0.23017787837E+03  0.22597373935E+03 -0.21522325043E+03  0.38777396379E+03  0.12699999809E+01 0. -1.
       -4    1    3    3    0  502 -0.23017787837E+03 -0.22597373935E+03  0.60981013902E+03  0.68986665750E+03  0.12699999809E+01 0.  1.
</event>
<event>
 5   0  0.8680125E-04  0.1002670E+04  0.7818609E-02  0.9305622E-01
        4   -1    0    0  501    0  0.00000000000E+00  0.00000000000E+00  0.57271353385E+03  0.57271494197E+03  0.12699999809E+01 0.  1.
       -4   -1    0    0    0  501  0.00000000000E+00  0.00000000000E+00 -0.43884937437E+03  0.43885121201E+03  0.12699999809E+01 0. -1.
    10030    2    1    2    0    0  0.00000000000E+00  0.00000000000E+00  0.13386415948E+03  0.10115661540E+04  0.10026696718E+04 0.  0.
        3    1    3    3  502    0  0.88383085371E+02 -0.36720791206E+03 -0.26566466415E+03  0.46176936282E+03  0.10100000352E+00 0. -1.
       -3    1    3    3    0  502 -0.88383085371E+02  0.36720791206E+03  0.39952882363E+03  0.54979679116E+03  0.10100000352E+00 0.  1.
</event>
<event>
 5   0  0.1293575E-03  0.1017574E+04  0.7818609E-02  0.9289477E-01
       -1   -1    0    0    0  501  0.00000000000E+00  0.00000000000E+00  0.23798240521E+03  0.23798240526E+03  0.50400001928E-02 0.  1.
        1   -1    0    0  501    0  0.00000000000E+00  0.00000000000E+00 -0.10877459057E+04  0.10877459057E+04  0.50400001928E-02 0. -1.
    10030    2    1    2    0    0  0.00000000000E+00  0.00000000000E+00 -0.84976350049E+03  0.13257283110E+04  0.10175743451E+04 0.  0.
        4    1    3    3  502    0  0.23337550061E+03  0.54528341021E+02 -0.10095983210E+04  0.10376549748E+04  0.12699999809E+01 0. -1.
       -4    1    3    3    0  502 -0.23337550061E+03 -0.54528341021E+02  0.15983482046E+03  0.28807333613E+03  0.12699999809E+01 0.  1.
</event>
<event>
 5   0  0.2264577E-03  0.1016444E+04  0.7818609E-02  0.9290691E-01
       -2   -1    0    0    0  501  0.00000000000E+00  0.00000000000E+00  0.20029820523E+03  0.20029820525E+03  0.25500000920E-02 0. -1.
        2   -1    0    0  501    0  0.00000000000E+00  0.00000000000E+00 -0.12895251745E+04  0.12895251745E+04  0.25500000920E-02 0.  1.
    10030    2    1    2    0    0  0.00000000000E+00  0.00000000000E+00 -0.10892269693E+04  0.14898233798E+04  0.10164439543E+04 0.  0.
        5    1    3    3  502    0 -0.49444837957E+03 -0.71305818887E+02 -0.40787051518E+03  0.64493733573E+03  0.46999998093E+01 0. -1.
       -5    1    3    3    0  502  0.49444837957E+03  0.71305818887E+02 -0.68135645412E+03  0.84488604406E+03  0.46999998093E+01 0.  1.
</event>
<event>
 5   0  0.1353789E-03  0.1000708E+04  0.7818609E-02  0.9307768E-01
       -1   -1    0    0    0  501  0.00000000000E+00  0.00000000000E+00  0.14657284207E+04  0.14657284207E+04  0.50400001928E-02 0. -1.
        1   -1    0    0  501    0  0.00000000000E+00  0.00000000000E+00 -0.17080529989E+03  0.17080529996E+03  0.50400001928E-02 0.  1.
    10030    2    1    2    0    0  0.00000000000E+00  0.00000000000E+00  0.12949231208E+04  0.16365337207E+04  0.10007081143E+04 0.  0.
        1    1    3    3  502    0 -0.19119354317E+03 -0.45745766000E+03  0.53737148885E+03  0.73115702738E+03  0.50400001928E-02 0.  1.
       -1    1    3    3    0  502  0.19119354317E+03  0.45745766000E+03  0.75755163198E+03  0.90537669331E+03  0.50400001928E-02 0. -1.
</event>
<event>
 5   0  0.2264577E-03  0.9972984E+03  0.7818609E-02  0.9311513E-01
        2   -1    0    0  501    0  0.00000000000E+00  0.00000000000E+00  0.89836877229E+03  0.89836877229E+03  0.25500000920E-02 0.  1.
       -2   -1    0    0    0  501  0.00000000000E+00  0.00000000000E+00 -0.27678055646E+03  0.27678055647E+03  0.25500000920E-02 0. -1.
    10030    2    1    2    0    0  0.00000000000E+00  0.00000000000E+00  0.62158821583E+03  0.11751493288E+04  0.99729836801E+03 0.  0.
        5    1    3    3  502    0  0.46738204328E+03 -0.11728485812E+03  0.46181944206E+03  0.66745861249E+03  0.46999998093E+01 0.  1.
       -5    1    3    3    0  502 -0.46738204328E+03  0.11728485812E+03  0.15976877377E+03  0.50769071627E+03  0.46999998093E+01 0. -1.
</event>
<event>
 5   0  0.1249195E-03  0.1003669E+04  0.7818609E-02  0.9304530E-01
       -1   -1    0    0    0  501  0.00000000000E+00  0.00000000000E+00  0.19736540698E+03  0.19736540704E+03  0.50400001928E-02 0.  1.
        1   -1    0    0  501    0  0.00000000000E+00  0.00000000000E+00 -0.12759985770E+04  0.12759985770E+04  0.50400001928E-02 0. -1.
    10030    2    1    2    0    0  0.00000000000E+00  0.00000000000E+00 -0.10786331700E+04  0.14733639841E+04  0.10036692254E+04 0.  0.
        2    1    3    3  502    0  0.89964525503E+02 -0.15708934665E+03 -0.12263980281E+04  0.12396865741E+04  0.25500000920E-02 0. -1.
       -2    1    3    3    0  502 -0.89964525503E+02  0.15708934665E+03  0.14776485801E+03  0.23367741001E+03  0.25500000920E-02 0.  1.
</event>
<event>
 5   0  0.2204862E-03  0.1001207E+04  0.7818609E-02  0.9307222E-01
       -2   -1    0    0    0  501  0.00000000000E+00  0.00000000000E+00  0.43869839428E+03  0.43869839428E+03  0.25500000920E-02 0.  1.
        2   -1    0    0  501    0  0.00000000000E+00  0.00000000000E+00 -0.57124457546E+03  0.57124457546E+03  0.25500000920E-02 0. -1.
    10030    2    1    2    0    0  0.00000000000E+00  0.00000000000E+00 -0.13254618118E+03  0.10099429697E+04  0.10012074271E+04 0.  0.
        1    1    3    3  502    0 -0.45396014569E+03 -0.51912584126E+02 -0.27257979133E+03  0.53204743486E+03  0.50400001928E-02 0. -1.
       -1    1    3    3    0  502  0.45396014569E+03  0.51912584126E+02  0.14003361015E+03  0.47789553489E+03  0.50400001928E-02 0.  1.
</event>
<event>
 5   0  0.2284843E-03  0.1000071E+04  0.7818609E-02  0.9308467E-01
        2   -1    0    0  501    0  0.00000000000E+00  0.00000000000E+00  0.38105604095E+03  0.38105604096E+03  0.25500000920E-02 0. -1.
       -2   -1    0    0    0  501  0.00000000000E+00  0.00000000000E+00 -0.65616490725E+03  0.65616490726E+03  0.25500000920E-02 0.  1.
    10030    2    1    2    0    0  0.00000000000E+00  0.00000000000E+00 -0.27510886630E+03  0.10372209482E+04  0.10000712010E+04 0.  0.
        2    1    3    3  502    0 -0.16550733800E+03  0.41499374377E+03  0.95337902382E+02  0.45683892340E+03  0.25500000920E-02 0. -1.
       -2    1    3    3    0  502  0.16550733800E+03 -0.41499374377E+03 -0.37044676868E+03  0.58038202482E+03  0.25500000920E-02 0.  1.
</event>
<event>
 5   0  0.8680125E-04  0.1002033E+04  0.7818609E-02  0.9306318E-01
        3   -1    0    0  501    0  0.00000000000E+00  0.00000000000E+00  0.28594667322E+03  0.28594669105E+03  0.10100000352E+00 0. -1.
       -3   -1    0    0    0  501  0.00000000000E+00  0.00000000000E+00 -0.87784787305E+03  0.87784787886E+03  0.10100000352E+00 0.  1.
    10030    2    1    2    0    0  0.00000000000E+00  0.00000000000E+00 -0.59190119983E+03  0.11637945699E+04  0.10020333181E+04 0.  0.
        2    1    3    3  502    0 -0.40932355516E+03  0.17315734519E+03 -0.56456184228E+03  0.71851187378E+03  0.25500000920E-02 0.  1.
       -2    1    3    3    0  502  0.40932355516E+03 -0.17315734519E+03 -0.27339357552E+02  0.44528269613E+03  0.25500000920E-02 0. -1.
</event>
<event>
 5   0  0.1293575E-03  0.1014224E+04  0.7818609E-02  0.9293080E-01
       -1   -1    0    0    0  501  0.00000000000E+00  0.00000000000E+00  0.36397786578E+03  0.36397786581E+03  0.50400001928E-02 0.  1.
        1   -1    0    0  501    0  0.00000000000E+00  0.00000000000E+00 -0.70653390190E+03  0.70653390192E+03  0.50400001928E-02 0. -1.
    10030    2    1    2    0    0  0.00000000000E+00  0.00000000000E+00 -0.34255603612E+03  0.10705117677E+04  0.10142242390E+04 0.  0.
        4    1    3    3  502    0  0.42728610779E+03 -0.24351134688E+03 -0.40763233812E+02  0.49349209528E+03  0.12699999809E+01 0.  1.
       -4    1    3    3    0  502 -0.42728610779E+03  0.24351134688E+03 -0.30179280231E+03  0.57701967246E+03  0.12699999809E+01 0. -1.
</event>
<event>
 5   0  0.8680125E-04  0.1000230E+04  0.7818609E-02  0.9308293E-01
       -3   -1    0    0    0  501  0.00000000000E+00  0.00000000000E+00  0.14163986000E+04  0.14163986036E+04  0.10100000352E+00 0. -1.
        3   -1    0    0  501    0  0.00000000000E+00  0.00000000000E+00 -0.17658505056E+03  0.17658507945E+03  0.10100000352E+00 0.  1.
    10030    2    1    2    0    0  0.00000000000E+00  0.00000000000E+00  0.12398135495E+04  0.15929836831E+04  0.10002296622E+04 0.  0.
        4    1    3    3  502    0  0.17571128046E+03  0.46371227418E+03  0.51657416887E+03  0.71606844097E+03  0.12699999809E+01 0. -1.
       -4    1    3    3    0  502 -0.17571128046E+03 -0.46371227418E+03  0.72323938058E+03  0.87691524210E+03  0.12699999809E+01 0.  1.
</event>
<event>
 5   0  0.2255142E-03  0.9994792E+03  0.7818609E-02  0.9309116E-01
       -2   -1    0    0    0  501  0.00000000000E+00  0.00000000000E+00  0.31395535409E+03  0.31395535410E+03  0.25500000920E-02 0.  1.
        2   -1    0    0  501    0  0.00000000000E+00  0.00000000000E+00 -0.79546243854E+03  0.79546243855E+03  0.25500000920E-02 0. -1.
    10030    2    1    2    0    0  0.00000000000E+00  0.00000000000E+00 -0.48150708445E+03  0.11094177926E+04  0.99947924754E+03 0.  0.
        4    1    3    3  502    0  0.10546728495E+03  0.20463570166E+03  0.25158805621E+03  0.34102387235E+03  0.12699999809E+01 0.  1.
       -4    1    3    3    0  502 -0.10546728495E+03 -0.20463570166E+03 -0.73309514066E+03  0.76839392029E+03  0.12699999809E+01 0. -1.
</event>
<event>
 5   0  0.2264577E-03  0.1007341E+04  0.7818609E-02  0.9300530E-01
        2   -1    0    0  501    0  0.00000000000E+00  0.00000000000E+00  0.88202323127E+03  0.88202323128E+03  0.25500000920E-02 0. -1.
       -2   -1    0    0    0  501  0.00000000000E+00  0.00000000000E+00 -0.28761612027E+03  0.28761612028E+03  0.25500000920E-02 0.  1.
    10030    2    1    2    0    0  0.00000000000E+00  0.00000000000E+00  0.59440711100E+03  0.11696393516E+04  0.10073412526E+04 0.  0.
        5    1    3    3  502    0 -0.10856868043E+03  0.41940955071E+02 -0.27176167563E+03  0.29567330015E+03  0.46999998093E+01 0.  1.
       -5    1    3    3    0  502  0.10856868043E+03 -0.41940955071E+02  0.86616878663E+03  0.87396605141E+03  0.46999998093E+01 0. -1.
</event>
<event>
 5   0  0.1353789E-03  0.1001873E+04  0.7818609E-02  0.9306493E-01
       -1   -1    0    0    0  501  0.00000000000E+00  0.00000000000E+00  0.19407625248E+03  0.19407625254E+03  0.50400001928E-02 0.  1.
        1   -1    0    0  501    0  0.00000000000E+00  0.00000000000E+00 -0.12929840428E+04  0.12929840428E+04  0.50400001928E-02 0. -1.
    10030    2    1    2    0    0  0.00000000000E+00  0.00000000000E+00 -0.10989077903E+04  0.14870602953E+04  0.10018732407E+04 0.  0.
        1    1    3    3  502    0 -0.14144608963E+03  0.14465004719E+03  0.13073971386E+03  0.24088068671E+03  0.50400001928E-02 0.  1.
       -1    1    3    3    0  502  0.14144608963E+03 -0.14465004719E+03 -0.12296475041E+04  0.12461796086E+04  0.50400001928E-02 0. -1.
</event>
<event>
 5   0  0.2255142E-03  0.9962270E+03  0.7818609E-02  0.9312693E-01
       -2   -1    0    0    0  501  0.00000000000E+00  0.00000000000E+00  0.10133311681E+04  0.10133311681E+04  0.25500000920E-02 0. -1.
        2   -1    0    0  501    0  0.00000000000E+00  0.00000000000E+00 -0.24485287539E+03  0.24485287540E+03  0.25500000920E-02 0.  1.
    10030    2    1    2    0    0  0.00000000000E+00  0.00000000000E+00  0.76847829270E+03  0.12581840435E+04  0.99622698264E+03 0.  0.
        4    1    3    3  502    0 -0.29904814447E+03  0.39835318600E+03  0.38502158939E+03  0.62956992519E+03  0.12699999809E+01 0. -1.
       -4    1    3    3    0  502  0.29904814447E+03 -0.39835318600E+03  0.38345670331E+03  0.62861411830E+03  0.12699999809E+01 0.  1.
</event>
<event>
 5   0  0.8680125E-04  0.1002140E+04  0.7818609E-02  0.9306201E-01
        3   -1    0    0  501    0  0.00000000000E+00  0.00000000000E+00  0.21256466912E+03  0.21256469311E+03  0.10100000352E+00 0. -1.
       -3   -1    0    0    0  501  0.00000000000E+00  0.00000000000E+00 -0.11811511116E+04  0.11811511159E+04  0.10100000352E+00 0.  1.
    10030    2    1    2    0    0  0.00000000000E+00  0.00000000000E+00 -0.96858644251E+03  0.13937158091E+04  0.10021397407E+04 0.  0.
        4    1    3    3  502    0 -0.35941843847E+03 -0.21355627735E+03 -0.10018326293E+03  0.42991417350E+03  0.12699999809E+01 0. -1.
       -4    1    3    3    0  502  0.35941843847E+03  0.21355627735E+03 -0.86840317958E+03  0.96380163556E+03  0.12699999809E+01 0.  1.
</event>
<event>
 5   0  0.1293716E-03  0.1003835E+04  0.7818609E-02  0.9304349E-01
       -1   -1    0    0    0  501  0.00000000000E+00  0.00000000000E+00  0.16011417473E+03  0.16011417481E+03  0.50400001928E-02 0. -1.
        1   -1    0    0  501    0  0.00000000000E+00  0.00000000000E+00 -0.15733844605E+04  0.15733844605E+04  0.50400001928E-02 0.  1.
    10030    2    1    2    0    0  0.00000000000E+00  0.00000000000E+00 -0.14132702858E+04  0.17334986353E+04  0.10038349556E+04 0.  0.
        3    1    3    3  502    0 -0.44694407189E+03 -0.20181977065E+03 -0.89126494432E+03  0.10172725468E+04  0.10100000352E+00 0.  1.
       -3    1    3    3    0  502  0.44694407189E+03  0.20181977065E+03 -0.52200534144E+03  0.71622608855E+03  0.10100000352E+00 0. -1.
</event>
<event>
 5   0  0.1249195E-03  0.1001320E+04  0.7818609E-02  0.9307099E-01
        1   -1    0    0  501    0  0.00000000000E+00  0.00000000000E+00  0.47888014141E+03  0.47888014144E+03  0.50400001928E-02 0. -1.
       -1   -1    0    0    0  501  0.00000000000E+00  0.00000000000E+00 -0.52343008746E+03  0.52343008748E+03  0.50400001928E-02 0.  1.
    10030    2    1    2    0    0  0.00000000000E+00  0.00000000000E+00 -0.44549946051E+02  0.10023102289E+04  0.10013196779E+04 0.  0.
        2    1    3    3  502    0 -0.96846785464E+02 -0.11574944058E+03 -0.50011817853E+03  0.52239393694E+03  0.25500000920E-02 0.  1.
       -2    1    3    3    0  502  0.96846785464E+02  0.11574944058E+03  0.45556823248E+03  0.47991629198E+03  0.25500000920E-02 0. -1.
</event>
<event>
 5   0  0.1249195E-03  0.9991377E+03  0.7818609E-02  0.9309491E-01
       -1   -1    0    0    0  501  0.00000000000E+00  0.00000000000E+00  0.27308978014E+03  0.27308978019E+03  0.50400001928E-02 0. -1.
        1   -1    0    0  501    0  0.00000000000E+00  0.00000000000E+00 -0.91387166143E+03  0.91387166144E+03  0.50400001928E-02 0.  1.
    10030    2    1    2    0    0  0.00000000000E+00  0.00000000000E+00 -0.64078188129E+03  0.11869614416E+04  0.99913765044E+03 0.  0.
        2    1    3    3  502    0  0.13499817416E+03 -0.84483237306E+02  0.24212645085E+03  0.28980535299E+03  0.25500000920E-02 0. -1.
       -2    1    3    3    0  502 -0.13499817416E+03  0.84483237306E+02 -0.88290833214E+03  0.89715608864E+03  0.25500000920E-02 0.  1.
</event>
<event>
 5   0  0.1353789E-03  0.1002058E+04  0.7818609E-02  0.9306290E-01
        1   -1    0    0  501    0  0.00000000000E+00  0.00000000000E+00  0.65548566538E+03  0.65548566540E+03  0.50400001928E-02 0.  1.
       -1   -1    0    0    0  501  0.00000000000E+00  0.00000000000E+00 -0.38296838381E+03  0.38296838384E+03  0.50400001928E-02 0. -1.
    10030    2    1    2    0    0  0.00000000000E+00  0.00000000000E+00  0.27251728157E+03  0.10384540492E+04  0.10020584532E+04 0.  0.
        1    1    3    3  502    0  0.28860946183E+03 -0.38740480890E+03 -0.14292804411E+01  0.48309414226E+03  0.50400001928E-02 0. -1.
       -1    1    3    3    0  502 -0.28860946183E+03  0.38740480890E+03  0.27394656201E+03  0.55535990698E+03  0.50400001928E-02 0.  1.
</event>
<event>
 5   0  0.1285769E-03  0.1001062E+04  0.7818609E-02  0.9307381E-01
        1   -1    0    0  501    0  0.00000000000E+00  0.00000000000E+00  0.66610549028E+03  0.66610549030E+03  0.50400001928E-02 0.  1.
       -1   -1    0    0    0  501  0.00000000000E+00  0.00000000000E+00 -0.37611329425E+03  0.37611329428E+03  0.50400001928E-02 0. -1.
    10030    2    1    2    0    0  0.00000000000E+00  0.00000000000E+00  0.28999219603E+03  0.10422187846E+04  0.10010616970E+04 0.  0.
        5    1    3    3  502    0 -0.48676538377E+03 -0.16304306160E+02  0.24916983154E+02  0.48769797548E+03  0.46999998093E+01 0. -1.
       -5    1    3    3    0  502  0.48676538377E+03  0.16304306160E+02  0.26507521288E+03  0.55452080910E+03  0.46999998093E+01 0.  1.
</event>
<event>
 5   0  0.1249195E-03  0.1001796E+04  0.7818609E-02  0.9306577E-01
       -1   -1    0    0    0  501  0.00000000000E+00  0.00000000000E+00  0.29052525723E+03  0.29052525727E+03  0.50400001928E-02 0.  1.
        1   -1    0    0  501    0  0.00000000000E+00  0.00000000000E+00 -0.86360424553E+03  0.86360424555E+03  0.50400001928E-02 0. -1.
    10030    2    1    2    0    0  0.00000000000E+00  0.00000000000E+00 -0.57307898831E+03  0.11541295028E+04  0.10017960783E+04 0.  0.
        2    1    3    3  502    0 -0.38174051651E+03  0.16352263193E+03  0.36106041597E+02  0.41685623342E+03  0.25500000920E-02 0.  1.
       -2    1    3    3    0  502  0.38174051651E+03 -0.16352263193E+03 -0.60918502990E+03  0.73727326939E+03  0.25500000920E-02 0. -1.
</event>
<event>
 5   0  0.2255142E-03  0.9997285E+03  0.7818609E-02  0.9308843E-01
        2   -1    0    0  501    0  0.00000000000E+00  0.00000000000E+00  0.21703797895E+03  0.21703797897E+03  0.25500000920E-02 0.  1.
       -2   -1    0    0    0  501  0.00000000000E+00  0.00000000000E+00 -0.11512466930E+04  0.11512466930E+04  0.25500000920E-02 0. -1.
    10030    2    1    2    0    0  0.00000000000E+00  0.00000000000E+00 -0.93420871406E+03  0.13682846720E+04  0.99972847422E+03 0.  0.
        4    1    3    3  502    0  0.24729896208E+03  0.15413187845E+03 -0.10229696345E+04  0.10636643731E+04  0.12699999809E+01 0. -1.
       -4    1    3    3    0  502 -0.24729896208E+03 -0.15413187845E+03  0.88760920427E+02  0.30462029889E+03  0.12699999809E+01 0.  1.
</event>
<event>
 5   0  0.2255142E-03  0.1000120E+04  0.7818609E-02  0.9308413E-01
       -2   -1    0    0    0  501  0.00000000000E+00  0.00000000000E+00  0.35230079162E+03  0.35230079163E+03  0.25500000920E-02 0. -1.
        2   -1    0    0  501    0  0.00000000000E+00  0.00000000000E+00 -0.70979170439E+03  0.70979170439E+03  0.25500000920E-02 0.  1.
    10030    2    1    2    0    0  0.00000000000E+00  0.00000000000E+00 -0.35749091276E+03  0.10620924960E+04  0.10001203515E+04 0.  0.
        4    1    3    3  502    0 -0.20769583826E+03 -0.45301035194E+01 -0.66179405696E+03  0.69363612204E+03  0.12699999809E+01 0.  1.
       -4    1    3    3    0  502  0.20769583826E+03  0.45301035194E+01  0.30430314419E+03  0.36845637399E+03  0.12699999809E+01 0. -1.
</event>
<event>
 5   0  0.2204862E-03  0.9730284E+03  0.7818609E-02  0.9338632E-01
        2   -1    0    0  501    0  0.00000000000E+00  0.00000000000E+00  0.91337124439E+03  0.91337124439E+03  0.25500000920E-02 0.  1.
       -2   -1    0    0    0  501  0.00000000000E+00  0.00000000000E+00 -0.25914553083E+03  0.25914553084E+03  0.25500000920E-02 0. -1.
    10030    2    1    2    0    0  0.00000000000E+00  0.00000000000E+00  0.65422571356E+03  0.11725167752E+04  0.97302841887E+03 0.  0.
        1    1    3    3  502    0 -0.42057328945E+03 -0.24451021914E+03  0.32063070046E+03  0.58264155805E+03  0.50400001928E-02 0.  1.
       -1    1    3    3    0  502  0.42057328945E+03  0.24451021914E+03  0.33359501310E+03  0.58987521719E+03  0.50400001928E-02 0. -1.
</event>
<event>
 5   0  0.1293575E-03  0.9966824E+03  0.7818609E-02  0.9312191E-01
        1   -1    0    0  501    0  0.00000000000E+00  0.00000000000E+00  0.46804993746E+03  0.46804993749E+03  0.50400001928E-02 0.  1.
       -1   -1    0    0    0  501  0.00000000000E+00  0.00000000000E+00 -0.53059287595E+03  0.53059287597E+03  0.50400001928E-02 0. -1.
    10030    2    1    2    0    0  0.00000000000E+00  0.00000000000E+00 -0.62542938484E+02  0.99864281346E+03  0.99668242170E+03 0.  0.
        4    1    3    3  502    0 -0.13693259489E+03 -0.28399186935E+03 -0.41795857186E+03  0.52353882195E+03  0.12699999809E+01 0. -1.
       -4    1    3    3    0  502  0.13693259489E+03  0.28399186935E+03  0.35541563338E+03  0.47510399151E+03  0.12699999809E+01 0.  1.
</event>
<event>
 5   0  0.1293575E-03  0.9991456E+03  0.7818609E-02  0.9309482E-01
        1   -1    0    0  501    0  0.00000000000E+00  0.00000000000E+00  0.15965373575E+03  0.15965373583E+03  0.50400001928E-02 0. -1.
       -1   -1    0    0    0  501  0.00000000000E+00  0.00000000000E+00 -0.15632141754E+04  0.15632141754E+04  0.50400001928E-02 0.  1.
    10030    2    1    2    0    0  0.00000000000E+00  0.00000000000E+00 -0.14035604397E+04  0.17228679113E+04  0.99914560093E+03 0.  0.
        4    1    3    3  502    0  0.24408719490E+03  0.37234696683E+03 -0.10925273000E+04  0.11797619830E+04  0.12699999809E+01 0. -1.
       -4    1    3    3    0  502 -0.24408719490E+03 -0.37234696683E+03 -0.31103313968E+03  0.54310592825E+03  0.12699999809E+01 0.  1.
</event>
<event>
 5   0  0.2264577E-03  0.1002684E+04  0.7818609E-02  0.9305606E-01
       -2   -1    0    0    0  501  0.00000000000E+00  0.00000000000E+00  0.25345544682E+03  0.25345544684E+03  0.25500000920E-02 0. -1.
        2   -1    0    0  501    0  0.00000000000E+00  0.00000000000E+00 -0.99166922038E+03  0.99166922039E+03  0.25500000920E-02 0.  1.
    10030    2    1    2    0    0  0.00000000000E+00  0.00000000000E+00 -0.73821377356E+03  0.12451246672E+04  0.10026843279E+04 0.  0.
        5    1    3    3  502    0  0.28731439760E+03 -0.10860370919E+03  0.12289569167E+03  0.33086216125E+03  0.46999998093E+01 0. -1.
       -5    1    3    3    0  502 -0.28731439760E+03  0.10860370919E+03 -0.86110946523E+03  0.91426250597E+03  0.46999998093E+01 0.  1.
</event>
<event>
 5   0  0.1285769E-03  0.1007797E+04  0.7818609E-02  0.9300034E-01
       -1   -1    0    0    0  501  0.00000000000E+00  0.00000000000E+00  0.22964342593E+03  0.22964342599E+03  0.50400001928E-02 0. -1.
        1   -1    0    0  501    0  0.00000000000E+00  0.00000000000E+00 -0.11056867760E+04  0.11056867760E+04  0.50400001928E-02 0.  1.
    10030    2    1    2    0    0  0.00000000000E+00  0.00000000000E+00 -0.87604335002E+03  0.13353302020E+04  0.10077970020E+04 0.  0.
        5    1    3    3  502    0 -0.49008800193E+03 -0.11694701644E+03 -0.43091654107E+03  0.66300377801E+03  0.46999998093E+01 0. -1.
       -5    1    3    3    0  502  0.49008800193E+03  0.11694701644E+03 -0.44512680895E+03  0.67232642394E+03  0.46999998093E+01 0.  1.
</event>
<event>
 5   0  0.1285769E-03  0.9966934E+03  0.7818609E-02  0.9312179E-01
       -1   -1    0    0    0  501  0.00000000000E+00  0.00000000000E+00  0.32577514627E+03  0.32577514631E+03  0.50400001928E-02 0. -1.
        1   -1    0    0  501    0  0.00000000000E+00  0.00000000000E+00 -0.76233387835E+03  0.76233387837E+03  0.50400001928E-02 0.  1.
    10030    2    1    2    0    0  0.00000000000E+00  0.00000000000E+00 -0.43655873208E+03  0.10881090247E+04  0.99669339469E+03 0.  0.
        5    1    3    3  502    0  0.45045425497E+03 -0.10344223603E+01  0.14380341158E+02  0.45070942974E+03  0.46999998093E+01 0. -1.
       -5    1    3    3    0  502 -0.45045425497E+03  0.10344223603E+01 -0.45093907324E+03  0.63739959494E+03  0.46999998093E+01 0.  1.
</event>
<event>
 5   0  0.2284843E-03  0.1001848E+04  0.7818609E-02  0.9306520E-01
        2   -1    0    0  501    0  0.00000000000E+00  0.00000000000E+00  0.92172971788E+03  0.92172971789E+03  0.25500000920E-02 0.  1.
       -2   -1    0    0    0  501  0.00000000000E+00  0.00000000000E+00 -0.27223251460E+03  0.27223251461E+03  0.25500000920E-02 0. -1.
    10030    2    1    2    0    0  0.00000000000E+00  0.00000000000E+00  0.64949720329E+03  0.11939622325E+04  0.10018478904E+04 0.  0.
        2    1    3    3  502    0  0.37994395278E+03  0.32347706788E+03  0.27239277747E+03  0.56850034822E+03  0.25500000920E-02 0. -1.
       -2    1    3    3    0  502 -0.37994395278E+03 -0.32347706788E+03  0.37710442582E+03  0.62546188427E+03  0.25500000920E-02 0.  1.
</event>
<event>
 5   0  0.1293716E-03  0.9981203E+03  0.7818609E-02  0.9310609E-01
       -1   -1    0    0    0  501  0.00000000000E+00  0.00000000000E+00  0.19354682531E+03  0.19354682537E+03  0.50400001928E-02 0.  1.
        1   -1    0    0  501    0  0.00000000000E+00  0.00000000000E+00 -0.12868256559E+04  0.12868256560E+04  0.50400001928E-02 0. -1.
    10030    2    1    2    0    0  0.00000000000E+00  0.00000000000E+00 -0.10932788306E+04  0.14803724813E+04  0.99812027429E+03 0.  0.
        3    1    3    3  502    0  0.27519737848E+03 -0.30028149040E+03 -0.11893740446E+03  0.42432144299E+03  0.10100000352E+00 0.  1.
       -3    1    3    3    0  502 -0.27519737848E+03  0.30028149040E+03 -0.97434142618E+03  0.10560510383E+04  0.10100000352E+00 0. -1.
</event>
<event>
 5   0  0.2277570E-03  0.1000237E+04  0.7818609E-02  0.9308285E-01
        2   -1    0    0  501    0  0.00000000000E+00  0.00000000000E+00  0.86431034578E+03  0.86431034579E+03  0.25500000920E-02 0.  1.
       -2   -1    0    0    0  501  0.00000000000E+00  0.00000000000E+00 -0.28938502587E+03  0.28938502588E+03  0.25500000920E-02 0. -1.
    10030    2    1    2    0    0  0.00000000000E+00  0.00000000000E+00  0.57492531992E+03  0.11536953717E+04  0.10002369155E+04 0.  0.
        3    1    3    3  502    0  0.43799932689E+03 -0.16302980352E+02  0.96596484847E+01  0.43840907442E+03  0.10100000352E+00 0. -1.
       -3    1    3    3    0  502 -0.43799932689E+03  0.16302980352E+02  0.56526567143E+03  0.71528629724E+03  0.10100000352E+00 0.  1.
</event>
<event>
 5   0  0.8680125E-04  0.9991272E+03  0.7818609E-02  0.9309503E-01
       -3   -1    0    0    0  501  0.00000000000E+00  0.00000000000E+00  0.17941751573E+03  0.17941754416E+03  0.10100000352E+00 0.  1.
        3   -1    0    0  501    0  0.00000000000E+00  0.00000000000E+00 -0.13909664646E+04  0.13909664683E+04  0.10100000352E+00 0. -1.
    10030    2    1    2    0    0  0.00000000000E+00  0.00000000000E+00 -0.12115489489E+04  0.15703840124E+04  0.99912716457E+03 0.  0.
        1    1    3    3  502    0  0.38246343292E+03 -0.10194457248E+03 -0.12672968175E+03  0.41560965538E+03  0.50400001928E-02 0.  1.
       -1    1    3    3    0  502 -0.38246343292E+03  0.10194457248E+03 -0.10848192671E+04  0.11547743570E+04  0.50400001928E-02 0. -1.
</event>
<event>
 5   0  0.2255142E-03  0.1004480E+04  0.7818609E-02  0.9303645E-01
       -2   -1    0    0    0  501  0.00000000000E+00  0.00000000000E+00  0.24535811523E+03  0.24535811525E+03  0.25500000920E-02 0. -1.
        2   -1    0    0  501    0  0.00000000000E+00  0.00000000000E+00 -0.10280681326E+04  0.10280681326E+04  0.25500000920E-02 0.  1.
    10030    2    1    2    0    0  0.00000000000E+00  0.00000000000E+00 -0.78271001737E+03  0.12734262479E+04  0.10044796849E+04 0.  0.
        4    1    3    3  502    0  0.43708095912E+03  0.19628103044E+03 -0.20044542726E+03  0.51937076347E+03  0.12699999809E+01 0.  1.
       -4    1    3    3    0  502 -0.43708095912E+03 -0.19628103044E+03 -0.58226459012E+03  0.75405548439E+03  0.12699999809E+01 0. -1.
</event>
<event>
 5   0  0.2255142E-03  0.9957596E+03  0.7818609E-02  0.9313208E-01
        2   -1    0    0  501    0  0.00000000000E+00  0.00000000000E+00  0.41507175252E+03  0.41507175253E+03  0.25500000920E-02 0.  1.
       -2   -1    0    0    0  501  0.00000000000E+00  0.00000000000E+00 -0.59720833346E+03  0.59720833346E+03  0.25500000920E-02 0. -1.
    10030    2    1    2    0    0  0.00000000000E+00  0.00000000000E+00 -0.18213658094E+03  0.10122800860E+04  0.99575962881E+03 0.  0.
        4    1    3    3  502    0  0.12308527665E+03  0.48052213481E+03 -0.47565932010E+02  0.49831279148E+03  0.12699999809E+01 0.  1.
       -4    1    3    3    0  502 -0.12308527665E+03 -0.48052213481E+03 -0.13457064893E+03  0.51396729451E+03  0.12699999809E+01 0. -1.
</event>
<event>
 5   0  0.1249195E-03  0.1001967E+04  0.7818609E-02  0.9306390E-01
        1   -1    0    0  501    0  0.00000000000E+00  0.00000000000E+00  0.79760958060E+03  0.79760958061E+03  0.50400001928E-02 0. -1.
       -1   -1    0    0    0  501  0.00000000000E+00  0.00000000000E+00 -0.31467094561E+03  0.31467094565E+03  0.50400001928E-02 0.  1.
    10030    2    1    2    0    0  0.00000000000E+00  0.00000000000E+00  0.48293863499E+03  0.11122805263E+04  0.10019671871E+04 0.  0.
        2    1    3    3  502    0 -0.25546359524E+03 -0.31736675231E+03  0.56511775039E+03  0.69666446427E+03  0.25500000920E-02 0. -1.
       -2    1    3    3    0  502  0.25546359524E+03  0.31736675231E+03 -0.82179115403E+02  0.41561606199E+03  0.25500000920E-02 0.  1.
</event>
<event>
 5   0  0.2204862E-03  0.9711516E+03  0.7818609E-02  0.9340764E-01
        2   -1    0    0  501    0  0.00000000000E+00  0.00000000000E+00  0.78829819136E+03  0.78829819137E+03  0.25500000920E-02 0.  1.
       -2   -1    0    0    0  501  0.00000000000E+00  0.00000000000E+00 -0.29910493811E+03  0.29910493812E+03  0.25500000920E-02 0. -1.
    10030    2    1    2    0    0  0.00000000000E+00  0.00000000000E+00  0.48919325325E+03  0.10874031295E+04  0.97115164984E+03 0.  0.
        1    1    3    3  502    0 -0.24765576380E+03  0.16372402587E+02 -0.22271407020E+03  0.33347112319E+03  0.50400001928E-02 0. -1.
       -1    1    3    3    0  502  0.24765576380E+03 -0.16372402587E+02  0.71190732345E+03  0.75393200630E+03  0.50400001928E-02 0.  1.
</event>
<event>
 5   0  0.1353789E-03  0.1001721E+04  0.7818609E-02  0.9306659E-01
       -1   -1    0    0    0  501  0.00000000000E+00  0.00000000000E+00  0.24202967085E+03  0.24202967090E+03  0.50400001928E-02 0.  1.
        1   -1    0    0  501    0  0.00000000000E+00  0.00000000000E+00 -0.10364903293E+04  0.10364903293E+04  0.50400001928E-02 0. -1.
    10030    2    1    2    0    0  0.00000000000E+00  0.00000000000E+00 -0.79446065841E+03  0.12785200002E+04  0.10017213450E+04 0.  0.
        1    1    3    3  502    0  0.12353026064E+03 -0.35752650883E+03 -0.81623860698E+03  0.89962791940E+03  0.50400001928E-02 0. -1.
       -1    1    3    3    0  502 -0.12353026064E+03  0.35752650883E+03  0.21777948573E+02  0.37889208078E+03  0.50400001928E-02 0.  1.
</event>
<event>
 5   0  0.1285769E-03  0.9865187E+03  0.7818609E-02  0.9323456E-01
        1   -1    0    0  501    0  0.00000000000E+00  0.00000000000E+00  0.10844337746E+04  0.10844337746E+04  0.50400001928E-02 0.  1.
       -1   -1    0    0    0  501  0.00000000000E+00  0.00000000000E+00 -0.22436111918E+03  0.22436111924E+03  0.50400001928E-02 0. -1.
    10030    2    1    2    0    0  0.00000000000E+00  0.00000000000E+00  0.86007265541E+03  0.13087948938E+04  0.98651867776E+03 0.  0.
        5    1    3    3  502    0 -0.29731651432E+03 -0.12684437944E+03  0.92429566063E+03  0.97919924660E+03  0.46999998093E+01 0.  1.
       -5    1    3    3    0  502  0.29731651432E+03  0.12684437944E+03 -0.64223005227E+02  0.32959564724E+03  0.46999998093E+01 0. -1.
</event>
<event>
 5   0  0.2204862E-03  0.9999959E+03  0.7818609E-02  0.9308549E-01
       -2   -1    0    0    0  501  0.00000000000E+00  0.00000000000E+00  0.21540629899E+03  0.21540629900E+03  0.25500000920E-02 0. -1.
        2   -1    0    0  501    0  0.00000000000E+00  0.00000000000E+00 -0.11605879962E+04  0.11605879962E+04  0.25500000920E-02 0.  1.
    10030    2    1    2    0    0  0.00000000000E+00  0.00000000000E+00 -0.94518169720E+03  0.13759942952E+04  0.99999592983E+03 0.  0.
        1    1    3    3  502    0  0.36639952335E+03  0.16540907394E+03 -0.88168002012E+03  0.96900383403E+03  0.50400001928E-02 0.  1.
       -1    1    3    3    0  502 -0.36639952335E+03 -0.16540907394E+03 -0.63501677076E+02  0.40699046116E+03  0.50400001928E-02 0. -1.
</event>
<event>
 5   0  0.1285769E-03  0.1029556E+04  0.7818609E-02  0.9276710E-01
        1   -1    0    0  501    0  0.00000000000E+00  0.00000000000E+00  0.90817289665E+03  0.90817289667E+03  0.50400001928E-02 0.  1.
       -1   -1    0    0    0  501  0.00000000000E+00  0.00000000000E+00 -0.29179062164E+03  0.29179062168E+03  0.50400001928E-02 0. -1.
    10030    2    1    2    0    0  0.00000000000E+00  0.00000000000E+00  0.61638227502E+03  0.11999635183E+04  0.10295558928E+04 0.  0.
        5    1    3    3  502    0  0.12108356570E+03 -0.29289621518E+03 -0.16456135576E+03  0.35714416214E+03  0.46999998093E+01 0. -1.
       -5    1    3    3    0  502 -0.12108356570E+03  0.29289621518E+03  0.78094363077E+03  0.84281935620E+03  0.46999998093E+01 0.  1.
</event>
<event>
 5   0  0.1293716E-03  0.9995638E+03  0.7818609E-02  0.9309023E-01
       -1   -1    0    0    0  501  0.00000000000E+00  0.00000000000E+00  0.36689432456E+03  0.36689432459E+03  0.50400001928E-02 0.  1.
        1   -1    0    0  501    0  0.00000000000E+00  0.00000000000E+00 -0.68080077107E+03  0.68080077109E+03  0.50400001928E-02 0. -1.
    10030    2    1    2    0    0  0.00000000000E+00  0.00000000000E+00 -0.31390644651E+03  0.10476950957E+04  0.99956378304E+03 0.  0.
        3    1    3    3  502    0  0.33376290609E+03  0.33293521941E+03  0.16984459731E+02  0.47173299638E+03  0.10100000352E+00 0.  1.
       -3    1    3    3    0  502 -0.33376290609E+03 -0.33293521941E+03 -0.33089090624E+03  0.57596209930E+03  0.10100000352E+00 0. -1.
</event>
<event>
 5   0  0.1293575E-03  0.1007396E+04  0.7818609E-02  0.9300470E-01
       -1   -1    0    0    0  501  0.00000000000E+00  0.00000000000E+00  0.41645195671E+03  0.41645195674E+03  0.50400001928E-02 0. -1.
        1   -1    0    0  501    0  0.00000000000E+00  0.00000000000E+00 -0.60922142129E+03  0.60922142131E+03  0.50400001928E-02 0.  1.
    10030    2    1    2    0    0  0.00000000000E+00  0.00000000000E+00 -0.19276946457E+03  0.10256733781E+04  0.10073955588E+04 0.  0.
        4    1    3    3  502    0 -0.41284915156E+03  0.25231785488E+03 -0.23892890763E+03  0.53962705421E+03  0.12699999809E+01 0.  1.
       -4    1    3    3    0  502  0.41284915156E+03 -0.25231785488E+03  0.46159443062E+02  0.48604632384E+03  0.12699999809E+01 0. -1.
</event>
<event>
 5   0  0.2264577E-03  0.9982295E+03  0.7818609E-02  0.9310489E-01
        2   -1    0    0  501    0  0.00000000000E+00  0.00000000000E+00  0.19810243086E+04  0.19810243086E+04  0.25500000920E-02 0.  1.
       -2   -1    0    0    0  501  0.00000000000E+00  0.00000000000E+00 -0.12575087727E+03  0.12575087729E+03  0.25500000920E-02 0. -1.
    10030    2    1    2    0    0  0.00000000000E+00  0.00000000000E+00  0.18552734314E+04  0.21067751859E+04  0.99822952215E+03 0.  0.
        5    1    3    3  502    0 -0.18048154671E+03 -0.20737202548E+03  0.18067775160E+04  0.18275786790E+04  0.46999998093E+01 0.  1.
       -5    1    3    3    0  502  0.18048154671E+03  0.20737202548E+03  0.48495915336E+02  0.27919650688E+03  0.46999998093E+01 0. -1.
</event>
<event>
 5   0  0.2204862E-03  0.9943115E+03  0.7818609E-02  0.9314806E-01
        2   -1    0    0  501    0  0.00000000000E+00  0.00000000000E+00  0.25151175179E+04  0.25151175179E+04  0.25500000920E-02 0. -1.
       -2   -1    0    0    0  501  0.00000000000E+00  0.00000000000E+00 -0.98271295961E+02  0.98271295994E+02  0.25500000920E-02 0.  1.
    10030    2    1    2    0    0  0.00000000000E+00  0.00000000000E+00  0.24168462220E+04  0.26133888139E+04  0.99431153675E+03 0.  0.
        1    1    3    3  502    0  0.12688226060E+03 -0.39445868615E+03  0.48638459421E+03  0.63895753900E+03  0.50400001928E-02 0.  1.
       -1    1    3    3    0  502 -0.12688226060E+03  0.39445868615E+03  0.19304616278E+04  0.19744312749E+04  0.50400001928E-02 0. -1.
</event>
<event>
 5   0  0.1249195E-03  0.1001491E+04  0.7818609E-02  0.9306911E-01
       -1   -1    0    0    0  501  0.00000000000E+00  0.00000000000E+00  0.78944821873E+03  0.78944821875E+03  0.50400001928E-02 0.  1.
        1   -1    0    0  501    0  0.00000000000E+00  0.00000000000E+00 -0.31762212074E+03  0.31762212078E+03  0.50400001928E-02 0. -1.
    10030    2    1    2    0    0  0.00000000000E+00  0.00000000000E+00  0.47182609799E+03  0.11070703395E+04  0.10014913229E+04 0.  0.
        2    1    3    3  502    0  0.14802529305E+03  0.20882158688E+03 -0.23984009344E+03  0.35077230928E+03  0.25500000920E-02 0. -1.
       -2    1    3    3    0  502 -0.14802529305E+03 -0.20882158688E+03  0.71166619143E+03  0.75629803025E+03  0.25500000920E-02 0.  1.
</event>
<event>
 5   0  0.1285769E-03  0.1003167E+04  0.7818609E-02  0.9305078E-01
       -1   -1    0    0    0  501  0.00000000000E+00  0.00000000000E+00  0.51613717690E+03  0.51613717692E+03  0.50400001928E-02 0. -1.
        1   -1    0    0  501    0  0.00000000000E+00  0.00000000000E+00 -0.48744055534E+03  0.48744055537E+03  0.50400001928E-02 0.  1.
    10030    2    1    2    0    0  0.00000000000E+00  0.00000000000E+00  0.28696621559E+02  0.10035777323E+04  0.10031673682E+04 0.  0.
        5    1    3    3  502    0 -0.39010842074E+03 -0.22782233649E+03  0.23232848293E+03  0.50802186067E+03  0.46999998093E+01 0. -1.
       -5    1    3    3    0  502  0.39010842074E+03  0.22782233649E+03 -0.20363186137E+03  0.49555587162E+03  0.46999998093E+01 0.  1.
</event>
<event>
 5   0  0.2277570E-03  0.9980111E+03  0.7818609E-02  0.9310729E-01
       -2   -1    0    0    0  501  0.00000000000E+00  0.00000000000E+00  0.27648149233E+03  0.27648149234E+03  0.25500000920E-02 0.  1.
        2   -1    0    0  501    0  0.00000000000E+00  0.00000000000E+00 -0.90062636019E+03  0.90062636019E+03  0.25500000920E-02 0. -1.
    10030    2    1    2    0    0  0.00000000000E+00  0.00000000000E+00 -0.62414486786E+03  0.11771078525E+04  0.99801106228E+03 0.  0.
        3    1    3    3  502    0 -0.24716030716E+03  0.14992342924E+03 -0.79180899033E+03  0.84292748172E+03  0.10100000352E+00 0. -1.
       -3    1    3    3    0  502  0.24716030716E+03 -0.14992342924E+03  0.16766412247E+03  0.33418037081E+03  0.10100000352E+00 0.  1.
</event>
<event>
 5   0  0.2204862E-03  0.9987791E+03  0.7818609E-02  0.9309885E-01
       -2   -1    0    0    0  501  0.00000000000E+00  0.00000000000E+00  0.23433360653E+03  0.23433360654E+03  0.25500000920E-02 0. -1.
        2   -1    0    0  501    0  0.00000000000E+00  0.00000000000E+00 -0.10642516575E+04  0.10642516575E+04  0.25500000920E-02 0.  1.
    10030    2    1    2    0    0  0.00000000000E+00  0.00000000000E+00 -0.82991805096E+03  0.12985852640E+04  0.99877911305E+03 0.  0.
        1    1    3    3  502    0 -0.24307776178E+03 -0.71197881716E+02 -0.97453796707E+03  0.10069161762E+04  0.50400001928E-02 0.  1.
       -1    1    3    3    0  502  0.24307776178E+03  0.71197881716E+02  0.14461991610E+03  0.29166908783E+03  0.50400001928E-02 0. -1.
</event>
<event>
 5   0  0.8680125E-04  0.9992221E+03  0.7818609E-02  0.9309398E-01
        3   -1    0    0  501    0  0.00000000000E+00  0.00000000000E+00  0.41499126787E+03  0.41499128016E+03  0.10100000352E+00 0.  1.
       -3   -1    0    0    0  501  0.00000000000E+00  0.00000000000E+00 -0.60148543722E+03  0.60148544570E+03  0.10100000352E+00 0. -1.
    10030    2    1    2    0    0  0.00000000000E+00  0.00000000000E+00 -0.18649416935E+03  0.10164767259E+04  0.99922212696E+03 0.  0.
        3    1    3    3  502    0  0.26986430953E+03 -0.89914018179E+02 -0.51107056818E+03  0.58489692432E+03  0.10100000352E+00 0. -1.
       -3    1    3    3    0  502 -0.26986430953E+03  0.89914018179E+02  0.32457639883E+03  0.43157980154E+03  0.10100000352E+00 0.  1.
</event>
<event>
 5   0  0.1285769E-03  0.9955130E+03  0.7818609E-02  0.9313480E-01
       -1   -1    0    0    0  501  0.00000000000E+00  0.00000000000E+00  0.14771662454E+04  0.14771662454E+04  0.50400001928E-02 0. -1.
        1   -1    0    0  501    0  0.00000000000E+00  0.00000000000E+00 -0.16772759980E+03  0.16772759987E+03  0.50400001928E-02 0.  1.
    10030    2    1    2    0    0  0.00000000000E+00  0.00000000000E+00  0.13094386456E+04  0.16448938452E+04  0.99551303137E+03 0.  0.
        5    1    3    3  502    0  0.15771207885E+03  0.28166719713E+02 -0.12392442567E+03  0.20259767321E+03  0.46999998093E+01 0.  1.
       -5    1    3    3    0  502 -0.15771207885E+03 -0.28166719713E+02  0.14333630712E+04  0.14422961720E+04  0.46999998093E+01 0. -1.
</event>
<event>
 5   0  0.1249195E-03  0.1003981E+04  0.7818609E-02  0.9304189E-01
        1   -1    0    0  501    0  0.00000000000E+00  0.00000000000E+00  0.62197825690E+03  0.62197825692E+03  0.50400001928E-02 0.  1.
       -1   -1    0    0    0  501  0.00000000000E+00  0.00000000000E+00 -0.40515035102E+03  0.40515035105E+03  0.50400001928E-02 0. -1.
    10030    2    1    2    0    0  0.00000000000E+00  0.00000000000E+00  0.21682790588E+03  0.10271286080E+04  0.10039814921E+04 0.  0.
        2    1    3    3  502    0  0.75667493360E+02 -0.27183497077E+03  0.53316662285E+03  0.60323002960E+03  0.25500000920E-02 0.  1.
       -2    1    3    3    0  502 -0.75667493360E+02  0.27183497077E+03 -0.31633871697E+03  0.42389857837E+03  0.25500000920E-02 0. -1.
</event>
<event>
 5   0  0.1285769E-03  0.9991161E+03  0.7818609E-02  0.9309515E-01
        1   -1    0    0  501    0  0.00000000000E+00  0.00000000000E+00  0.10972552119E+04  0.10972552119E+04  0.50400001928E-02 0. -1.
       -1   -1    0    0    0  501  0.00000000000E+00  0.00000000000E+00 -0.22743866310E+03  0.22743866315E+03  0.50400001928E-02 0.  1.
    10030    2    1    2    0    0  0.00000000000E+00  0.00000000000E+00  0.86981654879E+03  0.13246938751E+04  0.99911612641E+03 0.  0.
        5    1    3    3  502    0 -0.17321086108E+03  0.19778930339E+03 -0.12825476568E+03  0.29256449861E+03  0.46999998093E+01 0.  1.
       -5    1    3    3    0  502  0.17321086108E+03 -0.19778930339E+03  0.99807131447E+03  0.10321293764E+04  0.46999998093E+01 0. -1.
</event>
<event>
 5   0  0.1249195E-03  0.9994113E+03  0.7818609E-02  0.9309191E-01
        1   -1    0    0  501    0  0.00000000000E+00  0.00000000000E+00  0.80498670821E+03  0.80498670822E+03  0.50400001928E-02 0.  1.
       -1   -1    0    0    0  501  0.00000000000E+00  0.00000000000E+00 -0.31019859343E+03  0.31019859347E+03  0.50400001928E-02 0. -1.
    10030    2    1    2    0    0  0.00000000000E+00  0.00000000000E+00  0.49478811478E+03  0.11151853017E+04  0.99941131602E+03 0.  0.
        2    1    3    3  502    0 -0.26045407218E+02 -0.20688283929E+03 -0.25933452505E+03  0.33276608649E+03  0.25500000920E-02 0. -1.
       -2    1    3    3    0  502  0.26045407218E+02  0.20688283929E+03  0.75412263982E+03  0.78241921521E+03  0.25500000920E-02 0.  1.
</event>
<event>
 5   0  0.1285769E-03  0.9953061E+03  0.7818609E-02  0.9313708E-01
       -1   -1    0    0    0  501  0.00000000000E+00  0.00000000000E+00  0.19523806972E+03  0.19523806978E+03  0.50400001928E-02 0. -1.
        1   -1    0    0  501    0  0.00000000000E+00  0.00000000000E+00 -0.12684953405E+04  0.12684953405E+04  0.50400001928E-02 0.  1.
    10030    2    1    2    0    0  0.00000000000E+00  0.00000000000E+00 -0.10732572708E+04  0.14637334103E+04  0.99530614745E+03 0.  0.
        5    1    3    3  502    0 -0.23102919014E+03  0.30665136103E+02  0.10998603117E+03  0.25774765629E+03  0.46999998093E+01 0. -1.
       -5    1    3    3    0  502  0.23102919014E+03 -0.30665136103E+02 -0.11832433020E+04  0.12059857540E+04  0.46999998093E+01 0.  1.
</event>
<event>
 5   0  0.1249195E-03  0.1004017E+04  0.7818609E-02  0.9304150E-01
       -1   -1    0    0    0  501  0.00000000000E+00  0.00000000000E+00  0.26421889985E+03  0.26421889989E+03  0.50400001928E-02 0. -1.
        1   -1    0    0  501    0  0.00000000000E+00  0.00000000000E+00 -0.95380232598E+03  0.95380232599E+03  0.50400001928E-02 0.  1.
    10030    2    1    2    0    0  0.00000000000E+00  0.00000000000E+00 -0.68958342613E+03  0.12180212259E+04  0.10040171339E+04 0.  0.
        2    1    3    3  502    0 -0.49111154939E+03 -0.42118086942E+02 -0.46018824741E+03  0.67434242804E+03  0.25500000920E-02 0.  1.
       -2    1    3    3    0  502  0.49111154939E+03  0.42118086942E+02 -0.22939517872E+03  0.54367879784E+03  0.25500000920E-02 0. -1.
</event>
<event>
 5   0  0.2277570E-03  0.9866579E+03  0.7818609E-02  0.9323300E-01
       -2   -1    0    0    0  501  0.00000000000E+00  0.00000000000E+00  0.65254423564E+03  0.65254423565E+03  0.25500000920E-02 0. -1.
        2   -1    0    0  501    0  0.00000000000E+00  0.00000000000E+00 -0.37296088177E+03  0.37296088178E+03  0.25500000920E-02 0.  1.
    10030    2    1    2    0    0  0.00000000000E+00  0.00000000000E+00  0.27958335387E+03  0.10255051174E+04  0.98665794179E+03 0.  0.
        3    1    3    3  502    0 -0.17534978623E+02 -0.38002863338E+03 -0.18665108976E+03  0.42375450106E+03  0.10100000352E+00 0.  1.
       -3    1    3    3    0  502  0.17534978623E+02  0.38002863338E+03  0.46623444363E+03  0.60175061636E+03  0.10100000352E+00 0. -1.
</event>
<event>
 5   0  0.2284843E-03  0.1003183E+04  0.7818609E-02  0.9305060E-01
        2   -1    0    0  501    0  0.00000000000E+00  0.00000000000E+00  0.28570730691E+03  0.28570730692E+03  0.25500000920E-02 0. -1.
       -2   -1    0    0    0  501  0.00000000000E+00  0.00000000000E+00 -0.88060111494E+03  0.88060111495E+03  0.25500000920E-02 0.  1.
    10030    2    1    2    0    0  0.00000000000E+00  0.00000000000E+00 -0.59489380804E+03  0.11663084219E+04  0.10031832794E+04 0.  0.
        2    1    3    3  502    0 -0.27165159513E+03 -0.40794636851E+03 -0.42146690934E+03  0.64641254968E+03  0.25500000920E-02 0.  1.
       -2    1    3    3    0  502  0.27165159513E+03  0.40794636851E+03 -0.17342689870E+03  0.51989587218E+03  0.25500000920E-02 0. -1.
</event>
<event>
 5   0  0.2204862E-03  0.9985912E+03  0.7818609E-02  0.9310091E-01
       -2   -1    0    0    0  501  0.00000000000E+00  0.00000000000E+00  0.17597941410E+03  0.17597941412E+03  0.25500000920E-02 0. -1.
        2   -1    0    0  501    0  0.00000000000E+00  0.00000000000E+00 -0.14166206495E+04  0.14166206495E+04  0.25500000920E-02 0.  1.
    10030    2    1    2    0    0  0.00000000000E+00  0.00000000000E+00 -0.12406412354E+04  0.15926000636E+04  0.99859115139E+03 0.  0.
        1    1    3    3  502    0 -0.47695639473E+03  0.14754565275E+03 -0.63027401731E+03  0.80405376626E+03  0.50400001928E-02 0.  1.
       -1    1    3    3    0  502  0.47695639473E+03 -0.14754565275E+03 -0.61036721806E+03  0.78854629733E+03  0.50400001928E-02 0. -1.
</event>
<event>
 5   0  0.1249195E-03  0.1003311E+04  0.7818609E-02  0.9304921E-01
       -1   -1    0    0    0  501  0.00000000000E+00  0.00000000000E+00  0.92190853728E+03  0.92190853730E+03  0.50400001928E-02 0. -1.
        1   -1    0    0  501    0  0.00000000000E+00  0.00000000000E+00 -0.27297522708E+03  0.27297522713E+03  0.50400001928E-02 0.  1.
    10030    2    1    2    0    0  0.00000000000E+00  0.00000000000E+00  0.64893331020E+03  0.11948837644E+04  0.10033109037E+04 0.  0.
        2    1    3    3  502    0 -0.35768946463E+03 -0.35162968731E+03  0.33464221259E+03  0.60296815883E+03  0.25500000920E-02 0.  1.
       -2    1    3    3    0  502  0.35768946463E+03  0.35162968731E+03  0.31429109761E+03  0.59191560560E+03  0.25500000920E-02 0. -1.
</event>
<event>
 5   0  0.2255142E-03  0.9996822E+03  0.7818609E-02  0.9308893E-01
        2   -1    0    0  501    0  0.00000000000E+00  0.00000000000E+00  0.28985098977E+04  0.28985098977E+04  0.25500000920E-02 0. -1.
       -2   -1    0    0    0  501  0.00000000000E+00  0.00000000000E+00 -0.86196397276E+02  0.86196397314E+02  0.25500000920E-02 0.  1.
    10030    2    1    2    0    0  0.00000000000E+00  0.00000000000E+00  0.28123135004E+04  0.29847062950E+04  0.99968217091E+03 0.  0.
        4    1    3    3  502    0  0.60033248703E+02  0.45202444466E+03  0.79493975786E+03  0.91643926206E+03  0.12699999809E+01 0.  1.
       -4    1    3    3    0  502 -0.60033248703E+02 -0.45202444466E+03  0.20173737426E+04  0.20682670330E+04  0.12699999809E+01 0. -1.
</event>
<event>
 5   0  0.1293575E-03  0.1001035E+04  0.7818609E-02  0.9307410E-01
       -1   -1    0    0    0  501  0.00000000000E+00  0.00000000000E+00  0.22429612813E+03  0.22429612819E+03  0.50400001928E-02 0.  1.
        1   -1    0    0  501    0  0.00000000000E+00  0.00000000000E+00 -0.11169071481E+04  0.11169071481E+04  0.50400001928E-02 0. -1.
    10030    2    1    2    0    0  0.00000000000E+00  0.00000000000E+00 -0.89261102001E+03  0.13412032763E+04  0.10010353617E+04 0.  0.
        4    1    3    3  502    0  0.14846371422E+03 -0.37843010492E+03 -0.83753528672E+03  0.93097679249E+03  0.12699999809E+01 0.  1.
       -4    1    3    3    0  502 -0.14846371422E+03  0.37843010492E+03 -0.55075733289E+02  0.41022648385E+03  0.12699999809E+01 0. -1.
</event>
<event>
 5   0  0.1249195E-03  0.1000617E+04  0.7818609E-02  0.9307868E-01
        1   -1    0    0  501    0  0.00000000000E+00  0.00000000000E+00  0.30568627512E+03  0.30568627516E+03  0.50400001928E-02 0. -1.
       -1   -1    0    0    0  501  0.00000000000E+00  0.00000000000E+00 -0.81884159953E+03  0.81884159954E+03  0.50400001928E-02 0.  1.
    10030    2    1    2    0    0  0.00000000000E+00  0.00000000000E+00 -0.51315532440E+03  0.11245278747E+04  0.10006170866E+04 0.  0.
        2    1    3    3  502    0 -0.20511378905E+03 -0.20203208040E+03 -0.71641686439E+03  0.77210216393E+03  0.25500000920E-02 0.  1.
       -2    1    3    3    0  502  0.20511378905E+03  0.20203208040E+03  0.20326153998E+03  0.35242571077E+03  0.25500000920E-02 0. -1.
</event>
<event>
 5   0  0.2277570E-03  0.1000007E+04  0.7818609E-02  0.9308538E-01
       -2   -1    0    0    0  501  0.00000000000E+00  0.00000000000E+00  0.15154767734E+03  0.15154767737E+03  0.25500000920E-02 0.  1.
        2   -1    0    0  501    0  0.00000000000E+00  0.00000000000E+00 -0.16496677642E+04  0.16496677642E+04  0.25500000920E-02 0. -1.
    10030    2    1    2    0    0  0.00000000000E+00  0.00000000000E+00 -0.14981200868E+04  0.18012154415E+04  0.10000066361E+04 0.  0.
        3    1    3    3  502    0  0.32480945825E+03 -0.42821318685E+02 -0.14294012308E+04  0.14664660713E+04  0.10100000352E+00 0. -1.
       -3    1    3    3    0  502 -0.32480945825E+03  0.42821318685E+02 -0.68718856052E+02  0.33474937025E+03  0.10100000352E+00 0.  1.
</event>
<event>
 5   0  0.1285769E-03  0.1003744E+04  0.7818609E-02  0.9304448E-01
        1   -1    0    0  501    0  0.00000000000E+00  0.00000000000E+00  0.12484983463E+04  0.12484983463E+04  0.50400001928E-02 0.  1.
       -1   -1    0    0    0  501  0.00000000000E+00  0.00000000000E+00 -0.20174260257E+03  0.20174260264E+03  0.50400001928E-02 0. -1.
    10030    2    1    2    0    0  0.00000000000E+00  0.00000000000E+00  0.10467557437E+04  0.14502409490E+04  0.10037436042E+04 0.  0.
        5    1    3    3  502    0  0.62892911385E+01 -0.50198876260E+02  0.12447727483E+04  0.12458092820E+04  0.46999998093E+01 0.  1.
       -5    1    3    3    0  502 -0.62892911385E+01  0.50198876260E+02 -0.19801700453E+03  0.20443166693E+03  0.46999998093E+01 0. -1.
</event>
<event>
 5   0  0.2277570E-03  0.9906385E+03  0.7818609E-02  0.9318872E-01
       -2   -1    0    0    0  501  0.00000000000E+00  0.00000000000E+00  0.53891417305E+03  0.53891417306E+03  0.25500000920E-02 0.  1.
        2   -1    0    0  501    0  0.00000000000E+00  0.00000000000E+00 -0.45525087163E+03  0.45525087164E+03  0.25500000920E-02 0. -1.
    10030    2    1    2    0    0  0.00000000000E+00  0.00000000000E+00  0.83663301423E+02  0.99416504470E+03  0.99063847497E+03 0.  0.
        3    1    3    3  502    0  0.18503280988E+02  0.18274667581E+03 -0.41980853885E+03  0.45823349770E+03  0.10100000352E+00 0. -1.
       -3    1    3    3    0  502 -0.18503280988E+02 -0.18274667581E+03  0.50347184027E+03  0.53593154700E+03  0.10100000352E+00 0.  1.
</event>
<event>
 5   0  0.8680125E-04  0.1006368E+04  0.7818609E-02  0.9301588E-01
        3   -1    0    0  501    0  0.00000000000E+00  0.00000000000E+00  0.60391465568E+03  0.60391466413E+03  0.10100000352E+00 0. -1.
       -3   -1    0    0    0  501  0.00000000000E+00  0.00000000000E+00 -0.41925443521E+03  0.41925444738E+03  0.10100000352E+00 0.  1.
    10030    2    1    2    0    0  0.00000000000E+00  0.00000000000E+00  0.18466022047E+03  0.10231691115E+04  0.10063675440E+04 0.  0.
        5    1    3    3  502    0  0.43319301949E+03 -0.25443987557E+03  0.64008695224E+02  0.50647314388E+03  0.46999998093E+01 0. -1.
       -5    1    3    3    0  502 -0.43319301949E+03  0.25443987557E+03  0.12065152525E+03  0.51669596762E+03  0.46999998093E+01 0.  1.
</event>
<event>
 5   0  0.1293575E-03  0.9999101E+03  0.7818609E-02  0.9308643E-01
        1   -1    0    0  501    0  0.00000000000E+00  0.00000000000E+00  0.14499660505E+04  0.14499660505E+04  0.50400001928E-02 0.  1.
       -1   -1    0    0    0  501  0.00000000000E+00  0.00000000000E+00 -0.17238681442E+03  0.17238681449E+03  0.50400001928E-02 0. -1.
    10030    2    1    2    0    0  0.00000000000E+00  0.00000000000E+00  0.12775792361E+04  0.16223528650E+04  0.99991005301E+03 0.  0.
        4    1    3    3  502    0  0.24542602658E+03  0.62363760455E+02 -0.60637685908E+02  0.26038762450E+03  0.12699999809E+01 0. -1.
       -4    1    3    3    0  502 -0.24542602658E+03 -0.62363760455E+02  0.13382169220E+04  0.13619652405E+04  0.12699999809E+01 0.  1.
</event>
<event>
 5   0  0.1285769E-03  0.1002470E+04  0.7818609E-02  0.9305839E-01
       -1   -1    0    0    0  501  0.00000000000E+00  0.00000000000E+00  0.56220138007E+03  0.56220138009E+03  0.50400001928E-02 0. -1.
        1   -1    0    0  501    0  0.00000000000E+00  0.00000000000E+00 -0.44688038402E+03  0.44688038405E+03  0.50400001928E-02 0.  1.
    10030    2    1    2    0    0  0.00000000000E+00  0.00000000000E+00  0.11532099605E+03  0.10090817641E+04  0.10024704856E+04 0.  0.
        5    1    3    3  502    0 -0.45684184607E+03  0.19818330377E+03  0.42086176475E+00  0.49799935877E+03  0.46999998093E+01 0.  1.
       -5    1    3    3    0  502  0.45684184607E+03 -0.19818330377E+03  0.11490013428E+03  0.51108240536E+03  0.46999998093E+01 0. -1.
</event>
<event>
 5   0  0.2264577E-03  0.1002851E+04  0.7818609E-02  0.9305424E-01
        2   -1    0    0  501    0  0.00000000000E+00  0.00000000000E+00  0.71732774858E+03  0.71732774858E+03  0.25500000920E-02 0.  1.
       -2   -1    0    0    0  501  0.00000000000E+00  0.00000000000E+00 -0.35050556225E+03  0.35050556226E+03  0.25500000920E-02 0. -1.
    10030    2    1    2    0    0  0.00000000000E+00  0.00000000000E+00  0.36682218633E+03  0.10678333108E+04  0.10028506685E+04 0.  0.
        5    1    3    3  502    0 -0.47780417184E+03 -0.14242771579E+03  0.12683839856E+03  0.51448279874E+03  0.46999998093E+01 0.  1.
       -5    1    3    3    0  502  0.47780417184E+03  0.14242771579E+03  0.23998378777E+03  0.55335051210E+03  0.46999998093E+01 0. -1.
</event>
<event>
 5   0  0.1353789E-03  0.9968055E+03  0.7818609E-02  0.9312055E-01
        1   -1    0    0  501    0  0.00000000000E+00  0.00000000000E+00  0.11170440595E+04  0.11170440595E+04  0.50400001928E-02 0.  1.
       -1   -1    0    0    0  501  0.00000000000E+00  0.00000000000E+00 -0.22237737106E+03  0.22237737111E+03  0.50400001928E-02 0. -1.
    10030    2    1    2    0    0  0.00000000000E+00  0.00000000000E+00  0.89466668847E+03  0.13394214307E+04  0.99680554043E+03 0.  0.
        1    1    3    3  502    0  0.25252171325E+03  0.20041733719E+03 -0.63403436241E+02  0.32856402795E+03  0.50400001928E-02 0. -1.
       -1    1    3    3    0  502 -0.25252171325E+03 -0.20041733719E+03  0.95807012471E+03  0.10108574027E+04  0.50400001928E-02 0.  1.
</event>
<event>
 5   0  0.2264577E-03  0.1003610E+04  0.7818609E-02  0.9304594E-01
        2   -1    0    0  501    0  0.00000000000E+00  0.00000000000E+00  0.28086235639E+03  0.28086235640E+03  0.25500000920E-02 0. -1.
       -2   -1    0    0    0  501  0.00000000000E+00  0.00000000000E+00 -0.89655442668E+03  0.89655442668E+03  0.25500000920E-02 0.  1.
    10030    2    1    2    0    0  0.00000000000E+00  0.00000000000E+00 -0.61569207028E+03  0.11774167831E+04  0.10036102608E+04 0.  0.
        5    1    3    3  502    0 -0.13176376701E+03 -0.48361298923E+03 -0.33518607493E+03  0.60300498213E+03  0.46999998093E+01 0. -1.
       -5    1    3    3    0  502  0.13176376701E+03  0.48361298923E+03 -0.28050599535E+03  0.57441180095E+03  0.46999998093E+01 0.  1.
</event>
<event>
 5   0  0.1249195E-03  0.9988931E+03  0.7818609E-02  0.9309760E-01
       -1   -1    0    0    0  501  0.00000000000E+00  0.00000000000E+00  0.46196595164E+03  0.46196595167E+03  0.50400001928E-02 0. -1.
        1   -1    0    0  501    0  0.00000000000E+00  0.00000000000E+00 -0.53996806885E+03  0.53996806887E+03  0.50400001928E-02 0.  1.
    10030    2    1    2    0    0  0.00000000000E+00  0.00000000000E+00 -0.78002117206E+02  0.10019340205E+04  0.99889311302E+03 0.  0.
        2    1    3    3  502    0 -0.29615472012E+03  0.16830012295E+03 -0.40537225003E+03  0.52948957566E+03  0.25500000920E-02 0.  1.
       -2    1    3    3    0  502  0.29615472012E+03 -0.16830012295E+03  0.32737013282E+03  0.47244444488E+03  0.25500000920E-02 0. -1.
</event>
<event>
 5   0  0.1293716E-03  0.1002811E+04  0.7818609E-02  0.9305467E-01
       -1   -1    0    0    0  501  0.00000000000E+00  0.00000000000E+00  0.12975942262E+03  0.12975942272E+03  0.50400001928E-02 0.  1.
        1   -1    0    0  501    0  0.00000000000E+00  0.00000000000E+00 -0.19374896129E+04  0.19374896129E+04  0.50400001928E-02 0. -1.
    10030    2    1    2    0    0  0.00000000000E+00  0.00000000000E+00 -0.18077301902E+04  0.20672490356E+04  0.10028111160E+04 0.  0.
        3    1    3    3  502    0 -0.39301930550E+03  0.23054564844E+03 -0.13352563242E+04  0.14108596429E+04  0.10100000352E+00 0. -1.
       -3    1    3    3    0  502  0.39301930550E+03 -0.23054564844E+03 -0.47247386604E+03  0.65638939266E+03  0.10100000352E+00 0.  1.
</event>
<event>
 5   0  0.8680125E-04  0.9954999E+03  0.7818609E-02  0.9313494E-01
       -3   -1    0    0    0  501  0.00000000000E+00  0.00000000000E+00  0.46009671609E+03  0.46009672717E+03  0.10100000352E+00 0.  1.
        3   -1    0    0  501    0  0.00000000000E+00  0.00000000000E+00 -0.53848460575E+03  0.53848461522E+03  0.10100000352E+00 0. -1.
    10030    2    1    2    0    0  0.00000000000E+00  0.00000000000E+00 -0.78387889668E+02  0.99858134240E+03  0.99549989258E+03 0.  0.
        5    1    3    3  502    0 -0.60481812038E+02  0.45130385193E+03 -0.24081287891E+03  0.51511760696E+03  0.46999998093E+01 0. -1.
       -5    1    3    3    0  502  0.60481812038E+02 -0.45130385193E+03  0.16242498924E+03  0.48346373544E+03  0.46999998093E+01 0.  1.
</event>
<event>
 5   0  0.1285769E-03  0.9971968E+03  0.7818609E-02  0.9311625E-01
       -1   -1    0    0    0  501  0.00000000000E+00  0.00000000000E+00  0.20791544905E+03  0.20791544911E+03  0.50400001928E-02 0.  1.
        1   -1    0    0  501    0  0.00000000000E+00  0.00000000000E+00 -0.11956800756E+04  0.11956800756E+04  0.50400001928E-02 0. -1.
    10030    2    1    2    0    0  0.00000000000E+00  0.00000000000E+00 -0.98776462654E+03  0.14035955247E+04  0.99719679079E+03 0.  0.
        5    1    3    3  502    0 -0.17817800151E+02 -0.39004236158E+02  0.20528386661E+03  0.20976739578E+03  0.46999998093E+01 0.  1.
       -5    1    3    3    0  502  0.17817800151E+02  0.39004236158E+02 -0.11930484932E+04  0.11938281289E+04  0.46999998093E+01 0. -1.
</event>
<event>
 5   0  0.2284843E-03  0.1001786E+04  0.7818609E-02  0.9306588E-01
        2   -1    0    0  501    0  0.00000000000E+00  0.00000000000E+00  0.63266779879E+03  0.63266779879E+03  0.25500000920E-02 0. -1.
       -2   -1    0    0    0  501  0.00000000000E+00  0.00000000000E+00 -0.39656494127E+03  0.39656494128E+03  0.25500000920E-02 0.  1.
    10030    2    1    2    0    0  0.00000000000E+00  0.00000000000E+00  0.23610285751E+03  0.10292327401E+04  0.10017861418E+04 0.  0.
        2    1    3    3  502    0 -0.31330616539E+03 -0.39075605639E+03  0.11132847928E+03  0.51307414589E+03  0.25500000920E-02 0.  1.
       -2    1    3    3    0  502  0.31330616539E+03  0.39075605639E+03  0.12477437824E+03  0.51615859418E+03  0.25500000920E-02 0. -1.
</event>
<event>
 5   0  0.2204862E-03  0.9879507E+03  0.7818609E-02  0.9321860E-01
        2   -1    0    0  501    0  0.00000000000E+00  0.00000000000E+00  0.10813783122E+04  0.10813783122E+04  0.25500000920E-02 0. -1.
       -2   -1    0    0    0  501  0.00000000000E+00  0.00000000000E+00 -0.22564871108E+03  0.22564871110E+03  0.25500000920E-02 0.  1.
    10030    2    1    2    0    0  0.00000000000E+00  0.00000000000E+00  0.85572960107E+03  0.13070270233E+04  0.98795065128E+03 0.  0.
        1    1    3    3  502    0 -0.18709186025E+03  0.44032646757E+03  0.26518352734E+03  0.54700371608E+03  0.50400001928E-02 0. -1.
       -1    1    3    3    0  502  0.18709186025E+03 -0.44032646757E+03  0.59054607374E+03  0.76002330717E+03  0.50400001928E-02 0.  1.
</event>
<event>
 5   0  0.1353789E-03  0.9949674E+03  0.7818609E-02  0.9314082E-01
       -1   -1    0    0    0  501  0.00000000000E+00  0.00000000000E+00  0.10520994965E+04  0.10520994965E+04  0.50400001928E-02 0. -1.
        1   -1    0    0  501    0  0.00000000000E+00  0.00000000000E+00 -0.23523443244E+03  0.23523443249E+03  0.50400001928E-02 0.  1.
    10030    2    1    2    0    0  0.00000000000E+00  0.00000000000E+00  0.81686506405E+03  0.12873339290E+04  0.99496739237E+03 0.  0.
        1    1    3    3  502    0  0.27520884436E+03 -0.85047029228E+02  0.93322539531E+03  0.97666910654E+03  0.50400001928E-02 0. -1.
       -1    1    3    3    0  502 -0.27520884436E+03  0.85047029228E+02 -0.11636033126E+03  0.31066482245E+03  0.50400001928E-02 0.  1.
</event>
<event>
 5   0  0.1293716E-03  0.1000385E+04  0.7818609E-02  0.9308123E-01
       -1   -1    0    0    0  501  0.00000000000E+00  0.00000000000E+00  0.48290080576E+03  0.48290080579E+03  0.50400001928E-02 0.  1.
        1   -1    0    0  501    0  0.00000000000E+00  0.00000000000E+00 -0.51810290174E+03  0.51810290177E+03  0.50400001928E-02 0. -1.
    10030    2    1    2    0    0  0.00000000000E+00  0.00000000000E+00 -0.35202095983E+02  0.10010037076E+04  0.10003845435E+04 0.  0.
        3    1    3    3  502    0 -0.50441983609E+01 -0.44700313534E+03  0.20693715141E+03  0.49260556409E+03  0.10100000352E+00 0.  1.
       -3    1    3    3    0  502  0.50441983609E+01  0.44700313534E+03 -0.24213924739E+03  0.50839814346E+03  0.10100000352E+00 0. -1.
</event>
<event>
 5   0  0.1293716E-03  0.9959388E+03  0.7818609E-02  0.9313010E-01
        1   -1    0    0  501    0  0.00000000000E+00  0.00000000000E+00  0.87399780520E+03  0.87399780521E+03  0.50400001928E-02 0.  1.
       -1   -1    0    0    0  501  0.00000000000E+00  0.00000000000E+00 -0.28372328719E+03  0.28372328723E+03  0.50400001928E-02 0. -1.
    10030    2    1    2    0    0  0.00000000000E+00  0.00000000000E+00  0.59027451801E+03  0.11577210924E+04  0.99593881402E+03 0.  0.
        3    1    3    3  502    0  0.36128693752E+03 -0.18461056794E+03 -0.40492993386E+02  0.40773644150E+03  0.10100000352E+00 0. -1.
       -3    1    3    3    0  502 -0.36128693752E+03  0.18461056794E+03  0.63076751140E+03  0.74998465094E+03  0.10100000352E+00 0.  1.
</event>
<event>
 5   0  0.1249195E-03  0.1000922E+04  0.7818609E-02  0.9307535E-01
       -1   -1    0    0    0  501  0.00000000000E+00  0.00000000000E+00  0.43313974361E+03  0.43313974364E+03  0.50400001928E-02 0.  1.
        1   -1    0    0  501    0  0.00000000000E+00  0.00000000000E+00 -0.57824520357E+03  0.57824520359E+03  0.50400001928E-02 0. -1.
    10030    2    1    2    0    0  0.00000000000E+00  0.00000000000E+00 -0.14510545996E+03  0.10113849472E+04  0.10009215339E+04 0.  0.
        2    1    3    3  502    0  0.13144400710E+03  0.39610278907E+03  0.20653385903E+03  0.46565135181E+03  0.25500000920E-02 0.  1.
       -2    1    3    3    0  502 -0.13144400710E+03 -0.39610278907E+03 -0.35163931899E+03  0.54573359542E+03  0.25500000920E-02 0. -1.
</event>
<event>
 5   0  0.2204862E-03  0.1001853E+04  0.7818609E-02  0.9306515E-01
        2   -1    0    0  501    0  0.00000000000E+00  0.00000000000E+00  0.19542193949E+04  0.19542193949E+04  0.25500000920E-02 0.  1.
       -2   -1    0    0    0  501  0.00000000000E+00  0.00000000000E+00 -0.12840283264E+03  0.12840283267E+03  0.25500000920E-02 0. -1.
    10030    2    1    2    0    0  0.00000000000E+00  0.00000000000E+00  0.18258165622E+04  0.20826222275E+04  0.10018528953E+04 0.  0.
        1    1    3    3  502    0 -0.14494770109E+03  0.18062031862E+03  0.18362516357E+04  0.18507980995E+04  0.50400001928E-02 0.  1.
       -1    1    3    3    0  502  0.14494770109E+03 -0.18062031862E+03 -0.10435073466E+02  0.23182412803E+03  0.50400001928E-02 0. -1.
</event>
<event>
 5   0  0.2277570E-03  0.9978382E+03  0.7818609E-02  0.9310919E-01
        2   -1    0    0  501    0  0.00000000000E+00  0.00000000000E+00  0.21008365569E+04  0.21008365569E+04  0.25500000920E-02 0. -1.
       -2   -1    0    0    0  501  0.00000000000E+00  0.00000000000E+00 -0.11848626243E+03  0.11848626245E+03  0.25500000920E-02 0.  1.
    10030    2    1    2    0    0  0.00000000000E+00  0.00000000000E+00  0.19823502945E+04  0.22193228193E+04  0.99783820657E+03 0.  0.
        3    1    3    3  502    0 -0.42279991513E+03  0.13711533260E+03  0.48712662621E+03  0.65943365309E+03  0.10100000352E+00 0.  1.
       -3    1    3    3    0  502  0.42279991513E+03 -0.13711533260E+03  0.14952236682E+04  0.15598891662E+04  0.10100000352E+00 0. -1.
</event>
<event>
 5   0  0.1293716E-03  0.9987986E+03  0.7818609E-02  0.9309863E-01
        1   -1    0    0  501    0  0.00000000000E+00  0.00000000000E+00  0.17101304987E+04  0.17101304987E+04  0.50400001928E-02 0.  1.
       -1   -1    0    0    0  501  0.00000000000E+00  0.00000000000E+00 -0.14583663624E+03  0.14583663633E+03  0.50400001928E-02 0. -1.
    10030    2    1    2    0    0  0.00000000000E+00  0.00000000000E+00  0.15642938624E+04  0.18559671350E+04  0.99879863744E+03 0.  0.
        3    1    3    3  502    0  0.13882927751E+03  0.40998260112E+03  0.12449854791E+04  0.13180850332E+04  0.10100000352E+00 0.  1.
       -3    1    3    3    0  502 -0.13882927751E+03 -0.40998260112E+03  0.31930838334E+03  0.53788210176E+03  0.10100000352E+00 0. -1.
</event>
<event>
 5   0  0.2255142E-03  0.9999043E+03  0.7818609E-02  0.9308650E-01
        2   -1    0    0  501    0  0.00000000000E+00  0.00000000000E+00  0.26596256993E+03  0.26596256994E+03  0.25500000920E-02 0.  1.
       -2   -1    0    0    0  501  0.00000000000E+00  0.00000000000E+00 -0.93980192266E+03  0.93980192266E+03  0.25500000920E-02 0. -1.
    10030    2    1    2    0    0  0.00000000000E+00  0.00000000000E+00 -0.67383935273E+03  0.12057644926E+04  0.99990426459E+03 0.  0.
        4    1    3    3  502    0 -0.28352952008E+03  0.39168940466E+03 -0.49012311904E+03  0.68849971910E+03  0.12699999809E+01 0. -1.
       -4    1    3    3    0  502  0.28352952008E+03 -0.39168940466E+03 -0.18371623369E+03  0.51726477350E+03  0.12699999809E+01 0.  1.
</event>
<event>
 5   0  0.1293716E-03  0.9963798E+03  0.7818609E-02  0.9312524E-01
        1   -1    0    0  501    0  0.00000000000E+00  0.00000000000E+00  0.15326623515E+04  0.15326623515E+04  0.50400001928E-02 0.  1.
       -1   -1    0    0    0  501  0.00000000000E+00  0.00000000000E+00 -0.16193598418E+03  0.16193598426E+03  0.50400001928E-02 0. -1.
    10030    2    1    2    0    0  0.00000000000E+00  0.00000000000E+00  0.13707263673E+04  0.16945983357E+04  0.99637981989E+03 0.  0.
        3    1    3    3  502    0  0.42302375169E+03 -0.22504929434E+03  0.91729594198E+03  0.10349048916E+04  0.10100000352E+00 0. -1.
       -3    1    3    3    0  502 -0.42302375169E+03  0.22504929434E+03  0.45343042530E+03  0.65969344409E+03  0.10100000352E+00 0.  1.
</event>
<event>
 5   0  0.1293716E-03  0.1017395E+04  0.7818609E-02  0.9289669E-01
        1   -1    0    0  501    0  0.00000000000E+00  0.00000000000E+00  0.40481463047E+03  0.40481463050E+03  0.50400001928E-02 0. -1.
       -1   -1    0    0    0  501  0.00000000000E+00  0.00000000000E+00 -0.63923893063E+03  0.63923893065E+03  0.50400001928E-02 0.  1.
    10030    2    1    2    0    0  0.00000000000E+00  0.00000000000E+00 -0.23442430017E+03  0.10440535612E+04  0.10173952457E+04 0.  0.
        3    1    3    3  502    0 -0.17566617679E+03  0.26083383294E+02  0.37196935710E+03  0.41218947266E+03  0.10100000352E+00 0. -1.
       -3    1    3    3    0  502  0.17566617679E+03 -0.26083383294E+02 -0.60639365727E+03  0.63186408849E+03  0.10100000352E+00 0.  1.
</event>
<event>
 5   0  0.2264577E-03  0.1009910E+04  0.7818609E-02  0.9297742E-01
        2   -1    0    0  501    0  0.00000000000E+00  0.00000000000E+00  0.88463730257E+03  0.88463730257E+03  0.25500000920E-02 0. -1.
       -2   -1    0    0    0  501  0.00000000000E+00  0.00000000000E+00 -0.28823058060E+03  0.28823058061E+03  0.25500000920E-02 0.  1.
    10030    2    1    2    0    0  0.00000000000E+00  0.00000000000E+00  0.59640672197E+03  0.11728678832E+04  0.10099099432E+04 0.  0.
        5    1    3    3  502    0 -0.41842459588E+03  0.25564654184E+03  0.43816101573E+03  0.65760281515E+03  0.46999998093E+01 0. -1.
       -5    1    3    3    0  502  0.41842459588E+03 -0.25564654184E+03  0.15824570625E+03  0.51526506803E+03  0.46999998093E+01 0.  1.
</event>
<event>
 5   0  0.1293575E-03  0.9968444E+03  0.7818609E-02  0.9312013E-01
        1   -1    0    0  501    0  0.00000000000E+00  0.00000000000E+00  0.93578322576E+03  0.93578322577E+03  0.50400001928E-02 0. -1.
       -1   -1    0    0    0  501  0.00000000000E+00  0.00000000000E+00 -0.26547245513E+03  0.26547245518E+03  0.50400001928E-02 0.  1.
    10030    2    1    2    0    0  0.00000000000E+00  0.00000000000E+00  0.67031077063E+03  0.12012556809E+04  0.99684436187E+03 0.  0.
        4    1    3    3  502    0 -0.24183414771E+03 -0.24287026456E+02 -0.18921736328E+03  0.30802343761E+03  0.12699999809E+01 0.  1.
       -4    1    3    3    0  502  0.24183414771E+03  0.24287026456E+02  0.85952813391E+03  0.89323224333E+03  0.12699999809E+01 0. -1.
</event>
<event>
 5   0  0.1293716E-03  0.1005129E+04  0.7818609E-02  0.9302937E-01
       -1   -1    0    0    0  501  0.00000000000E+00  0.00000000000E+00  0.27992462998E+03  0.27992463002E+03  0.50400001928E-02 0. -1.
        1   -1    0    0  501    0  0.00000000000E+00  0.00000000000E+00 -0.90228218269E+03  0.90228218270E+03  0.50400001928E-02 0.  1.
    10030    2    1    2    0    0  0.00000000000E+00  0.00000000000E+00 -0.62235755271E+03  0.11822068127E+04  0.10051288597E+04 0.  0.
        3    1    3    3  502    0 -0.72720196402E+01 -0.23610604583E+03 -0.83291791719E+03  0.86576625837E+03  0.10100000352E+00 0.  1.
       -3    1    3    3    0  502  0.72720196402E+01  0.23610604583E+03  0.21056036448E+03  0.31644055436E+03  0.10100000352E+00 0. -1.
</event>
<event>
 5   0  0.2284843E-03  0.1001773E+04  0.7818609E-02  0.9306603E-01
        2   -1    0    0  501    0  0.00000000000E+00  0.00000000000E+00  0.99653744488E+03  0.99653744488E+03  0.25500000920E-02 0. -1.
       -2   -1    0    0    0  501  0.00000000000E+00  0.00000000000E+00 -0.25175881986E+03  0.25175881987E+03  0.25500000920E-02 0.  1.
    10030    2    1    2    0    0  0.00000000000E+00  0.00000000000E+00  0.74477862502E+03  0.12482962648E+04  0.10017726111E+04 0.  0.
        2    1    3    3  502    0 -0.45505603816E+03  0.66496190654E+02  0.61969717479E+03  0.77170093281E+03  0.25500000920E-02 0. -1.
       -2    1    3    3    0  502  0.45505603816E+03 -0.66496190654E+02  0.12508145022E+03  0.47659533195E+03  0.25500000920E-02 0.  1.
</event>
<event>
 5   0  0.1293575E-03  0.1003666E+04  0.7818609E-02  0.9304533E-01
       -1   -1    0    0    0  501  0.00000000000E+00  0.00000000000E+00  0.35182648048E+03  0.35182648052E+03  0.50400001928E-02 0.  1.
        1   -1    0    0  501    0  0.00000000000E+00  0.00000000000E+00 -0.71579758778E+03  0.71579758780E+03  0.50400001928E-02 0. -1.
    10030    2    1    2    0    0  0.00000000000E+00  0.00000000000E+00 -0.36397110730E+03  0.10676240683E+04  0.10036663710E+04 0.  0.
        4    1    3    3  502    0  0.40269059167E+03 -0.39522377855E+02 -0.49774000034E+03  0.64145806707E+03  0.12699999809E+01 0. -1.
       -4    1    3    3    0  502 -0.40269059167E+03  0.39522377855E+02  0.13376889304E+03  0.42616600125E+03  0.12699999809E+01 0.  1.
</event>
<event>
 5   0  0.2204862E-03  0.1001997E+04  0.7818609E-02  0.9306357E-01
        2   -1    0    0  501    0  0.00000000000E+00  0.00000000000E+00  0.54010099977E+03  0.54010099977E+03  0.25500000920E-02 0. -1.
       -2   -1    0    0    0  501  0.00000000000E+00  0.00000000000E+00 -0.46472684077E+03  0.46472684077E+03  0.25500000920E-02 0.  1.
    10030    2    1    2    0    0  0.00000000000E+00  0.00000000000E+00  0.75374159000E+02  0.10048278405E+04  0.10019968689E+04 0.  0.
        1    1    3    3  502    0 -0.18163778338E+03  0.30679808687E+03 -0.31527621209E+03  0.47593743327E+03  0.50400001928E-02 0. -1.
       -1    1    3    3    0  502  0.18163778338E+03 -0.30679808687E+03  0.39065037109E+03  0.52889040728E+03  0.50400001928E-02 0.  1.
</event>
<event>
 5   0  0.1249195E-03  0.9971414E+03  0.7818609E-02  0.9311686E-01
        1   -1    0    0  501    0  0.00000000000E+00  0.00000000000E+00  0.10938399660E+04  0.10938399660E+04  0.50400001928E-02 0. -1.
       -1   -1    0    0    0  501  0.00000000000E+00  0.00000000000E+00 -0.22724781950E+03  0.22724781956E+03  0.50400001928E-02 0.  1.
    10030    2    1    2    0    0  0.00000000000E+00  0.00000000000E+00  0.86659214651E+03  0.13210877856E+04  0.99714140864E+03 0.  0.
        2    1    3    3  502    0 -0.35040664135E+03  0.34563836818E+03  0.53863864936E+03  0.72964531826E+03  0.25500000920E-02 0. -1.
       -2    1    3    3    0  502  0.35040664135E+03 -0.34563836818E+03  0.32795349715E+03  0.59144246733E+03  0.25500000920E-02 0.  1.
</event>
<event>
 5   0  0.1293575E-03  0.9997388E+03  0.7818609E-02  0.9308831E-01
        1   -1    0    0  501    0  0.00000000000E+00  0.00000000000E+00  0.86668489658E+03  0.86668489659E+03  0.50400001928E-02 0. -1.
       -1   -1    0    0    0  501  0.00000000000E+00  0.00000000000E+00 -0.28830478384E+03  0.28830478388E+03  0.50400001928E-02 0.  1.
    10030    2    1    2    0    0  0.00000000000E+00  0.00000000000E+00  0.57838011274E+03  0.11549896805E+04  0.99973876947E+03 0.  0.
        4    1    3    3  502    0  0.39561987648E+03 -0.29113616054E+03  0.39628026874E+03  0.63112202856E+03  0.12699999809E+01 0.  1.
       -4    1    3    3    0  502 -0.39561987648E+03  0.29113616054E+03  0.18209984400E+03  0.52386765191E+03  0.12699999809E+01 0. -1.
</event>
<event>
 5   0  0.2277570E-03  0.1000020E+04  0.7818609E-02  0.9308523E-01
        2   -1    0    0  501    0  0.00000000000E+00  0.00000000000E+00  0.65238383819E+03  0.65238383820E+03  0.25500000920E-02 0.  1.
       -2   -1    0    0    0  501  0.00000000000E+00  0.00000000000E+00 -0.38322540376E+03  0.38322540377E+03  0.25500000920E-02 0. -1.
    10030    2    1    2    0    0  0.00000000000E+00  0.00000000000E+00  0.26915843443E+03  0.10356092420E+04  0.10000201194E+04 0.  0.
        3    1    3    3  502    0 -0.27926736943E+03 -0.24934320209E+03 -0.20864883023E+03  0.42859846082E+03  0.10100000352E+00 0. -1.
       -3    1    3    3    0  502  0.27926736943E+03  0.24934320209E+03  0.47780726467E+03  0.60701078115E+03  0.10100000352E+00 0.  1.
</event>
<event>
 5   0  0.1293716E-03  0.1001981E+04  0.7818609E-02  0.9306375E-01
       -1   -1    0    0    0  501  0.00000000000E+00  0.00000000000E+00  0.38082069056E+03  0.38082069059E+03  0.50400001928E-02 0.  1.
        1   -1    0    0  501    0  0.00000000000E+00  0.00000000000E+00 -0.65908035758E+03  0.65908035760E+03  0.50400001928E-02 0. -1.
    10030    2    1    2    0    0  0.00000000000E+00  0.00000000000E+00 -0.27825966702E+03  0.10399010482E+04  0.10019809119E+04 0.  0.
        3    1    3    3  502    0 -0.98785734305E+02 -0.65446576693E+02 -0.64432654266E+03  0.65513249003E+03  0.10100000352E+00 0. -1.
       -3    1    3    3    0  502  0.98785734305E+02  0.65446576693E+02  0.36606687564E+03  0.38476855816E+03  0.10100000352E+00 0.  1.
</event>
<event>
 5   0  0.2284843E-03  0.1002748E+04  0.7818609E-02  0.9305536E-01
        2   -1    0    0  501    0  0.00000000000E+00  0.00000000000E+00  0.75534621093E+03  0.75534621094E+03  0.25500000920E-02 0. -1.
       -2   -1    0    0    0  501  0.00000000000E+00  0.00000000000E+00 -0.33279580187E+03  0.33279580188E+03  0.25500000920E-02 0.  1.
    10030    2    1    2    0    0  0.00000000000E+00  0.00000000000E+00  0.42255040906E+03  0.10881420128E+04  0.10027483193E+04 0.  0.
        2    1    3    3  502    0  0.21907686661E+03  0.40372288802E+03 -0.68100405999E+01  0.45938352219E+03  0.25500000920E-02 0.  1.
       -2    1    3    3    0  502 -0.21907686661E+03 -0.40372288802E+03  0.42936044966E+03  0.62875849063E+03  0.25500000920E-02 0. -1.
</event>
<event>
 5   0  0.2277570E-03  0.1002116E+04  0.7818609E-02  0.9306227E-01
        2   -1    0    0  501    0  0.00000000000E+00  0.00000000000E+00  0.78867629463E+03  0.78867629464E+03  0.25500000920E-02 0. -1.
       -2   -1    0    0    0  501  0.00000000000E+00  0.00000000000E+00 -0.31833002659E+03  0.31833002660E+03  0.25500000920E-02 0.  1.
    10030    2    1    2    0    0  0.00000000000E+00  0.00000000000E+00  0.47034626804E+03  0.11070063212E+04  0.10021164520E+04 0.  0.
        3    1    3    3  502    0 -0.12919846014E+03  0.13146203726E+03  0.74986421548E+03  0.77218576858E+03  0.10100000352E+00 0. -1.
       -3    1    3    3    0  502  0.12919846014E+03 -0.13146203726E+03 -0.27951794744E+03  0.33482055266E+03  0.10100000352E+00 0.  1.
</event>
<event>
 5   0  0.2284843E-03  0.1007884E+04  0.7818609E-02  0.9299940E-01
        2   -1    0    0  501    0  0.00000000000E+00  0.00000000000E+00  0.16955962930E+04  0.16955962930E+04  0.25500000920E-02 0. -1.
       -2   -1    0    0    0  501  0.00000000000E+00  0.00000000000E+00 -0.14977468671E+03  0.14977468673E+03  0.25500000920E-02 0.  1.
    10030    2    1    2    0    0  0.00000000000E+00  0.00000000000E+00  0.15458216063E+04  0.18453709797E+04  0.10078837306E+04 0.  0.
        2    1    3    3  502    0  0.25108713572E+03  0.23518891904E+03  0.98691446387E+02  0.35790861817E+03  0.25500000920E-02 0.  1.
       -2    1    3    3    0  502 -0.25108713572E+03 -0.23518891904E+03  0.14471301599E+04  0.14874623615E+04  0.25500000920E-02 0. -1.
</event>
<event>
 5   0  0.2255142E-03  0.9998210E+03  0.7818609E-02  0.9308741E-01
       -2   -1    0    0    0  501  0.00000000000E+00  0.00000000000E+00  0.87310722252E+02  0.87310722289E+02  0.25500000920E-02 0.  1.
        2   -1    0    0  501    0  0.00000000000E+00  0.00000000000E+00 -0.28623118876E+04  0.28623118876E+04  0.25500000920E-02 0. -1.
    10030    2    1    2    0    0  0.00000000000E+00  0.00000000000E+00 -0.27750011654E+04  0.29496226099E+04  0.99982102053E+03 0.  0.
        4    1    3    3  502    0  0.15975094735E+03  0.17716620218E+03 -0.26835561042E+04  0.26941386760E+04  0.12699999809E+01 0. -1.
       -4    1    3    3    0  502 -0.15975094735E+03 -0.17716620218E+03 -0.91445061210E+02  0.25548393393E+03  0.12699999809E+01 0.  1.
</event>
<event>
 5   0  0.1285769E-03  0.9402328E+03  0.7818609E-02  0.9376640E-01
       -1   -1    0    0    0  501  0.00000000000E+00  0.00000000000E+00  0.21909828147E+03  0.21909828153E+03  0.50400001928E-02 0. -1.
        1   -1    0    0  501    0  0.00000000000E+00  0.00000000000E+00 -0.10087228409E+04  0.10087228409E+04  0.50400001928E-02 0.  1.
    10030    2    1    2    0    0  0.00000000000E+00  0.00000000000E+00 -0.78962455943E+03  0.12278211224E+04  0.94023282429E+03 0.  0.
        5    1    3    3  502    0  0.18947813678E+03  0.43016153444E+03 -0.40371146413E+03  0.61963371946E+03  0.46999998093E+01 0.  1.
       -5    1    3    3    0  502 -0.18947813678E+03 -0.43016153444E+03 -0.38591309530E+03  0.60818740298E+03  0.46999998093E+01 0. -1.
</event>
<event>
 5   0  0.1293575E-03  0.9831407E+03  0.7818609E-02  0.9327231E-01
        1   -1    0    0  501    0  0.00000000000E+00  0.00000000000E+00  0.70728570959E+03  0.70728570961E+03  0.50400001928E-02 0.  1.
       -1   -1    0    0    0  501  0.00000000000E+00  0.00000000000E+00 -0.34164612947E+03  0.34164612951E+03  0.50400001928E-02 0. -1.
    10030    2    1    2    0    0  0.00000000000E+00  0.00000000000E+00  0.36563958012E+03  0.10489318391E+04  0.98314073284E+03 0.  0.
        4    1    3    3  502    0 -0.14016766623E+03  0.37170305180E+03 -0.12608915156E+03  0.41678558086E+03  0.12699999809E+01 0. -1.
       -4    1    3    3    0  502  0.14016766623E+03 -0.37170305180E+03  0.49172873168E+03  0.63214625826E+03  0.12699999809E+01 0.  1.
</event>
<event>
 5   0  0.2284843E-03  0.1000638E+04  0.7818609E-02  0.9307845E-01
        2   -1    0    0  501    0  0.00000000000E+00  0.00000000000E+00  0.11915977215E+04  0.11915977215E+04  0.25500000920E-02 0.  1.
       -2   -1    0    0    0  501  0.00000000000E+00  0.00000000000E+00 -0.21007030915E+03  0.21007030916E+03  0.25500000920E-02 0. -1.
    10030    2    1    2    0    0  0.00000000000E+00  0.00000000000E+00  0.98152741238E+03  0.14016680307E+04  0.10006383997E+04 0.  0.
        2    1    3    3  502    0 -0.22958056379E+02  0.30523392029E+03 -0.63603879321E+02  0.31263440617E+03  0.25500000920E-02 0. -1.
       -2    1    3    3    0  502  0.22958056379E+02 -0.30523392029E+03  0.10451312917E+04  0.10890336245E+04  0.25500000920E-02 0.  1.
</event>
<event>
 5   0  0.2284843E-03  0.1000478E+04  0.7818609E-02  0.9308021E-01
        2   -1    0    0  501    0  0.00000000000E+00  0.00000000000E+00  0.40797529980E+03  0.40797529981E+03  0.25500000920E-02 0.  1.
       -2   -1    0    0    0  501  0.00000000000E+00  0.00000000000E+00 -0.61336804878E+03  0.61336804879E+03  0.25500000920E-02 0. -1.
    10030    2    1    2    0    0  0.00000000000E+00  0.00000000000E+00 -0.20539274898E+03  0.10213433486E+04  0.10004779130E+04 0.  0.
        2    1    3    3  502    0  0.18088331597E+03 -0.35721643763E+03  0.20341843007E+03  0.44911180680E+03  0.25500000920E-02 0.  1.
       -2    1    3    3    0  502 -0.18088331597E+03  0.35721643763E+03 -0.40881117905E+03  0.57223154180E+03  0.25500000920E-02 0. -1.
</event>
<event>
 5   0  0.8680125E-04  0.9998756E+03  0.7818609E-02  0.9308681E-01
       -3   -1    0    0    0  501  0.00000000000E+00  0.00000000000E+00  0.57405695507E+03  0.57405696396E+03  0.10100000352E+00 0. -1.
        3   -1    0    0  501    0  0.00000000000E+00  0.00000000000E+00 -0.43538846646E+03  0.43538847818E+03  0.10100000352E+00 0.  1.
    10030    2    1    2    0    0  0.00000000000E+00  0.00000000000E+00  0.13866848861E+03  0.10094454421E+04  0.99987556772E+03 0.  0.
        2    1    3    3  502    0  0.26238186054E+03  0.14880881779E+03  0.47183477241E+03  0.56001460468E+03  0.25500000920E-02 0. -1.
       -2    1    3    3    0  502 -0.26238186054E+03 -0.14880881779E+03 -0.33316628380E+03  0.44943083746E+03  0.25500000920E-02 0.  1.
</event>
<event>
 5   0  0.2277570E-03  0.9510109E+03  0.7818609E-02  0.9363970E-01
        2   -1    0    0  501    0  0.00000000000E+00  0.00000000000E+00  0.18323155885E+04  0.18323155885E+04  0.25500000920E-02 0. -1.
       -2   -1    0    0    0  501  0.00000000000E+00  0.00000000000E+00 -0.12339874435E+03  0.12339874438E+03  0.25500000920E-02 0.  1.
    10030    2    1    2    0    0  0.00000000000E+00  0.00000000000E+00  0.17089168441E+04  0.19557143328E+04  0.95101092085E+03 0.  0.
        3    1    3    3  502    0  0.13328508630E+03 -0.43706990117E+03  0.11250247306E+04  0.12142798967E+04  0.10100000352E+00 0. -1.
       -3    1    3    3    0  502 -0.13328508630E+03  0.43706990117E+03  0.58389211349E+03  0.74143443617E+03  0.10100000352E+00 0.  1.
</event>
<event>
 5   0  0.8680125E-04  0.9859476E+03  0.7818609E-02  0.9324093E-01
       -4   -1    0    0    0  501  0.00000000000E+00  0.00000000000E+00  0.38097145641E+03  0.38097357323E+03  0.12699999809E+01 0. -1.
        4   -1    0    0  501    0  0.00000000000E+00  0.00000000000E+00 -0.63789934671E+03  0.63790061093E+03  0.12699999809E+01 0.  1.
    10030    2    1    2    0    0  0.00000000000E+00  0.00000000000E+00 -0.25692789030E+03  0.10188741842E+04  0.98594759614E+03 0.  0.
        5    1    3    3  502    0  0.35330607518E+03  0.10468964352E+03 -0.46683754227E+03  0.59476422647E+03  0.46999998093E+01 0.  1.
       -5    1    3    3    0  502 -0.35330607518E+03 -0.10468964352E+03  0.20990965198E+03  0.42410995769E+03  0.46999998093E+01 0. -1.
</event>
<event>
 5   0  0.1353789E-03  0.1003849E+04  0.7818609E-02  0.9304333E-01
       -1   -1    0    0    0  501  0.00000000000E+00  0.00000000000E+00  0.36542422452E+03  0.36542422455E+03  0.50400001928E-02 0. -1.
        1   -1    0    0  501    0  0.00000000000E+00  0.00000000000E+00 -0.68941335895E+03  0.68941335897E+03  0.50400001928E-02 0.  1.
    10030    2    1    2    0    0  0.00000000000E+00  0.00000000000E+00 -0.32398913443E+03  0.10548375835E+04  0.10038492757E+04 0.  0.
        1    1    3    3  502    0 -0.12302584405E+03 -0.21698413172E+03 -0.61967589366E+03  0.66799377611E+03  0.50400001928E-02 0.  1.
       -1    1    3    3    0  502  0.12302584405E+03  0.21698413172E+03  0.29568675922E+03  0.38684380741E+03  0.50400001928E-02 0. -1.
</event>
<event>
 5   0  0.2284843E-03  0.9929261E+03  0.7818609E-02  0.9316337E-01
       -2   -1    0    0    0  501  0.00000000000E+00  0.00000000000E+00  0.45847387508E+03  0.45847387509E+03  0.25500000920E-02 0. -1.
        2   -1    0    0  501    0  0.00000000000E+00  0.00000000000E+00 -0.53760003387E+03  0.53760003388E+03  0.25500000920E-02 0.  1.
    10030    2    1    2    0    0  0.00000000000E+00  0.00000000000E+00 -0.79126158790E+02  0.99607390897E+03  0.99292612168E+03 0.  0.
        2    1    3    3  502    0  0.35921749905E+03  0.32778982158E+03  0.60714770591E+02  0.49007107865E+03  0.25500000920E-02 0.  1.
       -2    1    3    3    0  502 -0.35921749905E+03 -0.32778982158E+03 -0.13984092938E+03  0.50600283032E+03  0.25500000920E-02 0. -1.
</event>
<event>
 5   0  0.2264577E-03  0.9926152E+03  0.7818609E-02  0.9316682E-01
        2   -1    0    0  501    0  0.00000000000E+00  0.00000000000E+00  0.32287762467E+03  0.32287762468E+03  0.25500000920E-02 0. -1.
       -2   -1    0    0    0  501  0.00000000000E+00  0.00000000000E+00 -0.76289352382E+03  0.76289352382E+03  0.25500000920E-02 0.  1.
    10030    2    1    2    0    0  0.00000000000E+00  0.00000000000E+00 -0.44001589915E+03  0.10857711485E+04  0.99261523030E+03 0.  0.
        5    1    3    3  502    0  0.55947778818E+02  0.32500317199E+03 -0.62567986293E+03  0.70728678528E+03  0.46999998093E+01 0.  1.
       -5    1    3    3    0  502 -0.55947778818E+02 -0.32500317199E+03  0.18566396378E+03  0.37848436322E+03  0.46999998093E+01 0. -1.
</event>
<event>
 5   0  0.8680125E-04  0.9979978E+03  0.7818609E-02  0.9310744E-01
       -4   -1    0    0    0  501  0.00000000000E+00  0.00000000000E+00  0.27638579955E+03  0.27638871738E+03  0.12699999809E+01 0. -1.
        4   -1    0    0  501    0  0.00000000000E+00  0.00000000000E+00 -0.90090608974E+03  0.90090698489E+03  0.12699999809E+01 0.  1.
    10030    2    1    2    0    0  0.00000000000E+00  0.00000000000E+00 -0.62452029019E+03  0.11772957023E+04  0.99799778442E+03 0.  0.
        3    1    3    3  502    0  0.16672615895E+03 -0.27800677243E+03 -0.75977583683E+03  0.82604159098E+03  0.10100000352E+00 0.  1.
       -3    1    3    3    0  502 -0.16672615895E+03  0.27800677243E+03  0.13525554664E+03  0.35125411129E+03  0.10100000352E+00 0. -1.
</event>
<event>
 5   0  0.1285769E-03  0.1005799E+04  0.7818609E-02  0.9302208E-01
        1   -1    0    0  501    0  0.00000000000E+00  0.00000000000E+00  0.12112402223E+04  0.12112402223E+04  0.50400001928E-02 0. -1.
       -1   -1    0    0    0  501  0.00000000000E+00  0.00000000000E+00 -0.20880064383E+03  0.20880064389E+03  0.50400001928E-02 0.  1.
    10030    2    1    2    0    0  0.00000000000E+00  0.00000000000E+00  0.10024395785E+04  0.14200408662E+04  0.10057986643E+04 0.  0.
        5    1    3    3  502    0 -0.19669594875E+03 -0.21513086106E+03 -0.77321845935E+02  0.30161455783E+03  0.46999998093E+01 0.  1.
       -5    1    3    3    0  502  0.19669594875E+03  0.21513086106E+03  0.10797614244E+04  0.11184263084E+04  0.46999998093E+01 0. -1.
</event>
<event>
 5   0  0.2255142E-03  0.1002743E+04  0.7818609E-02  0.9305541E-01
       -2   -1    0    0    0  501  0.00000000000E+00  0.00000000000E+00  0.10279725379E+03  0.10279725382E+03  0.25500000920E-02 0. -1.
        2   -1    0    0  501    0  0.00000000000E+00  0.00000000000E+00 -0.24453340666E+04  0.24453340666E+04  0.25500000920E-02 0.  1.
    10030    2    1    2    0    0  0.00000000000E+00  0.00000000000E+00 -0.23425368128E+04  0.25481313204E+04  0.10027434900E+04 0.  0.
        4    1    3    3  502    0 -0.14312742016E+03 -0.43596436991E+03 -0.16846935007E+04  0.17460653466E+04  0.12699999809E+01 0.  1.
       -4    1    3    3    0  502  0.14312742016E+03  0.43596436991E+03 -0.65784331206E+03  0.80206597382E+03  0.12699999809E+01 0. -1.
</event>
<event>
 5   0  0.1293716E-03  0.1000636E+04  0.7818609E-02  0.9307848E-01
        1   -1    0    0  501    0  0.00000000000E+00  0.00000000000E+00  0.12445145043E+04  0.12445145043E+04  0.50400001928E-02 0. -1.
       -1   -1    0    0    0  501  0.00000000000E+00  0.00000000000E+00 -0.20113701842E+03  0.20113701849E+03  0.50400001928E-02 0.  1.
    10030    2    1    2    0    0  0.00000000000E+00  0.00000000000E+00  0.10433774859E+04  0.14456515228E+04  0.10006356716E+04 0.  0.
        3    1    3    3  502    0  0.41749427237E+03  0.23481998839E+03  0.73043159659E+03  0.87348281145E+03  0.10100000352E+00 0. -1.
       -3    1    3    3    0  502 -0.41749427237E+03 -0.23481998839E+03  0.31294588927E+03  0.57216871133E+03  0.10100000352E+00 0.  1.
</event>
<event>
 5   0  0.1249195E-03  0.1001702E+04  0.7818609E-02  0.9306680E-01
       -1   -1    0    0    0  501  0.00000000000E+00  0.00000000000E+00  0.36732487737E+03  0.36732487740E+03  0.50400001928E-02 0. -1.
        1   -1    0    0  501    0  0.00000000000E+00  0.00000000000E+00 -0.68291517086E+03  0.68291517088E+03  0.50400001928E-02 0.  1.
    10030    2    1    2    0    0  0.00000000000E+00  0.00000000000E+00 -0.31559029349E+03  0.10502400483E+04  0.10017020144E+04 0.  0.
        2    1    3    3  502    0 -0.27455245528E+03  0.40713562584E+03 -0.54463678774E+02  0.49406959109E+03  0.25500000920E-02 0. -1.
       -2    1    3    3    0  502  0.27455245528E+03 -0.40713562584E+03 -0.26112661472E+03  0.55617045719E+03  0.25500000920E-02 0.  1.
</event>
<event>
 5   0  0.2284843E-03  0.9980539E+03  0.7818609E-02  0.9310682E-01
       -2   -1    0    0    0  501  0.00000000000E+00  0.00000000000E+00  0.35127760435E+03  0.35127760436E+03  0.25500000920E-02 0. -1.
        2   -1    0    0  501    0  0.00000000000E+00  0.00000000000E+00 -0.70892046297E+03  0.70892046298E+03  0.25500000920E-02 0.  1.
    10030    2    1    2    0    0  0.00000000000E+00  0.00000000000E+00 -0.35764285863E+03  0.10601980673E+04  0.99805387011E+03 0.  0.
        2    1    3    3  502    0 -0.42858141819E+03  0.21527868556E+03 -0.32394640208E+02  0.48070402244E+03  0.25500000920E-02 0. -1.
       -2    1    3    3    0  502  0.42858141819E+03 -0.21527868556E+03 -0.32524821842E+03  0.57949404489E+03  0.25500000920E-02 0.  1.
</event>
<event>
 5   0  0.2264577E-03  0.1004442E+04  0.7818609E-02  0.9303686E-01
       -2   -1    0    0    0  501  0.00000000000E+00  0.00000000000E+00  0.10026611419E+04  0.10026611419E+04  0.25500000920E-02 0. -1.
        2   -1    0    0  501    0  0.00000000000E+00  0.00000000000E+00 -0.25155647760E+03  0.25155647762E+03  0.25500000920E-02 0.  1.
    10030    2    1    2    0    0  0.00000000000E+00  0.00000000000E+00  0.75110466425E+03  0.12542176195E+04  0.10044419447E+04 0.  0.
        5    1    3    3  502    0 -0.23501676915E+03  0.26825291828E+03  0.81704419342E+03  0.89150199884E+03  0.46999998093E+01 0. -1.
       -5    1    3    3    0  502  0.23501676915E+03 -0.26825291828E+03 -0.65939529163E+02  0.36271562063E+03  0.46999998093E+01 0.  1.
</event>
<event>
 5   0  0.1293575E-03  0.9999065E+03  0.7818609E-02  0.9308647E-01
       -1   -1    0    0    0  501  0.00000000000E+00  0.00000000000E+00  0.18705983645E+03  0.18705983652E+03  0.50400001928E-02 0.  1.
        1   -1    0    0  501    0  0.00000000000E+00  0.00000000000E+00 -0.13362207126E+04  0.13362207126E+04  0.50400001928E-02 0. -1.
    10030    2    1    2    0    0  0.00000000000E+00  0.00000000000E+00 -0.11491608762E+04  0.15232805492E+04  0.99990645168E+03 0.  0.
        4    1    3    3  502    0 -0.47757261711E+03 -0.34493527236E+02 -0.79368981312E+03  0.92693610372E+03  0.12699999809E+01 0. -1.
       -4    1    3    3    0  502  0.47757261711E+03  0.34493527236E+02 -0.35547106306E+03  0.59634444544E+03  0.12699999809E+01 0.  1.
</event>
<event>
 5   0  0.2264577E-03  0.1001900E+04  0.7818609E-02  0.9306463E-01
        2   -1    0    0  501    0  0.00000000000E+00  0.00000000000E+00  0.70219545996E+03  0.70219545997E+03  0.25500000920E-02 0.  1.
       -2   -1    0    0    0  501  0.00000000000E+00  0.00000000000E+00 -0.35738049849E+03  0.35738049850E+03  0.25500000920E-02 0. -1.
    10030    2    1    2    0    0  0.00000000000E+00  0.00000000000E+00  0.34481496148E+03  0.10595759585E+04  0.10019001218E+04 0.  0.
        5    1    3    3  502    0 -0.19703983155E+03 -0.74838865426E+02  0.65299356143E+03  0.68618381813E+03  0.46999998093E+01 0.  1.
       -5    1    3    3    0  502  0.19703983155E+03  0.74838865426E+02 -0.30817859995E+03  0.37339214033E+03  0.46999998093E+01 0. -1.
</event>
<event>
 5   0  0.1293716E-03  0.9915560E+03  0.7818609E-02  0.9317855E-01
       -1   -1    0    0    0  501  0.00000000000E+00  0.00000000000E+00  0.18234464859E+03  0.18234464866E+03  0.50400001928E-02 0. -1.
        1   -1    0    0  501    0  0.00000000000E+00  0.00000000000E+00 -0.13479738077E+04  0.13479738077E+04  0.50400001928E-02 0.  1.
    10030    2    1    2    0    0  0.00000000000E+00  0.00000000000E+00 -0.11656291591E+04  0.15303184563E+04  0.99155596984E+03 0.  0.
        3    1    3    3  502    0  0.45565425125E+03 -0.19061742200E+03 -0.64901697664E+03  0.81558497069E+03  0.10100000352E+00 0.  1.
       -3    1    3    3    0  502 -0.45565425125E+03  0.19061742200E+03 -0.51661218244E+03  0.71473348564E+03  0.10100000352E+00 0. -1.
</event>
<event>
 5   0  0.2284843E-03  0.9988193E+03  0.7818609E-02  0.9309841E-01
        2   -1    0    0  501    0  0.00000000000E+00  0.00000000000E+00  0.93883136694E+03  0.93883136694E+03  0.25500000920E-02 0. -1.
       -2   -1    0    0    0  501  0.00000000000E+00  0.00000000000E+00 -0.26566008439E+03  0.26566008440E+03  0.25500000920E-02 0.  1.
    10030    2    1    2    0    0  0.00000000000E+00  0.00000000000E+00  0.67317128255E+03  0.12044914513E+04  0.99881934338E+03 0.  0.
        2    1    3    3  502    0 -0.11679327078E+03 -0.47446798947E+03  0.21213963635E+03  0.53269481549E+03  0.25500000920E-02 0.  1.
       -2    1    3    3    0  502  0.11679327078E+03  0.47446798947E+03  0.46103164621E+03  0.67179663585E+03  0.25500000920E-02 0. -1.
</event>
<event>
 5   0  0.2277570E-03  0.1000044E+04  0.7818609E-02  0.9308496E-01
        2   -1    0    0  501    0  0.00000000000E+00  0.00000000000E+00  0.48391229131E+03  0.48391229132E+03  0.25500000920E-02 0. -1.
       -2   -1    0    0    0  501  0.00000000000E+00  0.00000000000E+00 -0.51666830020E+03  0.51666830021E+03  0.25500000920E-02 0.  1.
    10030    2    1    2    0    0  0.00000000000E+00  0.00000000000E+00 -0.32756008889E+02  0.10005805915E+04  0.10000442810E+04 0.  0.
        3    1    3    3  502    0  0.39054351192E+03  0.28094676919E+03  0.11995514848E+03  0.49582715706E+03  0.10100000352E+00 0. -1.
       -3    1    3    3    0  502 -0.39054351192E+03 -0.28094676919E+03 -0.15271115737E+03  0.50475343447E+03  0.10100000352E+00 0.  1.
</event>
<event>
 5   0  0.2204862E-03  0.1000167E+04  0.7818609E-02  0.9308362E-01
       -2   -1    0    0    0  501  0.00000000000E+00  0.00000000000E+00  0.15465044920E+03  0.15465044922E+03  0.25500000920E-02 0. -1.
        2   -1    0    0  501    0  0.00000000000E+00  0.00000000000E+00 -0.16170873732E+04  0.16170873732E+04  0.25500000920E-02 0.  1.
    10030    2    1    2    0    0  0.00000000000E+00  0.00000000000E+00 -0.14624369240E+04  0.17717378225E+04  0.10001665635E+04 0.  0.
        1    1    3    3  502    0 -0.14843966540E+03  0.22636541068E+03 -0.14760836151E+04  0.15006993277E+04  0.50400001928E-02 0.  1.
       -1    1    3    3    0  502  0.14843966540E+03 -0.22636541068E+03  0.13646691091E+02  0.27103849472E+03  0.50400001928E-02 0. -1.
</event>
<event>
 5   0  0.1353789E-03  0.9974512E+03  0.7818609E-02  0.9311345E-01
       -1   -1    0    0    0  501  0.00000000000E+00  0.00000000000E+00  0.24232706495E+03  0.24232706500E+03  0.50400001928E-02 0. -1.
        1   -1    0    0  501    0  0.00000000000E+00  0.00000000000E+00 -0.10264112406E+04  0.10264112407E+04  0.50400001928E-02 0.  1.
    10030    2    1    2    0    0  0.00000000000E+00  0.00000000000E+00 -0.78408417570E+03  0.12687383057E+04  0.99745119865E+03 0.  0.
        1    1    3    3  502    0  0.74247265148E+02  0.25462621521E+03 -0.92926378627E+03  0.96637381502E+03  0.50400001928E-02 0.  1.
       -1    1    3    3    0  502 -0.74247265148E+02 -0.25462621521E+03  0.14517961057E+03  0.30236449065E+03  0.50400001928E-02 0. -1.
</event>
<event>
 5   0  0.2277570E-03  0.9989329E+03  0.7818609E-02  0.9309716E-01
        2   -1    0    0  501    0  0.00000000000E+00  0.00000000000E+00  0.66017265008E+03  0.66017265008E+03  0.25500000920E-02 0.  1.
       -2   -1    0    0    0  501  0.00000000000E+00  0.00000000000E+00 -0.37788104433E+03  0.37788104434E+03  0.25500000920E-02 0. -1.
    10030    2    1    2    0    0  0.00000000000E+00  0.00000000000E+00  0.28229160575E+03  0.10380536944E+04  0.99893289155E+03 0.  0.
        3    1    3    3  502    0 -0.17167207895E+03  0.43332245463E+03  0.32769522245E+03  0.56975768656E+03  0.10100000352E+00 0.  1.
       -3    1    3    3    0  502  0.17167207895E+03 -0.43332245463E+03 -0.45403616696E+02  0.46829600787E+03  0.10100000352E+00 0. -1.
</event>
<event>
 5   0  0.1293575E-03  0.9972879E+03  0.7818609E-02  0.9311524E-01
        1   -1    0    0  501    0  0.00000000000E+00  0.00000000000E+00  0.20850981745E+04  0.20850981745E+04  0.50400001928E-02 0. -1.
       -1   -1    0    0    0  501  0.00000000000E+00  0.00000000000E+00 -0.11924895333E+03  0.11924895343E+03  0.50400001928E-02 0.  1.
    10030    2    1    2    0    0  0.00000000000E+00  0.00000000000E+00  0.19658492212E+04  0.22043471279E+04  0.99728787221E+03 0.  0.
        4    1    3    3  502    0  0.72265055099E+02 -0.48503350537E+03  0.78320432149E+03  0.92406188192E+03  0.12699999809E+01 0.  1.
       -4    1    3    3    0  502 -0.72265055099E+02  0.48503350537E+03  0.11826448997E+04  0.12802852460E+04  0.12699999809E+01 0. -1.
</event>
<event>
 5   0  0.2264577E-03  0.9886654E+03  0.7818609E-02  0.9321064E-01
       -2   -1    0    0    0  501  0.00000000000E+00  0.00000000000E+00  0.31325931849E+03  0.31325931850E+03  0.25500000920E-02 0. -1.
        2   -1    0    0  501    0  0.00000000000E+00  0.00000000000E+00 -0.78007202514E+03  0.78007202515E+03  0.25500000920E-02 0.  1.
    10030    2    1    2    0    0  0.00000000000E+00  0.00000000000E+00 -0.46681270665E+03  0.10933313436E+04  0.98866542567E+03 0.  0.
        5    1    3    3  502    0  0.29772031827E+02  0.97217189380E+02 -0.76835881731E+03  0.77507091155E+03  0.46999998093E+01 0.  1.
       -5    1    3    3    0  502 -0.29772031827E+02 -0.97217189380E+02  0.30154611066E+03  0.31826043210E+03  0.46999998093E+01 0. -1.
</event>
<event>
 5   0  0.1293575E-03  0.9981652E+03  0.7818609E-02  0.9310559E-01
        1   -1    0    0  501    0  0.00000000000E+00  0.00000000000E+00  0.74872480673E+03  0.74872480674E+03  0.50400001928E-02 0.  1.
       -1   -1    0    0    0  501  0.00000000000E+00  0.00000000000E+00 -0.33267692352E+03  0.33267692356E+03  0.50400001928E-02 0. -1.
    10030    2    1    2    0    0  0.00000000000E+00  0.00000000000E+00  0.41604788320E+03  0.10814017303E+04  0.99816524743E+03 0.  0.
        4    1    3    3  502    0 -0.91852388824E+02 -0.42859861735E+03  0.46656211597E+03  0.64016830372E+03  0.12699999809E+01 0.  1.
       -4    1    3    3    0  502  0.91852388824E+02  0.42859861735E+03 -0.50514232765E+02  0.44123342659E+03  0.12699999809E+01 0. -1.
</event>
<event>
 5   0  0.1293716E-03  0.1002743E+04  0.7818609E-02  0.9305541E-01
        1   -1    0    0  501    0  0.00000000000E+00  0.00000000000E+00  0.22366729580E+03  0.22366729586E+03  0.50400001928E-02 0. -1.
       -1   -1    0    0    0  501  0.00000000000E+00  0.00000000000E+00 -0.11238725684E+04  0.11238725684E+04  0.50400001928E-02 0.  1.
    10030    2    1    2    0    0  0.00000000000E+00  0.00000000000E+00 -0.90020527262E+03  0.13475398643E+04  0.10027433136E+04 0.  0.
        3    1    3    3  502    0 -0.14543652328E+03  0.38904170961E+03 -0.72701615798E+02  0.42165242708E+03  0.10100000352E+00 0. -1.
       -3    1    3    3    0  502  0.14543652328E+03 -0.38904170961E+03 -0.82750365682E+03  0.92588743720E+03  0.10100000352E+00 0.  1.
</event>
<event>
 5   0  0.2204862E-03  0.1002288E+04  0.7818609E-02  0.9306039E-01
       -2   -1    0    0    0  501  0.00000000000E+00  0.00000000000E+00  0.30010317160E+03  0.30010317161E+03  0.25500000920E-02 0.  1.
        2   -1    0    0  501    0  0.00000000000E+00  0.00000000000E+00 -0.83686340702E+03  0.83686340702E+03  0.25500000920E-02 0. -1.
    10030    2    1    2    0    0  0.00000000000E+00  0.00000000000E+00 -0.53676023542E+03  0.11369665786E+04  0.10022881076E+04 0.  0.
        1    1    3    3  502    0  0.89043849001E+02 -0.15542512878E+03  0.26254864250E+03  0.31783260910E+03  0.50400001928E-02 0.  1.
       -1    1    3    3    0  502 -0.89043849001E+02  0.15542512878E+03 -0.79930887792E+03  0.81913396953E+03  0.50400001928E-02 0. -1.
</event>
<event>
 5   0  0.2255142E-03  0.1002427E+04  0.7818609E-02  0.9305887E-01
       -2   -1    0    0    0  501  0.00000000000E+00  0.00000000000E+00  0.44862200255E+03  0.44862200256E+03  0.25500000920E-02 0. -1.
        2   -1    0    0  501    0  0.00000000000E+00  0.00000000000E+00 -0.55997013077E+03  0.55997013077E+03  0.25500000920E-02 0.  1.
    10030    2    1    2    0    0  0.00000000000E+00  0.00000000000E+00 -0.11134812822E+03  0.10085921333E+04  0.10024268980E+04 0.  0.
        4    1    3    3  502    0  0.46090883491E+03  0.19368856665E+03 -0.91404352720E+02  0.50824067483E+03  0.12699999809E+01 0. -1.
       -4    1    3    3    0  502 -0.46090883491E+03 -0.19368856665E+03 -0.19943775496E+02  0.50035145851E+03  0.12699999809E+01 0.  1.
</event>
<event>
 5   0  0.2277570E-03  0.1011158E+04  0.7818609E-02  0.9296391E-01
        2   -1    0    0  501    0  0.00000000000E+00  0.00000000000E+00  0.80063473580E+03  0.80063473581E+03  0.25500000920E-02 0.  1.
       -2   -1    0    0    0  501  0.00000000000E+00  0.00000000000E+00 -0.31925923467E+03  0.31925923468E+03  0.25500000920E-02 0. -1.
    10030    2    1    2    0    0  0.00000000000E+00  0.00000000000E+00  0.48137550113E+03  0.11198939705E+04  0.10111578176E+04 0.  0.
        3    1    3    3  502    0  0.31936626513E+03 -0.37673090041E+03  0.36042999336E+03  0.61141702049E+03  0.10100000352E+00 0.  1.
       -3    1    3    3    0  502 -0.31936626513E+03  0.37673090041E+03  0.12094550777E+03  0.50847695000E+03  0.10100000352E+00 0. -1.
</event>
<event>
 5   0  0.1249195E-03  0.1001196E+04  0.7818609E-02  0.9307234E-01
       -1   -1    0    0    0  501  0.00000000000E+00  0.00000000000E+00  0.40411839232E+03  0.40411839235E+03  0.50400001928E-02 0.  1.
        1   -1    0    0  501    0  0.00000000000E+00  0.00000000000E+00 -0.62011072039E+03  0.62011072041E+03  0.50400001928E-02 0. -1.
    10030    2    1    2    0    0  0.00000000000E+00  0.00000000000E+00 -0.21599232807E+03  0.10242291128E+04  0.10011955801E+04 0.  0.
        2    1    3    3  502    0 -0.43156363823E+03  0.11969258184E+03 -0.33680366756E+03  0.56036612896E+03  0.25500000920E-02 0. -1.
       -2    1    3    3    0  502  0.43156363823E+03 -0.11969258184E+03  0.12081133949E+03  0.46386298381E+03  0.25500000920E-02 0.  1.
</event>
<event>
 5   0  0.1249195E-03  0.1001271E+04  0.7818609E-02  0.9307152E-01
        1   -1    0    0  501    0  0.00000000000E+00  0.00000000000E+00  0.20172567242E+04  0.20172567242E+04  0.50400001928E-02 0. -1.
       -1   -1    0    0    0  501  0.00000000000E+00  0.00000000000E+00 -0.12424589192E+03  0.12424589202E+03  0.50400001928E-02 0.  1.
    10030    2    1    2    0    0  0.00000000000E+00  0.00000000000E+00  0.18930108323E+04  0.21415026162E+04  0.10012709145E+04 0.  0.
        2    1    3    3  502    0  0.47878745686E+03  0.14520162660E+03  0.98446024263E+03  0.11043020015E+04  0.25500000920E-02 0. -1.
       -2    1    3    3    0  502 -0.47878745686E+03 -0.14520162660E+03  0.90855058966E+03  0.10372006147E+04  0.25500000920E-02 0.  1.
</event>
<event>
 5   0  0.2264577E-03  0.1006027E+04  0.7818609E-02  0.9301959E-01
       -2   -1    0    0    0  501  0.00000000000E+00  0.00000000000E+00  0.57017467384E+03  0.57017467385E+03  0.25500000920E-02 0. -1.
        2   -1    0    0  501    0  0.00000000000E+00  0.00000000000E+00 -0.44376356635E+03  0.44376356636E+03  0.25500000920E-02 0.  1.
    10030    2    1    2    0    0  0.00000000000E+00  0.00000000000E+00  0.12641110749E+03  0.10139382402E+04  0.10060273291E+04 0.  0.
        5    1    3    3  502    0 -0.55611669480E+02  0.72195819987E+02 -0.43535159534E+03  0.44481231522E+03  0.46999998093E+01 0.  1.
       -5    1    3    3    0  502  0.55611669480E+02 -0.72195819987E+02  0.56176270283E+03  0.56912592499E+03  0.46999998093E+01 0. -1.
</event>
<event>
 5   0  0.1353789E-03  0.9986311E+03  0.7818609E-02  0.9310047E-01
       -1   -1    0    0    0  501  0.00000000000E+00  0.00000000000E+00  0.41597842046E+03  0.41597842049E+03  0.50400001928E-02 0.  1.
        1   -1    0    0  501    0  0.00000000000E+00  0.00000000000E+00 -0.59934849016E+03  0.59934849018E+03  0.50400001928E-02 0. -1.
    10030    2    1    2    0    0  0.00000000000E+00  0.00000000000E+00 -0.18337006970E+03  0.10153269107E+04  0.99863113964E+03 0.  0.
        1    1    3    3  502    0 -0.70020675241E+02 -0.41080817982E+02 -0.59259365284E+03  0.59812855306E+03  0.50400001928E-02 0. -1.
       -1    1    3    3    0  502  0.70020675241E+02  0.41080817982E+02  0.40922358314E+03  0.41719835761E+03  0.50400001928E-02 0.  1.
</event>
<event>
 5   0  0.2277570E-03  0.1000917E+04  0.7818609E-02  0.9307540E-01
        2   -1    0    0  501    0  0.00000000000E+00  0.00000000000E+00  0.18340676924E+04  0.18340676924E+04  0.25500000920E-02 0.  1.
       -2   -1    0    0    0  501  0.00000000000E+00  0.00000000000E+00 -0.13655916070E+03  0.13655916072E+03  0.25500000920E-02 0. -1.
    10030    2    1    2    0    0  0.00000000000E+00  0.00000000000E+00  0.16975085317E+04  0.19706268531E+04  0.10009170690E+04 0.  0.
        3    1    3    3  502    0  0.31614948920E+03  0.22430217901E+02  0.86220037541E+02  0.32846235594E+03  0.10100000352E+00 0. -1.
       -3    1    3    3    0  502 -0.31614948920E+03 -0.22430217901E+02  0.16112884941E+04  0.16421644972E+04  0.10100000352E+00 0.  1.
</event>
<event>
 5   0  0.1249195E-03  0.1002666E+04  0.7818609E-02  0.9305625E-01
       -1   -1    0    0    0  501  0.00000000000E+00  0.00000000000E+00  0.66469843838E+03  0.66469843840E+03  0.50400001928E-02 0. -1.
        1   -1    0    0  501    0  0.00000000000E+00  0.00000000000E+00 -0.37811871587E+03  0.37811871590E+03  0.50400001928E-02 0.  1.
    10030    2    1    2    0    0  0.00000000000E+00  0.00000000000E+00  0.28657972251E+03  0.10428171543E+04  0.10026662854E+04 0.  0.
        2    1    3    3  502    0 -0.12408827352E+02  0.78333627096E+02  0.65813247418E+03  0.66289402600E+03  0.25500000920E-02 0. -1.
       -2    1    3    3    0  502  0.12408827352E+02 -0.78333627096E+02 -0.37155275167E+03  0.37992312829E+03  0.25500000920E-02 0.  1.
</event>
<event>
 5   0  0.1293575E-03  0.1004926E+04  0.7818609E-02  0.9303158E-01
       -1   -1    0    0    0  501  0.00000000000E+00  0.00000000000E+00  0.19599236878E+03  0.19599236885E+03  0.50400001928E-02 0. -1.
        1   -1    0    0  501    0  0.00000000000E+00  0.00000000000E+00 -0.12881576747E+04  0.12881576748E+04  0.50400001928E-02 0.  1.
    10030    2    1    2    0    0  0.00000000000E+00  0.00000000000E+00 -0.10921653060E+04  0.14841500436E+04  0.10049260154E+04 0.  0.
        4    1    3    3  502    0  0.80901910417E+02  0.48165026307E+02  0.18284523416E+03  0.20566716175E+03  0.12699999809E+01 0. -1.
       -4    1    3    3    0  502 -0.80901910417E+02 -0.48165026307E+02 -0.12750105401E+04  0.12784828818E+04  0.12699999809E+01 0.  1.
</event>
<event>
 5   0  0.1285769E-03  0.9937668E+03  0.7818609E-02  0.9315408E-01
       -1   -1    0    0    0  501  0.00000000000E+00  0.00000000000E+00  0.50988136925E+03  0.50988136927E+03  0.50400001928E-02 0. -1.
        1   -1    0    0  501    0  0.00000000000E+00  0.00000000000E+00 -0.48421676158E+03  0.48421676160E+03  0.50400001928E-02 0.  1.
    10030    2    1    2    0    0  0.00000000000E+00  0.00000000000E+00  0.25664607671E+02  0.99409813088E+03  0.99376678438E+03 0.  0.
        5    1    3    3  502    0  0.74536384433E+02  0.24826408013E+03 -0.41119614929E+03  0.48610193301E+03  0.46999998093E+01 0.  1.
       -5    1    3    3    0  502 -0.74536384433E+02 -0.24826408013E+03  0.43686075696E+03  0.50799619787E+03  0.46999998093E+01 0. -1.
</event>
<event>
 5   0  0.2255142E-03  0.1001105E+04  0.7818609E-02  0.9307334E-01
       -2   -1    0    0    0  501  0.00000000000E+00  0.00000000000E+00  0.13772159576E+03  0.13772159579E+03  0.25500000920E-02 0.  1.
        2   -1    0    0  501    0  0.00000000000E+00  0.00000000000E+00 -0.18192689769E+04  0.18192689769E+04  0.25500000920E-02 0. -1.
    10030    2    1    2    0    0  0.00000000000E+00  0.00000000000E+00 -0.16815473811E+04  0.19569905727E+04  0.10011046432E+04 0.  0.
        4    1    3    3  502    0 -0.12932177351E+03  0.12362674465E+03 -0.17546302359E+04  0.17637280319E+04  0.12699999809E+01 0. -1.
       -4    1    3    3    0  502  0.12932177351E+03 -0.12362674465E+03  0.73082854742E+02  0.19326254075E+03  0.12699999809E+01 0.  1.
</event>
<event>
 5   0  0.1285769E-03  0.9962782E+03  0.7818609E-02  0.9312636E-01
        1   -1    0    0  501    0  0.00000000000E+00  0.00000000000E+00  0.16582103397E+04  0.16582103397E+04  0.50400001928E-02 0. -1.
       -1   -1    0    0    0  501  0.00000000000E+00  0.00000000000E+00 -0.14964480081E+03  0.14964480090E+03  0.50400001928E-02 0.  1.
    10030    2    1    2    0    0  0.00000000000E+00  0.00000000000E+00  0.15085655389E+04  0.18078551406E+04  0.99627818620E+03 0.  0.
        5    1    3    3  502    0  0.84006191390E+02 -0.29736112667E+03  0.45330688458E+02  0.31234218601E+03  0.46999998093E+01 0.  1.
       -5    1    3    3    0  502 -0.84006191390E+02  0.29736112667E+03  0.14632348504E+04  0.14955129546E+04  0.46999998093E+01 0. -1.
</event>
<event>
 5   0  0.2284843E-03  0.1004228E+04  0.7818609E-02  0.9303920E-01
       -2   -1    0    0    0  501  0.00000000000E+00  0.00000000000E+00  0.12840929949E+03  0.12840929952E+03  0.25500000920E-02 0.  1.
        2   -1    0    0  501    0  0.00000000000E+00  0.00000000000E+00 -0.19633970901E+04  0.19633970901E+04  0.25500000920E-02 0. -1.
    10030    2    1    2    0    0  0.00000000000E+00  0.00000000000E+00 -0.18349877906E+04  0.20918063896E+04  0.10042279522E+04 0.  0.
        2    1    3    3  502    0  0.60507095124E+02  0.94698868860E+02 -0.19368651498E+04  0.19401225716E+04  0.25500000920E-02 0. -1.
       -2    1    3    3    0  502 -0.60507095124E+02 -0.94698868860E+02  0.10187735920E+03  0.15168381801E+03  0.25500000920E-02 0.  1.
</event>
<event>
 5   0  0.1249195E-03  0.9998939E+03  0.7818609E-02  0.9308661E-01
        1   -1    0    0  501    0  0.00000000000E+00  0.00000000000E+00  0.78133804869E+03  0.78133804870E+03  0.50400001928E-02 0. -1.
       -1   -1    0    0    0  501  0.00000000000E+00  0.00000000000E+00 -0.31989606960E+03  0.31989606964E+03  0.50400001928E-02 0.  1.
    10030    2    1    2    0    0  0.00000000000E+00  0.00000000000E+00  0.46144197908E+03  0.11012341183E+04  0.99989393605E+03 0.  0.
        2    1    3    3  502    0  0.18769785451E+03 -0.37684013313E+03 -0.66251913102E+02  0.42617870256E+03  0.25500000920E-02 0.  1.
       -2    1    3    3    0  502 -0.18769785451E+03  0.37684013313E+03  0.52769389218E+03  0.67505541578E+03  0.25500000920E-02 0. -1.
</event>
<event>
 5   0  0.1353789E-03  0.9646697E+03  0.7818609E-02  0.9348166E-01
        1   -1    0    0  501    0  0.00000000000E+00  0.00000000000E+00  0.15936622013E+04  0.15936622013E+04  0.50400001928E-02 0.  1.
       -1   -1    0    0    0  501  0.00000000000E+00  0.00000000000E+00 -0.14598256365E+03  0.14598256374E+03  0.50400001928E-02 0. -1.
    10030    2    1    2    0    0  0.00000000000E+00  0.00000000000E+00  0.14476796376E+04  0.17396447650E+04  0.96466967158E+03 0.  0.
        1    1    3    3  502    0  0.28983992264E+03 -0.30164321384E+03  0.29084201793E+03  0.50949473857E+03  0.50400001928E-02 0. -1.
       -1    1    3    3    0  502 -0.28983992264E+03  0.30164321384E+03  0.11568376197E+04  0.12301500264E+04  0.50400001928E-02 0.  1.
</event>
<event>
 5   0  0.2284843E-03  0.9614821E+03  0.7818609E-02  0.9351830E-01
       -2   -1    0    0    0  501  0.00000000000E+00  0.00000000000E+00  0.56009270921E+03  0.56009270921E+03  0.25500000920E-02 0.  1.
        2   -1    0    0  501    0  0.00000000000E+00  0.00000000000E+00 -0.41263163183E+03  0.41263163184E+03  0.25500000920E-02 0. -1.
    10030    2    1    2    0    0  0.00000000000E+00  0.00000000000E+00  0.14746107738E+03  0.97272434105E+03  0.96148212377E+03 0.  0.
        2    1    3    3  502    0  0.23263762736E+02 -0.40319368794E+03  0.33755858333E+03  0.52635743544E+03  0.25500000920E-02 0.  1.
       -2    1    3    3    0  502 -0.23263762736E+02  0.40319368794E+03 -0.19009750596E+03  0.44636690561E+03  0.25500000920E-02 0. -1.
</event>
<event>
 5   0  0.2204862E-03  0.9927735E+03  0.7818609E-02  0.9316506E-01
       -2   -1    0    0    0  501  0.00000000000E+00  0.00000000000E+00  0.28942641678E+03  0.28942641679E+03  0.25500000920E-02 0. -1.
        2   -1    0    0  501    0  0.00000000000E+00  0.00000000000E+00 -0.85133837982E+03  0.85133837983E+03  0.25500000920E-02 0.  1.
    10030    2    1    2    0    0  0.00000000000E+00  0.00000000000E+00 -0.56191196305E+03  0.11407647966E+04  0.99277352250E+03 0.  0.
        1    1    3    3  502    0 -0.63929728258E+02  0.45379078411E+03 -0.61767643488E+02  0.46241575201E+03  0.50400001928E-02 0. -1.
       -1    1    3    3    0  502  0.63929728258E+02 -0.45379078411E+03 -0.50014431956E+03  0.67834904460E+03  0.50400001928E-02 0.  1.
</event>
<event>
 5   0  0.1249195E-03  0.1000031E+04  0.7818609E-02  0.9308510E-01
        1   -1    0    0  501    0  0.00000000000E+00  0.00000000000E+00  0.11171057566E+04  0.11171057566E+04  0.50400001928E-02 0.  1.
       -1   -1    0    0    0  501  0.00000000000E+00  0.00000000000E+00 -0.22380662681E+03  0.22380662686E+03  0.50400001928E-02 0. -1.
    10030    2    1    2    0    0  0.00000000000E+00  0.00000000000E+00  0.89329912980E+03  0.13409123835E+04  0.10000313420E+04 0.  0.
        2    1    3    3  502    0 -0.41911420305E+02 -0.42001192217E+03  0.80606557935E+03  0.90989466431E+03  0.25500000920E-02 0.  1.
       -2    1    3    3    0  502  0.41911420305E+02  0.42001192217E+03  0.87233550450E+02  0.43101771918E+03  0.25500000920E-02 0. -1.
</event>
<event>
 5   0  0.1353789E-03  0.9990928E+03  0.7818609E-02  0.9309540E-01
       -1   -1    0    0    0  501  0.00000000000E+00  0.00000000000E+00  0.25121464679E+03  0.25121464684E+03  0.50400001928E-02 0.  1.
        1   -1    0    0  501    0  0.00000000000E+00  0.00000000000E+00 -0.99336007926E+03  0.99336007927E+03  0.50400001928E-02 0. -1.
    10030    2    1    2    0    0  0.00000000000E+00  0.00000000000E+00 -0.74214543247E+03  0.12445747261E+04  0.99909279146E+03 0.  0.
        1    1    3    3  502    0 -0.18672675351E+03 -0.15324885866E+03  0.17362161918E+03  0.29748371356E+03  0.50400001928E-02 0.  1.
       -1    1    3    3    0  502  0.18672675351E+03  0.15324885866E+03 -0.91576705165E+03  0.94709101256E+03  0.50400001928E-02 0. -1.
</event>
<event>
 5   0  0.1293575E-03  0.1012519E+04  0.7818609E-02  0.9294919E-01
        1   -1    0    0  501    0  0.00000000000E+00  0.00000000000E+00  0.94687139772E+03  0.94687139774E+03  0.50400001928E-02 0.  1.
       -1   -1    0    0    0  501  0.00000000000E+00  0.00000000000E+00 -0.27067967750E+03  0.27067967754E+03  0.50400001928E-02 0. -1.
    10030    2    1    2    0    0  0.00000000000E+00  0.00000000000E+00  0.67619172023E+03  0.12175510753E+04  0.10125193225E+04 0.  0.
        4    1    3    3  502    0 -0.18164591839E+03  0.46807574608E+03  0.26009944080E+03  0.56545864193E+03  0.12699999809E+01 0. -1.
       -4    1    3    3    0  502  0.18164591839E+03 -0.46807574608E+03  0.41609227942E+03  0.65209243335E+03  0.12699999809E+01 0.  1.
</event>
<event>
 5   0  0.2255142E-03  0.9995470E+03  0.7818609E-02  0.9309042E-01
        2   -1    0    0  501    0  0.00000000000E+00  0.00000000000E+00  0.23204356820E+03  0.23204356822E+03  0.25500000920E-02 0.  1.
       -2   -1    0    0    0  501  0.00000000000E+00  0.00000000000E+00 -0.10764080215E+04  0.10764080215E+04  0.25500000920E-02 0. -1.
    10030    2    1    2    0    0  0.00000000000E+00  0.00000000000E+00 -0.84436445327E+03  0.13084515897E+04  0.99954701371E+03 0.  0.
        4    1    3    3  502    0 -0.32288335371E+03 -0.29219183969E+03 -0.74321113272E+03  0.86139081257E+03  0.12699999809E+01 0. -1.
       -4    1    3    3    0  502  0.32288335371E+03  0.29219183969E+03 -0.10115332055E+03  0.44706077712E+03  0.12699999809E+01 0.  1.
</event>
<event>
 5   0  0.1293716E-03  0.9996305E+03  0.7818609E-02  0.9308950E-01
       -1   -1    0    0    0  501  0.00000000000E+00  0.00000000000E+00  0.56822026048E+03  0.56822026051E+03  0.50400001928E-02 0.  1.
        1   -1    0    0  501    0  0.00000000000E+00  0.00000000000E+00 -0.43964513606E+03  0.43964513609E+03  0.50400001928E-02 0. -1.
    10030    2    1    2    0    0  0.00000000000E+00  0.00000000000E+00  0.12857512442E+03  0.10078653966E+04  0.99963047925E+03 0.  0.
        3    1    3    3  502    0 -0.89616636392E+02  0.48334576114E+03 -0.26794878635E+02  0.49231315446E+03  0.10100000352E+00 0. -1.
       -3    1    3    3    0  502  0.89616636392E+02 -0.48334576114E+03  0.15537000306E+03  0.51555224214E+03  0.10100000352E+00 0.  1.
</event>
<event>
 5   0  0.1353789E-03  0.9790559E+03  0.7818609E-02  0.9331819E-01
       -1   -1    0    0    0  501  0.00000000000E+00  0.00000000000E+00  0.14001290632E+03  0.14001290641E+03  0.50400001928E-02 0. -1.
        1   -1    0    0  501    0  0.00000000000E+00  0.00000000000E+00 -0.17115393456E+04  0.17115393456E+04  0.50400001928E-02 0.  1.
    10030    2    1    2    0    0  0.00000000000E+00  0.00000000000E+00 -0.15715264392E+04  0.18515522520E+04  0.97905586795E+03 0.  0.
        1    1    3    3  502    0  0.43257045762E+03  0.18500978845E+02 -0.12177522059E+04  0.12924317862E+04  0.50400001928E-02 0.  1.
       -1    1    3    3    0  502 -0.43257045762E+03 -0.18500978845E+02 -0.35377423331E+03  0.55912046573E+03  0.50400001928E-02 0. -1.
</event>
<event>
 5   0  0.1353789E-03  0.9996274E+03  0.7818609E-02  0.9308954E-01
       -1   -1    0    0    0  501  0.00000000000E+00  0.00000000000E+00  0.29653446177E+03  0.29653446181E+03  0.50400001928E-02 0.  1.
        1   -1    0    0  501    0  0.00000000000E+00  0.00000000000E+00 -0.84244426449E+03  0.84244426450E+03  0.50400001928E-02 0. -1.
    10030    2    1    2    0    0  0.00000000000E+00  0.00000000000E+00 -0.54590980272E+03  0.11389787263E+04  0.99962744374E+03 0.  0.
        1    1    3    3  502    0  0.37670550453E+03  0.27070653209E+03 -0.48497176550E+03  0.67110854340E+03  0.50400001928E-02 0. -1.
       -1    1    3    3    0  502 -0.37670550453E+03 -0.27070653209E+03 -0.60938037217E+02  0.46787018292E+03  0.50400001928E-02 0.  1.
</event>
<event>
 5   0  0.2255142E-03  0.9980608E+03  0.7818609E-02  0.9310674E-01
        2   -1    0    0  501    0  0.00000000000E+00  0.00000000000E+00  0.86041332257E+03  0.86041332257E+03  0.25500000920E-02 0.  1.
       -2   -1    0    0    0  501  0.00000000000E+00  0.00000000000E+00 -0.28943223085E+03  0.28943223086E+03  0.25500000920E-02 0. -1.
    10030    2    1    2    0    0  0.00000000000E+00  0.00000000000E+00  0.57098109171E+03  0.11498455534E+04  0.99806081461E+03 0.  0.
        4    1    3    3  502    0  0.26922643884E+03 -0.28845713727E+03 -0.66486924727E+02  0.40014062462E+03  0.12699999809E+01 0. -1.
       -4    1    3    3    0  502 -0.26922643884E+03  0.28845713727E+03  0.63746801644E+03  0.74970492882E+03  0.12699999809E+01 0.  1.
</event>
<event>
 5   0  0.2277570E-03  0.1002095E+04  0.7818609E-02  0.9306250E-01
       -2   -1    0    0    0  501  0.00000000000E+00  0.00000000000E+00  0.35174187886E+03  0.35174187887E+03  0.25500000920E-02 0.  1.
        2   -1    0    0  501    0  0.00000000000E+00  0.00000000000E+00 -0.71372954274E+03  0.71372954274E+03  0.25500000920E-02 0. -1.
    10030    2    1    2    0    0  0.00000000000E+00  0.00000000000E+00 -0.36198766387E+03  0.10654714216E+04  0.10020949463E+04 0.  0.
        3    1    3    3  502    0 -0.75881435405E+02  0.44876800471E+03 -0.40376272056E+03  0.60842013363E+03  0.10100000352E+00 0. -1.
       -3    1    3    3    0  502  0.75881435405E+02 -0.44876800471E+03  0.41775056688E+02  0.45705128799E+03  0.10100000352E+00 0.  1.
</event>
<event>
 5   0  0.2264577E-03  0.1000396E+04  0.7818609E-02  0.9308111E-01
       -2   -1    0    0    0  501  0.00000000000E+00  0.00000000000E+00  0.12678712161E+03  0.12678712164E+03  0.25500000920E-02 0.  1.
        2   -1    0    0  501    0  0.00000000000E+00  0.00000000000E+00 -0.19733696816E+04  0.19733696816E+04  0.25500000920E-02 0. -1.
    10030    2    1    2    0    0  0.00000000000E+00  0.00000000000E+00 -0.18465825600E+04  0.21001568032E+04  0.10003956454E+04 0.  0.
        5    1    3    3  502    0  0.11162608610E+03  0.25419336326E+03 -0.17967248330E+04  0.18180530422E+04  0.46999998093E+01 0. -1.
       -5    1    3    3    0  502 -0.11162608610E+03 -0.25419336326E+03 -0.49857727014E+02  0.28210376099E+03  0.46999998093E+01 0.  1.
</event>
<event>
 5   0  0.2277570E-03  0.1001920E+04  0.7818609E-02  0.9306441E-01
       -2   -1    0    0    0  501  0.00000000000E+00  0.00000000000E+00  0.25586786440E+03  0.25586786441E+03  0.25500000920E-02 0.  1.
        2   -1    0    0  501    0  0.00000000000E+00  0.00000000000E+00 -0.98082243669E+03  0.98082243669E+03  0.25500000920E-02 0. -1.
    10030    2    1    2    0    0  0.00000000000E+00  0.00000000000E+00 -0.72495457229E+03  0.12366903011E+04  0.10019200412E+04 0.  0.
        3    1    3    3  502    0  0.20218888313E+03  0.18182304524E+03 -0.88180350179E+03  0.92277699918E+03  0.10100000352E+00 0. -1.
       -3    1    3    3    0  502 -0.20218888313E+03 -0.18182304524E+03  0.15684892950E+03  0.31391330193E+03  0.10100000352E+00 0.  1.
</event>
<event>
 5   0  0.1285769E-03  0.9931430E+03  0.7818609E-02  0.9316098E-01
        1   -1    0    0  501    0  0.00000000000E+00  0.00000000000E+00  0.18784467962E+03  0.18784467968E+03  0.50400001928E-02 0. -1.
       -1   -1    0    0    0  501  0.00000000000E+00  0.00000000000E+00 -0.13126976473E+04  0.13126976474E+04  0.50400001928E-02 0.  1.
    10030    2    1    2    0    0  0.00000000000E+00  0.00000000000E+00 -0.11248529677E+04  0.15005423270E+04  0.99314302909E+03 0.  0.
        5    1    3    3  502    0  0.49036915826E+03 -0.43370471210E+02 -0.66055689861E+03  0.82383275939E+03  0.46999998093E+01 0.  1.
       -5    1    3    3    0  502 -0.49036915826E+03  0.43370471210E+02 -0.46429606911E+03  0.67670956764E+03  0.46999998093E+01 0. -1.
</event>
<event>
 5   0  0.2264577E-03  0.1027392E+04  0.7818609E-02  0.9279002E-01
       -2   -1    0    0    0  501  0.00000000000E+00  0.00000000000E+00  0.14562563552E+03  0.14562563554E+03  0.25500000920E-02 0. -1.
        2   -1    0    0  501    0  0.00000000000E+00  0.00000000000E+00 -0.18120665009E+04  0.18120665009E+04  0.25500000920E-02 0.  1.
    10030    2    1    2    0    0  0.00000000000E+00  0.00000000000E+00 -0.16664408654E+04  0.19576921364E+04  0.10273915238E+04 0.  0.
        5    1    3    3  502    0 -0.47007679384E+03 -0.14772432416E+03 -0.55665021384E+03  0.74342196539E+03  0.46999998093E+01 0. -1.
       -5    1    3    3    0  502  0.47007679384E+03  0.14772432416E+03 -0.11097906515E+04  0.12142701710E+04  0.46999998093E+01 0.  1.
</event>
<event>
 5   0  0.2284843E-03  0.9993175E+03  0.7818609E-02  0.9309294E-01
       -2   -1    0    0    0  501  0.00000000000E+00  0.00000000000E+00  0.28198922768E+03  0.28198922770E+03  0.25500000920E-02 0. -1.
        2   -1    0    0  501    0  0.00000000000E+00  0.00000000000E+00 -0.88534888684E+03  0.88534888684E+03  0.25500000920E-02 0.  1.
    10030    2    1    2    0    0  0.00000000000E+00  0.00000000000E+00 -0.60335965915E+03  0.11673381145E+04  0.99931746475E+03 0.  0.
        2    1    3    3  502    0  0.17482670249E+03  0.28996262518E+03  0.12754619555E+03  0.36181588123E+03  0.25500000920E-02 0. -1.
       -2    1    3    3    0  502 -0.17482670249E+03 -0.28996262518E+03 -0.73090585470E+03  0.80552223330E+03  0.25500000920E-02 0.  1.
</event>
<event>
 5   0  0.2264577E-03  0.1001765E+04  0.7818609E-02  0.9306611E-01
        2   -1    0    0  501    0  0.00000000000E+00  0.00000000000E+00  0.27704301102E+04  0.27704301102E+04  0.25500000920E-02 0.  1.
       -2   -1    0    0    0  501  0.00000000000E+00  0.00000000000E+00 -0.90557499620E+02  0.90557499656E+02  0.25500000920E-02 0. -1.
    10030    2    1    2    0    0  0.00000000000E+00  0.00000000000E+00  0.26798726106E+04  0.28609876099E+04  0.10017648900E+04 0.  0.
        5    1    3    3  502    0  0.13749134874E+03 -0.29564607573E+03  0.25411036919E+03  0.41340614751E+03  0.46999998093E+01 0. -1.
       -5    1    3    3    0  502 -0.13749134874E+03  0.29564607573E+03  0.24257622414E+04  0.24475814624E+04  0.46999998093E+01 0.  1.
</event>
<event>
 5   0  0.1353789E-03  0.9988203E+03  0.7818609E-02  0.9309840E-01
       -1   -1    0    0    0  501  0.00000000000E+00  0.00000000000E+00  0.82352404534E+03  0.82352404536E+03  0.50400001928E-02 0.  1.
        1   -1    0    0  501    0  0.00000000000E+00  0.00000000000E+00 -0.30285755283E+03  0.30285755287E+03  0.50400001928E-02 0. -1.
    10030    2    1    2    0    0  0.00000000000E+00  0.00000000000E+00  0.52066649251E+03  0.11263815982E+04  0.99882025831E+03 0.  0.
        1    1    3    3  502    0 -0.17035119387E+03  0.16624337288E+03 -0.23477482262E+03  0.33432858933E+03  0.50400001928E-02 0. -1.
       -1    1    3    3    0  502  0.17035119387E+03 -0.16624337288E+03  0.75544131513E+03  0.79205300890E+03  0.50400001928E-02 0.  1.
</event>
<event>
 5   0  0.2284843E-03  0.1001148E+04  0.7818609E-02  0.9307287E-01
        2   -1    0    0  501    0  0.00000000000E+00  0.00000000000E+00  0.22379489500E+04  0.22379489500E+04  0.25500000920E-02 0.  1.
       -2   -1    0    0    0  501  0.00000000000E+00  0.00000000000E+00 -0.11196597325E+03  0.11196597328E+03  0.25500000920E-02 0. -1.
    10030    2    1    2    0    0  0.00000000000E+00  0.00000000000E+00  0.21259829768E+04  0.23499149233E+04  0.10011476061E+04 0.  0.
        2    1    3    3  502    0  0.38983165138E+02  0.23724744738E+02  0.22330561588E+04  0.22335224107E+04  0.25500000920E-02 0.  1.
       -2    1    3    3    0  502 -0.38983165138E+02 -0.23724744738E+02 -0.10707318203E+03  0.11639251261E+03  0.25500000920E-02 0. -1.
</event>
<event>
 5   0  0.1285769E-03  0.1001373E+04  0.7818609E-02  0.9307041E-01
        1   -1    0    0  501    0  0.00000000000E+00  0.00000000000E+00  0.33915443930E+03  0.33915443934E+03  0.50400001928E-02 0. -1.
       -1   -1    0    0    0  501  0.00000000000E+00  0.00000000000E+00 -0.73915223749E+03  0.73915223750E+03  0.50400001928E-02 0.  1.
    10030    2    1    2    0    0  0.00000000000E+00  0.00000000000E+00 -0.39999779819E+03  0.10783066768E+04  0.10013725834E+04 0.  0.
        5    1    3    3  502    0  0.26386179063E+03 -0.30699531637E+03 -0.51724421027E+03  0.65683546789E+03  0.46999998093E+01 0.  1.
       -5    1    3    3    0  502 -0.26386179063E+03  0.30699531637E+03  0.11724641208E+03  0.42147120895E+03  0.46999998093E+01 0. -1.
</event>
<event>
 5   0  0.1293716E-03  0.9997372E+03  0.7818609E-02  0.9308833E-01
       -1   -1    0    0    0  501  0.00000000000E+00  0.00000000000E+00  0.24974681823E+03  0.24974681828E+03  0.50400001928E-02 0. -1.
        1   -1    0    0  501    0  0.00000000000E+00  0.00000000000E+00 -0.10004877380E+04  0.10004877380E+04  0.50400001928E-02 0.  1.
    10030    2    1    2    0    0  0.00000000000E+00  0.00000000000E+00 -0.75074091976E+03  0.12502345563E+04  0.99973722403E+03 0.  0.
        3    1    3    3  502    0 -0.34385844223E+03 -0.11969451503E+03 -0.80368280411E+03  0.88231029975E+03  0.10100000352E+00 0.  1.
       -3    1    3    3    0  502  0.34385844223E+03  0.11969451503E+03  0.52941884354E+02  0.36792425653E+03  0.10100000352E+00 0. -1.
</event>
<event>
 5   0  0.2255142E-03  0.1000531E+04  0.7818609E-02  0.9307963E-01
        2   -1    0    0  501    0  0.00000000000E+00  0.00000000000E+00  0.11492368586E+04  0.11492368586E+04  0.25500000920E-02 0. -1.
       -2   -1    0    0    0  501  0.00000000000E+00  0.00000000000E+00 -0.21776653091E+03  0.21776653093E+03  0.25500000920E-02 0.  1.
    10030    2    1    2    0    0  0.00000000000E+00  0.00000000000E+00  0.93147032765E+03  0.13670033895E+04  0.10005305071E+04 0.  0.
        4    1    3    3  502    0 -0.16369259195E+03  0.37995979456E+03  0.84999478923E+03  0.94533457821E+03  0.12699999809E+01 0. -1.
       -4    1    3    3    0  502  0.16369259195E+03 -0.37995979456E+03  0.81475538413E+02  0.42166881127E+03  0.12699999809E+01 0.  1.
</event>
<event>
 5   0  0.1293716E-03  0.9951023E+03  0.7818609E-02  0.9313933E-01
        1   -1    0    0  501    0  0.00000000000E+00  0.00000000000E+00  0.12613191499E+04  0.12613191499E+04  0.50400001928E-02 0. -1.
       -1   -1    0    0    0  501  0.00000000000E+00  0.00000000000E+00 -0.19626843746E+03  0.19626843752E+03  0.50400001928E-02 0.  1.
    10030    2    1    2    0    0  0.00000000000E+00  0.00000000000E+00  0.10650507124E+04  0.14575875874E+04  0.99510228365E+03 0.  0.
        3    1    3    3  502    0  0.17569036915E+03 -0.67304661134E+02 -0.14215614020E+03  0.23580797616E+03  0.10100000352E+00 0.  1.
       -3    1    3    3    0  502 -0.17569036915E+03  0.67304661134E+02  0.12072068526E+04  0.12217796112E+04  0.10100000352E+00 0. -1.
</event>
<event>
 5   0  0.1293575E-03  0.9989034E+03  0.7818609E-02  0.9309748E-01
       -1   -1    0    0    0  501  0.00000000000E+00  0.00000000000E+00  0.13250879276E+03  0.13250879285E+03  0.50400001928E-02 0. -1.
        1   -1    0    0  501    0  0.00000000000E+00  0.00000000000E+00 -0.18825316247E+04  0.18825316247E+04  0.50400001928E-02 0.  1.
    10030    2    1    2    0    0  0.00000000000E+00  0.00000000000E+00 -0.17500228320E+04  0.20150404176E+04  0.99890338477E+03 0.  0.
        4    1    3    3  502    0  0.48907191262E+02 -0.49415882467E+03 -0.98299611173E+03  0.11013027858E+04  0.12699999809E+01 0. -1.
       -4    1    3    3    0  502 -0.48907191262E+02  0.49415882467E+03 -0.76702672025E+03  0.91373763183E+03  0.12699999809E+01 0.  1.
</event>
<event>
 5   0  0.1293716E-03  0.9944032E+03  0.7818609E-02  0.9314705E-01
       -1   -1    0    0    0  501  0.00000000000E+00  0.00000000000E+00  0.19881846204E+03  0.19881846211E+03  0.50400001928E-02 0. -1.
        1   -1    0    0  501    0  0.00000000000E+00  0.00000000000E+00 -0.12433926438E+04  0.12433926438E+04  0.50400001928E-02 0.  1.
    10030    2    1    2    0    0  0.00000000000E+00  0.00000000000E+00 -0.10445741818E+04  0.14422111059E+04  0.99440316415E+03 0.  0.
        3    1    3    3  502    0 -0.28344501369E+03 -0.36103670127E+03 -0.24512320405E+03  0.52035946308E+03  0.10100000352E+00 0. -1.
       -3    1    3    3    0  502  0.28344501369E+03  0.36103670127E+03 -0.79945097773E+03  0.92185164287E+03  0.10100000352E+00 0.  1.
</event>
<event>
 5   0  0.2264577E-03  0.1004158E+04  0.7818609E-02  0.9303996E-01
        2   -1    0    0  501    0  0.00000000000E+00  0.00000000000E+00  0.19183288237E+03  0.19183288239E+03  0.25500000920E-02 0.  1.
       -2   -1    0    0    0  501  0.00000000000E+00  0.00000000000E+00 -0.13140772242E+04  0.13140772242E+04  0.25500000920E-02 0. -1.
    10030    2    1    2    0    0  0.00000000000E+00  0.00000000000E+00 -0.11222443418E+04  0.15059101066E+04  0.10041577995E+04 0.  0.
        5    1    3    3  502    0 -0.36137178995E+03 -0.91614981470E+02 -0.10654194598E+04  0.11287708318E+04  0.46999998093E+01 0. -1.
       -5    1    3    3    0  502  0.36137178995E+03  0.91614981470E+02 -0.56824882070E+02  0.37713927484E+03  0.46999998093E+01 0.  1.
</event>
<event>
 5   0  0.1293575E-03  0.9997202E+03  0.7818609E-02  0.9308852E-01
        1   -1    0    0  501    0  0.00000000000E+00  0.00000000000E+00  0.21503696176E+04  0.21503696176E+04  0.50400001928E-02 0. -1.
       -1   -1    0    0    0  501  0.00000000000E+00  0.00000000000E+00 -0.11619402527E+03  0.11619402538E+03  0.50400001928E-02 0.  1.
    10030    2    1    2    0    0  0.00000000000E+00  0.00000000000E+00  0.20341755923E+04  0.22665636430E+04  0.99972016447E+03 0.  0.
        4    1    3    3  502    0  0.34639579370E+03 -0.34184061961E+02  0.18304398337E+04  0.18632418506E+04  0.12699999809E+01 0. -1.
       -4    1    3    3    0  502 -0.34639579370E+03  0.34184061961E+02  0.20373575861E+03  0.40332179240E+03  0.12699999809E+01 0.  1.
</event>
<event>
 5   0  0.1285769E-03  0.1005278E+04  0.7818609E-02  0.9302775E-01
       -1   -1    0    0    0  501  0.00000000000E+00  0.00000000000E+00  0.89412786952E+02  0.89412787094E+02  0.50400001928E-02 0.  1.
        1   -1    0    0  501    0  0.00000000000E+00  0.00000000000E+00 -0.28256105846E+04  0.28256105846E+04  0.50400001928E-02 0. -1.
    10030    2    1    2    0    0  0.00000000000E+00  0.00000000000E+00 -0.27361977977E+04  0.29150233717E+04  0.10052775088E+04 0.  0.
        5    1    3    3  502    0 -0.88143445476E+02 -0.31514632735E+03 -0.24743227352E+04  0.24958729060E+04  0.46999998093E+01 0. -1.
       -5    1    3    3    0  502  0.88143445476E+02  0.31514632735E+03 -0.26187506244E+03  0.41915046576E+03  0.46999998093E+01 0.  1.
</event>
<event>
 5   0  0.2264577E-03  0.1002488E+04  0.7818609E-02  0.9305820E-01
        2   -1    0    0  501    0  0.00000000000E+00  0.00000000000E+00  0.12449521159E+04  0.12449521159E+04  0.25500000920E-02 0. -1.
       -2   -1    0    0    0  501  0.00000000000E+00  0.00000000000E+00 -0.20181150528E+03  0.20181150530E+03  0.25500000920E-02 0.  1.
    10030    2    1    2    0    0  0.00000000000E+00  0.00000000000E+00  0.10431406106E+04  0.14467636212E+04  0.10024882254E+04 0.  0.
        5    1    3    3  502    0  0.30516198289E+03 -0.13707867243E+02  0.10950600176E+04  0.11368774224E+04  0.46999998093E+01 0. -1.
       -5    1    3    3    0  502 -0.30516198289E+03  0.13707867243E+02 -0.51919406916E+02  0.30988619886E+03  0.46999998093E+01 0.  1.
</event>
<event>
 5   0  0.1285769E-03  0.1002117E+04  0.7818609E-02  0.9306226E-01
        1   -1    0    0  501    0  0.00000000000E+00  0.00000000000E+00  0.42401741688E+03  0.42401741691E+03  0.50400001928E-02 0.  1.
       -1   -1    0    0    0  501  0.00000000000E+00  0.00000000000E+00 -0.59209727859E+03  0.59209727862E+03  0.50400001928E-02 0. -1.
    10030    2    1    2    0    0  0.00000000000E+00  0.00000000000E+00 -0.16807986172E+03  0.10161146955E+04  0.10021168767E+04 0.  0.
        5    1    3    3  502    0  0.21952225694E+03  0.50142953173E+02  0.36979795367E+03  0.43298608936E+03  0.46999998093E+01 0.  1.
       -5    1    3    3    0  502 -0.21952225694E+03 -0.50142953173E+02 -0.53787781538E+03  0.58312860616E+03  0.46999998093E+01 0. -1.
</event>
<event>
 5   0  0.2255142E-03  0.9975497E+03  0.7818609E-02  0.9311236E-01
       -2   -1    0    0    0  501  0.00000000000E+00  0.00000000000E+00  0.23803640507E+03  0.23803640508E+03  0.25500000920E-02 0.  1.
        2   -1    0    0  501    0  0.00000000000E+00  0.00000000000E+00 -0.10451189705E+04  0.10451189705E+04  0.25500000920E-02 0. -1.
    10030    2    1    2    0    0  0.00000000000E+00  0.00000000000E+00 -0.80708256545E+03  0.12831553756E+04  0.99754972332E+03 0.  0.
        4    1    3    3  502    0  0.25508297370E+03 -0.36692834407E+03 -0.68848377772E+03  0.82080159493E+03  0.12699999809E+01 0. -1.
       -4    1    3    3    0  502 -0.25508297370E+03  0.36692834407E+03 -0.11859878773E+03  0.46235378068E+03  0.12699999809E+01 0.  1.
</event>
<event>
 5   0  0.1249195E-03  0.9966189E+03  0.7818609E-02  0.9312261E-01
        1   -1    0    0  501    0  0.00000000000E+00  0.00000000000E+00  0.71075192720E+03  0.71075192721E+03  0.50400001928E-02 0. -1.
       -1   -1    0    0    0  501  0.00000000000E+00  0.00000000000E+00 -0.34936567942E+03  0.34936567946E+03  0.50400001928E-02 0.  1.
    10030    2    1    2    0    0  0.00000000000E+00  0.00000000000E+00  0.36138624777E+03  0.10601176067E+04  0.99661894418E+03 0.  0.
        2    1    3    3  502    0 -0.78476819984E+02  0.72891064151E+02  0.69836312220E+03  0.70652867526E+03  0.25500000920E-02 0. -1.
       -2    1    3    3    0  502  0.78476819984E+02 -0.72891064151E+02 -0.33697687443E+03  0.35358893141E+03  0.25500000920E-02 0.  1.
</event>
<event>
 5   0  0.1249195E-03  0.1002878E+04  0.7818609E-02  0.9305394E-01
        1   -1    0    0  501    0  0.00000000000E+00  0.00000000000E+00  0.73177422533E+03  0.73177422535E+03  0.50400001928E-02 0. -1.
       -1   -1    0    0    0  501  0.00000000000E+00  0.00000000000E+00 -0.34360462995E+03  0.34360462998E+03  0.50400001928E-02 0.  1.
    10030    2    1    2    0    0  0.00000000000E+00  0.00000000000E+00  0.38816959539E+03  0.10753788553E+04  0.10028778828E+04 0.  0.
        2    1    3    3  502    0  0.75818053493E+01 -0.30861397982E+03  0.61779784131E+03  0.69063322034E+03  0.25500000920E-02 0. -1.
       -2    1    3    3    0  502 -0.75818053493E+01  0.30861397982E+03 -0.22962824592E+03  0.38474563499E+03  0.25500000920E-02 0.  1.
</event>
<event>
 5   0  0.1353789E-03  0.9997420E+03  0.7818609E-02  0.9308828E-01
        1   -1    0    0  501    0  0.00000000000E+00  0.00000000000E+00  0.91525351079E+03  0.91525351080E+03  0.50400001928E-02 0.  1.
       -1   -1    0    0    0  501  0.00000000000E+00  0.00000000000E+00 -0.27300745811E+03  0.27300745815E+03  0.50400001928E-02 0. -1.
    10030    2    1    2    0    0  0.00000000000E+00  0.00000000000E+00  0.64224605268E+03  0.11882609690E+04  0.99974203581E+03 0.  0.
        1    1    3    3  502    0 -0.21381610855E+02 -0.22564593979E+03  0.85066659286E+03  0.88034477091E+03  0.50400001928E-02 0.  1.
       -1    1    3    3    0  502  0.21381610855E+02  0.22564593979E+03 -0.20842054018E+03  0.30791619805E+03  0.50400001928E-02 0. -1.
</event>
<event>
 5   0  0.2277570E-03  0.9988595E+03  0.7818609E-02  0.9309797E-01
       -2   -1    0    0    0  501  0.00000000000E+00  0.00000000000E+00  0.45689319218E+03  0.45689319219E+03  0.25500000920E-02 0. -1.
        2   -1    0    0  501    0  0.00000000000E+00  0.00000000000E+00 -0.54592641197E+03  0.54592641197E+03  0.25500000920E-02 0.  1.
    10030    2    1    2    0    0  0.00000000000E+00  0.00000000000E+00 -0.89033219786E+02  0.10028196042E+04  0.99885947173E+03 0.  0.
        3    1    3    3  502    0 -0.37495177622E+03 -0.32280978404E+03 -0.11286780133E+03  0.50747821820E+03  0.10100000352E+00 0. -1.
       -3    1    3    3    0  502  0.37495177622E+03  0.32280978404E+03  0.23834581548E+02  0.49534138596E+03  0.10100000352E+00 0.  1.
</event>
<event>
 5   0  0.1249195E-03  0.9993680E+03  0.7818609E-02  0.9309238E-01
        1   -1    0    0  501    0  0.00000000000E+00  0.00000000000E+00  0.79115878209E+03  0.79115878210E+03  0.50400001928E-02 0.  1.
       -1   -1    0    0    0  501  0.00000000000E+00  0.00000000000E+00 -0.31559292839E+03  0.31559292843E+03  0.50400001928E-02 0. -1.
    10030    2    1    2    0    0  0.00000000000E+00  0.00000000000E+00  0.47556585370E+03  0.11067517105E+04  0.99936803409E+03 0.  0.
        2    1    3    3  502    0 -0.28606376126E+03  0.68483060220E+02 -0.20955309835E+03  0.36115773020E+03  0.25500000920E-02 0. -1.
       -2    1    3    3    0  502  0.28606376126E+03 -0.68483060220E+02  0.68511895205E+03  0.74559398033E+03  0.25500000920E-02 0.  1.
</event>
<event>
 5   0  0.8680125E-04  0.1007209E+04  0.7818609E-02  0.9300673E-01
       -3   -1    0    0    0  501  0.00000000000E+00  0.00000000000E+00  0.21431503492E+03  0.21431505872E+03  0.10100000352E+00 0.  1.
        3   -1    0    0  501    0  0.00000000000E+00  0.00000000000E+00 -0.11833866838E+04  0.11833866881E+04  0.10100000352E+00 0. -1.
    10030    2    1    2    0    0  0.00000000000E+00  0.00000000000E+00 -0.96907164886E+03  0.13977017468E+04  0.10072091701E+04 0.  0.
        3    1    3    3  502    0 -0.16767510574E+03 -0.41549106003E+03 -0.16545647744E+03  0.47762288281E+03  0.10100000352E+00 0.  1.
       -3    1    3    3    0  502  0.16767510574E+03  0.41549106003E+03 -0.80361517142E+03  0.92007886401E+03  0.10100000352E+00 0. -1.
</event>
<event>
 5   0  0.1249195E-03  0.9987607E+03  0.7818609E-02  0.9309905E-01
        1   -1    0    0  501    0  0.00000000000E+00  0.00000000000E+00  0.99668660994E+03  0.99668660996E+03  0.50400001928E-02 0.  1.
       -1   -1    0    0    0  501  0.00000000000E+00  0.00000000000E+00 -0.25020977495E+03  0.25020977500E+03  0.50400001928E-02 0. -1.
    10030    2    1    2    0    0  0.00000000000E+00  0.00000000000E+00  0.74647683500E+03  0.12468963850E+04  0.99876069687E+03 0.  0.
        2    1    3    3  502    0 -0.19532370378E+03  0.43891357075E+03  0.20304546795E+03  0.52155913750E+03  0.25500000920E-02 0.  1.
       -2    1    3    3    0  502  0.19532370378E+03 -0.43891357075E+03  0.54343136705E+03  0.72533724745E+03  0.25500000920E-02 0. -1.
</event>
<event>
 5   0  0.2264577E-03  0.9953196E+03  0.7818609E-02  0.9313693E-01
       -2   -1    0    0    0  501  0.00000000000E+00  0.00000000000E+00  0.35867581705E+03  0.35867581706E+03  0.25500000920E-02 0. -1.
        2   -1    0    0  501    0  0.00000000000E+00  0.00000000000E+00 -0.69049888762E+03  0.69049888763E+03  0.25500000920E-02 0.  1.
    10030    2    1    2    0    0  0.00000000000E+00  0.00000000000E+00 -0.33182307058E+03  0.10491747047E+04  0.99531955210E+03 0.  0.
        5    1    3    3  502    0 -0.27548697637E+03  0.31022508847E+03  0.12374871399E+03  0.43297634332E+03  0.46999998093E+01 0. -1.
       -5    1    3    3    0  502  0.27548697637E+03 -0.31022508847E+03 -0.45557178456E+03  0.61619836137E+03  0.46999998093E+01 0.  1.
</event>
<event>
 5   0  0.2255142E-03  0.9988242E+03  0.7818609E-02  0.9309835E-01
        2   -1    0    0  501    0  0.00000000000E+00  0.00000000000E+00  0.73378512868E+03  0.73378512868E+03  0.25500000920E-02 0.  1.
       -2   -1    0    0    0  501  0.00000000000E+00  0.00000000000E+00 -0.33989849381E+03  0.33989849382E+03  0.25500000920E-02 0. -1.
    10030    2    1    2    0    0  0.00000000000E+00  0.00000000000E+00  0.39388663487E+03  0.10736836225E+04  0.99882422884E+03 0.  0.
        4    1    3    3  502    0  0.22643515890E+03  0.44017074349E+03  0.26814739388E+03  0.56296341120E+03  0.12699999809E+01 0.  1.
       -4    1    3    3    0  502 -0.22643515890E+03 -0.44017074349E+03  0.12573924099E+03  0.51072021130E+03  0.12699999809E+01 0. -1.
</event>
<event>
 5   0  0.1249195E-03  0.9985411E+03  0.7818609E-02  0.9310146E-01
       -1   -1    0    0    0  501  0.00000000000E+00  0.00000000000E+00  0.16559428770E+04  0.16559428770E+04  0.50400001928E-02 0.  1.
        1   -1    0    0  501    0  0.00000000000E+00  0.00000000000E+00 -0.15053119958E+03  0.15053119966E+03  0.50400001928E-02 0. -1.
    10030    2    1    2    0    0  0.00000000000E+00  0.00000000000E+00  0.15054116774E+04  0.18064740767E+04  0.99854107133E+03 0.  0.
        2    1    3    3  502    0 -0.41661992193E+03 -0.22187037405E+03  0.45835665698E+03  0.65794334653E+03  0.25500000920E-02 0. -1.
       -2    1    3    3    0  502  0.41661992193E+03  0.22187037405E+03  0.10470550204E+04  0.11485307301E+04  0.25500000920E-02 0.  1.
</event>
<event>
 5   0  0.1353789E-03  0.9823781E+03  0.7818609E-02  0.9328086E-01
       -1   -1    0    0    0  501  0.00000000000E+00  0.00000000000E+00  0.25009654205E+03  0.25009654210E+03  0.50400001928E-02 0.  1.
        1   -1    0    0  501    0  0.00000000000E+00  0.00000000000E+00 -0.96469424220E+03  0.96469424221E+03  0.50400001928E-02 0. -1.
    10030    2    1    2    0    0  0.00000000000E+00  0.00000000000E+00 -0.71459770015E+03  0.12147907843E+04  0.98237812302E+03 0.  0.
        1    1    3    3  502    0 -0.67505539049E+02  0.29018152168E+02 -0.95785966190E+03  0.96067381711E+03  0.50400001928E-02 0. -1.
       -1    1    3    3    0  502  0.67505539049E+02 -0.29018152168E+02  0.24326196175E+03  0.25411696720E+03  0.50400001928E-02 0.  1.
</event>
<event>
 5   0  0.1293716E-03  0.1002487E+04  0.7818609E-02  0.9305822E-01
       -1   -1    0    0    0  501  0.00000000000E+00  0.00000000000E+00  0.14116312870E+03  0.14116312879E+03  0.50400001928E-02 0. -1.
        1   -1    0    0  501    0  0.00000000000E+00  0.00000000000E+00 -0.17798194904E+04  0.17798194904E+04  0.50400001928E-02 0.  1.
    10030    2    1    2    0    0  0.00000000000E+00  0.00000000000E+00 -0.16386563617E+04  0.19209826192E+04  0.10024866840E+04 0.  0.
        3    1    3    3  502    0  0.95507403304E+02  0.46975287292E+03 -0.53864676621E+03  0.72106156093E+03  0.10100000352E+00 0.  1.
       -3    1    3    3    0  502 -0.95507403304E+02 -0.46975287292E+03 -0.11000095955E+04  0.11999210583E+04  0.10100000352E+00 0. -1.
</event>
<event>
 5   0  0.2284843E-03  0.9991922E+03  0.7818609E-02  0.9309431E-01
        2   -1    0    0  501    0  0.00000000000E+00  0.00000000000E+00  0.74309753526E+03  0.74309753526E+03  0.25500000920E-02 0.  1.
       -2   -1    0    0    0  501  0.00000000000E+00  0.00000000000E+00 -0.33588626725E+03  0.33588626726E+03  0.25500000920E-02 0. -1.
    10030    2    1    2    0    0  0.00000000000E+00  0.00000000000E+00  0.40721126800E+03  0.10789838025E+04  0.99919218838E+03 0.  0.
        2    1    3    3  502    0 -0.46339272105E+03 -0.21676036003E+02  0.33408123951E+01  0.46391144143E+03  0.25500000920E-02 0. -1.
       -2    1    3    3    0  502  0.46339272105E+03  0.21676036003E+02  0.40387045561E+03  0.61507236109E+03  0.25500000920E-02 0.  1.
</event>
<event>
 5   0  0.1353789E-03  0.1001018E+04  0.7818609E-02  0.9307429E-01
        1   -1    0    0  501    0  0.00000000000E+00  0.00000000000E+00  0.45600350775E+03  0.45600350778E+03  0.50400001928E-02 0. -1.
       -1   -1    0    0    0  501  0.00000000000E+00  0.00000000000E+00 -0.54935770197E+03  0.54935770199E+03  0.50400001928E-02 0.  1.
    10030    2    1    2    0    0  0.00000000000E+00  0.00000000000E+00 -0.93354194218E+02  0.10053612098E+04  0.10010175606E+04 0.  0.
        1    1    3    3  502    0  0.47453395084E+03  0.15560712924E+03 -0.13170829867E+02  0.49956933448E+03  0.50400001928E-02 0. -1.
       -1    1    3    3    0  502 -0.47453395084E+03 -0.15560712924E+03 -0.80183364351E+02  0.50579187529E+03  0.50400001928E-02 0.  1.
</event>
<event>
 5   0  0.2264577E-03  0.9965553E+03  0.7818609E-02  0.9312331E-01
       -2   -1    0    0    0  501  0.00000000000E+00  0.00000000000E+00  0.22902655728E+03  0.22902655729E+03  0.25500000920E-02 0. -1.
        2   -1    0    0  501    0  0.00000000000E+00  0.00000000000E+00 -0.10840691373E+04  0.10840691373E+04  0.25500000920E-02 0.  1.
    10030    2    1    2    0    0  0.00000000000E+00  0.00000000000E+00 -0.85504258002E+03  0.13130956946E+04  0.99655531182E+03 0.  0.
        5    1    3    3  502    0  0.10591448779E+03 -0.11737230455E+03  0.19507238538E+03  0.25113634172E+03  0.46999998093E+01 0. -1.
       -5    1    3    3    0  502 -0.10591448779E+03  0.11737230455E+03 -0.10501149654E+04  0.10619593529E+04  0.46999998093E+01 0.  1.
</event>
<event>
 5   0  0.1293716E-03  0.9990153E+03  0.7818609E-02  0.9309625E-01
        1   -1    0    0  501    0  0.00000000000E+00  0.00000000000E+00  0.11118533403E+04  0.11118533403E+04  0.50400001928E-02 0.  1.
       -1   -1    0    0    0  501  0.00000000000E+00  0.00000000000E+00 -0.22440719651E+03  0.22440719657E+03  0.50400001928E-02 0. -1.
    10030    2    1    2    0    0  0.00000000000E+00  0.00000000000E+00  0.88744614375E+03  0.13362605368E+04  0.99901529731E+03 0.  0.
        3    1    3    3  502    0 -0.46756923259E+03 -0.52686042568E+02  0.66798612356E+03  0.81706932253E+03  0.10100000352E+00 0.  1.
       -3    1    3    3    0  502  0.46756923259E+03  0.52686042568E+02  0.21946002019E+03  0.51919121431E+03  0.10100000352E+00 0. -1.
</event>
<event>
 5   0  0.2284843E-03  0.9999675E+03  0.7818609E-02  0.9308580E-01
       -2   -1    0    0    0  501  0.00000000000E+00  0.00000000000E+00  0.15006293863E+03  0.15006293865E+03  0.25500000920E-02 0.  1.
        2   -1    0    0  501    0  0.00000000000E+00  0.00000000000E+00 -0.16658594839E+04  0.16658594839E+04  0.25500000920E-02 0. -1.
    10030    2    1    2    0    0  0.00000000000E+00  0.00000000000E+00 -0.15157965453E+04  0.18159224226E+04  0.99996753851E+03 0.  0.
        2    1    3    3  502    0  0.42458379401E+02 -0.32821066218E+03 -0.77307757976E+02  0.33985503116E+03  0.25500000920E-02 0.  1.
       -2    1    3    3    0  502 -0.42458379401E+02  0.32821066218E+03 -0.14384887873E+04  0.14760673914E+04  0.25500000920E-02 0. -1.
</event>
<event>
 5   0  0.8680125E-04  0.1001109E+04  0.7818609E-02  0.9307330E-01
        3   -1    0    0  501    0  0.00000000000E+00  0.00000000000E+00  0.79978351282E+03  0.79978351919E+03  0.10100000352E+00 0.  1.
       -3   -1    0    0    0  501  0.00000000000E+00  0.00000000000E+00 -0.31327811591E+03  0.31327813220E+03  0.10100000352E+00 0. -1.
    10030    2    1    2    0    0  0.00000000000E+00  0.00000000000E+00  0.48650539690E+03  0.11130616514E+04  0.10011087546E+04 0.  0.
        2    1    3    3  502    0  0.40770548606E+03 -0.21695560839E+03  0.45787077268E+03  0.65033771524E+03  0.25500000920E-02 0. -1.
       -2    1    3    3    0  502 -0.40770548606E+03  0.21695560839E+03  0.28634624222E+02  0.46272393615E+03  0.25500000920E-02 0.  1.
</event>
<event>
 5   0  0.2264577E-03  0.1033639E+04  0.7818609E-02  0.9272401E-01
        2   -1    0    0  501    0  0.00000000000E+00  0.00000000000E+00  0.64620800489E+03  0.64620800489E+03  0.25500000920E-02 0.  1.
       -2   -1    0    0    0  501  0.00000000000E+00  0.00000000000E+00 -0.41333778561E+03  0.41333778561E+03  0.25500000920E-02 0. -1.
    10030    2    1    2    0    0  0.00000000000E+00  0.00000000000E+00  0.23287021928E+03  0.10595457905E+04  0.10336385941E+04 0.  0.
        5    1    3    3  502    0 -0.76926063006E+02  0.44894474995E+03  0.36670842019E+03  0.58477873005E+03  0.46999998093E+01 0.  1.
       -5    1    3    3    0  502  0.76926063006E+02 -0.44894474995E+03 -0.13383820091E+03  0.47476706046E+03  0.46999998093E+01 0. -1.
</event>
<event>
 5   0  0.1353789E-03  0.9997374E+03  0.7818609E-02  0.9308833E-01
        1   -1    0    0  501    0  0.00000000000E+00  0.00000000000E+00  0.84296150250E+03  0.84296150251E+03  0.50400001928E-02 0.  1.
       -1   -1    0    0    0  501  0.00000000000E+00  0.00000000000E+00 -0.29641772000E+03  0.29641772004E+03  0.50400001928E-02 0. -1.
    10030    2    1    2    0    0  0.00000000000E+00  0.00000000000E+00  0.54654378250E+03  0.11393792225E+04  0.99973741882E+03 0.  0.
        1    1    3    3  502    0 -0.97195650525E+02 -0.23833096207E+03 -0.21509075650E+03  0.33542909164E+03  0.50400001928E-02 0. -1.
       -1    1    3    3    0  502  0.97195650525E+02  0.23833096207E+03  0.76163453900E+03  0.80395013091E+03  0.50400001928E-02 0.  1.
</event>
<event>
 5   0  0.1249195E-03  0.1029425E+04  0.7818609E-02  0.9276848E-01
        1   -1    0    0  501    0  0.00000000000E+00  0.00000000000E+00  0.39468942082E+03  0.39468942085E+03  0.50400001928E-02 0.  1.
       -1   -1    0    0    0  501  0.00000000000E+00  0.00000000000E+00 -0.67123343478E+03  0.67123343480E+03  0.50400001928E-02 0. -1.
    10030    2    1    2    0    0  0.00000000000E+00  0.00000000000E+00 -0.27654401396E+03  0.10659228557E+04  0.10294245687E+04 0.  0.
        2    1    3    3  502    0  0.40188139029E+03 -0.14095625978E+03  0.16102898364E+03  0.45531050132E+03  0.25500000920E-02 0.  1.
       -2    1    3    3    0  502 -0.40188139029E+03  0.14095625978E+03 -0.43757299760E+03  0.61061235433E+03  0.25500000920E-02 0. -1.
</event>
<event>
 5   0  0.2277570E-03  0.1002706E+04  0.7818609E-02  0.9305582E-01
       -2   -1    0    0    0  501  0.00000000000E+00  0.00000000000E+00  0.77905165028E+03  0.77905165029E+03  0.25500000920E-02 0.  1.
        2   -1    0    0  501    0  0.00000000000E+00  0.00000000000E+00 -0.32264220705E+03  0.32264220706E+03  0.25500000920E-02 0. -1.
    10030    2    1    2    0    0  0.00000000000E+00  0.00000000000E+00  0.45640944323E+03  0.11016938574E+04  0.10027062259E+04 0.  0.
        3    1    3    3  502    0 -0.35629506743E+03 -0.34204190817E+03  0.32282293869E+03  0.59004533891E+03  0.10100000352E+00 0. -1.
       -3    1    3    3    0  502  0.35629506743E+03  0.34204190817E+03  0.13358650454E+03  0.51164851844E+03  0.10100000352E+00 0.  1.
</event>
<event>
 5   0  0.1285769E-03  0.1001919E+04  0.7818609E-02  0.9306443E-01
        1   -1    0    0  501    0  0.00000000000E+00  0.00000000000E+00  0.16751337418E+04  0.16751337418E+04  0.50400001928E-02 0.  1.
       -1   -1    0    0    0  501  0.00000000000E+00  0.00000000000E+00 -0.14981509223E+03  0.14981509231E+03  0.50400001928E-02 0. -1.
    10030    2    1    2    0    0  0.00000000000E+00  0.00000000000E+00  0.15253186496E+04  0.18249488341E+04  0.10019187913E+04 0.  0.
        5    1    3    3  502    0  0.85795422635E+02 -0.25560888974E+02 -0.13508649934E+03  0.16212546343E+03  0.46999998093E+01 0. -1.
       -5    1    3    3    0  502 -0.85795422635E+02  0.25560888974E+02  0.16604051489E+04  0.16628233707E+04  0.46999998093E+01 0.  1.
</event>
<event>
 5   0  0.2204862E-03  0.9986068E+03  0.7818609E-02  0.9310074E-01
        2   -1    0    0  501    0  0.00000000000E+00  0.00000000000E+00  0.67847432627E+03  0.67847432628E+03  0.25500000920E-02 0.  1.
       -2   -1    0    0    0  501  0.00000000000E+00  0.00000000000E+00 -0.36744778211E+03  0.36744778212E+03  0.25500000920E-02 0. -1.
    10030    2    1    2    0    0  0.00000000000E+00  0.00000000000E+00  0.31102654416E+03  0.10459221084E+04  0.99860680233E+03 0.  0.
        1    1    3    3  502    0  0.87907561852E+02 -0.34458274697E+03 -0.21157688734E+03  0.41379921245E+03  0.50400001928E-02 0. -1.
       -1    1    3    3    0  502 -0.87907561852E+02  0.34458274697E+03  0.52260343150E+03  0.63212289595E+03  0.50400001928E-02 0.  1.
</event>
<event>
 5   0  0.1353789E-03  0.1000033E+04  0.7818609E-02  0.9308509E-01
       -1   -1    0    0    0  501  0.00000000000E+00  0.00000000000E+00  0.27975728997E+03  0.27975729002E+03  0.50400001928E-02 0.  1.
        1   -1    0    0  501    0  0.00000000000E+00  0.00000000000E+00 -0.89369037702E+03  0.89369037704E+03  0.50400001928E-02 0. -1.
    10030    2    1    2    0    0  0.00000000000E+00  0.00000000000E+00 -0.61393308705E+03  0.11734476671E+04  0.10000327954E+04 0.  0.
        1    1    3    3  502    0 -0.35035599481E+02 -0.19410177041E+03  0.23218070226E+03  0.30464876339E+03  0.50400001928E-02 0.  1.
       -1    1    3    3    0  502  0.35035599481E+02  0.19410177041E+03 -0.84611378931E+03  0.86879890366E+03  0.50400001928E-02 0. -1.
</event>
<event>
 5   0  0.2284843E-03  0.1003847E+04  0.7818609E-02  0.9304336E-01
        2   -1    0    0  501    0  0.00000000000E+00  0.00000000000E+00  0.59534995805E+03  0.59534995806E+03  0.25500000920E-02 0. -1.
       -2   -1    0    0    0  501  0.00000000000E+00  0.00000000000E+00 -0.42315814920E+03  0.42315814921E+03  0.25500000920E-02 0.  1.
    10030    2    1    2    0    0  0.00000000000E+00  0.00000000000E+00  0.17219180885E+03  0.10185081073E+04  0.10038469732E+04 0.  0.
        2    1    3    3  502    0 -0.25750395065E+03 -0.34367135114E+03  0.34971538848E+03  0.55382229564E+03  0.25500000920E-02 0. -1.
       -2    1    3    3    0  502  0.25750395065E+03  0.34367135114E+03 -0.17752357964E+03  0.46468581163E+03  0.25500000920E-02 0.  1.
</event>
<event>
 5   0  0.1293716E-03  0.9926935E+03  0.7818609E-02  0.9316595E-01
       -1   -1    0    0    0  501  0.00000000000E+00  0.00000000000E+00  0.68296360871E+03  0.68296360872E+03  0.50400001928E-02 0.  1.
        1   -1    0    0  501    0  0.00000000000E+00  0.00000000000E+00 -0.36072213051E+03  0.36072213055E+03  0.50400001928E-02 0. -1.
    10030    2    1    2    0    0  0.00000000000E+00  0.00000000000E+00  0.32224147819E+03  0.10436857393E+04  0.99269348346E+03 0.  0.
        3    1    3    3  502    0  0.30876260348E+03  0.27189850349E+03 -0.13080550426E+03  0.43170966129E+03  0.10100000352E+00 0. -1.
       -3    1    3    3    0  502 -0.30876260348E+03 -0.27189850349E+03  0.45304698245E+03  0.61197607798E+03  0.10100000352E+00 0.  1.
</event>
<event>
 5   0  0.2255142E-03  0.9996474E+03  0.7818609E-02  0.9308932E-01
        2   -1    0    0  501    0  0.00000000000E+00  0.00000000000E+00  0.11615367875E+04  0.11615367875E+04  0.25500000920E-02 0.  1.
       -2   -1    0    0    0  501  0.00000000000E+00  0.00000000000E+00 -0.21508032287E+03  0.21508032289E+03  0.25500000920E-02 0. -1.
    10030    2    1    2    0    0  0.00000000000E+00  0.00000000000E+00  0.94645646466E+03  0.13766171104E+04  0.99964735242E+03 0.  0.
        4    1    3    3  502    0 -0.31723868148E+03 -0.25757692100E+03  0.76881308651E+02  0.41581077400E+03  0.12699999809E+01 0. -1.
       -4    1    3    3    0  502  0.31723868148E+03  0.25757692100E+03  0.86957515601E+03  0.96080633642E+03  0.12699999809E+01 0.  1.
</event>
<event>
 5   0  0.2204862E-03  0.1002511E+04  0.7818609E-02  0.9305795E-01
        2   -1    0    0  501    0  0.00000000000E+00  0.00000000000E+00  0.59402363662E+03  0.59402363662E+03  0.25500000920E-02 0.  1.
       -2   -1    0    0    0  501  0.00000000000E+00  0.00000000000E+00 -0.42297469614E+03  0.42297469615E+03  0.25500000920E-02 0. -1.
    10030    2    1    2    0    0  0.00000000000E+00  0.00000000000E+00  0.17104894048E+03  0.10169983328E+04  0.10025107824E+04 0.  0.
        1    1    3    3  502    0  0.41345275704E+03 -0.28100423241E+03  0.12280339754E+03  0.51476910883E+03  0.50400001928E-02 0. -1.
       -1    1    3    3    0  502 -0.41345275704E+03  0.28100423241E+03  0.48245542942E+02  0.50222922394E+03  0.50400001928E-02 0.  1.
</event>
<event>
 5   0  0.1293716E-03  0.9415384E+03  0.7818609E-02  0.9375096E-01
       -1   -1    0    0    0  501  0.00000000000E+00  0.00000000000E+00  0.37858410695E+03  0.37858410698E+03  0.50400001928E-02 0. -1.
        1   -1    0    0  501    0  0.00000000000E+00  0.00000000000E+00 -0.58540127160E+03  0.58540127162E+03  0.50400001928E-02 0.  1.
    10030    2    1    2    0    0  0.00000000000E+00  0.00000000000E+00 -0.20681716465E+03  0.96398537861E+03  0.94153835321E+03 0.  0.
        3    1    3    3  502    0  0.15233479901E+03 -0.43955376299E+03 -0.17731120893E+03  0.49784804565E+03  0.10100000352E+00 0.  1.
       -3    1    3    3    0  502 -0.15233479901E+03  0.43955376299E+03 -0.29505955727E+02  0.46613733295E+03  0.10100000352E+00 0. -1.
</event>
<event>
 5   0  0.1285769E-03  0.9986199E+03  0.7818609E-02  0.9310060E-01
        1   -1    0    0  501    0  0.00000000000E+00  0.00000000000E+00  0.41542061407E+03  0.41542061410E+03  0.50400001928E-02 0.  1.
       -1   -1    0    0    0  501  0.00000000000E+00  0.00000000000E+00 -0.60013971811E+03  0.60013971813E+03  0.50400001928E-02 0. -1.
    10030    2    1    2    0    0  0.00000000000E+00  0.00000000000E+00 -0.18471910404E+03  0.10155603322E+04  0.99861986811E+03 0.  0.
        5    1    3    3  502    0 -0.55532169307E+01  0.60715345350E+02  0.41159825796E+03  0.41611585806E+03  0.46999998093E+01 0.  1.
       -5    1    3    3    0  502  0.55532169307E+01 -0.60715345350E+02 -0.59631736200E+03  0.59944447416E+03  0.46999998093E+01 0. -1.
</event>
<event>
 5   0  0.1293716E-03  0.1001172E+04  0.7818609E-02  0.9307260E-01
        1   -1    0    0  501    0  0.00000000000E+00  0.00000000000E+00  0.72490306613E+03  0.72490306615E+03  0.50400001928E-02 0.  1.
       -1   -1    0    0    0  501  0.00000000000E+00  0.00000000000E+00 -0.34568250349E+03  0.34568250353E+03  0.50400001928E-02 0. -1.
    10030    2    1    2    0    0  0.00000000000E+00  0.00000000000E+00  0.37922056264E+03  0.10705855697E+04  0.10011719267E+04 0.  0.
        3    1    3    3  502    0 -0.30472917106E+03  0.28550584137E+03 -0.10559682265E+03  0.43072514706E+03  0.10100000352E+00 0. -1.
       -3    1    3    3    0  502  0.30472917106E+03 -0.28550584137E+03  0.48481738529E+03  0.63986042262E+03  0.10100000352E+00 0.  1.
</event>
<event>
 5   0  0.1285769E-03  0.9963483E+03  0.7818609E-02  0.9312559E-01
        1   -1    0    0  501    0  0.00000000000E+00  0.00000000000E+00  0.81989433005E+03  0.81989433007E+03  0.50400001928E-02 0. -1.
       -1   -1    0    0    0  501  0.00000000000E+00  0.00000000000E+00 -0.30269450351E+03  0.30269450355E+03  0.50400001928E-02 0.  1.
    10030    2    1    2    0    0  0.00000000000E+00  0.00000000000E+00  0.51719982655E+03  0.11225888336E+04  0.99634834711E+03 0.  0.
        5    1    3    3  502    0 -0.28797836099E+03 -0.24749091915E+03  0.62190206912E+03  0.72867521231E+03  0.46999998093E+01 0. -1.
       -5    1    3    3    0  502  0.28797836099E+03  0.24749091915E+03 -0.10470224257E+03  0.39391362131E+03  0.46999998093E+01 0.  1.
</event>
<event>
 5   0  0.2284843E-03  0.9978166E+03  0.7818609E-02  0.9310943E-01
       -2   -1    0    0    0  501  0.00000000000E+00  0.00000000000E+00  0.18913401539E+03  0.18913401541E+03  0.25500000920E-02 0. -1.
        2   -1    0    0  501    0  0.00000000000E+00  0.00000000000E+00 -0.13160483773E+04  0.13160483773E+04  0.25500000920E-02 0.  1.
    10030    2    1    2    0    0  0.00000000000E+00  0.00000000000E+00 -0.11269143619E+04  0.15051823927E+04  0.99781664461E+03 0.  0.
        2    1    3    3  502    0  0.39137595466E+03 -0.27942735766E+03 -0.36302433168E+03  0.60252921215E+03  0.25500000920E-02 0. -1.
       -2    1    3    3    0  502 -0.39137595466E+03  0.27942735766E+03 -0.76389003021E+03  0.90265318055E+03  0.25500000920E-02 0.  1.
</event>
<event>
 5   0  0.1293716E-03  0.9998680E+03  0.7818609E-02  0.9308690E-01
        1   -1    0    0  501    0  0.00000000000E+00  0.00000000000E+00  0.32907875264E+03  0.32907875268E+03  0.50400001928E-02 0. -1.
       -1   -1    0    0    0  501  0.00000000000E+00  0.00000000000E+00 -0.75949595088E+03  0.75949595090E+03  0.50400001928E-02 0.  1.
    10030    2    1    2    0    0  0.00000000000E+00  0.00000000000E+00 -0.43041719824E+03  0.10885747036E+04  0.99986795164E+03 0.  0.
        3    1    3    3  502    0 -0.67900788301E+01 -0.40316143080E+03 -0.53697735843E+03  0.67151317047E+03  0.10100000352E+00 0.  1.
       -3    1    3    3    0  502  0.67900788301E+01  0.40316143080E+03  0.10656016018E+03  0.41706153310E+03  0.10100000352E+00 0. -1.
</event>
<event>
 5   0  0.2204862E-03  0.9974088E+03  0.7818609E-02  0.9311391E-01
       -2   -1    0    0    0  501  0.00000000000E+00  0.00000000000E+00  0.17213238458E+03  0.17213238460E+03  0.25500000920E-02 0.  1.
        2   -1    0    0  501    0  0.00000000000E+00  0.00000000000E+00 -0.14448535033E+04  0.14448535033E+04  0.25500000920E-02 0. -1.
    10030    2    1    2    0    0  0.00000000000E+00  0.00000000000E+00 -0.12727211187E+04  0.16169858879E+04  0.99740880066E+03 0.  0.
        1    1    3    3  502    0  0.25343293189E+03  0.24048396285E+02  0.58861127321E+02  0.26128759761E+03  0.50400001928E-02 0.  1.
       -1    1    3    3    0  502 -0.25343293189E+03 -0.24048396285E+02 -0.13315822460E+04  0.13556982903E+04  0.50400001928E-02 0. -1.
</event>
<event>
 5   0  0.2255142E-03  0.1001463E+04  0.7818609E-02  0.9306941E-01
        2   -1    0    0  501    0  0.00000000000E+00  0.00000000000E+00  0.64696767751E+03  0.64696767751E+03  0.25500000920E-02 0. -1.
       -2   -1    0    0    0  501  0.00000000000E+00  0.00000000000E+00 -0.38754987323E+03  0.38754987324E+03  0.25500000920E-02 0.  1.
    10030    2    1    2    0    0  0.00000000000E+00  0.00000000000E+00  0.25941780428E+03  0.10345175508E+04  0.10014634120E+04 0.  0.
        4    1    3    3  502    0 -0.15217377501E+03 -0.45000328778E+03  0.29327261985E+03  0.55827435841E+03  0.12699999809E+01 0. -1.
       -4    1    3    3    0  502  0.15217377501E+03  0.45000328778E+03 -0.33854815572E+02  0.47624319234E+03  0.12699999809E+01 0.  1.
</event>
<event>
 5   0  0.1293716E-03  0.1004813E+04  0.7818609E-02  0.9303282E-01
        1   -1    0    0  501    0  0.00000000000E+00  0.00000000000E+00  0.67030354609E+03  0.67030354610E+03  0.50400001928E-02 0.  1.
       -1   -1    0    0    0  501  0.00000000000E+00  0.00000000000E+00 -0.37656393697E+03  0.37656393700E+03  0.50400001928E-02 0. -1.
    10030    2    1    2    0    0  0.00000000000E+00  0.00000000000E+00  0.29373960912E+03  0.10468674831E+04  0.10048127036E+04 0.  0.
        3    1    3    3  502    0 -0.35474591628E+03 -0.15909386255E+03 -0.18465672293E+03  0.43041101024E+03  0.10100000352E+00 0. -1.
       -3    1    3    3    0  502  0.35474591628E+03  0.15909386255E+03  0.47839633205E+03  0.61645647286E+03  0.10100000352E+00 0.  1.
</event>
<event>
 5   0  0.2277570E-03  0.1003517E+04  0.7818609E-02  0.9304696E-01
       -2   -1    0    0    0  501  0.00000000000E+00  0.00000000000E+00  0.29733436150E+03  0.29733436151E+03  0.25500000920E-02 0.  1.
        2   -1    0    0  501    0  0.00000000000E+00  0.00000000000E+00 -0.84672841638E+03  0.84672841638E+03  0.25500000920E-02 0. -1.
    10030    2    1    2    0    0  0.00000000000E+00  0.00000000000E+00 -0.54939405487E+03  0.11440627779E+04  0.10035167224E+04 0.  0.
        3    1    3    3  502    0 -0.30361806791E+03  0.29918359626E+03 -0.57647048233E+03  0.71694698732E+03  0.10100000352E+00 0. -1.
       -3    1    3    3    0  502  0.30361806791E+03 -0.29918359626E+03  0.27076427454E+02  0.42711579057E+03  0.10100000352E+00 0.  1.
</event>
<event>
 5   0  0.2277570E-03  0.9963329E+03  0.7818609E-02  0.9312576E-01
        2   -1    0    0  501    0  0.00000000000E+00  0.00000000000E+00  0.87285395838E+03  0.87285395838E+03  0.25500000920E-02 0.  1.
       -2   -1    0    0    0  501  0.00000000000E+00  0.00000000000E+00 -0.28431999280E+03  0.28431999281E+03  0.25500000920E-02 0. -1.
    10030    2    1    2    0    0  0.00000000000E+00  0.00000000000E+00  0.58853396558E+03  0.11571739512E+04  0.99633293867E+03 0.  0.
        3    1    3    3  502    0 -0.38815605839E+03  0.23245923846E+03  0.53641224782E+03  0.70174107263E+03  0.10100000352E+00 0.  1.
       -3    1    3    3    0  502  0.38815605839E+03 -0.23245923846E+03  0.52121717762E+02  0.45543287856E+03  0.10100000352E+00 0. -1.
</event>
<event>
 5   0  0.1249195E-03  0.1006166E+04  0.7818609E-02  0.9301808E-01
       -1   -1    0    0    0  501  0.00000000000E+00  0.00000000000E+00  0.37002157776E+03  0.37002157780E+03  0.50400001928E-02 0.  1.
        1   -1    0    0  501    0  0.00000000000E+00  0.00000000000E+00 -0.68399342592E+03  0.68399342594E+03  0.50400001928E-02 0. -1.
    10030    2    1    2    0    0  0.00000000000E+00  0.00000000000E+00 -0.31397184816E+03  0.10540150037E+04  0.10061656457E+04 0.  0.
        2    1    3    3  502    0 -0.98593002381E+01 -0.57972274742E+02  0.36640895424E+03  0.37109771246E+03  0.25500000920E-02 0.  1.
       -2    1    3    3    0  502  0.98593002381E+01  0.57972274742E+02 -0.68038080240E+03  0.68291729127E+03  0.25500000920E-02 0. -1.
</event>
<event>
 5   0  0.1285769E-03  0.9937532E+03  0.7818609E-02  0.9315423E-01
       -1   -1    0    0    0  501  0.00000000000E+00  0.00000000000E+00  0.50361469399E+03  0.50361469401E+03  0.50400001928E-02 0. -1.
        1   -1    0    0  501    0  0.00000000000E+00  0.00000000000E+00 -0.49022863285E+03  0.49022863287E+03  0.50400001928E-02 0.  1.
    10030    2    1    2    0    0  0.00000000000E+00  0.00000000000E+00  0.13386061138E+02  0.99384332689E+03  0.99375317447E+03 0.  0.
        5    1    3    3  502    0 -0.39333528366E+03  0.58701808754E+02  0.30455508011E+03  0.50093356300E+03  0.46999998093E+01 0. -1.
       -5    1    3    3    0  502  0.39333528366E+03 -0.58701808754E+02 -0.29116901898E+03  0.49290976388E+03  0.46999998093E+01 0.  1.
</event>
<event>
 5   0  0.1353789E-03  0.9995334E+03  0.7818609E-02  0.9309057E-01
        1   -1    0    0  501    0  0.00000000000E+00  0.00000000000E+00  0.18315617449E+04  0.18315617449E+04  0.50400001928E-02 0. -1.
       -1   -1    0    0    0  501  0.00000000000E+00  0.00000000000E+00 -0.13636819787E+03  0.13636819797E+03  0.50400001928E-02 0.  1.
    10030    2    1    2    0    0  0.00000000000E+00  0.00000000000E+00  0.16951935470E+04  0.19679299429E+04  0.99953344025E+03 0.  0.
        1    1    3    3  502    0 -0.31076733809E+03 -0.14795549641E+02  0.77549109978E+02  0.32063859904E+03  0.50400001928E-02 0.  1.
       -1    1    3    3    0  502  0.31076733809E+03  0.14795549641E+02  0.16176444371E+04  0.16472913438E+04  0.50400001928E-02 0. -1.
</event>
<event>
 5   0  0.2264577E-03  0.9853313E+03  0.7818609E-02  0.9324781E-01
       -2   -1    0    0    0  501  0.00000000000E+00  0.00000000000E+00  0.60196051281E+03  0.60196051282E+03  0.25500000920E-02 0. -1.
        2   -1    0    0  501    0  0.00000000000E+00  0.00000000000E+00 -0.40321485629E+03  0.40321485630E+03  0.25500000920E-02 0.  1.
    10030    2    1    2    0    0  0.00000000000E+00  0.00000000000E+00  0.19874565652E+03  0.10051753691E+04  0.98533125734E+03 0.  0.
        5    1    3    3  502    0  0.12610622033E+03 -0.17313929865E+03 -0.35320289362E+03  0.41310334010E+03  0.46999998093E+01 0.  1.
       -5    1    3    3    0  502 -0.12610622033E+03  0.17313929865E+03  0.55194855014E+03  0.59207202901E+03  0.46999998093E+01 0. -1.
</event>
<event>
 5   0  0.2277570E-03  0.1001580E+04  0.7818609E-02  0.9306813E-01
        2   -1    0    0  501    0  0.00000000000E+00  0.00000000000E+00  0.91325098060E+03  0.91325098061E+03  0.25500000920E-02 0.  1.
       -2   -1    0    0    0  501  0.00000000000E+00  0.00000000000E+00 -0.27461324952E+03  0.27461324953E+03  0.25500000920E-02 0. -1.
    10030    2    1    2    0    0  0.00000000000E+00  0.00000000000E+00  0.63863773109E+03  0.11878642301E+04  0.10015803900E+04 0.  0.
        3    1    3    3  502    0  0.23147555510E+03  0.30257428162E+03  0.70482703311E+03  0.80119491094E+03  0.10100000352E+00 0.  1.
       -3    1    3    3    0  502 -0.23147555510E+03 -0.30257428162E+03 -0.66189302020E+02  0.38666931920E+03  0.10100000352E+00 0. -1.
</event>
<event>
 5   0  0.2255142E-03  0.1000657E+04  0.7818609E-02  0.9307825E-01
       -2   -1    0    0    0  501  0.00000000000E+00  0.00000000000E+00  0.22690460060E+03  0.22690460061E+03  0.25500000920E-02 0.  1.
        2   -1    0    0  501    0  0.00000000000E+00  0.00000000000E+00 -0.11032320544E+04  0.11032320544E+04  0.25500000920E-02 0. -1.
    10030    2    1    2    0    0  0.00000000000E+00  0.00000000000E+00 -0.87632745381E+03  0.13301366550E+04  0.10006566418E+04 0.  0.
        4    1    3    3  502    0  0.37864615335E+01 -0.17643124438E+03  0.18415961888E+03  0.25506606872E+03  0.12699999809E+01 0.  1.
       -4    1    3    3    0  502 -0.37864615335E+01  0.17643124438E+03 -0.10604870727E+04  0.10750705863E+04  0.12699999809E+01 0. -1.
</event>
<event>
 5   0  0.2277570E-03  0.9950328E+03  0.7818609E-02  0.9314010E-01
       -2   -1    0    0    0  501  0.00000000000E+00  0.00000000000E+00  0.85069106502E+02  0.85069106540E+02  0.25500000920E-02 0. -1.
        2   -1    0    0  501    0  0.00000000000E+00  0.00000000000E+00 -0.29096647881E+04  0.29096647881E+04  0.25500000920E-02 0.  1.
    10030    2    1    2    0    0  0.00000000000E+00  0.00000000000E+00 -0.28245956816E+04  0.29947338947E+04  0.99503283123E+03 0.  0.
        3    1    3    3  502    0  0.11083910180E+03  0.30857888920E+03 -0.25384839912E+04  0.25595716870E+04  0.10100000352E+00 0.  1.
       -3    1    3    3    0  502 -0.11083910180E+03 -0.30857888920E+03 -0.28611169043E+03  0.43516220763E+03  0.10100000352E+00 0. -1.
</event>
<event>
 5   0  0.1285769E-03  0.9975157E+03  0.7818609E-02  0.9311274E-01
        1   -1    0    0  501    0  0.00000000000E+00  0.00000000000E+00  0.11122466627E+04  0.11122466627E+04  0.50400001928E-02 0. -1.
       -1   -1    0    0    0  501  0.00000000000E+00  0.00000000000E+00 -0.22365488560E+03  0.22365488565E+03  0.50400001928E-02 0.  1.
    10030    2    1    2    0    0  0.00000000000E+00  0.00000000000E+00  0.88859177710E+03  0.13359015484E+04  0.99751571445E+03 0.  0.
        5    1    3    3  502    0  0.16071563508E+03 -0.25989119921E+03  0.97217005226E+03  0.10190729372E+04  0.46999998093E+01 0. -1.
       -5    1    3    3    0  502 -0.16071563508E+03  0.25989119921E+03 -0.83578275157E+02  0.31682861118E+03  0.46999998093E+01 0.  1.
</event>
<event>
 5   0  0.1293575E-03  0.9986088E+03  0.7818609E-02  0.9310072E-01
        1   -1    0    0  501    0  0.00000000000E+00  0.00000000000E+00  0.62466960121E+03  0.62466960123E+03  0.50400001928E-02 0. -1.
       -1   -1    0    0    0  501  0.00000000000E+00  0.00000000000E+00 -0.39909882833E+03  0.39909882836E+03  0.50400001928E-02 0.  1.
    10030    2    1    2    0    0  0.00000000000E+00  0.00000000000E+00  0.22557077288E+03  0.10237684296E+04  0.99860884427E+03 0.  0.
        4    1    3    3  502    0  0.48214793400E+03 -0.11293601404E+03  0.17828657547E+03  0.52631633968E+03  0.12699999809E+01 0. -1.
       -4    1    3    3    0  502 -0.48214793400E+03  0.11293601404E+03  0.47284197409E+02  0.49745208991E+03  0.12699999809E+01 0.  1.
</event>
<event>
 5   0  0.1285769E-03  0.9904570E+03  0.7818609E-02  0.9319074E-01
        1   -1    0    0  501    0  0.00000000000E+00  0.00000000000E+00  0.15882572995E+04  0.15882572995E+04  0.50400001928E-02 0. -1.
       -1   -1    0    0    0  501  0.00000000000E+00  0.00000000000E+00 -0.15441533639E+03  0.15441533647E+03  0.50400001928E-02 0.  1.
    10030    2    1    2    0    0  0.00000000000E+00  0.00000000000E+00  0.14338419631E+04  0.17426726359E+04  0.99045703643E+03 0.  0.
        5    1    3    3  502    0 -0.49167647702E+03 -0.43428605435E+02  0.64659980680E+03  0.81347722892E+03  0.46999998093E+01 0. -1.
       -5    1    3    3    0  502  0.49167647702E+03  0.43428605435E+02  0.78724215626E+03  0.92919540702E+03  0.46999998093E+01 0.  1.
</event>
<event>
 5   0  0.1293575E-03  0.9799910E+03  0.7818609E-02  0.9330767E-01
        1   -1    0    0  501    0  0.00000000000E+00  0.00000000000E+00  0.33893523619E+03  0.33893523623E+03  0.50400001928E-02 0.  1.
       -1   -1    0    0    0  501  0.00000000000E+00  0.00000000000E+00 -0.70838190560E+03  0.70838190561E+03  0.50400001928E-02 0. -1.
    10030    2    1    2    0    0  0.00000000000E+00  0.00000000000E+00 -0.36944666940E+03  0.10473171418E+04  0.97999099693E+03 0.  0.
        4    1    3    3  502    0  0.12117707384E+03 -0.10129269439E+03  0.31098552672E+03  0.34879464430E+03  0.12699999809E+01 0.  1.
       -4    1    3    3    0  502 -0.12117707384E+03  0.10129269439E+03 -0.68043219612E+03  0.69852249755E+03  0.12699999809E+01 0. -1.
</event>
<event>
 5   0  0.2277570E-03  0.1000681E+04  0.7818609E-02  0.9307799E-01
        2   -1    0    0  501    0  0.00000000000E+00  0.00000000000E+00  0.71117645416E+03  0.71117645416E+03  0.25500000920E-02 0.  1.
       -2   -1    0    0    0  501  0.00000000000E+00  0.00000000000E+00 -0.35200886238E+03  0.35200886239E+03  0.25500000920E-02 0. -1.
    10030    2    1    2    0    0  0.00000000000E+00  0.00000000000E+00  0.35916759177E+03  0.10631853166E+04  0.10006805976E+04 0.  0.
        3    1    3    3  502    0  0.49750918254E+03  0.52046468501E+02  0.16813171524E+03  0.52772389131E+03  0.10100000352E+00 0.  1.
       -3    1    3    3    0  502 -0.49750918254E+03 -0.52046468501E+02  0.19103587653E+03  0.53546142524E+03  0.10100000352E+00 0. -1.
</event>
<event>
 5   0  0.1293716E-03  0.9990543E+03  0.7818609E-02  0.9309583E-01
       -1   -1    0    0    0  501  0.00000000000E+00  0.00000000000E+00  0.41446240675E+03  0.41446240678E+03  0.50400001928E-02 0. -1.
        1   -1    0    0  501    0  0.00000000000E+00  0.00000000000E+00 -0.60205065293E+03  0.60205065295E+03  0.50400001928E-02 0.  1.
    10030    2    1    2    0    0  0.00000000000E+00  0.00000000000E+00 -0.18758824618E+03  0.10165130597E+04  0.99905427806E+03 0.  0.
        3    1    3    3  502    0  0.14229917234E+03  0.29055248060E+03 -0.48104682146E+03  0.57972049565E+03  0.10100000352E+00 0.  1.
       -3    1    3    3    0  502 -0.14229917234E+03 -0.29055248060E+03  0.29345857528E+03  0.43679256409E+03  0.10100000352E+00 0. -1.
</event>
<event>
 5   0  0.8680125E-04  0.1001107E+04  0.7818609E-02  0.9307331E-01
       -4   -1    0    0    0  501  0.00000000000E+00  0.00000000000E+00  0.29808281931E+03  0.29808552476E+03  0.12699999809E+01 0. -1.
        4   -1    0    0  501    0  0.00000000000E+00  0.00000000000E+00 -0.84054430710E+03  0.84054526654E+03  0.12699999809E+01 0.  1.
    10030    2    1    2    0    0  0.00000000000E+00  0.00000000000E+00 -0.54246148779E+03  0.11386307913E+04  0.10011071936E+04 0.  0.
        4    1    3    3  502    0  0.80536770122E+02 -0.22164515146E+03 -0.77340253942E+03  0.80855788005E+03  0.12699999809E+01 0.  1.
       -4    1    3    3    0  502 -0.80536770122E+02  0.22164515146E+03  0.23094105163E+03  0.33007291124E+03  0.12699999809E+01 0. -1.
</event>
<event>
 5   0  0.2277570E-03  0.9957264E+03  0.7818609E-02  0.9313244E-01
       -2   -1    0    0    0  501  0.00000000000E+00  0.00000000000E+00  0.10523995773E+03  0.10523995776E+03  0.25500000920E-02 0.  1.
        2   -1    0    0  501    0  0.00000000000E+00  0.00000000000E+00 -0.23552630910E+04  0.23552630910E+04  0.25500000920E-02 0. -1.
    10030    2    1    2    0    0  0.00000000000E+00  0.00000000000E+00 -0.22500231333E+04  0.24605030488E+04  0.99572644471E+03 0.  0.
        3    1    3    3  502    0  0.28852483636E+02  0.26713022727E+03 -0.21607283530E+04  0.21773695253E+04  0.10100000352E+00 0. -1.
       -3    1    3    3    0  502 -0.28852483636E+02 -0.26713022727E+03 -0.89294780338E+02  0.28313352350E+03  0.10100000352E+00 0.  1.
</event>
<event>
 5   0  0.1293716E-03  0.1004361E+04  0.7818609E-02  0.9303774E-01
        1   -1    0    0  501    0  0.00000000000E+00  0.00000000000E+00  0.23666806167E+04  0.23666806167E+04  0.50400001928E-02 0.  1.
       -1   -1    0    0    0  501  0.00000000000E+00  0.00000000000E+00 -0.10655657840E+03  0.10655657852E+03  0.50400001928E-02 0. -1.
    10030    2    1    2    0    0  0.00000000000E+00  0.00000000000E+00  0.22601240383E+04  0.24732371953E+04  0.10043612674E+04 0.  0.
        3    1    3    3  502    0  0.48588616201E+03  0.60013334269E+02  0.85476386483E+03  0.98504225165E+03  0.10100000352E+00 0.  1.
       -3    1    3    3    0  502 -0.48588616201E+03 -0.60013334269E+02  0.14053601735E+04  0.14881949436E+04  0.10100000352E+00 0. -1.
</event>
<event>
 5   0  0.2255142E-03  0.9972409E+03  0.7818609E-02  0.9311576E-01
       -2   -1    0    0    0  501  0.00000000000E+00  0.00000000000E+00  0.20361779920E+03  0.20361779922E+03  0.25500000920E-02 0. -1.
        2   -1    0    0  501    0  0.00000000000E+00  0.00000000000E+00 -0.12210245445E+04  0.12210245445E+04  0.25500000920E-02 0.  1.
    10030    2    1    2    0    0  0.00000000000E+00  0.00000000000E+00 -0.10174067453E+04  0.14246423437E+04  0.99724085464E+03 0.  0.
        4    1    3    3  502    0 -0.13802047354E+03  0.18845446027E+03 -0.11380201423E+04  0.11617470430E+04  0.12699999809E+01 0.  1.
       -4    1    3    3    0  502  0.13802047354E+03 -0.18845446027E+03  0.12061339700E+03  0.26289530074E+03  0.12699999809E+01 0. -1.
</event>
<event>
 5   0  0.8680125E-04  0.9983937E+03  0.7818609E-02  0.9310308E-01
        4   -1    0    0  501    0  0.00000000000E+00  0.00000000000E+00  0.79881511016E+03  0.79881611972E+03  0.12699999809E+01 0. -1.
       -4   -1    0    0    0  501  0.00000000000E+00  0.00000000000E+00 -0.31195641219E+03  0.31195899731E+03  0.12699999809E+01 0.  1.
    10030    2    1    2    0    0  0.00000000000E+00  0.00000000000E+00  0.48685869798E+03  0.11107751170E+04  0.99839369430E+03 0.  0.
        4    1    3    3  502    0  0.48010616668E+03 -0.13665104915E+03  0.24845916254E+03  0.55759215280E+03  0.12699999809E+01 0. -1.
       -4    1    3    3    0  502 -0.48010616668E+03  0.13665104915E+03  0.23839953544E+03  0.55318296423E+03  0.12699999809E+01 0.  1.
</event>
<event>
 5   0  0.1249195E-03  0.1000207E+04  0.7818609E-02  0.9308318E-01
       -1   -1    0    0    0  501  0.00000000000E+00  0.00000000000E+00  0.29986699213E+03  0.29986699218E+03  0.50400001928E-02 0.  1.
        1   -1    0    0  501    0  0.00000000000E+00  0.00000000000E+00 -0.83404764719E+03  0.83404764720E+03  0.50400001928E-02 0. -1.
    10030    2    1    2    0    0  0.00000000000E+00  0.00000000000E+00 -0.53418065505E+03  0.11339146394E+04  0.10002066972E+04 0.  0.
        2    1    3    3  502    0  0.12339895041E+03  0.10826535626E+03 -0.80263240003E+03  0.81924810523E+03  0.25500000920E-02 0. -1.
       -2    1    3    3    0  502 -0.12339895041E+03 -0.10826535626E+03  0.26845174498E+03  0.31466653415E+03  0.25500000920E-02 0.  1.
</event>
<event>
 5   0  0.1293575E-03  0.9992036E+03  0.7818609E-02  0.9309419E-01
       -1   -1    0    0    0  501  0.00000000000E+00  0.00000000000E+00  0.77633736347E+03  0.77633736349E+03  0.50400001928E-02 0. -1.
        1   -1    0    0  501    0  0.00000000000E+00  0.00000000000E+00 -0.32151225894E+03  0.32151225898E+03  0.50400001928E-02 0.  1.
    10030    2    1    2    0    0  0.00000000000E+00  0.00000000000E+00  0.45482510453E+03  0.10978496225E+04  0.99920364183E+03 0.  0.
        4    1    3    3  502    0 -0.30944556900E+03  0.61314203724E+02  0.65306642475E+03  0.72526778489E+03  0.12699999809E+01 0. -1.
       -4    1    3    3    0  502  0.30944556900E+03 -0.61314203724E+02 -0.19824132022E+03  0.37258183758E+03  0.12699999809E+01 0.  1.
</event>
<event>
 5   0  0.1293716E-03  0.9849552E+03  0.7818609E-02  0.9325201E-01
        1   -1    0    0  501    0  0.00000000000E+00  0.00000000000E+00  0.75931230350E+03  0.75931230352E+03  0.50400001928E-02 0. -1.
       -1   -1    0    0    0  501  0.00000000000E+00  0.00000000000E+00 -0.31941292738E+03  0.31941292742E+03  0.50400001928E-02 0.  1.
    10030    2    1    2    0    0  0.00000000000E+00  0.00000000000E+00  0.43989937612E+03  0.10787252309E+04  0.98495515774E+03 0.  0.
        3    1    3    3  502    0  0.31447185331E+03  0.14666347261E+01  0.63502916125E+03  0.70863018803E+03  0.10100000352E+00 0. -1.
       -3    1    3    3    0  502 -0.31447185331E+03 -0.14666347261E+01 -0.19512978513E+03  0.37009504292E+03  0.10100000352E+00 0.  1.
</event>
<event>
 5   0  0.1285769E-03  0.9998094E+03  0.7818609E-02  0.9308754E-01
        1   -1    0    0  501    0  0.00000000000E+00  0.00000000000E+00  0.41563825063E+03  0.41563825066E+03  0.50400001928E-02 0. -1.
       -1   -1    0    0    0  501  0.00000000000E+00  0.00000000000E+00 -0.60125530089E+03  0.60125530091E+03  0.50400001928E-02 0.  1.
    10030    2    1    2    0    0  0.00000000000E+00  0.00000000000E+00 -0.18561705026E+03  0.10168935516E+04  0.99980938477E+03 0.  0.
        5    1    3    3  502    0 -0.18210750121E+03 -0.38653666146E+02 -0.56465966599E+03  0.59457537478E+03  0.46999998093E+01 0.  1.
       -5    1    3    3    0  502  0.18210750121E+03  0.38653666146E+02  0.37904261573E+03  0.42231817679E+03  0.46999998093E+01 0. -1.
</event>
<event>
 5   0  0.2277570E-03  0.1001675E+04  0.7818609E-02  0.9306710E-01
       -2   -1    0    0    0  501  0.00000000000E+00  0.00000000000E+00  0.34536153220E+03  0.34536153221E+03  0.25500000920E-02 0.  1.
        2   -1    0    0  501    0  0.00000000000E+00  0.00000000000E+00 -0.72630618588E+03  0.72630618589E+03  0.25500000920E-02 0. -1.
    10030    2    1    2    0    0  0.00000000000E+00  0.00000000000E+00 -0.38094465369E+03  0.10716677181E+04  0.10016750316E+04 0.  0.
        3    1    3    3  502    0 -0.15436979966E+03 -0.18357983204E+03 -0.66086078905E+03  0.70304237603E+03  0.10100000352E+00 0. -1.
       -3    1    3    3    0  502  0.15436979966E+03  0.18357983204E+03  0.27991613537E+03  0.36862534207E+03  0.10100000352E+00 0.  1.
</event>
<event>
 5   0  0.1353789E-03  0.9998749E+03  0.7818609E-02  0.9308682E-01
       -1   -1    0    0    0  501  0.00000000000E+00  0.00000000000E+00  0.30108509913E+03  0.30108509918E+03  0.50400001928E-02 0.  1.
        1   -1    0    0  501    0  0.00000000000E+00  0.00000000000E+00 -0.83012227381E+03  0.83012227382E+03  0.50400001928E-02 0. -1.
    10030    2    1    2    0    0  0.00000000000E+00  0.00000000000E+00 -0.52903717467E+03  0.11312073730E+04  0.99987488644E+03 0.  0.
        1    1    3    3  502    0  0.19927383353E+03 -0.10328586579E+03  0.24087843534E+03  0.32924223824E+03  0.50400001928E-02 0.  1.
       -1    1    3    3    0  502 -0.19927383353E+03  0.10328586579E+03 -0.76991561001E+03  0.80196513476E+03  0.50400001928E-02 0. -1.
</event>
<event>
 5   0  0.2204862E-03  0.1000417E+04  0.7818609E-02  0.9308088E-01
        2   -1    0    0  501    0  0.00000000000E+00  0.00000000000E+00  0.20693914824E+03  0.20693914826E+03  0.25500000920E-02 0.  1.
       -2   -1    0    0    0  501  0.00000000000E+00  0.00000000000E+00 -0.12090912207E+04  0.12090912207E+04  0.25500000920E-02 0. -1.
    10030    2    1    2    0    0  0.00000000000E+00  0.00000000000E+00 -0.10021520725E+04  0.14160303690E+04  0.10004165280E+04 0.  0.
        1    1    3    3  502    0  0.15973299257E+03 -0.11229412984E+03 -0.11529225725E+04  0.11693395823E+04  0.50400001928E-02 0. -1.
       -1    1    3    3    0  502 -0.15973299257E+03  0.11229412984E+03  0.15077050005E+03  0.24669078666E+03  0.50400001928E-02 0.  1.
</event>
<event>
 5   0  0.1293716E-03  0.9998054E+03  0.7818609E-02  0.9308758E-01
       -1   -1    0    0    0  501  0.00000000000E+00  0.00000000000E+00  0.27768981587E+03  0.27768981591E+03  0.50400001928E-02 0. -1.
        1   -1    0    0  501    0  0.00000000000E+00  0.00000000000E+00 -0.89993465071E+03  0.89993465072E+03  0.50400001928E-02 0.  1.
    10030    2    1    2    0    0  0.00000000000E+00  0.00000000000E+00 -0.62224483484E+03  0.11776244666E+04  0.99980535602E+03 0.  0.
        3    1    3    3  502    0  0.14196799126E+03 -0.47898482312E+03 -0.33223545647E+03  0.59996814921E+03  0.10100000352E+00 0.  1.
       -3    1    3    3    0  502 -0.14196799126E+03  0.47898482312E+03 -0.29000937836E+03  0.57765631743E+03  0.10100000352E+00 0. -1.
</event>
<event>
 5   0  0.1249195E-03  0.1026024E+04  0.7818609E-02  0.9280454E-01
        1   -1    0    0  501    0  0.00000000000E+00  0.00000000000E+00  0.80768632444E+03  0.80768632445E+03  0.50400001928E-02 0.  1.
       -1   -1    0    0    0  501  0.00000000000E+00  0.00000000000E+00 -0.32584601344E+03  0.32584601348E+03  0.50400001928E-02 0. -1.
    10030    2    1    2    0    0  0.00000000000E+00  0.00000000000E+00  0.48184031100E+03  0.11335323379E+04  0.10260241107E+04 0.  0.
        2    1    3    3  502    0  0.32190518356E+03  0.28243591589E+03  0.55298594292E+03  0.69941864921E+03  0.25500000920E-02 0.  1.
       -2    1    3    3    0  502 -0.32190518356E+03 -0.28243591589E+03 -0.71145631923E+02  0.43411368872E+03  0.25500000920E-02 0. -1.
</event>
<event>
 5   0  0.1285769E-03  0.9878275E+03  0.7818609E-02  0.9321997E-01
       -1   -1    0    0    0  501  0.00000000000E+00  0.00000000000E+00  0.27117115114E+03  0.27117115119E+03  0.50400001928E-02 0. -1.
        1   -1    0    0  501    0  0.00000000000E+00  0.00000000000E+00 -0.89961920352E+03  0.89961920353E+03  0.50400001928E-02 0.  1.
    10030    2    1    2    0    0  0.00000000000E+00  0.00000000000E+00 -0.62844805238E+03  0.11707903547E+04  0.98782746478E+03 0.  0.
        5    1    3    3  502    0 -0.22490598671E+03  0.60100379651E+02 -0.83048647424E+03  0.86251065639E+03  0.46999998093E+01 0.  1.
       -5    1    3    3    0  502  0.22490598671E+03 -0.60100379651E+02  0.20203842187E+03  0.30827969833E+03  0.46999998093E+01 0. -1.
</event>
<event>
 5   0  0.2264577E-03  0.9865038E+03  0.7818609E-02  0.9323472E-01
        2   -1    0    0  501    0  0.00000000000E+00  0.00000000000E+00  0.46590166986E+03  0.46590166987E+03  0.25500000920E-02 0.  1.
       -2   -1    0    0    0  501  0.00000000000E+00  0.00000000000E+00 -0.52220765798E+03  0.52220765799E+03  0.25500000920E-02 0. -1.
    10030    2    1    2    0    0  0.00000000000E+00  0.00000000000E+00 -0.56305988116E+02  0.98810932786E+03  0.98650376558E+03 0.  0.
        5    1    3    3  502    0  0.26970085541E+03 -0.15644401538E+03  0.35464966463E+03  0.47224120529E+03  0.46999998093E+01 0.  1.
       -5    1    3    3    0  502 -0.26970085541E+03  0.15644401538E+03 -0.41095565275E+03  0.51586812257E+03  0.46999998093E+01 0. -1.
</event>
<event>
 5   0  0.2264577E-03  0.1003259E+04  0.7818609E-02  0.9304977E-01
        2   -1    0    0  501    0  0.00000000000E+00  0.00000000000E+00  0.10379121012E+04  0.10379121012E+04  0.25500000920E-02 0.  1.
       -2   -1    0    0    0  501  0.00000000000E+00  0.00000000000E+00 -0.24244084832E+03  0.24244084834E+03  0.25500000920E-02 0. -1.
    10030    2    1    2    0    0  0.00000000000E+00  0.00000000000E+00  0.79547125286E+03  0.12803529495E+04  0.10032592692E+04 0.  0.
        5    1    3    3  502    0  0.32716972947E+03 -0.34748415394E+03  0.20075099109E+03  0.51779177238E+03  0.46999998093E+01 0. -1.
       -5    1    3    3    0  502 -0.32716972947E+03  0.34748415394E+03  0.59472026177E+03  0.76256117714E+03  0.46999998093E+01 0.  1.
</event>
<event>
 5   0  0.2264577E-03  0.9999133E+03  0.7818609E-02  0.9308640E-01
       -2   -1    0    0    0  501  0.00000000000E+00  0.00000000000E+00  0.15405249949E+03  0.15405249951E+03  0.25500000920E-02 0. -1.
        2   -1    0    0  501    0  0.00000000000E+00  0.00000000000E+00 -0.16225418835E+04  0.16225418835E+04  0.25500000920E-02 0.  1.
    10030    2    1    2    0    0  0.00000000000E+00  0.00000000000E+00 -0.14684893840E+04  0.17765943830E+04  0.99991326165E+03 0.  0.
        5    1    3    3  502    0  0.24690601834E+03  0.29174071780E+03 -0.13068411827E+04  0.13615914200E+04  0.46999998093E+01 0.  1.
       -5    1    3    3    0  502 -0.24690601834E+03 -0.29174071780E+03 -0.16164820134E+03  0.41500296302E+03  0.46999998093E+01 0. -1.
</event>
<event>
 5   0  0.1293575E-03  0.9936176E+03  0.7818609E-02  0.9315573E-01
        1   -1    0    0  501    0  0.00000000000E+00  0.00000000000E+00  0.12002130218E+04  0.12002130218E+04  0.50400001928E-02 0.  1.
       -1   -1    0    0    0  501  0.00000000000E+00  0.00000000000E+00 -0.20564599908E+03  0.20564599915E+03  0.50400001928E-02 0. -1.
    10030    2    1    2    0    0  0.00000000000E+00  0.00000000000E+00  0.99456702267E+03  0.14058590209E+04  0.99361764482E+03 0.  0.
        4    1    3    3  502    0  0.14093924772E+03  0.11337989177E+03  0.11519638692E+04  0.11660794313E+04  0.12699999809E+01 0.  1.
       -4    1    3    3    0  502 -0.14093924772E+03 -0.11337989177E+03 -0.15739684648E+03  0.23977958960E+03  0.12699999809E+01 0. -1.
</event>
<event>
 5   0  0.2284843E-03  0.1006742E+04  0.7818609E-02  0.9301181E-01
       -2   -1    0    0    0  501  0.00000000000E+00  0.00000000000E+00  0.37498698367E+03  0.37498698368E+03  0.25500000920E-02 0. -1.
        2   -1    0    0  501    0  0.00000000000E+00  0.00000000000E+00 -0.67570936212E+03  0.67570936212E+03  0.25500000920E-02 0.  1.
    10030    2    1    2    0    0  0.00000000000E+00  0.00000000000E+00 -0.30072237845E+03  0.10506963458E+04  0.10067417058E+04 0.  0.
        2    1    3    3  502    0  0.16552627773E+02 -0.78579492005E+02 -0.66898106683E+03  0.67378364022E+03  0.25500000920E-02 0.  1.
       -2    1    3    3    0  502 -0.16552627773E+02  0.78579492005E+02  0.36825868838E+03  0.37691270558E+03  0.25500000920E-02 0. -1.
</event>
<event>
 5   0  0.2277570E-03  0.1001435E+04  0.7818609E-02  0.9306972E-01
        2   -1    0    0  501    0  0.00000000000E+00  0.00000000000E+00  0.48447342108E+03  0.48447342109E+03  0.25500000920E-02 0.  1.
       -2   -1    0    0    0  501  0.00000000000E+00  0.00000000000E+00 -0.51750622481E+03  0.51750622482E+03  0.25500000920E-02 0. -1.
    10030    2    1    2    0    0  0.00000000000E+00  0.00000000000E+00 -0.33032803728E+02  0.10019796459E+04  0.10014349927E+04 0.  0.
        3    1    3    3  502    0  0.42017156723E+03 -0.26129081911E+03 -0.93375906168E+02  0.50352369171E+03  0.10100000352E+00 0. -1.
       -3    1    3    3    0  502 -0.42017156723E+03  0.26129081911E+03  0.60343102441E+02  0.49845595420E+03  0.10100000352E+00 0.  1.
</event>
<event>
 5   0  0.1353789E-03  0.1001597E+04  0.7818609E-02  0.9306795E-01
        1   -1    0    0  501    0  0.00000000000E+00  0.00000000000E+00  0.17143732565E+04  0.17143732565E+04  0.50400001928E-02 0. -1.
       -1   -1    0    0    0  501  0.00000000000E+00  0.00000000000E+00 -0.14629196151E+03  0.14629196159E+03  0.50400001928E-02 0.  1.
    10030    2    1    2    0    0  0.00000000000E+00  0.00000000000E+00  0.15680812950E+04  0.18606652181E+04  0.10015967782E+04 0.  0.
        1    1    3    3  502    0  0.34291697875E+03  0.24192156384E+03  0.27637219455E+03  0.50249346992E+03  0.50400001928E-02 0.  1.
       -1    1    3    3    0  502 -0.34291697875E+03 -0.24192156384E+03  0.12917091004E+04  0.13581717481E+04  0.50400001928E-02 0. -1.
</event>
<event>
 5   0  0.2277570E-03  0.9974622E+03  0.7818609E-02  0.9311333E-01
        2   -1    0    0  501    0  0.00000000000E+00  0.00000000000E+00  0.22298626332E+04  0.22298626332E+04  0.25500000920E-02 0. -1.
       -2   -1    0    0    0  501  0.00000000000E+00  0.00000000000E+00 -0.11154619875E+03  0.11154619878E+03  0.25500000920E-02 0.  1.
    10030    2    1    2    0    0  0.00000000000E+00  0.00000000000E+00  0.21183164344E+04  0.23414088320E+04  0.99746218074E+03 0.  0.
        3    1    3    3  502    0  0.75861710643E+02  0.25709943858E+03  0.20463856056E+04  0.20638675291E+04  0.10100000352E+00 0. -1.
       -3    1    3    3    0  502 -0.75861710643E+02 -0.25709943858E+03  0.71930828778E+02  0.27754130286E+03  0.10100000352E+00 0.  1.
</event>
<event>
 5   0  0.1293575E-03  0.1004202E+04  0.7818609E-02  0.9303949E-01
       -1   -1    0    0    0  501  0.00000000000E+00  0.00000000000E+00  0.14900592340E+03  0.14900592348E+03  0.50400001928E-02 0. -1.
        1   -1    0    0  501    0  0.00000000000E+00  0.00000000000E+00 -0.16919138472E+04  0.16919138472E+04  0.50400001928E-02 0.  1.
    10030    2    1    2    0    0  0.00000000000E+00  0.00000000000E+00 -0.15429079238E+04  0.18409197707E+04  0.10042015439E+04 0.  0.
        4    1    3    3  502    0  0.37808915035E+03 -0.20770535279E+03 -0.12424540539E+04  0.13152135219E+04  0.12699999809E+01 0.  1.
       -4    1    3    3    0  502 -0.37808915035E+03  0.20770535279E+03 -0.30045386989E+03  0.52570624880E+03  0.12699999809E+01 0. -1.
</event>
<event>
 5   0  0.2264577E-03  0.1014620E+04  0.7818609E-02  0.9292654E-01
       -2   -1    0    0    0  501  0.00000000000E+00  0.00000000000E+00  0.36676783244E+03  0.36676783245E+03  0.25500000920E-02 0.  1.
        2   -1    0    0  501    0  0.00000000000E+00  0.00000000000E+00 -0.70170620187E+03  0.70170620187E+03  0.25500000920E-02 0. -1.
    10030    2    1    2    0    0  0.00000000000E+00  0.00000000000E+00 -0.33493836942E+03  0.10684740343E+04  0.10146196582E+04 0.  0.
        5    1    3    3  502    0  0.31268692704E+03 -0.95883575371E+02 -0.57583337488E+03  0.66224839750E+03  0.46999998093E+01 0. -1.
       -5    1    3    3    0  502 -0.31268692704E+03  0.95883575371E+02  0.24089500545E+03  0.40622563683E+03  0.46999998093E+01 0.  1.
</event>
<event>
 5   0  0.1293716E-03  0.1003261E+04  0.7818609E-02  0.9304975E-01
       -1   -1    0    0    0  501  0.00000000000E+00  0.00000000000E+00  0.18032856247E+03  0.18032856254E+03  0.50400001928E-02 0. -1.
        1   -1    0    0  501    0  0.00000000000E+00  0.00000000000E+00 -0.13954153501E+04  0.13954153501E+04  0.50400001928E-02 0.  1.
    10030    2    1    2    0    0  0.00000000000E+00  0.00000000000E+00 -0.12150867876E+04  0.15757439127E+04  0.10032611708E+04 0.  0.
        3    1    3    3  502    0 -0.32798338804E+03  0.43615927099E+02 -0.11997277815E+04  0.12445168588E+04  0.10100000352E+00 0.  1.
       -3    1    3    3    0  502  0.32798338804E+03 -0.43615927099E+02 -0.15359006117E+02  0.33122705384E+03  0.10100000352E+00 0. -1.
</event>
<event>
 5   0  0.2284843E-03  0.1000573E+04  0.7818609E-02  0.9307916E-01
       -2   -1    0    0    0  501  0.00000000000E+00  0.00000000000E+00  0.36827532384E+03  0.36827532385E+03  0.25500000920E-02 0.  1.
        2   -1    0    0  501    0  0.00000000000E+00  0.00000000000E+00 -0.67961866997E+03  0.67961866997E+03  0.25500000920E-02 0. -1.
    10030    2    1    2    0    0  0.00000000000E+00  0.00000000000E+00 -0.31134334613E+03  0.10478939938E+04  0.10005734072E+04 0.  0.
        2    1    3    3  502    0  0.11918648837E+03  0.40745404187E+03 -0.43288329157E+03  0.60631028308E+03  0.25500000920E-02 0.  1.
       -2    1    3    3    0  502 -0.11918648837E+03 -0.40745404187E+03  0.12153994544E+03  0.44158371074E+03  0.25500000920E-02 0. -1.
</event>
<event>
 5   0  0.1285769E-03  0.9581572E+03  0.7818609E-02  0.9355667E-01
       -1   -1    0    0    0  501  0.00000000000E+00  0.00000000000E+00  0.77112556638E+03  0.77112556640E+03  0.50400001928E-02 0. -1.
        1   -1    0    0  501    0  0.00000000000E+00  0.00000000000E+00 -0.29763802382E+03  0.29763802387E+03  0.50400001928E-02 0.  1.
    10030    2    1    2    0    0  0.00000000000E+00  0.00000000000E+00  0.47348754256E+03  0.10687635903E+04  0.95815716817E+03 0.  0.
        5    1    3    3  502    0  0.22195810663E+03  0.32774683057E+03  0.53772737616E+03  0.66772464918E+03  0.46999998093E+01 0. -1.
       -5    1    3    3    0  502 -0.22195810663E+03 -0.32774683057E+03 -0.64239833603E+02  0.40103894109E+03  0.46999998093E+01 0.  1.
</event>
<event>
 5   0  0.1249195E-03  0.9917122E+03  0.7818609E-02  0.9317682E-01
        1   -1    0    0  501    0  0.00000000000E+00  0.00000000000E+00  0.70049662853E+03  0.70049662855E+03  0.50400001928E-02 0.  1.
       -1   -1    0    0    0  501  0.00000000000E+00  0.00000000000E+00 -0.35099850352E+03  0.35099850356E+03  0.50400001928E-02 0. -1.
    10030    2    1    2    0    0  0.00000000000E+00  0.00000000000E+00  0.34949812501E+03  0.10514951321E+04  0.99171219286E+03 0.  0.
        2    1    3    3  502    0  0.24506403089E+03  0.92355778747E+02 -0.27168818899E+03  0.37735982980E+03  0.25500000920E-02 0. -1.
       -2    1    3    3    0  502 -0.24506403089E+03 -0.92355778747E+02  0.62118631400E+03  0.67413530231E+03  0.25500000920E-02 0.  1.
</event>
<event>
 5   0  0.1285769E-03  0.1006136E+04  0.7818609E-02  0.9301841E-01
       -1   -1    0    0    0  501  0.00000000000E+00  0.00000000000E+00  0.12689538615E+03  0.12689538625E+03  0.50400001928E-02 0.  1.
        1   -1    0    0  501    0  0.00000000000E+00  0.00000000000E+00 -0.19943765053E+04  0.19943765053E+04  0.50400001928E-02 0. -1.
    10030    2    1    2    0    0  0.00000000000E+00  0.00000000000E+00 -0.18674811191E+04  0.21212718915E+04  0.10061355314E+04 0.  0.
        5    1    3    3  502    0 -0.16696175001E+03  0.29637168423E+02  0.64775308809E+02  0.18158336474E+03  0.46999998093E+01 0.  1.
       -5    1    3    3    0  502  0.16696175001E+03 -0.29637168423E+02 -0.19322564279E+04  0.19396885268E+04  0.46999998093E+01 0. -1.
</event>
<event>
 5   0  0.2264577E-03  0.1003201E+04  0.7818609E-02  0.9305041E-01
       -2   -1    0    0    0  501  0.00000000000E+00  0.00000000000E+00  0.55301418757E+03  0.55301418757E+03  0.25500000920E-02 0.  1.
        2   -1    0    0  501    0  0.00000000000E+00  0.00000000000E+00 -0.45496664443E+03  0.45496664444E+03  0.25500000920E-02 0. -1.
    10030    2    1    2    0    0  0.00000000000E+00  0.00000000000E+00  0.98047543136E+02  0.10079808320E+04  0.10032008956E+04 0.  0.
        5    1    3    3  502    0 -0.27200485972E+03 -0.15593556727E+03  0.44239700469E+03  0.54225431728E+03  0.46999998093E+01 0.  1.
       -5    1    3    3    0  502  0.27200485972E+03  0.15593556727E+03 -0.34434946156E+03  0.46572651473E+03  0.46999998093E+01 0. -1.
</event>
<event>
 5   0  0.1285769E-03  0.9949312E+03  0.7818609E-02  0.9314122E-01
       -1   -1    0    0    0  501  0.00000000000E+00  0.00000000000E+00  0.69148359861E+03  0.69148359863E+03  0.50400001928E-02 0. -1.
        1   -1    0    0  501    0  0.00000000000E+00  0.00000000000E+00 -0.35788562766E+03  0.35788562770E+03  0.50400001928E-02 0.  1.
    10030    2    1    2    0    0  0.00000000000E+00  0.00000000000E+00  0.33359797094E+03  0.10493692263E+04  0.99493123729E+03 0.  0.
        5    1    3    3  502    0 -0.24525215329E+03  0.64925751543E+02 -0.28449838380E+03  0.38121567687E+03  0.46999998093E+01 0.  1.
       -5    1    3    3    0  502  0.24525215329E+03 -0.64925751543E+02  0.61809635474E+03  0.66815354946E+03  0.46999998093E+01 0. -1.
</event>
<event>
 5   0  0.2204862E-03  0.9991154E+03  0.7818609E-02  0.9309516E-01
        2   -1    0    0  501    0  0.00000000000E+00  0.00000000000E+00  0.14757831862E+04  0.14757831862E+04  0.25500000920E-02 0. -1.
       -2   -1    0    0    0  501  0.00000000000E+00  0.00000000000E+00 -0.16910198990E+03  0.16910198992E+03  0.25500000920E-02 0.  1.
    10030    2    1    2    0    0  0.00000000000E+00  0.00000000000E+00  0.13066811963E+04  0.16448851761E+04  0.99911535564E+03 0.  0.
        1    1    3    3  502    0  0.16406167216E+03  0.39177437593E+03  0.10862829893E+04  0.11663679209E+04  0.50400001928E-02 0. -1.
       -1    1    3    3    0  502 -0.16406167216E+03 -0.39177437593E+03  0.22039820695E+03  0.47851725524E+03  0.50400001928E-02 0.  1.
</event>
<event>
 5   0  0.2264577E-03  0.1002034E+04  0.7818609E-02  0.9306317E-01
        2   -1    0    0  501    0  0.00000000000E+00  0.00000000000E+00  0.13176195835E+04  0.13176195835E+04  0.25500000920E-02 0. -1.
       -2   -1    0    0    0  501  0.00000000000E+00  0.00000000000E+00 -0.19050878236E+03  0.19050878238E+03  0.25500000920E-02 0.  1.
    10030    2    1    2    0    0  0.00000000000E+00  0.00000000000E+00  0.11271108011E+04  0.15081283659E+04  0.10020341361E+04 0.  0.
        5    1    3    3  502    0  0.88630446081E+02  0.44431336111E+03  0.88539449102E+03  0.99459298890E+03  0.46999998093E+01 0. -1.
       -5    1    3    3    0  502 -0.88630446081E+02 -0.44431336111E+03  0.24171631012E+03  0.51353537698E+03  0.46999998093E+01 0.  1.
</event>
<event>
 5   0  0.2264577E-03  0.9983839E+03  0.7818609E-02  0.9310319E-01
        2   -1    0    0  501    0  0.00000000000E+00  0.00000000000E+00  0.83411267083E+03  0.83411267084E+03  0.25500000920E-02 0. -1.
       -2   -1    0    0    0  501  0.00000000000E+00  0.00000000000E+00 -0.29875172387E+03  0.29875172388E+03  0.25500000920E-02 0.  1.
    10030    2    1    2    0    0  0.00000000000E+00  0.00000000000E+00  0.53536094696E+03  0.11328643947E+04  0.99838389074E+03 0.  0.
        5    1    3    3  502    0  0.42974984418E+03 -0.19520650911E+03  0.83383693983E+02  0.47933854444E+03  0.46999998093E+01 0.  1.
       -5    1    3    3    0  502 -0.42974984418E+03  0.19520650911E+03  0.45197725298E+03  0.65352585028E+03  0.46999998093E+01 0. -1.
</event>
<event>
 5   0  0.1285769E-03  0.1000472E+04  0.7818609E-02  0.9308027E-01
        1   -1    0    0  501    0  0.00000000000E+00  0.00000000000E+00  0.17786679797E+03  0.17786679804E+03  0.50400001928E-02 0.  1.
       -1   -1    0    0    0  501  0.00000000000E+00  0.00000000000E+00 -0.14068740583E+04  0.14068740583E+04  0.50400001928E-02 0. -1.
    10030    2    1    2    0    0  0.00000000000E+00  0.00000000000E+00 -0.12290072603E+04  0.15847408564E+04  0.10004722564E+04 0.  0.
        5    1    3    3  502    0  0.40979840321E+03 -0.23260387618E+03 -0.88038237607E+03  0.99856622844E+03  0.46999998093E+01 0. -1.
       -5    1    3    3    0  502 -0.40979840321E+03  0.23260387618E+03 -0.34862488427E+03  0.58617462791E+03  0.46999998093E+01 0.  1.
</event>
<event>
 5   0  0.1285769E-03  0.9964891E+03  0.7818609E-02  0.9312404E-01
        1   -1    0    0  501    0  0.00000000000E+00  0.00000000000E+00  0.22298314585E+04  0.22298314585E+04  0.50400001928E-02 0. -1.
       -1   -1    0    0    0  501  0.00000000000E+00  0.00000000000E+00 -0.11133023309E+03  0.11133023320E+03  0.50400001928E-02 0.  1.
    10030    2    1    2    0    0  0.00000000000E+00  0.00000000000E+00  0.21185012254E+04  0.23411616917E+04  0.99648914927E+03 0.  0.
        5    1    3    3  502    0 -0.58871254571E+02 -0.23441456640E+03  0.35679860203E+02  0.24435866258E+03  0.46999998093E+01 0.  1.
       -5    1    3    3    0  502  0.58871254571E+02  0.23441456640E+03  0.20828213652E+04  0.20968030291E+04  0.46999998093E+01 0. -1.
</event>
<event>
 5   0  0.2264577E-03  0.1004398E+04  0.7818609E-02  0.9303735E-01
       -2   -1    0    0    0  501  0.00000000000E+00  0.00000000000E+00  0.34520280891E+03  0.34520280892E+03  0.25500000920E-02 0. -1.
        2   -1    0    0  501    0  0.00000000000E+00  0.00000000000E+00 -0.73059540208E+03  0.73059540208E+03  0.25500000920E-02 0.  1.
    10030    2    1    2    0    0  0.00000000000E+00  0.00000000000E+00 -0.38539259317E+03  0.10757982110E+04  0.10043975010E+04 0.  0.
        5    1    3    3  502    0 -0.64608948402E+02  0.44478276165E+03  0.47226179546E+02  0.45194958050E+03  0.46999998093E+01 0.  1.
       -5    1    3    3    0  502  0.64608948402E+02 -0.44478276165E+03 -0.43261877271E+03  0.62384863050E+03  0.46999998093E+01 0. -1.
</event>
<event>
 5   0  0.1293575E-03  0.1003223E+04  0.7818609E-02  0.9305017E-01
       -1   -1    0    0    0  501  0.00000000000E+00  0.00000000000E+00  0.32407234641E+03  0.32407234645E+03  0.50400001928E-02 0.  1.
        1   -1    0    0  501    0  0.00000000000E+00  0.00000000000E+00 -0.77641290789E+03  0.77641290791E+03  0.50400001928E-02 0. -1.
    10030    2    1    2    0    0  0.00000000000E+00  0.00000000000E+00 -0.45234056148E+03  0.11004852544E+04  0.10032227128E+04 0.  0.
        4    1    3    3  502    0  0.27565261378E+03 -0.35890871909E+03 -0.46350857989E+03  0.64779753677E+03  0.12699999809E+01 0. -1.
       -4    1    3    3    0  502 -0.27565261378E+03  0.35890871909E+03  0.11168018409E+02  0.45268771759E+03  0.12699999809E+01 0.  1.
</event>
<event>
 5   0  0.2204862E-03  0.9987150E+03  0.7818609E-02  0.9309955E-01
       -2   -1    0    0    0  501  0.00000000000E+00  0.00000000000E+00  0.94082236451E+03  0.94082236452E+03  0.25500000920E-02 0. -1.
        2   -1    0    0  501    0  0.00000000000E+00  0.00000000000E+00 -0.26504247614E+03  0.26504247615E+03  0.25500000920E-02 0.  1.
    10030    2    1    2    0    0  0.00000000000E+00  0.00000000000E+00  0.67577988837E+03  0.12058648407E+04  0.99871495255E+03 0.  0.
        1    1    3    3  502    0 -0.41396071667E+03 -0.26955769357E+03  0.24971494234E+03  0.55351818178E+03  0.50400001928E-02 0. -1.
       -1    1    3    3    0  502  0.41396071667E+03  0.26955769357E+03  0.42606494603E+03  0.65234665889E+03  0.50400001928E-02 0.  1.
</event>
<event>
 5   0  0.1285769E-03  0.9998625E+03  0.7818609E-02  0.9308696E-01
        1   -1    0    0  501    0  0.00000000000E+00  0.00000000000E+00  0.97537665758E+03  0.97537665759E+03  0.50400001928E-02 0. -1.
       -1   -1    0    0    0  501  0.00000000000E+00  0.00000000000E+00 -0.25624076813E+03  0.25624076818E+03  0.50400001928E-02 0.  1.
    10030    2    1    2    0    0  0.00000000000E+00  0.00000000000E+00  0.71913588944E+03  0.12316174258E+04  0.99986251854E+03 0.  0.
        5    1    3    3  502    0  0.16066748637E+03 -0.36880934439E+03 -0.59943291947E+01  0.40235854119E+03  0.46999998093E+01 0.  1.
       -5    1    3    3    0  502 -0.16066748637E+03  0.36880934439E+03  0.72513021864E+03  0.82925888459E+03  0.46999998093E+01 0. -1.
</event>
<event>
 5   0  0.1353789E-03  0.9871966E+03  0.7818609E-02  0.9322700E-01
       -1   -1    0    0    0  501  0.00000000000E+00  0.00000000000E+00  0.31912268752E+03  0.31912268756E+03  0.50400001928E-02 0. -1.
        1   -1    0    0  501    0  0.00000000000E+00  0.00000000000E+00 -0.76346583904E+03  0.76346583906E+03  0.50400001928E-02 0.  1.
    10030    2    1    2    0    0  0.00000000000E+00  0.00000000000E+00 -0.44434315153E+03  0.10825885266E+04  0.98719657701E+03 0.  0.
        1    1    3    3  502    0  0.41049980517E+03 -0.11288989393E+03  0.51733481304E+02  0.42887127592E+03  0.50400001928E-02 0. -1.
       -1    1    3    3    0  502 -0.41049980517E+03  0.11288989393E+03 -0.49607663283E+03  0.65371725070E+03  0.50400001928E-02 0.  1.
</event>
<event>
 5   0  0.1353789E-03  0.9929253E+03  0.7818609E-02  0.9316338E-01
       -1   -1    0    0    0  501  0.00000000000E+00  0.00000000000E+00  0.39764627514E+03  0.39764627517E+03  0.50400001928E-02 0. -1.
        1   -1    0    0  501    0  0.00000000000E+00  0.00000000000E+00 -0.61983522593E+03  0.61983522595E+03  0.50400001928E-02 0.  1.
    10030    2    1    2    0    0  0.00000000000E+00  0.00000000000E+00 -0.22218895079E+03  0.10174815011E+04  0.99292531203E+03 0.  0.
        1    1    3    3  502    0 -0.28337281710E+03 -0.35882047070E+03 -0.30932867118E+03  0.55202944714E+03  0.50400001928E-02 0.  1.
       -1    1    3    3    0  502  0.28337281710E+03  0.35882047070E+03  0.87139720384E+02  0.46545205399E+03  0.50400001928E-02 0. -1.
</event>
<event>
 5   0  0.1293575E-03  0.9826892E+03  0.7818609E-02  0.9327737E-01
        1   -1    0    0  501    0  0.00000000000E+00  0.00000000000E+00  0.81913577039E+03  0.81913577041E+03  0.50400001928E-02 0.  1.
       -1   -1    0    0    0  501  0.00000000000E+00  0.00000000000E+00 -0.29472465610E+03  0.29472465615E+03  0.50400001928E-02 0. -1.
    10030    2    1    2    0    0  0.00000000000E+00  0.00000000000E+00  0.52441111429E+03  0.11138604266E+04  0.98268918436E+03 0.  0.
        4    1    3    3  502    0 -0.28801905571E+03  0.38581975012E+03  0.37329857856E+03  0.60923336883E+03  0.12699999809E+01 0.  1.
       -4    1    3    3    0  502  0.28801905571E+03 -0.38581975012E+03  0.15111253573E+03  0.50462705773E+03  0.12699999809E+01 0. -1.
</event>
<event>
 5   0  0.2255142E-03  0.9993061E+03  0.7818609E-02  0.9309306E-01
        2   -1    0    0  501    0  0.00000000000E+00  0.00000000000E+00  0.12767681987E+04  0.12767681987E+04  0.25500000920E-02 0.  1.
       -2   -1    0    0    0  501  0.00000000000E+00  0.00000000000E+00 -0.19553523110E+03  0.19553523112E+03  0.25500000920E-02 0. -1.
    10030    2    1    2    0    0  0.00000000000E+00  0.00000000000E+00  0.10812329676E+04  0.14723034299E+04  0.99930608888E+03 0.  0.
        4    1    3    3  502    0 -0.14848673419E+03 -0.30075085702E+03 -0.50158794545E+01  0.33544919165E+03  0.12699999809E+01 0. -1.
       -4    1    3    3    0  502  0.14848673419E+03  0.30075085702E+03  0.10862488471E+04  0.11368542382E+04  0.12699999809E+01 0.  1.
</event>
<event>
 5   0  0.2277570E-03  0.1001296E+04  0.7818609E-02  0.9307125E-01
       -2   -1    0    0    0  501  0.00000000000E+00  0.00000000000E+00  0.18439232144E+03  0.18439232146E+03  0.25500000920E-02 0. -1.
        2   -1    0    0  501    0  0.00000000000E+00  0.00000000000E+00 -0.13593208031E+04  0.13593208031E+04  0.25500000920E-02 0.  1.
    10030    2    1    2    0    0  0.00000000000E+00  0.00000000000E+00 -0.11749284816E+04  0.15437131245E+04  0.10012957974E+04 0.  0.
        3    1    3    3  502    0  0.15248420637E+03  0.90398715735E+02  0.13438946487E+03  0.22244976841E+03  0.10100000352E+00 0. -1.
       -3    1    3    3    0  502 -0.15248420637E+03 -0.90398715735E+02 -0.13093179465E+04  0.13212633561E+04  0.10100000352E+00 0.  1.
</event>
<event>
 5   0  0.1293575E-03  0.1002775E+04  0.7818609E-02  0.9305507E-01
       -1   -1    0    0    0  501  0.00000000000E+00  0.00000000000E+00  0.22404042696E+03  0.22404042701E+03  0.50400001928E-02 0.  1.
        1   -1    0    0  501    0  0.00000000000E+00  0.00000000000E+00 -0.11220711448E+04  0.11220711448E+04  0.50400001928E-02 0. -1.
    10030    2    1    2    0    0  0.00000000000E+00  0.00000000000E+00 -0.89803071786E+03  0.13461115718E+04  0.10027747472E+04 0.  0.
        4    1    3    3  502    0  0.42453588815E+02 -0.47039179908E+00  0.22162092407E+03  0.22565454872E+03  0.12699999809E+01 0.  1.
       -4    1    3    3    0  502 -0.42453588815E+02  0.47039179908E+00 -0.11196516419E+04  0.11204570231E+04  0.12699999809E+01 0. -1.
</event>
<event>
 5   0  0.2264577E-03  0.9926954E+03  0.7818609E-02  0.9316593E-01
       -2   -1    0    0    0  501  0.00000000000E+00  0.00000000000E+00  0.21705446905E+03  0.21705446907E+03  0.25500000920E-02 0. -1.
        2   -1    0    0  501    0  0.00000000000E+00  0.00000000000E+00 -0.11350195318E+04  0.11350195318E+04  0.25500000920E-02 0.  1.
    10030    2    1    2    0    0  0.00000000000E+00  0.00000000000E+00 -0.91796506272E+03  0.13520740008E+04  0.99269544543E+03 0.  0.
        5    1    3    3  502    0  0.15520342737E+03 -0.16007541566E+03  0.14497403871E+03  0.26599211354E+03  0.46999998093E+01 0. -1.
       -5    1    3    3    0  502 -0.15520342737E+03  0.16007541566E+03 -0.10629391014E+04  0.10860818873E+04  0.46999998093E+01 0.  1.
</event>
<event>
 5   0  0.2277570E-03  0.9895483E+03  0.7818609E-02  0.9320083E-01
        2   -1    0    0  501    0  0.00000000000E+00  0.00000000000E+00  0.85812999314E+03  0.85812999314E+03  0.25500000920E-02 0.  1.
       -2   -1    0    0    0  501  0.00000000000E+00  0.00000000000E+00 -0.28527313864E+03  0.28527313865E+03  0.25500000920E-02 0. -1.
    10030    2    1    2    0    0  0.00000000000E+00  0.00000000000E+00  0.57285685450E+03  0.11434031318E+04  0.98954825353E+03 0.  0.
        3    1    3    3  502    0 -0.19461448773E+03  0.44437693694E+03  0.39878817229E+03  0.62799496613E+03  0.10100000352E+00 0.  1.
       -3    1    3    3    0  502  0.19461448773E+03 -0.44437693694E+03  0.17406868220E+03  0.51540816567E+03  0.10100000352E+00 0. -1.
</event>
<event>
 5   0  0.2255142E-03  0.1000876E+04  0.7818609E-02  0.9307584E-01
        2   -1    0    0  501    0  0.00000000000E+00  0.00000000000E+00  0.12729957098E+04  0.12729957098E+04  0.25500000920E-02 0. -1.
       -2   -1    0    0    0  501  0.00000000000E+00  0.00000000000E+00 -0.19673154027E+03  0.19673154028E+03  0.25500000920E-02 0.  1.
    10030    2    1    2    0    0  0.00000000000E+00  0.00000000000E+00  0.10762641696E+04  0.14697272501E+04  0.10008764295E+04 0.  0.
        4    1    3    3  502    0  0.36617433966E+03  0.16957517176E+03  0.97274428397E+03  0.10531250832E+04  0.12699999809E+01 0. -1.
       -4    1    3    3    0  502 -0.36617433966E+03 -0.16957517176E+03  0.10351988560E+03  0.41660216696E+03  0.12699999809E+01 0.  1.
</event>
<event>
 5   0  0.2284843E-03  0.9977870E+03  0.7818609E-02  0.9310975E-01
        2   -1    0    0  501    0  0.00000000000E+00  0.00000000000E+00  0.46231207863E+03  0.46231207864E+03  0.25500000920E-02 0. -1.
       -2   -1    0    0    0  501  0.00000000000E+00  0.00000000000E+00 -0.53836950605E+03  0.53836950605E+03  0.25500000920E-02 0.  1.
    10030    2    1    2    0    0  0.00000000000E+00  0.00000000000E+00 -0.76057427415E+02  0.10006815847E+04  0.99778700216E+03 0.  0.
        2    1    3    3  502    0  0.33210001123E+03 -0.36629296086E+03  0.28751050257E+02  0.49526515477E+03  0.25500000920E-02 0. -1.
       -2    1    3    3    0  502 -0.33210001123E+03  0.36629296086E+03 -0.10480847767E+03  0.50541642992E+03  0.25500000920E-02 0.  1.
</event>
<event>
 5   0  0.2284843E-03  0.9998268E+03  0.7818609E-02  0.9308735E-01
        2   -1    0    0  501    0  0.00000000000E+00  0.00000000000E+00  0.14767178664E+04  0.14767178664E+04  0.25500000920E-02 0. -1.
       -2   -1    0    0    0  501  0.00000000000E+00  0.00000000000E+00 -0.16923570183E+03  0.16923570185E+03  0.25500000920E-02 0.  1.
    10030    2    1    2    0    0  0.00000000000E+00  0.00000000000E+00  0.13074821646E+04  0.16459535683E+04  0.99982675409E+03 0.  0.
        2    1    3    3  502    0  0.29938486752E+03 -0.25703004968E+03  0.14842986981E+03  0.42157700554E+03  0.25500000920E-02 0.  1.
       -2    1    3    3    0  502 -0.29938486752E+03  0.25703004968E+03  0.11590522948E+04  0.12243765627E+04  0.25500000920E-02 0. -1.
</event>
<event>
 5   0  0.2284843E-03  0.9959368E+03  0.7818609E-02  0.9313012E-01
        2   -1    0    0  501    0  0.00000000000E+00  0.00000000000E+00  0.85242104951E+03  0.85242104952E+03  0.25500000920E-02 0.  1.
       -2   -1    0    0    0  501  0.00000000000E+00  0.00000000000E+00 -0.29090380671E+03  0.29090380672E+03  0.25500000920E-02 0. -1.
    10030    2    1    2    0    0  0.00000000000E+00  0.00000000000E+00  0.56151724280E+03  0.11433248562E+04  0.99593680168E+03 0.  0.
        2    1    3    3  502    0 -0.65755906072E+02 -0.22044955988E+03  0.78776287119E+03  0.82066569860E+03  0.25500000920E-02 0.  1.
       -2    1    3    3    0  502  0.65755906072E+02  0.22044955988E+03 -0.22624562839E+03  0.32265915764E+03  0.25500000920E-02 0. -1.
</event>
<event>
 5   0  0.2277570E-03  0.1004974E+04  0.7818609E-02  0.9303107E-01
        2   -1    0    0  501    0  0.00000000000E+00  0.00000000000E+00  0.13897000508E+04  0.13897000508E+04  0.25500000920E-02 0. -1.
       -2   -1    0    0    0  501  0.00000000000E+00  0.00000000000E+00 -0.18168884747E+03  0.18168884749E+03  0.25500000920E-02 0.  1.
    10030    2    1    2    0    0  0.00000000000E+00  0.00000000000E+00  0.12080112034E+04  0.15713888983E+04  0.10049736327E+04 0.  0.
        3    1    3    3  502    0 -0.16945928733E+03  0.38313462301E+02 -0.13323146678E+03  0.21894064354E+03  0.10100000352E+00 0.  1.
       -3    1    3    3    0  502  0.16945928733E+03 -0.38313462301E+02  0.13412426701E+04  0.13524482548E+04  0.10100000352E+00 0. -1.
</event>
<event>
 5   0  0.2255142E-03  0.1001742E+04  0.7818609E-02  0.9306636E-01
       -2   -1    0    0    0  501  0.00000000000E+00  0.00000000000E+00  0.20460580682E+03  0.20460580683E+03  0.25500000920E-02 0.  1.
        2   -1    0    0  501    0  0.00000000000E+00  0.00000000000E+00 -0.12261234894E+04  0.12261234894E+04  0.25500000920E-02 0. -1.
    10030    2    1    2    0    0  0.00000000000E+00  0.00000000000E+00 -0.10215176826E+04  0.14307292963E+04  0.10017424536E+04 0.  0.
        4    1    3    3  502    0 -0.46764409750E+03 -0.27391909765E+02 -0.76396079195E+03  0.89614676431E+03  0.12699999809E+01 0. -1.
       -4    1    3    3    0  502  0.46764409750E+03  0.27391909765E+02 -0.25755689066E+03  0.53458253195E+03  0.12699999809E+01 0.  1.
</event>
<event>
 5   0  0.2204862E-03  0.9994200E+03  0.7818609E-02  0.9309181E-01
       -2   -1    0    0    0  501  0.00000000000E+00  0.00000000000E+00  0.18386213864E+03  0.18386213866E+03  0.25500000920E-02 0.  1.
        2   -1    0    0  501    0  0.00000000000E+00  0.00000000000E+00 -0.13581374679E+04  0.13581374679E+04  0.25500000920E-02 0. -1.
    10030    2    1    2    0    0  0.00000000000E+00  0.00000000000E+00 -0.11742753293E+04  0.15419996066E+04  0.99941995064E+03 0.  0.
        1    1    3    3  502    0 -0.77526595622E+02  0.48807509680E+03 -0.47289690988E+03  0.68400231033E+03  0.50400001928E-02 0.  1.
       -1    1    3    3    0  502  0.77526595622E+02 -0.48807509680E+03 -0.70137841939E+03  0.85799729624E+03  0.50400001928E-02 0. -1.
</event>
<event>
 5   0  0.1353789E-03  0.9992337E+03  0.7818609E-02  0.9309386E-01
        1   -1    0    0  501    0  0.00000000000E+00  0.00000000000E+00  0.22532655451E+04  0.22532655451E+04  0.50400001928E-02 0.  1.
       -1   -1    0    0    0  501  0.00000000000E+00  0.00000000000E+00 -0.11078011253E+03  0.11078011265E+03  0.50400001928E-02 0. -1.
    10030    2    1    2    0    0  0.00000000000E+00  0.00000000000E+00  0.21424854325E+04  0.23640456577E+04  0.99923372799E+03 0.  0.
        1    1    3    3  502    0  0.44024288471E+03  0.23622697072E+03  0.10708226149E+04  0.11816420997E+04  0.50400001928E-02 0. -1.
       -1    1    3    3    0  502 -0.44024288471E+03 -0.23622697072E+03  0.10716628176E+04  0.11824035580E+04  0.50400001928E-02 0.  1.
</event>
<event>
 5   0  0.1293716E-03  0.9843087E+03  0.7818609E-02  0.9325924E-01
       -1   -1    0    0    0  501  0.00000000000E+00  0.00000000000E+00  0.46453536653E+03  0.46453536655E+03  0.50400001928E-02 0. -1.
        1   -1    0    0  501    0  0.00000000000E+00  0.00000000000E+00 -0.52141541672E+03  0.52141541675E+03  0.50400001928E-02 0.  1.
    10030    2    1    2    0    0  0.00000000000E+00  0.00000000000E+00 -0.56880050194E+02  0.98595078330E+03  0.98430869496E+03 0.  0.
        3    1    3    3  502    0  0.15164432933E+03  0.40823897153E+02 -0.49564423868E+03  0.51992866312E+03  0.10100000352E+00 0.  1.
       -3    1    3    3    0  502 -0.15164432933E+03 -0.40823897153E+02  0.43876418849E+03  0.46602212018E+03  0.10100000352E+00 0. -1.
</event>
<event>
 5   0  0.1353789E-03  0.1009141E+04  0.7818609E-02  0.9298576E-01
        1   -1    0    0  501    0  0.00000000000E+00  0.00000000000E+00  0.23033056099E+03  0.23033056105E+03  0.50400001928E-02 0.  1.
       -1   -1    0    0    0  501  0.00000000000E+00  0.00000000000E+00 -0.11053300430E+04  0.11053300430E+04  0.50400001928E-02 0. -1.
    10030    2    1    2    0    0  0.00000000000E+00  0.00000000000E+00 -0.87499948198E+03  0.13356606040E+04  0.10091408007E+04 0.  0.
        1    1    3    3  502    0  0.42699660676E+03 -0.13236859703E+02 -0.79287057381E+03  0.90063592172E+03  0.50400001928E-02 0. -1.
       -1    1    3    3    0  502 -0.42699660676E+03  0.13236859703E+02 -0.82128908168E+02  0.43502468232E+03  0.50400001928E-02 0.  1.
</event>
<event>
 5   0  0.2255142E-03  0.9983897E+03  0.7818609E-02  0.9310313E-01
        2   -1    0    0  501    0  0.00000000000E+00  0.00000000000E+00  0.15181076934E+04  0.15181076934E+04  0.25500000920E-02 0. -1.
       -2   -1    0    0    0  501  0.00000000000E+00  0.00000000000E+00 -0.16414876433E+03  0.16414876435E+03  0.25500000920E-02 0.  1.
    10030    2    1    2    0    0  0.00000000000E+00  0.00000000000E+00  0.13539589291E+04  0.16822564577E+04  0.99838970749E+03 0.  0.
        4    1    3    3  502    0  0.10517007969E+03 -0.39194094024E+03  0.18713281197E+03  0.44687665917E+03  0.12699999809E+01 0.  1.
       -4    1    3    3    0  502 -0.10517007969E+03  0.39194094024E+03  0.11668261171E+04  0.12353797986E+04  0.12699999809E+01 0. -1.
</event>
<event>
 5   0  0.2284843E-03  0.9969511E+03  0.7818609E-02  0.9311895E-01
        2   -1    0    0  501    0  0.00000000000E+00  0.00000000000E+00  0.31781747804E+03  0.31781747805E+03  0.25500000920E-02 0. -1.
       -2   -1    0    0    0  501  0.00000000000E+00  0.00000000000E+00 -0.78182574140E+03  0.78182574140E+03  0.25500000920E-02 0.  1.
    10030    2    1    2    0    0  0.00000000000E+00  0.00000000000E+00 -0.46400826335E+03  0.10996432195E+04  0.99695112299E+03 0.  0.
        2    1    3    3  502    0  0.30024204139E+02  0.29040826533E+03  0.21364239336E+03  0.36177546304E+03  0.25500000920E-02 0. -1.
       -2    1    3    3    0  502 -0.30024204139E+02 -0.29040826533E+03 -0.67765065672E+03  0.73786775642E+03  0.25500000920E-02 0.  1.
</event>
<event>
 5   0  0.2284843E-03  0.9925410E+03  0.7818609E-02  0.9316764E-01
        2   -1    0    0  501    0  0.00000000000E+00  0.00000000000E+00  0.21113573032E+04  0.21113573033E+04  0.25500000920E-02 0. -1.
       -2   -1    0    0    0  501  0.00000000000E+00  0.00000000000E+00 -0.11664744022E+03  0.11664744025E+03  0.25500000920E-02 0.  1.
    10030    2    1    2    0    0  0.00000000000E+00  0.00000000000E+00  0.19947098630E+04  0.22280047435E+04  0.99254103159E+03 0.  0.
        2    1    3    3  502    0  0.49175338818E+03  0.57299863025E+02  0.92025327781E+03  0.10449740496E+04  0.25500000920E-02 0. -1.
       -2    1    3    3    0  502 -0.49175338818E+03 -0.57299863025E+02  0.10744565852E+04  0.11830306939E+04  0.25500000920E-02 0.  1.
</event>
<event>
 5   0  0.2204862E-03  0.9990308E+03  0.7818609E-02  0.9309608E-01
       -2   -1    0    0    0  501  0.00000000000E+00  0.00000000000E+00  0.17805473515E+03  0.17805473517E+03  0.25500000920E-02 0.  1.
        2   -1    0    0  501    0  0.00000000000E+00  0.00000000000E+00 -0.14013421926E+04  0.14013421926E+04  0.25500000920E-02 0. -1.
    10030    2    1    2    0    0  0.00000000000E+00  0.00000000000E+00 -0.12232874574E+04  0.15793969277E+04  0.99903075622E+03 0.  0.
        1    1    3    3  502    0 -0.38163066762E+03  0.29179044089E+03 -0.82801735911E+03  0.95728594206E+03  0.50400001928E-02 0. -1.
       -1    1    3    3    0  502  0.38163066762E+03 -0.29179044089E+03 -0.39527009831E+03  0.62211098568E+03  0.50400001928E-02 0.  1.
</event>
<event>
 5   0  0.2264577E-03  0.1000313E+04  0.7818609E-02  0.9308201E-01
        2   -1    0    0  501    0  0.00000000000E+00  0.00000000000E+00  0.83402725292E+03  0.83402725292E+03  0.25500000920E-02 0.  1.
       -2   -1    0    0    0  501  0.00000000000E+00  0.00000000000E+00 -0.29993819494E+03  0.29993819495E+03  0.25500000920E-02 0. -1.
    10030    2    1    2    0    0  0.00000000000E+00  0.00000000000E+00  0.53408905798E+03  0.11339654479E+04  0.10003132085E+04 0.  0.
        5    1    3    3  502    0 -0.20267112098E+03  0.14402424598E+02 -0.25101855241E+03  0.32297897264E+03  0.46999998093E+01 0. -1.
       -5    1    3    3    0  502  0.20267112098E+03 -0.14402424598E+02  0.78510761039E+03  0.81098647523E+03  0.46999998093E+01 0.  1.
</event>
<event>
 5   0  0.1249195E-03  0.9966182E+03  0.7818609E-02  0.9312262E-01
        1   -1    0    0  501    0  0.00000000000E+00  0.00000000000E+00  0.14387983846E+04  0.14387983846E+04  0.50400001928E-02 0.  1.
       -1   -1    0    0    0  501  0.00000000000E+00  0.00000000000E+00 -0.17258287187E+03  0.17258287194E+03  0.50400001928E-02 0. -1.
    10030    2    1    2    0    0  0.00000000000E+00  0.00000000000E+00  0.12662155127E+04  0.16113812565E+04  0.99661819634E+03 0.  0.
        2    1    3    3  502    0  0.45015662259E+03 -0.10279131977E+03  0.33016995380E+03  0.56764358420E+03  0.25500000920E-02 0. -1.
       -2    1    3    3    0  502 -0.45015662259E+03  0.10279131977E+03  0.93604555890E+03  0.10437376723E+04  0.25500000920E-02 0.  1.
</event>
<event>
 5   0  0.1293716E-03  0.1003508E+04  0.7818609E-02  0.9304705E-01
        1   -1    0    0  501    0  0.00000000000E+00  0.00000000000E+00  0.45439912197E+03  0.45439912200E+03  0.50400001928E-02 0.  1.
       -1   -1    0    0    0  501  0.00000000000E+00  0.00000000000E+00 -0.55404413697E+03  0.55404413699E+03  0.50400001928E-02 0. -1.
    10030    2    1    2    0    0  0.00000000000E+00  0.00000000000E+00 -0.99645014995E+02  0.10084432590E+04  0.10035081851E+04 0.  0.
        3    1    3    3  502    0  0.26118479987E+01 -0.24883099240E+03  0.38801901632E+03  0.46095818873E+03  0.10100000352E+00 0.  1.
       -3    1    3    3    0  502 -0.26118479987E+01  0.24883099240E+03 -0.48766403131E+03  0.54748507027E+03  0.10100000352E+00 0. -1.
</event>
<event>
 5   0  0.1353789E-03  0.1001825E+04  0.7818609E-02  0.9306546E-01
       -1   -1    0    0    0  501  0.00000000000E+00  0.00000000000E+00  0.34990723332E+03  0.34990723336E+03  0.50400001928E-02 0. -1.
        1   -1    0    0  501    0  0.00000000000E+00  0.00000000000E+00 -0.71708495204E+03  0.71708495205E+03  0.50400001928E-02 0.  1.
    10030    2    1    2    0    0  0.00000000000E+00  0.00000000000E+00 -0.36717771871E+03  0.10669921854E+04  0.10018247584E+04 0.  0.
        1    1    3    3  502    0  0.45299499384E+03  0.17850275755E+03 -0.58267816573E+02  0.49037010245E+03  0.50400001928E-02 0.  1.
       -1    1    3    3    0  502 -0.45299499384E+03 -0.17850275755E+03 -0.30890990214E+03  0.57662208297E+03  0.50400001928E-02 0. -1.
</event>
<event>
 5   0  0.1249195E-03  0.9992062E+03  0.7818609E-02  0.9309416E-01
       -1   -1    0    0    0  501  0.00000000000E+00  0.00000000000E+00  0.31002804884E+03  0.31002804888E+03  0.50400001928E-02 0. -1.
        1   -1    0    0  501    0  0.00000000000E+00  0.00000000000E+00 -0.80509895424E+03  0.80509895426E+03  0.50400001928E-02 0.  1.
    10030    2    1    2    0    0  0.00000000000E+00  0.00000000000E+00 -0.49507090540E+03  0.11151270031E+04  0.99920620082E+03 0.  0.
        2    1    3    3  502    0  0.13203705457E+03 -0.46982980087E+03 -0.12822416226E+03  0.50459415510E+03  0.25500000920E-02 0. -1.
       -2    1    3    3    0  502 -0.13203705457E+03  0.46982980087E+03 -0.36684674314E+03  0.61053284804E+03  0.25500000920E-02 0.  1.
</event>
<event>
 5   0  0.2277570E-03  0.1001866E+04  0.7818609E-02  0.9306501E-01
       -2   -1    0    0    0  501  0.00000000000E+00  0.00000000000E+00  0.51081428363E+03  0.51081428363E+03  0.25500000920E-02 0. -1.
        2   -1    0    0  501    0  0.00000000000E+00  0.00000000000E+00 -0.49124262424E+03  0.49124262425E+03  0.25500000920E-02 0.  1.
    10030    2    1    2    0    0  0.00000000000E+00  0.00000000000E+00  0.19571659384E+02  0.10020569079E+04  0.10018657579E+04 0.  0.
        3    1    3    3  502    0  0.22637118869E+03  0.31047201216E+03 -0.31167392554E+03  0.49474986758E+03  0.10100000352E+00 0.  1.
       -3    1    3    3    0  502 -0.22637118869E+03 -0.31047201216E+03  0.33124558493E+03  0.50730704030E+03  0.10100000352E+00 0. -1.
</event>
<event>
 5   0  0.1249195E-03  0.1001446E+04  0.7818609E-02  0.9306960E-01
        1   -1    0    0  501    0  0.00000000000E+00  0.00000000000E+00  0.10427244210E+04  0.10427244210E+04  0.50400001928E-02 0.  1.
       -1   -1    0    0    0  501  0.00000000000E+00  0.00000000000E+00 -0.24045060846E+03  0.24045060851E+03  0.50400001928E-02 0. -1.
    10030    2    1    2    0    0  0.00000000000E+00  0.00000000000E+00  0.80227381257E+03  0.12831750296E+04  0.10014463970E+04 0.  0.
        2    1    3    3  502    0 -0.32511455996E+02 -0.14208218905E+03  0.10149413435E+04  0.10253537311E+04  0.25500000920E-02 0.  1.
       -2    1    3    3    0  502  0.32511455996E+02  0.14208218905E+03 -0.21266753091E+03  0.25782129843E+03  0.25500000920E-02 0. -1.
</event>
<event>
 5   0  0.2264577E-03  0.1004134E+04  0.7818609E-02  0.9304023E-01
       -2   -1    0    0    0  501  0.00000000000E+00  0.00000000000E+00  0.26613206022E+04  0.26613206022E+04  0.25500000920E-02 0. -1.
        2   -1    0    0  501    0  0.00000000000E+00  0.00000000000E+00 -0.94716541900E+02  0.94716541934E+02  0.25500000920E-02 0.  1.
    10030    2    1    2    0    0  0.00000000000E+00  0.00000000000E+00  0.25666040603E+04  0.27560371441E+04  0.10041336253E+04 0.  0.
        5    1    3    3  502    0  0.10642354995E+03  0.86912687029E+02 -0.42043610643E+02  0.14376905907E+03  0.46999998093E+01 0.  1.
       -5    1    3    3    0  502 -0.10642354995E+03 -0.86912687029E+02  0.26086476709E+04  0.26122680850E+04  0.46999998093E+01 0. -1.
</event>
<event>
 5   0  0.2204862E-03  0.9984546E+03  0.7818609E-02  0.9310241E-01
       -2   -1    0    0    0  501  0.00000000000E+00  0.00000000000E+00  0.28226285570E+03  0.28226285571E+03  0.25500000920E-02 0.  1.
        2   -1    0    0  501    0  0.00000000000E+00  0.00000000000E+00 -0.88296390416E+03  0.88296390417E+03  0.25500000920E-02 0. -1.
    10030    2    1    2    0    0  0.00000000000E+00  0.00000000000E+00 -0.60070104847E+03  0.11652267599E+04  0.99845463207E+03 0.  0.
        1    1    3    3  502    0  0.19262332386E+03  0.37467111137E+03 -0.61294416044E+03  0.74376254977E+03  0.50400001928E-02 0. -1.
       -1    1    3    3    0  502 -0.19262332386E+03 -0.37467111137E+03  0.12243111977E+02  0.42146421011E+03  0.50400001928E-02 0.  1.
</event>
<event>
 5   0  0.1285769E-03  0.9946522E+03  0.7818609E-02  0.9314430E-01
        1   -1    0    0  501    0  0.00000000000E+00  0.00000000000E+00  0.79839162643E+03  0.79839162645E+03  0.50400001928E-02 0.  1.
       -1   -1    0    0    0  501  0.00000000000E+00  0.00000000000E+00 -0.30978935916E+03  0.30978935920E+03  0.50400001928E-02 0. -1.
    10030    2    1    2    0    0  0.00000000000E+00  0.00000000000E+00  0.48860226727E+03  0.11081809857E+04  0.99465216100E+03 0.  0.
        5    1    3    3  502    0  0.47540129575E+03  0.14358949531E+03  0.27349934477E+03  0.56696412298E+03  0.46999998093E+01 0.  1.
       -5    1    3    3    0  502 -0.47540129575E+03 -0.14358949531E+03  0.21510292251E+03  0.54121686267E+03  0.46999998093E+01 0. -1.
</event>
<event>
 5   0  0.1293716E-03  0.1000433E+04  0.7818609E-02  0.9308070E-01
       -1   -1    0    0    0  501  0.00000000000E+00  0.00000000000E+00  0.27476085850E+03  0.27476085855E+03  0.50400001928E-02 0. -1.
        1   -1    0    0  501    0  0.00000000000E+00  0.00000000000E+00 -0.91066991145E+03  0.91066991146E+03  0.50400001928E-02 0.  1.
    10030    2    1    2    0    0  0.00000000000E+00  0.00000000000E+00 -0.63590905295E+03  0.11854307700E+04  0.10004327998E+04 0.  0.
        3    1    3    3  502    0  0.49709190263E+02 -0.76863223775E+02 -0.90066131335E+03  0.90530092805E+03  0.10100000352E+00 0.  1.
       -3    1    3    3    0  502 -0.49709190263E+02  0.76863223775E+02  0.26475226040E+03  0.28012984196E+03  0.10100000352E+00 0. -1.
</event>
<event>
 5   0  0.1293575E-03  0.9988097E+03  0.7818609E-02  0.9309851E-01
        1   -1    0    0  501    0  0.00000000000E+00  0.00000000000E+00  0.79303649347E+03  0.79303649349E+03  0.50400001928E-02 0.  1.
       -1   -1    0    0    0  501  0.00000000000E+00  0.00000000000E+00 -0.31449396181E+03  0.31449396185E+03  0.50400001928E-02 0. -1.
    10030    2    1    2    0    0  0.00000000000E+00  0.00000000000E+00  0.47854253166E+03  0.11075304553E+04  0.99880966901E+03 0.  0.
        4    1    3    3  502    0  0.34374249499E+03  0.72786233718E+01  0.64090123372E+03  0.72730178434E+03  0.12699999809E+01 0.  1.
       -4    1    3    3    0  502 -0.34374249499E+03 -0.72786233718E+01 -0.16235870206E+03  0.38022867101E+03  0.12699999809E+01 0. -1.
</event>
<event>
 5   0  0.1285769E-03  0.1007389E+04  0.7818609E-02  0.9300477E-01
        1   -1    0    0  501    0  0.00000000000E+00  0.00000000000E+00  0.61173762403E+03  0.61173762405E+03  0.50400001928E-02 0.  1.
       -1   -1    0    0    0  501  0.00000000000E+00  0.00000000000E+00 -0.41473383214E+03  0.41473383217E+03  0.50400001928E-02 0. -1.
    10030    2    1    2    0    0  0.00000000000E+00  0.00000000000E+00  0.19700379189E+03  0.10264714562E+04  0.10073892775E+04 0.  0.
        5    1    3    3  502    0 -0.10245213265E+03  0.45991134666E+03 -0.82833500529E+02  0.47843323994E+03  0.46999998093E+01 0. -1.
       -5    1    3    3    0  502  0.10245213265E+03 -0.45991134666E+03  0.27983729242E+03  0.54803821627E+03  0.46999998093E+01 0.  1.
</event>
<event>
 5   0  0.2284843E-03  0.9981838E+03  0.7818609E-02  0.9310539E-01
       -2   -1    0    0    0  501  0.00000000000E+00  0.00000000000E+00  0.31186002132E+03  0.31186002133E+03  0.25500000920E-02 0. -1.
        2   -1    0    0  501    0  0.00000000000E+00  0.00000000000E+00 -0.79873252757E+03  0.79873252758E+03  0.25500000920E-02 0.  1.
    10030    2    1    2    0    0  0.00000000000E+00  0.00000000000E+00 -0.48687250626E+03  0.11105925489E+04  0.99818383694E+03 0.  0.
        2    1    3    3  502    0  0.16552928262E+02  0.47759401021E+03 -0.83271316953E+02  0.48508159134E+03  0.25500000920E-02 0.  1.
       -2    1    3    3    0  502 -0.16552928262E+02 -0.47759401021E+03 -0.40360118930E+03  0.62551095757E+03  0.25500000920E-02 0. -1.
</event>
<event>
 5   0  0.1249195E-03  0.9995351E+03  0.7818609E-02  0.9309055E-01
       -1   -1    0    0    0  501  0.00000000000E+00  0.00000000000E+00  0.16517531048E+03  0.16517531055E+03  0.50400001928E-02 0. -1.
        1   -1    0    0  501    0  0.00000000000E+00  0.00000000000E+00 -0.15121365065E+04  0.15121365065E+04  0.50400001928E-02 0.  1.
    10030    2    1    2    0    0  0.00000000000E+00  0.00000000000E+00 -0.13469611960E+04  0.16773118170E+04  0.99953512596E+03 0.  0.
        2    1    3    3  502    0 -0.10430284083E+03  0.42203835443E+03 -0.25979720338E+03  0.50644845947E+03  0.25500000920E-02 0. -1.
       -2    1    3    3    0  502  0.10430284083E+03 -0.42203835443E+03 -0.10871639926E+04  0.11708633575E+04  0.25500000920E-02 0.  1.
</event>
<event>
 5   0  0.2264577E-03  0.9924583E+03  0.7818609E-02  0.9316855E-01
       -2   -1    0    0    0  501  0.00000000000E+00  0.00000000000E+00  0.28009124537E+03  0.28009124539E+03  0.25500000920E-02 0. -1.
        2   -1    0    0  501    0  0.00000000000E+00  0.00000000000E+00 -0.87915403433E+03  0.87915403433E+03  0.25500000920E-02 0.  1.
    10030    2    1    2    0    0  0.00000000000E+00  0.00000000000E+00 -0.59906278895E+03  0.11592452797E+04  0.99245825778E+03 0.  0.
        5    1    3    3  502    0 -0.10181304051E+03 -0.29307615945E+03 -0.75185921970E+03  0.81337193627E+03  0.46999998093E+01 0.  1.
       -5    1    3    3    0  502  0.10181304051E+03  0.29307615945E+03  0.15279643075E+03  0.34587334345E+03  0.46999998093E+01 0. -1.
</event>
<event>
 5   0  0.1353789E-03  0.1007870E+04  0.7818609E-02  0.9299955E-01
        1   -1    0    0  501    0  0.00000000000E+00  0.00000000000E+00  0.40327941192E+03  0.40327941195E+03  0.50400001928E-02 0. -1.
       -1   -1    0    0    0  501  0.00000000000E+00  0.00000000000E+00 -0.62971298960E+03  0.62971298962E+03  0.50400001928E-02 0.  1.
    10030    2    1    2    0    0  0.00000000000E+00  0.00000000000E+00 -0.22643357768E+03  0.10329924016E+04  0.10078696030E+04 0.  0.
        1    1    3    3  502    0  0.64834754383E+02  0.48898324506E+03 -0.21894891207E+03  0.53967285039E+03  0.50400001928E-02 0. -1.
       -1    1    3    3    0  502 -0.64834754383E+02 -0.48898324506E+03 -0.74846656156E+01  0.49331955118E+03  0.50400001928E-02 0.  1.
</event>
<event>
 5   0  0.2277570E-03  0.1000077E+04  0.7818609E-02  0.9308460E-01
       -2   -1    0    0    0  501  0.00000000000E+00  0.00000000000E+00  0.56969168081E+03  0.56969168081E+03  0.25500000920E-02 0. -1.
        2   -1    0    0  501    0  0.00000000000E+00  0.00000000000E+00 -0.43890187462E+03  0.43890187463E+03  0.25500000920E-02 0.  1.
    10030    2    1    2    0    0  0.00000000000E+00  0.00000000000E+00  0.13078980619E+03  0.10085935554E+04  0.10000774903E+04 0.  0.
        3    1    3    3  502    0  0.12715925820E+03  0.17881069603E+03 -0.38775969176E+03  0.44553375934E+03  0.10100000352E+00 0.  1.
       -3    1    3    3    0  502 -0.12715925820E+03 -0.17881069603E+03  0.51854949795E+03  0.56305979610E+03  0.10100000352E+00 0. -1.
</event>
<event>
 5   0  0.2264577E-03  0.9937253E+03  0.7818609E-02  0.9315454E-01
       -2   -1    0    0    0  501  0.00000000000E+00  0.00000000000E+00  0.73633597745E+03  0.73633597745E+03  0.25500000920E-02 0.  1.
        2   -1    0    0  501    0  0.00000000000E+00  0.00000000000E+00 -0.33527156478E+03  0.33527156479E+03  0.25500000920E-02 0. -1.
    10030    2    1    2    0    0  0.00000000000E+00  0.00000000000E+00  0.40106441267E+03  0.10716075422E+04  0.99372534509E+03 0.  0.
        5    1    3    3  502    0  0.35313924780E+03  0.12597305227E+03  0.55207862492E+03  0.66737503423E+03  0.46999998093E+01 0.  1.
       -5    1    3    3    0  502 -0.35313924780E+03 -0.12597305227E+03 -0.15101421224E+03  0.40423250801E+03  0.46999998093E+01 0. -1.
</event>
<event>
 5   0  0.2264577E-03  0.1043546E+04  0.7818609E-02  0.9262033E-01
       -2   -1    0    0    0  501  0.00000000000E+00  0.00000000000E+00  0.56176486635E+03  0.56176486636E+03  0.25500000920E-02 0. -1.
        2   -1    0    0  501    0  0.00000000000E+00  0.00000000000E+00 -0.48462819034E+03  0.48462819035E+03  0.25500000920E-02 0.  1.
    10030    2    1    2    0    0  0.00000000000E+00  0.00000000000E+00  0.77136676013E+02  0.10463930567E+04  0.10435460519E+04 0.  0.
        5    1    3    3  502    0 -0.25172793622E+03 -0.35241273251E+03 -0.25319509380E+03  0.50168868179E+03  0.46999998093E+01 0.  1.
       -5    1    3    3    0  502  0.25172793622E+03  0.35241273251E+03  0.33033176981E+03  0.54470437492E+03  0.46999998093E+01 0. -1.
</event>
<event>
 5   0  0.2277570E-03  0.1001919E+04  0.7818609E-02  0.9306442E-01
       -2   -1    0    0    0  501  0.00000000000E+00  0.00000000000E+00  0.76514304707E+03  0.76514304708E+03  0.25500000920E-02 0.  1.
        2   -1    0    0  501    0  0.00000000000E+00  0.00000000000E+00 -0.32799178016E+03  0.32799178017E+03  0.25500000920E-02 0. -1.
    10030    2    1    2    0    0  0.00000000000E+00  0.00000000000E+00  0.43715126691E+03  0.10931348272E+04  0.10019194181E+04 0.  0.
        3    1    3    3  502    0  0.12781740597E+03 -0.41932998599E+03  0.48310674713E+03  0.65235501511E+03  0.10100000352E+00 0.  1.
       -3    1    3    3    0  502 -0.12781740597E+03  0.41932998599E+03 -0.45955480220E+02  0.44077981214E+03  0.10100000352E+00 0. -1.
</event>
<event>
 5   0  0.1353789E-03  0.9978385E+03  0.7818609E-02  0.9310919E-01
        1   -1    0    0  501    0  0.00000000000E+00  0.00000000000E+00  0.37724950835E+03  0.37724950838E+03  0.50400001928E-02 0.  1.
       -1   -1    0    0    0  501  0.00000000000E+00  0.00000000000E+00 -0.65982969130E+03  0.65982969131E+03  0.50400001928E-02 0. -1.
    10030    2    1    2    0    0  0.00000000000E+00  0.00000000000E+00 -0.28258018295E+03  0.10370791997E+04  0.99783851732E+03 0.  0.
        1    1    3    3  502    0  0.39688991827E+03 -0.29200576971E+03 -0.22267300817E+03  0.54071456922E+03  0.50400001928E-02 0. -1.
       -1    1    3    3    0  502 -0.39688991827E+03  0.29200576971E+03 -0.59907174775E+02  0.49636463048E+03  0.50400001928E-02 0.  1.
</event>
<event>
 5   0  0.1249195E-03  0.9995898E+03  0.7818609E-02  0.9308995E-01
        1   -1    0    0  501    0  0.00000000000E+00  0.00000000000E+00  0.11670174994E+04  0.11670174995E+04  0.50400001928E-02 0. -1.
       -1   -1    0    0    0  501  0.00000000000E+00  0.00000000000E+00 -0.21404557667E+03  0.21404557673E+03  0.50400001928E-02 0.  1.
    10030    2    1    2    0    0  0.00000000000E+00  0.00000000000E+00  0.95297192278E+03  0.13810630762E+04  0.99958978327E+03 0.  0.
        2    1    3    3  502    0 -0.29402194976E+03  0.29157475994E+03  0.89801888000E+02  0.42370877578E+03  0.25500000920E-02 0.  1.
       -2    1    3    3    0  502  0.29402194976E+03 -0.29157475994E+03  0.86317003478E+03  0.95735430041E+03  0.25500000920E-02 0. -1.
</event>
<event>
 5   0  0.1285769E-03  0.9932557E+03  0.7818609E-02  0.9315973E-01
        1   -1    0    0  501    0  0.00000000000E+00  0.00000000000E+00  0.77930784542E+03  0.77930784544E+03  0.50400001928E-02 0.  1.
       -1   -1    0    0    0  501  0.00000000000E+00  0.00000000000E+00 -0.31648499791E+03  0.31648499795E+03  0.50400001928E-02 0. -1.
    10030    2    1    2    0    0  0.00000000000E+00  0.00000000000E+00  0.46282284752E+03  0.10957928434E+04  0.99325574121E+03 0.  0.
        5    1    3    3  502    0 -0.38571697078E+03 -0.23047028459E+03  0.46472119523E+03  0.64643794205E+03  0.46999998093E+01 0.  1.
       -5    1    3    3    0  502  0.38571697078E+03  0.23047028459E+03 -0.18983477188E+01  0.44935490133E+03  0.46999998093E+01 0. -1.
</event>
<event>
 5   0  0.2284843E-03  0.9954021E+03  0.7818609E-02  0.9313602E-01
       -2   -1    0    0    0  501  0.00000000000E+00  0.00000000000E+00  0.29415752188E+03  0.29415752189E+03  0.25500000920E-02 0.  1.
        2   -1    0    0  501    0  0.00000000000E+00  0.00000000000E+00 -0.84208731818E+03  0.84208731818E+03  0.25500000920E-02 0. -1.
    10030    2    1    2    0    0  0.00000000000E+00  0.00000000000E+00 -0.54792979630E+03  0.11362448401E+04  0.99540206696E+03 0.  0.
        2    1    3    3  502    0  0.15602629813E+03 -0.14179743968E+03  0.24066456302E+03  0.31995335833E+03  0.25500000920E-02 0.  1.
       -2    1    3    3    0  502 -0.15602629813E+03  0.14179743968E+03 -0.78859435932E+03  0.81629148174E+03  0.25500000920E-02 0. -1.
</event>
<event>
 5   0  0.1293716E-03  0.1001976E+04  0.7818609E-02  0.9306380E-01
        1   -1    0    0  501    0  0.00000000000E+00  0.00000000000E+00  0.82656466532E+03  0.82656466533E+03  0.50400001928E-02 0.  1.
       -1   -1    0    0    0  501  0.00000000000E+00  0.00000000000E+00 -0.30365336565E+03  0.30365336570E+03  0.50400001928E-02 0. -1.
    10030    2    1    2    0    0  0.00000000000E+00  0.00000000000E+00  0.52291129966E+03  0.11302180310E+04  0.10019763322E+04 0.  0.
        3    1    3    3  502    0  0.30068693709E+02 -0.20665095150E+03  0.77513086577E+03  0.80276809314E+03  0.10100000352E+00 0.  1.
       -3    1    3    3    0  502 -0.30068693709E+02  0.20665095150E+03 -0.25221956610E+03  0.32744993789E+03  0.10100000352E+00 0. -1.
</event>
<event>
 5   0  0.1293575E-03  0.1002328E+04  0.7818609E-02  0.9305995E-01
       -1   -1    0    0    0  501  0.00000000000E+00  0.00000000000E+00  0.68905642962E+03  0.68905642964E+03  0.50400001928E-02 0. -1.
        1   -1    0    0  501    0  0.00000000000E+00  0.00000000000E+00 -0.36450601663E+03  0.36450601666E+03  0.50400001928E-02 0.  1.
    10030    2    1    2    0    0  0.00000000000E+00  0.00000000000E+00  0.32455041300E+03  0.10535624463E+04  0.10023277197E+04 0.  0.
        4    1    3    3  502    0  0.21351544861E+03 -0.17813997392E+03  0.60052985100E+03  0.66178577497E+03  0.12699999809E+01 0. -1.
       -4    1    3    3    0  502 -0.21351544861E+03  0.17813997392E+03 -0.27597943800E+03  0.39177667134E+03  0.12699999809E+01 0.  1.
</event>
<event>
 5   0  0.2255142E-03  0.9610029E+03  0.7818609E-02  0.9352382E-01
       -2   -1    0    0    0  501  0.00000000000E+00  0.00000000000E+00  0.34784949159E+03  0.34784949160E+03  0.25500000920E-02 0. -1.
        2   -1    0    0  501    0  0.00000000000E+00  0.00000000000E+00 -0.66374000856E+03  0.66374000856E+03  0.25500000920E-02 0.  1.
    10030    2    1    2    0    0  0.00000000000E+00  0.00000000000E+00 -0.31589051697E+03  0.10115895002E+04  0.96100286062E+03 0.  0.
        4    1    3    3  502    0  0.96774088695E+01  0.36210544504E+02  0.34630655552E+03  0.34833130648E+03  0.12699999809E+01 0. -1.
       -4    1    3    3    0  502 -0.96774088695E+01 -0.36210544504E+02 -0.66219707249E+03  0.66325819369E+03  0.12699999809E+01 0.  1.
</event>
<event>
 5   0  0.8680125E-04  0.1000146E+04  0.7818609E-02  0.9308385E-01
       -3   -1    0    0    0  501  0.00000000000E+00  0.00000000000E+00  0.52441765923E+03  0.52441766895E+03  0.10100000352E+00 0. -1.
        3   -1    0    0  501    0  0.00000000000E+00  0.00000000000E+00 -0.47685807617E+03  0.47685808687E+03  0.10100000352E+00 0.  1.
    10030    2    1    2    0    0  0.00000000000E+00  0.00000000000E+00  0.47559583055E+02  0.10012757558E+04  0.10001456020E+04 0.  0.
        3    1    3    3  502    0  0.29423401232E+03  0.38886251552E+03 -0.87183562105E+02  0.49536723114E+03  0.10100000352E+00 0.  1.
       -3    1    3    3    0  502 -0.29423401232E+03 -0.38886251552E+03  0.13474314516E+03  0.50590852468E+03  0.10100000352E+00 0. -1.
</event>
<event>
 5   0  0.1293575E-03  0.1001980E+04  0.7818609E-02  0.9306376E-01
        1   -1    0    0  501    0  0.00000000000E+00  0.00000000000E+00  0.11347089307E+04  0.11347089307E+04  0.50400001928E-02 0.  1.
       -1   -1    0    0    0  501  0.00000000000E+00  0.00000000000E+00 -0.22119426437E+03  0.22119426442E+03  0.50400001928E-02 0. -1.
    10030    2    1    2    0    0  0.00000000000E+00  0.00000000000E+00  0.91351466633E+03  0.13559031951E+04  0.10019802538E+04 0.  0.
        4    1    3    3  502    0 -0.29283663856E+03  0.81100133275E+02  0.99577354909E+03  0.10411037904E+04  0.12699999809E+01 0.  1.
       -4    1    3    3    0  502  0.29283663856E+03 -0.81100133275E+02 -0.82258882765E+02  0.31479940469E+03  0.12699999809E+01 0. -1.
</event>
<event>
 5   0  0.1293575E-03  0.9989225E+03  0.7818609E-02  0.9309727E-01
       -1   -1    0    0    0  501  0.00000000000E+00  0.00000000000E+00  0.11148615425E+04  0.11148615425E+04  0.50400001928E-02 0. -1.
        1   -1    0    0  501    0  0.00000000000E+00  0.00000000000E+00 -0.22376011906E+03  0.22376011912E+03  0.50400001928E-02 0.  1.
    10030    2    1    2    0    0  0.00000000000E+00  0.00000000000E+00  0.89110142340E+03  0.13386216616E+04  0.99892252256E+03 0.  0.
        4    1    3    3  502    0  0.24399036820E+03 -0.36622630573E+03  0.12898044909E+03  0.45857450423E+03  0.12699999809E+01 0.  1.
       -4    1    3    3    0  502 -0.24399036820E+03  0.36622630573E+03  0.76212097431E+03  0.88004715736E+03  0.12699999809E+01 0. -1.
</event>
<event>
 5   0  0.1353789E-03  0.1000686E+04  0.7818609E-02  0.9307793E-01
        1   -1    0    0  501    0  0.00000000000E+00  0.00000000000E+00  0.47888682660E+03  0.47888682663E+03  0.50400001928E-02 0.  1.
       -1   -1    0    0    0  501  0.00000000000E+00  0.00000000000E+00 -0.52276030141E+03  0.52276030144E+03  0.50400001928E-02 0. -1.
    10030    2    1    2    0    0  0.00000000000E+00  0.00000000000E+00 -0.43873474814E+02  0.10016471281E+04  0.10006858085E+04 0.  0.
        1    1    3    3  502    0  0.18189768057E+03  0.30809890117E+03 -0.37203168653E+03  0.51615818788E+03  0.50400001928E-02 0. -1.
       -1    1    3    3    0  502 -0.18189768057E+03 -0.30809890117E+03  0.32815821172E+03  0.48548894019E+03  0.50400001928E-02 0.  1.
</event>
<event>
 5   0  0.2204862E-03  0.9983875E+03  0.7818609E-02  0.9310315E-01
       -2   -1    0    0    0  501  0.00000000000E+00  0.00000000000E+00  0.26921816169E+03  0.26921816171E+03  0.25500000920E-02 0.  1.
        2   -1    0    0  501    0  0.00000000000E+00  0.00000000000E+00 -0.92562248418E+03  0.92562248418E+03  0.25500000920E-02 0. -1.
    10030    2    1    2    0    0  0.00000000000E+00  0.00000000000E+00 -0.65640432249E+03  0.11948406459E+04  0.99838746711E+03 0.  0.
        1    1    3    3  502    0  0.82253565715E+02 -0.93003962193E+02  0.25044471547E+03  0.27953164685E+03  0.50400001928E-02 0.  1.
       -1    1    3    3    0  502 -0.82253565715E+02  0.93003962193E+02 -0.90684903796E+03  0.91530899904E+03  0.50400001928E-02 0. -1.
</event>
<event>
 5   0  0.1293716E-03  0.9999597E+03  0.7818609E-02  0.9308589E-01
        1   -1    0    0  501    0  0.00000000000E+00  0.00000000000E+00  0.42226223580E+03  0.42226223583E+03  0.50400001928E-02 0.  1.
       -1   -1    0    0    0  501  0.00000000000E+00  0.00000000000E+00 -0.59200146057E+03  0.59200146059E+03  0.50400001928E-02 0. -1.
    10030    2    1    2    0    0  0.00000000000E+00  0.00000000000E+00 -0.16973922477E+03  0.10142636964E+04  0.99995971992E+03 0.  0.
        3    1    3    3  502    0 -0.23839743182E+03 -0.42391345018E+02  0.35882282635E+03  0.43287895830E+03  0.10100000352E+00 0.  1.
       -3    1    3    3    0  502  0.23839743182E+03  0.42391345018E+02 -0.52856205112E+03  0.58138473812E+03  0.10100000352E+00 0. -1.
</event>
<event>
 5   0  0.2284843E-03  0.1003215E+04  0.7818609E-02  0.9305026E-01
       -2   -1    0    0    0  501  0.00000000000E+00  0.00000000000E+00  0.12752195292E+03  0.12752195294E+03  0.25500000920E-02 0. -1.
        2   -1    0    0  501    0  0.00000000000E+00  0.00000000000E+00 -0.19730723356E+04  0.19730723356E+04  0.25500000920E-02 0.  1.
    10030    2    1    2    0    0  0.00000000000E+00  0.00000000000E+00 -0.18455503827E+04  0.21005942885E+04  0.10032149072E+04 0.  0.
        2    1    3    3  502    0  0.73185606945E+02  0.39775457110E+03 -0.30147561223E+03  0.50443272760E+03  0.25500000920E-02 0. -1.
       -2    1    3    3    0  502 -0.73185606945E+02 -0.39775457110E+03 -0.15440747705E+04  0.15961615610E+04  0.25500000920E-02 0.  1.
</event>
<event>
 5   0  0.2277570E-03  0.1000795E+04  0.7818609E-02  0.9307674E-01
       -2   -1    0    0    0  501  0.00000000000E+00  0.00000000000E+00  0.13825932379E+03  0.13825932381E+03  0.25500000920E-02 0.  1.
        2   -1    0    0  501    0  0.00000000000E+00  0.00000000000E+00 -0.18110717867E+04  0.18110717867E+04  0.25500000920E-02 0. -1.
    10030    2    1    2    0    0  0.00000000000E+00  0.00000000000E+00 -0.16728124629E+04  0.19493311106E+04  0.10007948053E+04 0.  0.
        3    1    3    3  502    0 -0.20053311572E+03 -0.26655393451E+00 -0.17293833795E+04  0.17409711327E+04  0.10100000352E+00 0. -1.
       -3    1    3    3    0  502  0.20053311572E+03  0.26655393451E+00  0.56570916558E+02  0.20835997781E+03  0.10100000352E+00 0.  1.
</event>
<event>
 5   0  0.8680125E-04  0.1009887E+04  0.7818609E-02  0.9297766E-01
       -3   -1    0    0    0  501  0.00000000000E+00  0.00000000000E+00  0.71731038664E+03  0.71731039375E+03  0.10100000352E+00 0.  1.
        3   -1    0    0  501    0  0.00000000000E+00  0.00000000000E+00 -0.35545019805E+03  0.35545021240E+03  0.10100000352E+00 0. -1.
    10030    2    1    2    0    0  0.00000000000E+00  0.00000000000E+00  0.36186018859E+03  0.10727606062E+04  0.10098873809E+04 0.  0.
        4    1    3    3  502    0  0.23903960828E+03 -0.40508831018E+03 -0.14161396279E+02  0.47057266327E+03  0.12699999809E+01 0. -1.
       -4    1    3    3    0  502 -0.23903960828E+03  0.40508831018E+03  0.37602158487E+03  0.60218794289E+03  0.12699999809E+01 0.  1.
</event>
<event>
 5   0  0.1285769E-03  0.9924771E+03  0.7818609E-02  0.9316835E-01
        1   -1    0    0  501    0  0.00000000000E+00  0.00000000000E+00  0.86709696701E+03  0.86709696702E+03  0.50400001928E-02 0. -1.
       -1   -1    0    0    0  501  0.00000000000E+00  0.00000000000E+00 -0.28399670769E+03  0.28399670774E+03  0.50400001928E-02 0.  1.
    10030    2    1    2    0    0  0.00000000000E+00  0.00000000000E+00  0.58310025932E+03  0.11510936748E+04  0.99247707059E+03 0.  0.
        5    1    3    3  502    0 -0.31644518780E+03 -0.23573263418E+03 -0.57405367177E+02  0.39877925959E+03  0.46999998093E+01 0.  1.
       -5    1    3    3    0  502  0.31644518780E+03  0.23573263418E+03  0.64050562649E+03  0.75231441517E+03  0.46999998093E+01 0. -1.
</event>
<event>
 5   0  0.2255142E-03  0.9905412E+03  0.7818609E-02  0.9318980E-01
       -2   -1    0    0    0  501  0.00000000000E+00  0.00000000000E+00  0.49471974546E+03  0.49471974547E+03  0.25500000920E-02 0.  1.
        2   -1    0    0  501    0  0.00000000000E+00  0.00000000000E+00 -0.49582208244E+03  0.49582208245E+03  0.25500000920E-02 0. -1.
    10030    2    1    2    0    0  0.00000000000E+00  0.00000000000E+00 -0.11023369821E+01  0.99054182792E+03  0.99054121454E+03 0.  0.
        4    1    3    3  502    0  0.36089813075E+03 -0.10819771383E+03  0.32091000093E+03  0.49491317184E+03  0.12699999809E+01 0.  1.
       -4    1    3    3    0  502 -0.36089813075E+03  0.10819771383E+03 -0.32201233791E+03  0.49562865608E+03  0.12699999809E+01 0. -1.
</event>
<event>
 5   0  0.2255142E-03  0.1003894E+04  0.7818609E-02  0.9304285E-01
        2   -1    0    0  501    0  0.00000000000E+00  0.00000000000E+00  0.31360755771E+03  0.31360755772E+03  0.25500000920E-02 0. -1.
       -2   -1    0    0    0  501  0.00000000000E+00  0.00000000000E+00 -0.80339436517E+03  0.80339436518E+03  0.25500000920E-02 0.  1.
    10030    2    1    2    0    0  0.00000000000E+00  0.00000000000E+00 -0.48978680747E+03  0.11170019229E+04  0.10038935098E+04 0.  0.
        4    1    3    3  502    0  0.16064594227E+03  0.46023804011E+03 -0.37805519366E+03  0.61689019662E+03  0.12699999809E+01 0.  1.
       -4    1    3    3    0  502 -0.16064594227E+03 -0.46023804011E+03 -0.11173161380E+03  0.50011172627E+03  0.12699999809E+01 0. -1.
</event>
<event>
 5   0  0.2284843E-03  0.9811309E+03  0.7818609E-02  0.9329486E-01
       -2   -1    0    0    0  501  0.00000000000E+00  0.00000000000E+00  0.41933987261E+03  0.41933987261E+03  0.25500000920E-02 0.  1.
        2   -1    0    0  501    0  0.00000000000E+00  0.00000000000E+00 -0.57388884424E+03  0.57388884424E+03  0.25500000920E-02 0. -1.
    10030    2    1    2    0    0  0.00000000000E+00  0.00000000000E+00 -0.15454897163E+03  0.99322871686E+03  0.98113092875E+03 0.  0.
        2    1    3    3  502    0 -0.87870845438E+02 -0.32536300882E+03 -0.43814168421E+03  0.55276623308E+03  0.25500000920E-02 0. -1.
       -2    1    3    3    0  502  0.87870845438E+02  0.32536300882E+03  0.28359271258E+03  0.44046248378E+03  0.25500000920E-02 0.  1.
</event>
<event>
 5   0  0.1285769E-03  0.9966132E+03  0.7818609E-02  0.9312267E-01
       -1   -1    0    0    0  501  0.00000000000E+00  0.00000000000E+00  0.18643709517E+03  0.18643709524E+03  0.50400001928E-02 0.  1.
        1   -1    0    0  501    0  0.00000000000E+00  0.00000000000E+00 -0.13318672668E+04  0.13318672668E+04  0.50400001928E-02 0. -1.
    10030    2    1    2    0    0  0.00000000000E+00  0.00000000000E+00 -0.11454301716E+04  0.15183043620E+04  0.99661319364E+03 0.  0.
        5    1    3    3  502    0  0.89015821879E+02  0.20487246777E+03  0.10585233485E+03  0.24723137217E+03  0.46999998093E+01 0.  1.
       -5    1    3    3    0  502 -0.89015821879E+02 -0.20487246777E+03 -0.12512825065E+04  0.12710729899E+04  0.46999998093E+01 0. -1.
</event>
<event>
 5   0  0.2277570E-03  0.1007566E+04  0.7818609E-02  0.9300285E-01
        2   -1    0    0  501    0  0.00000000000E+00  0.00000000000E+00  0.16817719630E+04  0.16817719630E+04  0.25500000920E-02 0. -1.
       -2   -1    0    0    0  501  0.00000000000E+00  0.00000000000E+00 -0.15091061193E+03  0.15091061195E+03  0.25500000920E-02 0.  1.
    10030    2    1    2    0    0  0.00000000000E+00  0.00000000000E+00  0.15308613511E+04  0.18326825750E+04  0.10075658511E+04 0.  0.
        3    1    3    3  502    0 -0.48126004096E+03 -0.13648952015E+03  0.87390623986E+03  0.10069522046E+04  0.10100000352E+00 0.  1.
       -3    1    3    3    0  502  0.48126004096E+03  0.13648952015E+03  0.65695511123E+03  0.82573037034E+03  0.10100000352E+00 0. -1.
</event>
<event>
 5   0  0.1285769E-03  0.1017217E+04  0.7818609E-02  0.9289861E-01
        1   -1    0    0  501    0  0.00000000000E+00  0.00000000000E+00  0.37053578819E+03  0.37053578823E+03  0.50400001928E-02 0.  1.
       -1   -1    0    0    0  501  0.00000000000E+00  0.00000000000E+00 -0.69813118787E+03  0.69813118788E+03  0.50400001928E-02 0. -1.
    10030    2    1    2    0    0  0.00000000000E+00  0.00000000000E+00 -0.32759539967E+03  0.10686669761E+04  0.10172169680E+04 0.  0.
        5    1    3    3  502    0  0.26275015752E+03  0.42493086376E+03 -0.63818014897E+02  0.50368513307E+03  0.46999998093E+01 0.  1.
       -5    1    3    3    0  502 -0.26275015752E+03 -0.42493086376E+03 -0.26377738477E+03  0.56498184304E+03  0.46999998093E+01 0. -1.
</event>
<event>
 5   0  0.1293716E-03  0.9854498E+03  0.7818609E-02  0.9324649E-01
       -1   -1    0    0    0  501  0.00000000000E+00  0.00000000000E+00  0.10538526598E+04  0.10538526598E+04  0.50400001928E-02 0.  1.
        1   -1    0    0  501    0  0.00000000000E+00  0.00000000000E+00 -0.23037168513E+03  0.23037168518E+03  0.50400001928E-02 0. -1.
    10030    2    1    2    0    0  0.00000000000E+00  0.00000000000E+00  0.82348097471E+03  0.12842243450E+04  0.98544977176E+03 0.  0.
        3    1    3    3  502    0  0.20905359388E+03  0.67814080107E+02 -0.16295663085E+03  0.27360012484E+03  0.10100000352E+00 0. -1.
       -3    1    3    3    0  502 -0.20905359388E+03 -0.67814080107E+02  0.98643760556E+03  0.10106242202E+04  0.10100000352E+00 0.  1.
</event>
<event>
 5   0  0.8680125E-04  0.9970652E+03  0.7818609E-02  0.9311770E-01
        3   -1    0    0  501    0  0.00000000000E+00  0.00000000000E+00  0.27129683403E+03  0.27129685283E+03  0.10100000352E+00 0.  1.
       -3   -1    0    0    0  501  0.00000000000E+00  0.00000000000E+00 -0.91609885523E+03  0.91609886080E+03  0.10100000352E+00 0. -1.
    10030    2    1    2    0    0  0.00000000000E+00  0.00000000000E+00 -0.64480202120E+03  0.11873957136E+04  0.99706516046E+03 0.  0.
        2    1    3    3  502    0  0.38543763462E+03 -0.30819483807E+03 -0.40651285338E+03  0.63937385649E+03  0.25500000920E-02 0. -1.
       -2    1    3    3    0  502 -0.38543763462E+03  0.30819483807E+03 -0.23828916782E+03  0.54802185713E+03  0.25500000920E-02 0.  1.
</event>
<event>
 5   0  0.2255142E-03  0.1003551E+04  0.7818609E-02  0.9304659E-01
       -2   -1    0    0    0  501  0.00000000000E+00  0.00000000000E+00  0.52827537966E+03  0.52827537967E+03  0.25500000920E-02 0. -1.
        2   -1    0    0  501    0  0.00000000000E+00  0.00000000000E+00 -0.47660504443E+03  0.47660504443E+03  0.25500000920E-02 0.  1.
    10030    2    1    2    0    0  0.00000000000E+00  0.00000000000E+00  0.51670335236E+02  0.10048804241E+04  0.10035511164E+04 0.  0.
        4    1    3    3  502    0 -0.40730794170E+03 -0.25617490739E+03  0.16833233247E+03  0.50976732889E+03  0.12699999809E+01 0. -1.
       -4    1    3    3    0  502  0.40730794170E+03  0.25617490739E+03 -0.11666199723E+03  0.49511309521E+03  0.12699999809E+01 0.  1.
</event>
<event>
 5   0  0.1293575E-03  0.9970364E+03  0.7818609E-02  0.9311801E-01
        1   -1    0    0  501    0  0.00000000000E+00  0.00000000000E+00  0.13667959869E+04  0.13667959869E+04  0.50400001928E-02 0.  1.
       -1   -1    0    0    0  501  0.00000000000E+00  0.00000000000E+00 -0.18182699155E+03  0.18182699162E+03  0.50400001928E-02 0. -1.
    10030    2    1    2    0    0  0.00000000000E+00  0.00000000000E+00  0.11849689953E+04  0.15486229785E+04  0.99703641341E+03 0.  0.
        4    1    3    3  502    0  0.16483056188E+03  0.34202394002E+03  0.90695581270E+02  0.39035469901E+03  0.12699999809E+01 0. -1.
       -4    1    3    3    0  502 -0.16483056188E+03 -0.34202394002E+03  0.10942734140E+04  0.11582682795E+04  0.12699999809E+01 0.  1.
</event>
<event>
 5   0  0.1293716E-03  0.1001518E+04  0.7818609E-02  0.9306882E-01
        1   -1    0    0  501    0  0.00000000000E+00  0.00000000000E+00  0.13635141416E+04  0.13635141416E+04  0.50400001928E-02 0.  1.
       -1   -1    0    0    0  501  0.00000000000E+00  0.00000000000E+00 -0.18390667852E+03  0.18390667859E+03  0.50400001928E-02 0. -1.
    10030    2    1    2    0    0  0.00000000000E+00  0.00000000000E+00  0.11796074631E+04  0.15474208202E+04  0.10015175624E+04 0.  0.
        3    1    3    3  502    0 -0.65839693466E+02  0.85764967469E+02 -0.16565607731E+03  0.19781921300E+03  0.10100000352E+00 0. -1.
       -3    1    3    3    0  502  0.65839693466E+02 -0.85764967469E+02  0.13452635404E+04  0.13496016072E+04  0.10100000352E+00 0.  1.
</event>
<event>
 5   0  0.2284843E-03  0.9910827E+03  0.7818609E-02  0.9318380E-01
       -2   -1    0    0    0  501  0.00000000000E+00  0.00000000000E+00  0.38457895894E+03  0.38457895895E+03  0.25500000920E-02 0.  1.
        2   -1    0    0  501    0  0.00000000000E+00  0.00000000000E+00 -0.63851965460E+03  0.63851965461E+03  0.25500000920E-02 0. -1.
    10030    2    1    2    0    0  0.00000000000E+00  0.00000000000E+00 -0.25394069566E+03  0.10230986136E+04  0.99108268886E+03 0.  0.
        2    1    3    3  502    0  0.43578928372E+02 -0.45272896675E+03 -0.33004473024E+03  0.56195388094E+03  0.25500000920E-02 0. -1.
       -2    1    3    3    0  502 -0.43578928372E+02  0.45272896675E+03  0.76104034584E+02  0.46114473262E+03  0.25500000920E-02 0.  1.
</event>
<event>
 5   0  0.1293716E-03  0.1000394E+04  0.7818609E-02  0.9308113E-01
       -1   -1    0    0    0  501  0.00000000000E+00  0.00000000000E+00  0.44278626804E+03  0.44278626807E+03  0.50400001928E-02 0. -1.
        1   -1    0    0  501    0  0.00000000000E+00  0.00000000000E+00 -0.56505129464E+03  0.56505129467E+03  0.50400001928E-02 0.  1.
    10030    2    1    2    0    0  0.00000000000E+00  0.00000000000E+00 -0.12226502660E+03  0.10078375627E+04  0.10003938305E+04 0.  0.
        3    1    3    3  502    0 -0.17055382973E+03  0.29393240856E+03 -0.43089495635E+03  0.54877622329E+03  0.10100000352E+00 0.  1.
       -3    1    3    3    0  502  0.17055382973E+03 -0.29393240856E+03  0.30862992975E+03  0.45906133945E+03  0.10100000352E+00 0. -1.
</event>
<event>
 5   0  0.2204862E-03  0.1000980E+04  0.7818609E-02  0.9307470E-01
       -2   -1    0    0    0  501  0.00000000000E+00  0.00000000000E+00  0.12183138230E+03  0.12183138232E+03  0.25500000920E-02 0. -1.
        2   -1    0    0  501    0  0.00000000000E+00  0.00000000000E+00 -0.20560420866E+04  0.20560420866E+04  0.25500000920E-02 0.  1.
    10030    2    1    2    0    0  0.00000000000E+00  0.00000000000E+00 -0.19342107043E+04  0.21778734689E+04  0.10009804184E+04 0.  0.
        1    1    3    3  502    0 -0.11968105028E+03  0.25372301063E+03 -0.65310117902E+02  0.28803529549E+03  0.50400001928E-02 0. -1.
       -1    1    3    3    0  502  0.11968105028E+03 -0.25372301063E+03 -0.18689005864E+04  0.18898381734E+04  0.50400001928E-02 0.  1.
</event>
<event>
 5   0  0.2204862E-03  0.9988068E+03  0.7818609E-02  0.9309854E-01
        2   -1    0    0  501    0  0.00000000000E+00  0.00000000000E+00  0.15398067879E+04  0.15398067879E+04  0.25500000920E-02 0.  1.
       -2   -1    0    0    0  501  0.00000000000E+00  0.00000000000E+00 -0.16197079951E+03  0.16197079953E+03  0.25500000920E-02 0. -1.
    10030    2    1    2    0    0  0.00000000000E+00  0.00000000000E+00  0.13778359884E+04  0.17017775874E+04  0.99880676120E+03 0.  0.
        1    1    3    3  502    0  0.14301511607E+03  0.46865595989E+03  0.85333355245E+03  0.98400705482E+03  0.50400001928E-02 0. -1.
       -1    1    3    3    0  502 -0.14301511607E+03 -0.46865595989E+03  0.52450243594E+03  0.71777053262E+03  0.50400001928E-02 0.  1.
</event>
<event>
 5   0  0.2277570E-03  0.9964914E+03  0.7818609E-02  0.9312401E-01
       -2   -1    0    0    0  501  0.00000000000E+00  0.00000000000E+00  0.50547820859E+03  0.50547820860E+03  0.25500000920E-02 0.  1.
        2   -1    0    0  501    0  0.00000000000E+00  0.00000000000E+00 -0.49111665356E+03  0.49111665356E+03  0.25500000920E-02 0. -1.
    10030    2    1    2    0    0  0.00000000000E+00  0.00000000000E+00  0.14361555032E+02  0.99659486216E+03  0.99649137729E+03 0.  0.
        3    1    3    3  502    0  0.28496688170E+03  0.39993145781E+03  0.91435959243E+02  0.49951160092E+03  0.10100000352E+00 0.  1.
       -3    1    3    3    0  502 -0.28496688170E+03 -0.39993145781E+03 -0.77074404210E+02  0.49708326123E+03  0.10100000352E+00 0. -1.
</event>
<event>
 5   0  0.2277570E-03  0.1001848E+04  0.7818609E-02  0.9306520E-01
       -2   -1    0    0    0  501  0.00000000000E+00  0.00000000000E+00  0.19964197093E+03  0.19964197094E+03  0.25500000920E-02 0. -1.
        2   -1    0    0  501    0  0.00000000000E+00  0.00000000000E+00 -0.12568745096E+04  0.12568745096E+04  0.25500000920E-02 0.  1.
    10030    2    1    2    0    0  0.00000000000E+00  0.00000000000E+00 -0.10572325386E+04  0.14565164805E+04  0.10018481009E+04 0.  0.
        3    1    3    3  502    0 -0.12205774783E+03  0.43903424615E+03 -0.22617870616E+03  0.50872977151E+03  0.10100000352E+00 0. -1.
       -3    1    3    3    0  502  0.12205774783E+03 -0.43903424615E+03 -0.83105383246E+03  0.94778670900E+03  0.10100000352E+00 0.  1.
</event>
<event>
 5   0  0.2264577E-03  0.9917462E+03  0.7818609E-02  0.9317644E-01
        2   -1    0    0  501    0  0.00000000000E+00  0.00000000000E+00  0.12065258290E+04  0.12065258290E+04  0.25500000920E-02 0. -1.
       -2   -1    0    0    0  501  0.00000000000E+00  0.00000000000E+00 -0.20380012911E+03  0.20380012913E+03  0.25500000920E-02 0.  1.
    10030    2    1    2    0    0  0.00000000000E+00  0.00000000000E+00  0.10027256999E+04  0.14103259581E+04  0.99174617668E+03 0.  0.
        5    1    3    3  502    0  0.48668125856E+03 -0.15329396710E+01  0.36640137146E+03  0.60920690438E+03  0.46999998093E+01 0. -1.
       -5    1    3    3    0  502 -0.48668125856E+03  0.15329396710E+01  0.63632432844E+03  0.80111905376E+03  0.46999998093E+01 0.  1.
</event>
<event>
 5   0  0.1293716E-03  0.9988293E+03  0.7818609E-02  0.9309830E-01
        1   -1    0    0  501    0  0.00000000000E+00  0.00000000000E+00  0.52077327264E+03  0.52077327267E+03  0.50400001928E-02 0. -1.
       -1   -1    0    0    0  501  0.00000000000E+00  0.00000000000E+00 -0.47893199348E+03  0.47893199350E+03  0.50400001928E-02 0.  1.
    10030    2    1    2    0    0  0.00000000000E+00  0.00000000000E+00  0.41841279163E+02  0.99970526617E+03  0.99882927799E+03 0.  0.
        3    1    3    3  502    0  0.38934050067E+03 -0.30906342392E+03  0.69012191417E+02  0.50186543837E+03  0.10100000352E+00 0. -1.
       -3    1    3    3    0  502 -0.38934050067E+03  0.30906342392E+03 -0.27170912254E+02  0.49783982780E+03  0.10100000352E+00 0.  1.
</event>
<event>
 5   0  0.1293575E-03  0.1001401E+04  0.7818609E-02  0.9307009E-01
       -1   -1    0    0    0  501  0.00000000000E+00  0.00000000000E+00  0.10457454984E+04  0.10457454984E+04  0.50400001928E-02 0. -1.
        1   -1    0    0  501    0  0.00000000000E+00  0.00000000000E+00 -0.23973432795E+03  0.23973432800E+03  0.50400001928E-02 0.  1.
    10030    2    1    2    0    0  0.00000000000E+00  0.00000000000E+00  0.80601117046E+03  0.12854798264E+04  0.10014012069E+04 0.  0.
        4    1    3    3  502    0  0.48703121219E+03  0.85397572569E+02  0.50414250543E+03  0.70615396744E+03  0.12699999809E+01 0. -1.
       -4    1    3    3    0  502 -0.48703121219E+03 -0.85397572569E+02  0.30186866502E+03  0.57932585897E+03  0.12699999809E+01 0.  1.
</event>
<event>
 5   0  0.2255142E-03  0.9816404E+03  0.7818609E-02  0.9328914E-01
        2   -1    0    0  501    0  0.00000000000E+00  0.00000000000E+00  0.71824463181E+03  0.71824463181E+03  0.25500000920E-02 0. -1.
       -2   -1    0    0    0  501  0.00000000000E+00  0.00000000000E+00 -0.33540726712E+03  0.33540726713E+03  0.25500000920E-02 0.  1.
    10030    2    1    2    0    0  0.00000000000E+00  0.00000000000E+00  0.38283736469E+03  0.10536518989E+04  0.98164040072E+03 0.  0.
        4    1    3    3  502    0 -0.16240371166E+03 -0.30991710557E+03  0.56087740991E+03  0.66106630510E+03  0.12699999809E+01 0. -1.
       -4    1    3    3    0  502  0.16240371166E+03  0.30991710557E+03 -0.17804004522E+03  0.39258559384E+03  0.12699999809E+01 0.  1.
</event>
<event>
 5   0  0.1293716E-03  0.9972112E+03  0.7818609E-02  0.9311609E-01
       -1   -1    0    0    0  501  0.00000000000E+00  0.00000000000E+00  0.21924165048E+03  0.21924165054E+03  0.50400001928E-02 0.  1.
        1   -1    0    0  501    0  0.00000000000E+00  0.00000000000E+00 -0.11339430821E+04  0.11339430821E+04  0.50400001928E-02 0. -1.
    10030    2    1    2    0    0  0.00000000000E+00  0.00000000000E+00 -0.91470143163E+03  0.13531847327E+04  0.99721121719E+03 0.  0.
        3    1    3    3  502    0 -0.41097238556E+01  0.24180276843E+03  0.13432835285E+03  0.27663981136E+03  0.10100000352E+00 0.  1.
       -3    1    3    3    0  502  0.41097238556E+01 -0.24180276843E+03 -0.10490297845E+04  0.10765449213E+04  0.10100000352E+00 0. -1.
</event>
<event>
 5   0  0.1249195E-03  0.1002995E+04  0.7818609E-02  0.9305267E-01
       -1   -1    0    0    0  501  0.00000000000E+00  0.00000000000E+00  0.25276789623E+03  0.25276789628E+03  0.50400001928E-02 0. -1.
        1   -1    0    0  501    0  0.00000000000E+00  0.00000000000E+00 -0.99498195149E+03  0.99498195150E+03  0.50400001928E-02 0.  1.
    10030    2    1    2    0    0  0.00000000000E+00  0.00000000000E+00 -0.74221405526E+03  0.12477498478E+04  0.10029945059E+04 0.  0.
        2    1    3    3  502    0  0.47521252577E+02 -0.33960676733E+03  0.84125193402E+02  0.35308366436E+03  0.25500000920E-02 0. -1.
       -2    1    3    3    0  502 -0.47521252577E+02  0.33960676733E+03 -0.82633924866E+03  0.89466618342E+03  0.25500000920E-02 0.  1.
</event>
<event>
 5   0  0.1293716E-03  0.1006736E+04  0.7818609E-02  0.9301187E-01
        1   -1    0    0  501    0  0.00000000000E+00  0.00000000000E+00  0.13987455185E+04  0.13987455185E+04  0.50400001928E-02 0.  1.
       -1   -1    0    0    0  501  0.00000000000E+00  0.00000000000E+00 -0.18114761223E+03  0.18114761230E+03  0.50400001928E-02 0. -1.
    10030    2    1    2    0    0  0.00000000000E+00  0.00000000000E+00  0.12175979063E+04  0.15798931308E+04  0.10067361340E+04 0.  0.
        3    1    3    3  502    0  0.31828993767E+03  0.14079392626E+03  0.38100640425E+02  0.35011867002E+03  0.10100000352E+00 0. -1.
       -3    1    3    3    0  502 -0.31828993767E+03 -0.14079392626E+03  0.11794972659E+04  0.12297744608E+04  0.10100000352E+00 0.  1.
</event>
<event>
 5   0  0.1293716E-03  0.1004331E+04  0.7818609E-02  0.9303807E-01
       -1   -1    0    0    0  501  0.00000000000E+00  0.00000000000E+00  0.27507879904E+03  0.27507879909E+03  0.50400001928E-02 0.  1.
        1   -1    0    0  501    0  0.00000000000E+00  0.00000000000E+00 -0.91672016463E+03  0.91672016465E+03  0.50400001928E-02 0. -1.
    10030    2    1    2    0    0  0.00000000000E+00  0.00000000000E+00 -0.64164136559E+03  0.11917989637E+04  0.10043311844E+04 0.  0.
        3    1    3    3  502    0 -0.67778938506E+02  0.22610758229E+03  0.20514074363E+03  0.31273208689E+03  0.10100000352E+00 0.  1.
       -3    1    3    3    0  502  0.67778938506E+02 -0.22610758229E+03 -0.84678210922E+03  0.87906687685E+03  0.10100000352E+00 0. -1.
</event>
<event>
 5   0  0.1285769E-03  0.1001183E+04  0.7818609E-02  0.9307249E-01
       -1   -1    0    0    0  501  0.00000000000E+00  0.00000000000E+00  0.50777990357E+03  0.50777990360E+03  0.50400001928E-02 0. -1.
        1   -1    0    0  501    0  0.00000000000E+00  0.00000000000E+00 -0.49350462815E+03  0.49350462817E+03  0.50400001928E-02 0.  1.
    10030    2    1    2    0    0  0.00000000000E+00  0.00000000000E+00  0.14275275425E+02  0.10012845318E+04  0.10011827656E+04 0.  0.
        5    1    3    3  502    0 -0.17615387957E+02  0.64622531041E+02  0.50325586798E+03  0.50771540459E+03  0.46999998093E+01 0. -1.
       -5    1    3    3    0  502  0.17615387957E+02 -0.64622531041E+02 -0.48898059255E+03  0.49356912717E+03  0.46999998093E+01 0.  1.
</event>
<event>
 5   0  0.1249195E-03  0.9943477E+03  0.7818609E-02  0.9314766E-01
        1   -1    0    0  501    0  0.00000000000E+00  0.00000000000E+00  0.47963107504E+03  0.47963107506E+03  0.50400001928E-02 0.  1.
       -1   -1    0    0    0  501  0.00000000000E+00  0.00000000000E+00 -0.51535825378E+03  0.51535825380E+03  0.50400001928E-02 0. -1.
    10030    2    1    2    0    0  0.00000000000E+00  0.00000000000E+00 -0.35727178739E+02  0.99498932886E+03  0.99434769234E+03 0.  0.
        2    1    3    3  502    0 -0.41155996701E+03 -0.27846178206E+03 -0.17515597518E+01  0.49691612822E+03  0.25500000920E-02 0. -1.
       -2    1    3    3    0  502  0.41155996701E+03  0.27846178206E+03 -0.33975618987E+02  0.49807320065E+03  0.25500000920E-02 0.  1.
</event>
<event>
 5   0  0.8680125E-04  0.9990697E+03  0.7818609E-02  0.9309566E-01
        3   -1    0    0  501    0  0.00000000000E+00  0.00000000000E+00  0.99607583068E+03  0.99607583580E+03  0.10100000352E+00 0. -1.
       -3   -1    0    0    0  501  0.00000000000E+00  0.00000000000E+00 -0.25051810828E+03  0.25051812864E+03  0.10100000352E+00 0.  1.
    10030    2    1    2    0    0  0.00000000000E+00  0.00000000000E+00  0.74555772240E+03  0.12465939644E+04  0.99906966462E+03 0.  0.
        4    1    3    3  502    0  0.14977637346E+03  0.33540677044E+03  0.79518168111E+03  0.87592590016E+03  0.12699999809E+01 0. -1.
       -4    1    3    3    0  502 -0.14977637346E+03 -0.33540677044E+03 -0.49623958713E+02  0.37066806428E+03  0.12699999809E+01 0.  1.
</event>
<event>
 5   0  0.1249195E-03  0.9997516E+03  0.7818609E-02  0.9308817E-01
        1   -1    0    0  501    0  0.00000000000E+00  0.00000000000E+00  0.75029389397E+03  0.75029389399E+03  0.50400001928E-02 0.  1.
       -1   -1    0    0    0  501  0.00000000000E+00  0.00000000000E+00 -0.33303723093E+03  0.33303723097E+03  0.50400001928E-02 0. -1.
    10030    2    1    2    0    0  0.00000000000E+00  0.00000000000E+00  0.41725666304E+03  0.10833311250E+04  0.99975157087E+03 0.  0.
        2    1    3    3  502    0  0.15975997061E+03  0.25414541481E+03  0.64174686528E+03  0.70848583556E+03  0.25500000920E-02 0.  1.
       -2    1    3    3    0  502 -0.15975997061E+03 -0.25414541481E+03 -0.22449020224E+03  0.37484528940E+03  0.25500000920E-02 0. -1.
</event>
<event>
 5   0  0.2264577E-03  0.1003003E+04  0.7818609E-02  0.9305257E-01
       -2   -1    0    0    0  501  0.00000000000E+00  0.00000000000E+00  0.33775804675E+03  0.33775804676E+03  0.25500000920E-02 0.  1.
        2   -1    0    0  501    0  0.00000000000E+00  0.00000000000E+00 -0.74462683137E+03  0.74462683137E+03  0.25500000920E-02 0. -1.
    10030    2    1    2    0    0  0.00000000000E+00  0.00000000000E+00 -0.40686878462E+03  0.10823848781E+04  0.10030028995E+04 0.  0.
        5    1    3    3  502    0 -0.15510705161E+03 -0.36193982597E+03 -0.53853082167E+03  0.66715528250E+03  0.46999998093E+01 0. -1.
       -5    1    3    3    0  502  0.15510705161E+03  0.36193982597E+03  0.13166203705E+03  0.41522959563E+03  0.46999998093E+01 0.  1.
</event>
<event>
 5   0  0.1293716E-03  0.9807468E+03  0.7818609E-02  0.9329917E-01
        1   -1    0    0  501    0  0.00000000000E+00  0.00000000000E+00  0.16976012511E+04  0.16976012511E+04  0.50400001928E-02 0. -1.
       -1   -1    0    0    0  501  0.00000000000E+00  0.00000000000E+00 -0.14165051203E+03  0.14165051212E+03  0.50400001928E-02 0.  1.
    10030    2    1    2    0    0  0.00000000000E+00  0.00000000000E+00  0.15559507391E+04  0.18392517632E+04  0.98074683081E+03 0.  0.
        3    1    3    3  502    0  0.31620939935E+03  0.37251869562E+03  0.85546905969E+03  0.98518317338E+03  0.10100000352E+00 0.  1.
       -3    1    3    3    0  502 -0.31620939935E+03 -0.37251869562E+03  0.70048167939E+03  0.85406858986E+03  0.10100000352E+00 0. -1.
</event>
<event>
 5   0  0.2264577E-03  0.9499012E+03  0.7818609E-02  0.9365266E-01
        2   -1    0    0  501    0  0.00000000000E+00  0.00000000000E+00  0.89253262263E+03  0.89253262263E+03  0.25500000920E-02 0. -1.
       -2   -1    0    0    0  501  0.00000000000E+00  0.00000000000E+00 -0.25273929139E+03  0.25273929141E+03  0.25500000920E-02 0.  1.
    10030    2    1    2    0    0  0.00000000000E+00  0.00000000000E+00  0.63979333124E+03  0.11452719140E+04  0.94990117928E+03 0.  0.
        5    1    3    3  502    0  0.33976621177E+02 -0.32971898736E+03 -0.90186906201E+02  0.34354736131E+03  0.46999998093E+01 0.  1.
       -5    1    3    3    0  502 -0.33976621177E+02  0.32971898736E+03  0.72998023744E+03  0.80172455274E+03  0.46999998093E+01 0. -1.
</event>
<event>
 5   0  0.1293716E-03  0.9994537E+03  0.7818609E-02  0.9309144E-01
       -1   -1    0    0    0  501  0.00000000000E+00  0.00000000000E+00  0.38040193549E+03  0.38040193553E+03  0.50400001928E-02 0.  1.
        1   -1    0    0  501    0  0.00000000000E+00  0.00000000000E+00 -0.65648173880E+03  0.65648173882E+03  0.50400001928E-02 0. -1.
    10030    2    1    2    0    0  0.00000000000E+00  0.00000000000E+00 -0.27607980331E+03  0.10368836743E+04  0.99945369894E+03 0.  0.
        3    1    3    3  502    0  0.17016511802E+02  0.38186682545E+03  0.19590809304E+03  0.42952511588E+03  0.10100000352E+00 0.  1.
       -3    1    3    3    0  502 -0.17016511802E+02 -0.38186682545E+03 -0.47198789635E+03  0.60735855847E+03  0.10100000352E+00 0. -1.
</event>
<event>
 5   0  0.2255142E-03  0.1001285E+04  0.7818609E-02  0.9307136E-01
        2   -1    0    0  501    0  0.00000000000E+00  0.00000000000E+00  0.63550583289E+03  0.63550583290E+03  0.25500000920E-02 0. -1.
       -2   -1    0    0    0  501  0.00000000000E+00  0.00000000000E+00 -0.39439934519E+03  0.39439934520E+03  0.25500000920E-02 0.  1.
    10030    2    1    2    0    0  0.00000000000E+00  0.00000000000E+00  0.24110648770E+03  0.10299051781E+04  0.10012853427E+04 0.  0.
        4    1    3    3  502    0 -0.44706827137E+03  0.12690340035E+03 -0.70959314279E+02  0.47011844196E+03  0.12699999809E+01 0.  1.
       -4    1    3    3    0  502  0.44706827137E+03 -0.12690340035E+03  0.31206580198E+03  0.55978673614E+03  0.12699999809E+01 0. -1.
</event>
<event>
 5   0  0.1293575E-03  0.1008279E+04  0.7818609E-02  0.9299511E-01
       -1   -1    0    0    0  501  0.00000000000E+00  0.00000000000E+00  0.11008902969E+04  0.11008902969E+04  0.50400001928E-02 0. -1.
        1   -1    0    0  501    0  0.00000000000E+00  0.00000000000E+00 -0.23086442066E+03  0.23086442071E+03  0.50400001928E-02 0.  1.
    10030    2    1    2    0    0  0.00000000000E+00  0.00000000000E+00  0.87002587626E+03  0.13317547176E+04  0.10082785342E+04 0.  0.
        4    1    3    3  502    0  0.29958030080E+03 -0.11812067673E+03 -0.77312005149E+02  0.33117912062E+03  0.12699999809E+01 0.  1.
       -4    1    3    3    0  502 -0.29958030080E+03  0.11812067673E+03  0.94733788140E+03  0.10005755970E+04  0.12699999809E+01 0. -1.
</event>
<event>
 5   0  0.2255142E-03  0.9999075E+03  0.7818609E-02  0.9308646E-01
       -2   -1    0    0    0  501  0.00000000000E+00  0.00000000000E+00  0.26355858323E+03  0.26355858324E+03  0.25500000920E-02 0.  1.
        2   -1    0    0  501    0  0.00000000000E+00  0.00000000000E+00 -0.94838023225E+03  0.94838023225E+03  0.25500000920E-02 0. -1.
    10030    2    1    2    0    0  0.00000000000E+00  0.00000000000E+00 -0.68482164902E+03  0.12119388155E+04  0.99990749650E+03 0.  0.
        4    1    3    3  502    0  0.17030571406E+03  0.26279877417E+03  0.12995468394E+03  0.33905318863E+03  0.12699999809E+01 0.  1.
       -4    1    3    3    0  502 -0.17030571406E+03 -0.26279877417E+03 -0.81477633295E+03  0.87288562687E+03  0.12699999809E+01 0. -1.
</event>
<event>
 5   0  0.2284843E-03  0.1002737E+04  0.7818609E-02  0.9305548E-01
       -2   -1    0    0    0  501  0.00000000000E+00  0.00000000000E+00  0.11858731326E+03  0.11858731328E+03  0.25500000920E-02 0.  1.
        2   -1    0    0  501    0  0.00000000000E+00  0.00000000000E+00 -0.21197058129E+04  0.21197058129E+04  0.25500000920E-02 0. -1.
    10030    2    1    2    0    0  0.00000000000E+00  0.00000000000E+00 -0.20011184997E+04  0.22382931262E+04  0.10027366898E+04 0.  0.
        2    1    3    3  502    0 -0.24083126132E+03  0.27183582402E+03 -0.17721198440E+04  0.18089508432E+04  0.25500000920E-02 0. -1.
       -2    1    3    3    0  502  0.24083126132E+03 -0.27183582402E+03 -0.22899865563E+03  0.42934228296E+03  0.25500000920E-02 0.  1.
</event>
<event>
 5   0  0.1353789E-03  0.1004077E+04  0.7818609E-02  0.9304084E-01
       -1   -1    0    0    0  501  0.00000000000E+00  0.00000000000E+00  0.41721533023E+03  0.41721533027E+03  0.50400001928E-02 0.  1.
        1   -1    0    0  501    0  0.00000000000E+00  0.00000000000E+00 -0.60410732748E+03  0.60410732750E+03  0.50400001928E-02 0. -1.
    10030    2    1    2    0    0  0.00000000000E+00  0.00000000000E+00 -0.18689199724E+03  0.10213226578E+04  0.10040773639E+04 0.  0.
        1    1    3    3  502    0  0.10551601076E+03 -0.40935313144E+03  0.18201742682E+03  0.46025423240E+03  0.50400001928E-02 0.  1.
       -1    1    3    3    0  502 -0.10551601076E+03  0.40935313144E+03 -0.36890942406E+03  0.56106842536E+03  0.50400001928E-02 0. -1.
</event>
<event>
 5   0  0.8680125E-04  0.9997401E+03  0.7818609E-02  0.9308830E-01
       -3   -1    0    0    0  501  0.00000000000E+00  0.00000000000E+00  0.28641214857E+03  0.28641216638E+03  0.10100000352E+00 0.  1.
        3   -1    0    0  501    0  0.00000000000E+00  0.00000000000E+00 -0.87241434284E+03  0.87241434869E+03  0.10100000352E+00 0. -1.
    10030    2    1    2    0    0  0.00000000000E+00  0.00000000000E+00 -0.58600219427E+03  0.11588265151E+04  0.99974012640E+03 0.  0.
        2    1    3    3  502    0  0.31955121878E+03 -0.32634937693E+03 -0.57572057605E+02  0.46036011889E+03  0.25500000920E-02 0.  1.
       -2    1    3    3    0  502 -0.31955121878E+03  0.32634937693E+03 -0.52843013666E+03  0.69846639618E+03  0.25500000920E-02 0. -1.
</event>
<event>
 5   0  0.1353789E-03  0.9977753E+03  0.7818609E-02  0.9310988E-01
        1   -1    0    0  501    0  0.00000000000E+00  0.00000000000E+00  0.46787169657E+03  0.46787169660E+03  0.50400001928E-02 0. -1.
       -1   -1    0    0    0  501  0.00000000000E+00  0.00000000000E+00 -0.53195971529E+03  0.53195971532E+03  0.50400001928E-02 0.  1.
    10030    2    1    2    0    0  0.00000000000E+00  0.00000000000E+00 -0.64088018722E+02  0.99983141191E+03  0.99777531444E+03 0.  0.
        1    1    3    3  502    0 -0.41587934517E+03  0.27229011622E+03  0.10367637761E+02  0.49719716921E+03  0.50400001928E-02 0.  1.
       -1    1    3    3    0  502  0.41587934517E+03 -0.27229011622E+03 -0.74455656483E+02  0.50263424270E+03  0.50400001928E-02 0. -1.
</event>
<event>
 5   0  0.2264577E-03  0.9999669E+03  0.7818609E-02  0.9308581E-01
       -2   -1    0    0    0  501  0.00000000000E+00  0.00000000000E+00  0.16319100098E+03  0.16319100100E+03  0.25500000920E-02 0. -1.
        2   -1    0    0  501    0  0.00000000000E+00  0.00000000000E+00 -0.15318457669E+04  0.15318457669E+04  0.25500000920E-02 0.  1.
    10030    2    1    2    0    0  0.00000000000E+00  0.00000000000E+00 -0.13686547659E+04  0.16950367679E+04  0.99996688758E+03 0.  0.
        5    1    3    3  502    0  0.21275995418E+03 -0.20201749858E+02  0.81821688636E+02  0.22889252397E+03  0.46999998093E+01 0. -1.
       -5    1    3    3    0  502 -0.21275995418E+03  0.20201749858E+02 -0.14504764545E+04  0.14661442439E+04  0.46999998093E+01 0.  1.
</event>
<event>
 5   0  0.2277570E-03  0.1004847E+04  0.7818609E-02  0.9303244E-01
        2   -1    0    0  501    0  0.00000000000E+00  0.00000000000E+00  0.25799999369E+03  0.25799999371E+03  0.25500000920E-02 0. -1.
       -2   -1    0    0    0  501  0.00000000000E+00  0.00000000000E+00 -0.97840889333E+03  0.97840889333E+03  0.25500000920E-02 0.  1.
    10030    2    1    2    0    0  0.00000000000E+00  0.00000000000E+00 -0.72040889963E+03  0.12364088870E+04  0.10048472288E+04 0.  0.
        3    1    3    3  502    0 -0.10595726941E+03  0.37732033799E+03  0.26617087102E+02  0.39281810030E+03  0.10100000352E+00 0. -1.
       -3    1    3    3    0  502  0.10595726941E+03 -0.37732033799E+03 -0.74702598673E+03  0.84359078673E+03  0.10100000352E+00 0.  1.
</event>
<event>
 5   0  0.2264577E-03  0.9861577E+03  0.7818609E-02  0.9323858E-01
        2   -1    0    0  501    0  0.00000000000E+00  0.00000000000E+00  0.14097096215E+04  0.14097096215E+04  0.25500000920E-02 0.  1.
       -2   -1    0    0    0  501  0.00000000000E+00  0.00000000000E+00 -0.17246583161E+03  0.17246583163E+03  0.25500000920E-02 0. -1.
    10030    2    1    2    0    0  0.00000000000E+00  0.00000000000E+00  0.12372437899E+04  0.15821754531E+04  0.98615767951E+03 0.  0.
        5    1    3    3  502    0 -0.21636550795E+03  0.37834749059E+03  0.98847951061E+03  0.10803123111E+04  0.46999998093E+01 0.  1.
       -5    1    3    3    0  502  0.21636550795E+03 -0.37834749059E+03  0.24876427931E+03  0.50186314203E+03  0.46999998093E+01 0. -1.
</event>
<event>
 5   0  0.1249195E-03  0.9966642E+03  0.7818609E-02  0.9312211E-01
       -1   -1    0    0    0  501  0.00000000000E+00  0.00000000000E+00  0.14342758106E+03  0.14342758115E+03  0.50400001928E-02 0.  1.
        1   -1    0    0  501    0  0.00000000000E+00  0.00000000000E+00 -0.17314306256E+04  0.17314306256E+04  0.50400001928E-02 0. -1.
    10030    2    1    2    0    0  0.00000000000E+00  0.00000000000E+00 -0.15880030445E+04  0.18748582067E+04  0.99666424936E+03 0.  0.
        2    1    3    3  502    0  0.39377707454E+03 -0.27486177908E+03 -0.54355264178E+03  0.72529914961E+03  0.25500000920E-02 0.  1.
       -2    1    3    3    0  502 -0.39377707454E+03  0.27486177908E+03 -0.10444504027E+04  0.11495590571E+04  0.25500000920E-02 0. -1.
</event>
<event>
 5   0  0.2255142E-03  0.1002081E+04  0.7818609E-02  0.9306265E-01
       -2   -1    0    0    0  501  0.00000000000E+00  0.00000000000E+00  0.56330233077E+03  0.56330233078E+03  0.25500000920E-02 0. -1.
        2   -1    0    0  501    0  0.00000000000E+00  0.00000000000E+00 -0.44566074008E+03  0.44566074009E+03  0.25500000920E-02 0.  1.
    10030    2    1    2    0    0  0.00000000000E+00  0.00000000000E+00  0.11764159069E+03  0.10089630709E+04  0.10020813013E+04 0.  0.
        4    1    3    3  502    0 -0.21865291776E+03  0.12617935557E+03  0.49458600455E+03  0.55529024574E+03  0.12699999809E+01 0. -1.
       -4    1    3    3    0  502  0.21865291776E+03 -0.12617935557E+03 -0.37694441386E+03  0.45367282513E+03  0.12699999809E+01 0.  1.
</event>
<event>
 5   0  0.1353789E-03  0.1002551E+04  0.7818609E-02  0.9305752E-01
        1   -1    0    0  501    0  0.00000000000E+00  0.00000000000E+00  0.15285928701E+03  0.15285928710E+03  0.50400001928E-02 0. -1.
       -1   -1    0    0    0  501  0.00000000000E+00  0.00000000000E+00 -0.16438452160E+04  0.16438452160E+04  0.50400001928E-02 0.  1.
    10030    2    1    2    0    0  0.00000000000E+00  0.00000000000E+00 -0.14909859289E+04  0.17967045031E+04  0.10025507623E+04 0.  0.
        1    1    3    3  502    0  0.15309777007E+03  0.35177367030E+03 -0.13236979202E+04  0.13781726402E+04  0.50400001928E-02 0.  1.
       -1    1    3    3    0  502 -0.15309777007E+03 -0.35177367030E+03 -0.16728800876E+03  0.41853186285E+03  0.50400001928E-02 0. -1.
</event>
<event>
 5   0  0.2277570E-03  0.1006556E+04  0.7818609E-02  0.9301384E-01
       -2   -1    0    0    0  501  0.00000000000E+00  0.00000000000E+00  0.27667591070E+03  0.27667591071E+03  0.25500000920E-02 0. -1.
        2   -1    0    0  501    0  0.00000000000E+00  0.00000000000E+00 -0.91547068103E+03  0.91547068104E+03  0.25500000920E-02 0.  1.
    10030    2    1    2    0    0  0.00000000000E+00  0.00000000000E+00 -0.63879477034E+03  0.11921465917E+04  0.10065558790E+04 0.  0.
        3    1    3    3  502    0 -0.13529474932E+03  0.39522114793E+03 -0.65183600617E+03  0.77420579570E+03  0.10100000352E+00 0.  1.
       -3    1    3    3    0  502  0.13529474932E+03 -0.39522114793E+03  0.13041235830E+02  0.41794079604E+03  0.10100000352E+00 0. -1.
</event>
<event>
 5   0  0.1353789E-03  0.9967911E+03  0.7818609E-02  0.9312071E-01
       -1   -1    0    0    0  501  0.00000000000E+00  0.00000000000E+00  0.24263956685E+03  0.24263956690E+03  0.50400001928E-02 0.  1.
        1   -1    0    0  501    0  0.00000000000E+00  0.00000000000E+00 -0.10237329760E+04  0.10237329760E+04  0.50400001928E-02 0. -1.
    10030    2    1    2    0    0  0.00000000000E+00  0.00000000000E+00 -0.78109340915E+03  0.12663725429E+04  0.99679110330E+03 0.  0.
        1    1    3    3  502    0 -0.42476452895E+03  0.14438758224E+03 -0.11475253954E+03  0.46307755756E+03  0.50400001928E-02 0.  1.
       -1    1    3    3    0  502  0.42476452895E+03 -0.14438758224E+03 -0.66634086960E+03  0.80329498535E+03  0.50400001928E-02 0. -1.
</event>
<event>
 5   0  0.2264577E-03  0.9920944E+03  0.7818609E-02  0.9317258E-01
        2   -1    0    0  501    0  0.00000000000E+00  0.00000000000E+00  0.20458290917E+04  0.20458290917E+04  0.25500000920E-02 0.  1.
       -2   -1    0    0    0  501  0.00000000000E+00  0.00000000000E+00 -0.12027534612E+03  0.12027534614E+03  0.25500000920E-02 0. -1.
    10030    2    1    2    0    0  0.00000000000E+00  0.00000000000E+00  0.19255537456E+04  0.21661044379E+04  0.99209435465E+03 0.  0.
        5    1    3    3  502    0  0.15254726181E+03 -0.36907602260E+03  0.16051203412E+04  0.16540620234E+04  0.46999998093E+01 0.  1.
       -5    1    3    3    0  502 -0.15254726181E+03  0.36907602260E+03  0.32043340439E+03  0.51204241444E+03  0.46999998093E+01 0. -1.
</event>
<event>
 5   0  0.8680125E-04  0.9987375E+03  0.7818609E-02  0.9309931E-01
        3   -1    0    0  501    0  0.00000000000E+00  0.00000000000E+00  0.45610755215E+03  0.45610756334E+03  0.10100000352E+00 0. -1.
       -3   -1    0    0    0  501  0.00000000000E+00  0.00000000000E+00 -0.54673317831E+03  0.54673318764E+03  0.10100000352E+00 0.  1.
    10030    2    1    2    0    0  0.00000000000E+00  0.00000000000E+00 -0.90625626159E+02  0.10028407510E+04  0.99873748689E+03 0.  0.
        4    1    3    3  502    0 -0.43233935539E+03  0.67492676731E+02  0.19628942979E+03  0.47958704401E+03  0.12699999809E+01 0. -1.
       -4    1    3    3    0  502  0.43233935539E+03 -0.67492676731E+02 -0.28691505594E+03  0.52325370697E+03  0.12699999809E+01 0.  1.
</event>
<event>
 5   0  0.1293575E-03  0.1005030E+04  0.7818609E-02  0.9303045E-01
        1   -1    0    0  501    0  0.00000000000E+00  0.00000000000E+00  0.76314757181E+03  0.76314757183E+03  0.50400001928E-02 0.  1.
       -1   -1    0    0    0  501  0.00000000000E+00  0.00000000000E+00 -0.33089443724E+03  0.33089443728E+03  0.50400001928E-02 0. -1.
    10030    2    1    2    0    0  0.00000000000E+00  0.00000000000E+00  0.43225313457E+03  0.10940420091E+04  0.10050299226E+04 0.  0.
        4    1    3    3  502    0 -0.37307595129E+03 -0.26703366661E+03  0.43928810772E+03  0.63519154514E+03  0.12699999809E+01 0.  1.
       -4    1    3    3    0  502  0.37307595129E+03  0.26703366661E+03 -0.70349731510E+01  0.45885046397E+03  0.12699999809E+01 0. -1.
</event>
<event>
 5   0  0.2284843E-03  0.1021620E+04  0.7818609E-02  0.9285145E-01
       -2   -1    0    0    0  501  0.00000000000E+00  0.00000000000E+00  0.18342961635E+03  0.18342961637E+03  0.25500000920E-02 0.  1.
        2   -1    0    0  501    0  0.00000000000E+00  0.00000000000E+00 -0.14224898823E+04  0.14224898823E+04  0.25500000920E-02 0. -1.
    10030    2    1    2    0    0  0.00000000000E+00  0.00000000000E+00 -0.12390602659E+04  0.16059194986E+04  0.10216198381E+04 0.  0.
        2    1    3    3  502    0 -0.48103861962E+02 -0.49678287043E+03 -0.79042747938E+03  0.93481698854E+03  0.25500000920E-02 0. -1.
       -2    1    3    3    0  502  0.48103861962E+02  0.49678287043E+03 -0.44863278653E+03  0.67110251009E+03  0.25500000920E-02 0.  1.
</event>
<event>
 5   0  0.2277570E-03  0.9665789E+03  0.7818609E-02  0.9345980E-01
        2   -1    0    0  501    0  0.00000000000E+00  0.00000000000E+00  0.11415959316E+04  0.11415959316E+04  0.25500000920E-02 0.  1.
       -2   -1    0    0    0  501  0.00000000000E+00  0.00000000000E+00 -0.20459837970E+03  0.20459837971E+03  0.25500000920E-02 0. -1.
    10030    2    1    2    0    0  0.00000000000E+00  0.00000000000E+00  0.93699755192E+03  0.13461943113E+04  0.96657886981E+03 0.  0.
        3    1    3    3  502    0 -0.12060314458E+03 -0.41652813814E+03  0.76567158508E+03  0.87993965404E+03  0.10100000352E+00 0. -1.
       -3    1    3    3    0  502  0.12060314458E+03  0.41652813814E+03  0.17132596684E+03  0.46625465730E+03  0.10100000352E+00 0.  1.
</event>
<event>
 5   0  0.1285769E-03  0.9961718E+03  0.7818609E-02  0.9312753E-01
       -1   -1    0    0    0  501  0.00000000000E+00  0.00000000000E+00  0.46848553082E+03  0.46848553084E+03  0.50400001928E-02 0.  1.
        1   -1    0    0  501    0  0.00000000000E+00  0.00000000000E+00 -0.52955653563E+03  0.52955653566E+03  0.50400001928E-02 0. -1.
    10030    2    1    2    0    0  0.00000000000E+00  0.00000000000E+00 -0.61071004818E+02  0.99804206650E+03  0.99617182196E+03 0.  0.
        5    1    3    3  502    0  0.15041036435E+03  0.46790717975E+03 -0.11135341055E+03  0.50396634670E+03  0.46999998093E+01 0. -1.
       -5    1    3    3    0  502 -0.15041036435E+03 -0.46790717975E+03  0.50282405730E+02  0.49407571980E+03  0.46999998093E+01 0.  1.
</event>
<event>
 5   0  0.8680125E-04  0.9942863E+03  0.7818609E-02  0.9314834E-01
        4   -1    0    0  501    0  0.00000000000E+00  0.00000000000E+00  0.67116484439E+03  0.67116604595E+03  0.12699999809E+01 0.  1.
       -4   -1    0    0    0  501  0.00000000000E+00  0.00000000000E+00 -0.36823973368E+03  0.36824192369E+03  0.12699999809E+01 0. -1.
    10030    2    1    2    0    0  0.00000000000E+00  0.00000000000E+00  0.30292511071E+03  0.10394079696E+04  0.99428632931E+03 0.  0.
        1    1    3    3  502    0 -0.16752498515E+03  0.26369276515E+03  0.55573290829E+03  0.63752455672E+03  0.50400001928E-02 0.  1.
       -1    1    3    3    0  502  0.16752498515E+03 -0.26369276515E+03 -0.25280779758E+03  0.40188341292E+03  0.50400001928E-02 0. -1.
</event>
<event>
 5   0  0.2204862E-03  0.9996097E+03  0.7818609E-02  0.9308973E-01
        2   -1    0    0  501    0  0.00000000000E+00  0.00000000000E+00  0.70887816358E+03  0.70887816358E+03  0.25500000920E-02 0. -1.
       -2   -1    0    0    0  501  0.00000000000E+00  0.00000000000E+00 -0.35239469586E+03  0.35239469587E+03  0.25500000920E-02 0.  1.
    10030    2    1    2    0    0  0.00000000000E+00  0.00000000000E+00  0.35648346771E+03  0.10612728595E+04  0.99960973357E+03 0.  0.
        1    1    3    3  502    0  0.10530977063E+03 -0.32560839141E+03 -0.20850095647E+03  0.40072886248E+03  0.50400001928E-02 0.  1.
       -1    1    3    3    0  502 -0.10530977063E+03  0.32560839141E+03  0.56498442418E+03  0.66054399698E+03  0.50400001928E-02 0. -1.
</event>
<event>
 5   0  0.2284843E-03  0.1016134E+04  0.7818609E-02  0.9291025E-01
       -2   -1    0    0    0  501  0.00000000000E+00  0.00000000000E+00  0.32124747305E+03  0.32124747306E+03  0.25500000920E-02 0.  1.
        2   -1    0    0  501    0  0.00000000000E+00  0.00000000000E+00 -0.80352978617E+03  0.80352978617E+03  0.25500000920E-02 0. -1.
    10030    2    1    2    0    0  0.00000000000E+00  0.00000000000E+00 -0.48228231312E+03  0.11247772592E+04  0.10161336789E+04 0.  0.
        2    1    3    3  502    0 -0.44963517829E+03  0.23375328401E+02  0.19428781605E+02  0.45066137742E+03  0.25500000920E-02 0.  1.
       -2    1    3    3    0  502  0.44963517829E+03 -0.23375328401E+02 -0.50171109473E+03  0.67411588181E+03  0.25500000920E-02 0. -1.
</event>
<event>
 5   0  0.1249195E-03  0.1001573E+04  0.7818609E-02  0.9306821E-01
       -1   -1    0    0    0  501  0.00000000000E+00  0.00000000000E+00  0.29148571915E+03  0.29148571919E+03  0.50400001928E-02 0.  1.
        1   -1    0    0  501    0  0.00000000000E+00  0.00000000000E+00 -0.86037597881E+03  0.86037597882E+03  0.50400001928E-02 0. -1.
    10030    2    1    2    0    0  0.00000000000E+00  0.00000000000E+00 -0.56889025966E+03  0.11518616980E+04  0.10015733841E+04 0.  0.
        2    1    3    3  502    0  0.37784813856E+03  0.20938954098E+03 -0.57578337983E+03  0.71981921076E+03  0.25500000920E-02 0. -1.
       -2    1    3    3    0  502 -0.37784813856E+03 -0.20938954098E+03  0.68931201735E+01  0.43204248726E+03  0.25500000920E-02 0.  1.
</event>
<event>
 5   0  0.2255142E-03  0.9999077E+03  0.7818609E-02  0.9308646E-01
       -2   -1    0    0    0  501  0.00000000000E+00  0.00000000000E+00  0.25474800200E+03  0.25474800202E+03  0.25500000920E-02 0.  1.
        2   -1    0    0  501    0  0.00000000000E+00  0.00000000000E+00 -0.98118090772E+03  0.98118090772E+03  0.25500000920E-02 0. -1.
    10030    2    1    2    0    0  0.00000000000E+00  0.00000000000E+00 -0.72643290572E+03  0.12359289097E+04  0.99990774746E+03 0.  0.
        4    1    3    3  502    0 -0.13100600775E+03  0.97763951818E+02 -0.94721488895E+03  0.96121694902E+03  0.12699999809E+01 0. -1.
       -4    1    3    3    0  502  0.13100600775E+03 -0.97763951818E+02  0.22078198323E+03  0.27471196072E+03  0.12699999809E+01 0.  1.
</event>
<event>
 5   0  0.2264577E-03  0.9792302E+03  0.7818609E-02  0.9331623E-01
       -2   -1    0    0    0  501  0.00000000000E+00  0.00000000000E+00  0.22278819980E+03  0.22278819982E+03  0.25500000920E-02 0. -1.
        2   -1    0    0  501    0  0.00000000000E+00  0.00000000000E+00 -0.10760127648E+04  0.10760127648E+04  0.25500000920E-02 0.  1.
    10030    2    1    2    0    0  0.00000000000E+00  0.00000000000E+00 -0.85322456501E+03  0.12988009646E+04  0.97923020144E+03 0.  0.
        5    1    3    3  502    0 -0.36321964504E+03  0.32556818034E+03 -0.48253494038E+03  0.68613789378E+03  0.46999998093E+01 0.  1.
       -5    1    3    3    0  502  0.36321964504E+03 -0.32556818034E+03 -0.37068962463E+03  0.61266307086E+03  0.46999998093E+01 0. -1.
</event>
<event>
 5   0  0.2255142E-03  0.9896477E+03  0.7818609E-02  0.9319972E-01
        2   -1    0    0  501    0  0.00000000000E+00  0.00000000000E+00  0.48537368008E+03  0.48537368008E+03  0.25500000920E-02 0.  1.
       -2   -1    0    0    0  501  0.00000000000E+00  0.00000000000E+00 -0.50445797604E+03  0.50445797604E+03  0.25500000920E-02 0. -1.
    10030    2    1    2    0    0  0.00000000000E+00  0.00000000000E+00 -0.19084295959E+02  0.98983165613E+03  0.98964766312E+03 0.  0.
        4    1    3    3  502    0  0.91709887333E+02  0.53128349586E+02 -0.49297007546E+03  0.50423648536E+03  0.12699999809E+01 0. -1.
       -4    1    3    3    0  502 -0.91709887333E+02 -0.53128349586E+02  0.47388577950E+03  0.48559517077E+03  0.12699999809E+01 0.  1.
</event>
<event>
 5   0  0.2284843E-03  0.9461357E+03  0.7818609E-02  0.9369679E-01
        2   -1    0    0  501    0  0.00000000000E+00  0.00000000000E+00  0.13006169754E+04  0.13006169754E+04  0.25500000920E-02 0. -1.
       -2   -1    0    0    0  501  0.00000000000E+00  0.00000000000E+00 -0.17206693066E+03  0.17206693068E+03  0.25500000920E-02 0.  1.
    10030    2    1    2    0    0  0.00000000000E+00  0.00000000000E+00  0.11285500447E+04  0.14726839061E+04  0.94613565822E+03 0.  0.
        2    1    3    3  502    0 -0.60428609347E+02 -0.24005915368E+03 -0.63205708102E+02  0.25548967814E+03  0.25500000920E-02 0.  1.
       -2    1    3    3    0  502  0.60428609347E+02  0.24005915368E+03  0.11917557528E+04  0.12171942279E+04  0.25500000920E-02 0. -1.
</event>
<event>
 5   0  0.8680125E-04  0.1000143E+04  0.7818609E-02  0.9308388E-01
        4   -1    0    0  501    0  0.00000000000E+00  0.00000000000E+00  0.70752251695E+03  0.70752365677E+03  0.12699999809E+01 0. -1.
       -4   -1    0    0    0  501  0.00000000000E+00  0.00000000000E+00 -0.35344406158E+03  0.35344634327E+03  0.12699999809E+01 0.  1.
    10030    2    1    2    0    0  0.00000000000E+00  0.00000000000E+00  0.35407845537E+03  0.10609700000E+04  0.10001428840E+04 0.  0.
        2    1    3    3  502    0 -0.25770716667E+03 -0.37431835365E+02 -0.27584119360E+03  0.37934481695E+03  0.25500000920E-02 0.  1.
       -2    1    3    3    0  502  0.25770716667E+03  0.37431835365E+02  0.62991964897E+03  0.68162518309E+03  0.25500000920E-02 0. -1.
</event>
<event>
 5   0  0.1353789E-03  0.1000955E+04  0.7818609E-02  0.9307498E-01
        1   -1    0    0  501    0  0.00000000000E+00  0.00000000000E+00  0.20181559200E+03  0.20181559206E+03  0.50400001928E-02 0. -1.
       -1   -1    0    0    0  501  0.00000000000E+00  0.00000000000E+00 -0.12411219837E+04  0.12411219837E+04  0.50400001928E-02 0.  1.
    10030    2    1    2    0    0  0.00000000000E+00  0.00000000000E+00 -0.10393063917E+04  0.14429375757E+04  0.10009550798E+04 0.  0.
        1    1    3    3  502    0 -0.34859281662E+03 -0.14806104028E+03 -0.99128540673E+03  0.10611718904E+04  0.50400001928E-02 0.  1.
       -1    1    3    3    0  502  0.34859281662E+03  0.14806104028E+03 -0.48020984932E+02  0.38176568529E+03  0.50400001928E-02 0. -1.
</event>
<event>
 5   0  0.2277570E-03  0.1004185E+04  0.7818609E-02  0.9303967E-01
        2   -1    0    0  501    0  0.00000000000E+00  0.00000000000E+00  0.17610431001E+04  0.17610431001E+04  0.25500000920E-02 0.  1.
       -2   -1    0    0    0  501  0.00000000000E+00  0.00000000000E+00 -0.14315205371E+03  0.14315205373E+03  0.25500000920E-02 0. -1.
    10030    2    1    2    0    0  0.00000000000E+00  0.00000000000E+00  0.16178910464E+04  0.19041951538E+04  0.10041851153E+04 0.  0.
        3    1    3    3  502    0  0.17270813939E+03  0.47145281604E+03  0.81090437234E+03  0.95376190449E+03  0.10100000352E+00 0.  1.
       -3    1    3    3    0  502 -0.17270813939E+03 -0.47145281604E+03  0.80698667401E+03  0.95043324931E+03  0.10100000352E+00 0. -1.
</event>
<event>
 5   0  0.1353789E-03  0.9936881E+03  0.7818609E-02  0.9315495E-01
        1   -1    0    0  501    0  0.00000000000E+00  0.00000000000E+00  0.43348169722E+03  0.43348169725E+03  0.50400001928E-02 0.  1.
       -1   -1    0    0    0  501  0.00000000000E+00  0.00000000000E+00 -0.56946812632E+03  0.56946812634E+03  0.50400001928E-02 0. -1.
    10030    2    1    2    0    0  0.00000000000E+00  0.00000000000E+00 -0.13598642909E+03  0.10029498236E+04  0.99368809983E+03 0.  0.
        1    1    3    3  502    0 -0.37599313635E+03 -0.15407377465E+03  0.22058147540E+03  0.46234808741E+03  0.50400001928E-02 0.  1.
       -1    1    3    3    0  502  0.37599313635E+03  0.15407377465E+03 -0.35656790449E+03  0.54060173618E+03  0.50400001928E-02 0. -1.
</event>
<event>
 5   0  0.2284843E-03  0.9854154E+03  0.7818609E-02  0.9324687E-01
        2   -1    0    0  501    0  0.00000000000E+00  0.00000000000E+00  0.49747586455E+03  0.49747586456E+03  0.25500000920E-02 0.  1.
       -2   -1    0    0    0  501  0.00000000000E+00  0.00000000000E+00 -0.48798522671E+03  0.48798522672E+03  0.25500000920E-02 0. -1.
    10030    2    1    2    0    0  0.00000000000E+00  0.00000000000E+00  0.94906378375E+01  0.98546109128E+03  0.98541538968E+03 0.  0.
        2    1    3    3  502    0  0.54293499642E+02 -0.43840180717E+03 -0.21347787136E+03  0.49062891293E+03  0.25500000920E-02 0. -1.
       -2    1    3    3    0  502 -0.54293499642E+02  0.43840180717E+03  0.22296850920E+03  0.49483217835E+03  0.25500000920E-02 0.  1.
</event>
<event>
 5   0  0.2264577E-03  0.1001113E+04  0.7818609E-02  0.9307325E-01
        2   -1    0    0  501    0  0.00000000000E+00  0.00000000000E+00  0.15189269128E+04  0.15189269128E+04  0.25500000920E-02 0. -1.
       -2   -1    0    0    0  501  0.00000000000E+00  0.00000000000E+00 -0.16495657660E+03  0.16495657662E+03  0.25500000920E-02 0.  1.
    10030    2    1    2    0    0  0.00000000000E+00  0.00000000000E+00  0.13539703362E+04  0.16838834894E+04  0.10011133475E+04 0.  0.
        5    1    3    3  502    0  0.40078982931E+03 -0.25141350232E+03  0.95179535448E+03  0.10629100259E+04  0.46999998093E+01 0. -1.
       -5    1    3    3    0  502 -0.40078982931E+03  0.25141350232E+03  0.40217498174E+03  0.62097346350E+03  0.46999998093E+01 0.  1.
</event>
<event>
 5   0  0.1353789E-03  0.1002578E+04  0.7818609E-02  0.9305722E-01
        1   -1    0    0  501    0  0.00000000000E+00  0.00000000000E+00  0.11522872290E+04  0.11522872290E+04  0.50400001928E-02 0. -1.
       -1   -1    0    0    0  501  0.00000000000E+00  0.00000000000E+00 -0.21807984107E+03  0.21807984113E+03  0.50400001928E-02 0.  1.
    10030    2    1    2    0    0  0.00000000000E+00  0.00000000000E+00  0.93420738795E+03  0.13703670702E+04  0.10025779088E+04 0.  0.
        1    1    3    3  502    0 -0.42693748299E+02 -0.34953569624E+03 -0.20560038545E+02  0.35273314885E+03  0.50400001928E-02 0.  1.
       -1    1    3    3    0  502  0.42693748299E+02  0.34953569624E+03  0.95476742649E+03  0.10176339213E+04  0.50400001928E-02 0. -1.
</event>
<event>
 5   0  0.1293575E-03  0.9968986E+03  0.7818609E-02  0.9311953E-01
        1   -1    0    0  501    0  0.00000000000E+00  0.00000000000E+00  0.52561677849E+03  0.52561677851E+03  0.50400001928E-02 0. -1.
       -1   -1    0    0    0  501  0.00000000000E+00  0.00000000000E+00 -0.47268606279E+03  0.47268606282E+03  0.50400001928E-02 0.  1.
    10030    2    1    2    0    0  0.00000000000E+00  0.00000000000E+00  0.52930715699E+02  0.99830284133E+03  0.99689864196E+03 0.  0.
        4    1    3    3  502    0  0.31031305118E+02 -0.26473504406E+02  0.52394103017E+03  0.52552792916E+03  0.12699999809E+01 0. -1.
       -4    1    3    3    0  502 -0.31031305118E+02  0.26473504406E+02 -0.47101031447E+03  0.47277491217E+03  0.12699999809E+01 0.  1.
</event>
<event>
 5   0  0.1293716E-03  0.1004376E+04  0.7818609E-02  0.9303758E-01
       -1   -1    0    0    0  501  0.00000000000E+00  0.00000000000E+00  0.14955212058E+03  0.14955212066E+03  0.50400001928E-02 0. -1.
        1   -1    0    0  501    0  0.00000000000E+00  0.00000000000E+00 -0.16863198713E+04  0.16863198713E+04  0.50400001928E-02 0.  1.
    10030    2    1    2    0    0  0.00000000000E+00  0.00000000000E+00 -0.15367677507E+04  0.18358719919E+04  0.10043758516E+04 0.  0.
        3    1    3    3  502    0  0.11418293508E+03 -0.29909044534E+02 -0.16606041245E+04  0.16647937897E+04  0.10100000352E+00 0.  1.
       -3    1    3    3    0  502 -0.11418293508E+03  0.29909044534E+02  0.12383637382E+03  0.17107820226E+03  0.10100000352E+00 0. -1.
</event>
<event>
 5   0  0.8680125E-04  0.9966784E+03  0.7818609E-02  0.9312195E-01
        3   -1    0    0  501    0  0.00000000000E+00  0.00000000000E+00  0.86344514770E+03  0.86344515360E+03  0.10100000352E+00 0.  1.
       -3   -1    0    0    0  501  0.00000000000E+00  0.00000000000E+00 -0.28761749941E+03  0.28761751714E+03  0.10100000352E+00 0. -1.
    10030    2    1    2    0    0  0.00000000000E+00  0.00000000000E+00  0.57582764829E+03  0.11510626707E+04  0.99667837915E+03 0.  0.
        4    1    3    3  502    0  0.31130318796E+03 -0.64430837917E+02  0.73112921033E+03  0.79725312342E+03  0.12699999809E+01 0.  1.
       -4    1    3    3    0  502 -0.31130318796E+03  0.64430837917E+02 -0.15530156204E+03  0.35380954733E+03  0.12699999809E+01 0. -1.
</event>
<event>
 5   0  0.1285769E-03  0.1003344E+04  0.7818609E-02  0.9304885E-01
       -1   -1    0    0    0  501  0.00000000000E+00  0.00000000000E+00  0.41321022354E+03  0.41321022358E+03  0.50400001928E-02 0.  1.
        1   -1    0    0  501    0  0.00000000000E+00  0.00000000000E+00 -0.60907172113E+03  0.60907172115E+03  0.50400001928E-02 0. -1.
    10030    2    1    2    0    0  0.00000000000E+00  0.00000000000E+00 -0.19586149759E+03  0.10222819447E+04  0.10033437339E+04 0.  0.
        5    1    3    3  502    0 -0.71177880658E+02  0.32928939695E+03  0.28077674312E+03  0.43858347793E+03  0.46999998093E+01 0.  1.
       -5    1    3    3    0  502  0.71177880658E+02 -0.32928939695E+03 -0.47663824071E+03  0.58369846680E+03  0.46999998093E+01 0. -1.
</event>
<event>
 5   0  0.1293716E-03  0.9895437E+03  0.7818609E-02  0.9320088E-01
       -1   -1    0    0    0  501  0.00000000000E+00  0.00000000000E+00  0.28204895528E+03  0.28204895533E+03  0.50400001928E-02 0.  1.
        1   -1    0    0  501    0  0.00000000000E+00  0.00000000000E+00 -0.86793153217E+03  0.86793153219E+03  0.50400001928E-02 0. -1.
    10030    2    1    2    0    0  0.00000000000E+00  0.00000000000E+00 -0.58588257689E+03  0.11499804875E+04  0.98954369675E+03 0.  0.
        3    1    3    3  502    0 -0.21653726273E+03  0.44477356974E+03 -0.28208562763E+03  0.56945959120E+03  0.10100000352E+00 0.  1.
       -3    1    3    3    0  502  0.21653726273E+03 -0.44477356974E+03 -0.30379694926E+03  0.58052089632E+03  0.10100000352E+00 0. -1.
</event>
<event>
 5   0  0.2264577E-03  0.9978642E+03  0.7818609E-02  0.9310890E-01
       -2   -1    0    0    0  501  0.00000000000E+00  0.00000000000E+00  0.29675808625E+03  0.29675808626E+03  0.25500000920E-02 0. -1.
        2   -1    0    0  501    0  0.00000000000E+00  0.00000000000E+00 -0.83884238719E+03  0.83884238719E+03  0.25500000920E-02 0.  1.
    10030    2    1    2    0    0  0.00000000000E+00  0.00000000000E+00 -0.54208430094E+03  0.11356004734E+04  0.99786424225E+03 0.  0.
        5    1    3    3  502    0 -0.22806103447E+03  0.60713380626E+02  0.22919106494E+03  0.32901152606E+03  0.46999998093E+01 0. -1.
       -5    1    3    3    0  502  0.22806103447E+03 -0.60713380626E+02 -0.77127536588E+03  0.80658894739E+03  0.46999998093E+01 0.  1.
</event>
<event>
 5   0  0.1285769E-03  0.9975789E+03  0.7818609E-02  0.9311204E-01
       -1   -1    0    0    0  501  0.00000000000E+00  0.00000000000E+00  0.14318114748E+03  0.14318114757E+03  0.50400001928E-02 0. -1.
        1   -1    0    0  501    0  0.00000000000E+00  0.00000000000E+00 -0.17375956192E+04  0.17375956192E+04  0.50400001928E-02 0.  1.
    10030    2    1    2    0    0  0.00000000000E+00  0.00000000000E+00 -0.15944144717E+04  0.18807767668E+04  0.99757893865E+03 0.  0.
        5    1    3    3  502    0 -0.25198316205E+03  0.39161881137E+03 -0.46043209572E+03  0.65488977099E+03  0.46999998093E+01 0. -1.
       -5    1    3    3    0  502  0.25198316205E+03 -0.39161881137E+03 -0.11339823760E+04  0.12258869958E+04  0.46999998093E+01 0.  1.
</event>
<event>
 5   0  0.2264577E-03  0.1000092E+04  0.7818609E-02  0.9308444E-01
       -2   -1    0    0    0  501  0.00000000000E+00  0.00000000000E+00  0.40082605645E+03  0.40082605646E+03  0.25500000920E-02 0.  1.
        2   -1    0    0  501    0  0.00000000000E+00  0.00000000000E+00 -0.62382712043E+03  0.62382712044E+03  0.25500000920E-02 0. -1.
    10030    2    1    2    0    0  0.00000000000E+00  0.00000000000E+00 -0.22300106398E+03  0.10246531769E+04  0.10000923249E+04 0.  0.
        5    1    3    3  502    0  0.49466018737E+03 -0.25113601487E+02 -0.18177569655E+03  0.52762096983E+03  0.46999998093E+01 0.  1.
       -5    1    3    3    0  502 -0.49466018737E+03  0.25113601487E+02 -0.41225367426E+02  0.49703220707E+03  0.46999998093E+01 0. -1.
</event>
<event>
 5   0  0.1293575E-03  0.1003445E+04  0.7818609E-02  0.9304774E-01
       -1   -1    0    0    0  501  0.00000000000E+00  0.00000000000E+00  0.33546176637E+03  0.33546176640E+03  0.50400001928E-02 0. -1.
        1   -1    0    0  501    0  0.00000000000E+00  0.00000000000E+00 -0.75038508954E+03  0.75038508956E+03  0.50400001928E-02 0.  1.
    10030    2    1    2    0    0  0.00000000000E+00  0.00000000000E+00 -0.41492332317E+03  0.10858468560E+04  0.10034450810E+04 0.  0.
        4    1    3    3  502    0 -0.22589888045E+03  0.18244542155E+03  0.23529194983E+03  0.37373861265E+03  0.12699999809E+01 0. -1.
       -4    1    3    3    0  502  0.22589888045E+03 -0.18244542155E+03 -0.65021527301E+03  0.71210824331E+03  0.12699999809E+01 0.  1.
</event>
<event>
 5   0  0.1285769E-03  0.9992654E+03  0.7818609E-02  0.9309351E-01
        1   -1    0    0  501    0  0.00000000000E+00  0.00000000000E+00  0.56461137335E+03  0.56461137337E+03  0.50400001928E-02 0.  1.
       -1   -1    0    0    0  501  0.00000000000E+00  0.00000000000E+00 -0.44213213426E+03  0.44213213429E+03  0.50400001928E-02 0. -1.
    10030    2    1    2    0    0  0.00000000000E+00  0.00000000000E+00  0.12247923909E+03  0.10067435077E+04  0.99926539328E+03 0.  0.
        5    1    3    3  502    0  0.47310812491E+03 -0.52794913059E+02 -0.91526728285E+02  0.48478637841E+03  0.46999998093E+01 0. -1.
       -5    1    3    3    0  502 -0.47310812491E+03  0.52794913059E+02  0.21400596737E+03  0.52195712925E+03  0.46999998093E+01 0.  1.
</event>
<event>
 5   0  0.2277570E-03  0.9756189E+03  0.7818609E-02  0.9335697E-01
       -2   -1    0    0    0  501  0.00000000000E+00  0.00000000000E+00  0.10374597489E+03  0.10374597492E+03  0.25500000920E-02 0. -1.
        2   -1    0    0  501    0  0.00000000000E+00  0.00000000000E+00 -0.22936607189E+04  0.22936607189E+04  0.25500000920E-02 0.  1.
    10030    2    1    2    0    0  0.00000000000E+00  0.00000000000E+00 -0.21899147441E+04  0.23974066939E+04  0.97561891615E+03 0.  0.
        3    1    3    3  502    0 -0.11311570903E+02  0.41733142727E+03 -0.17149841678E+04  0.17650677545E+04  0.10100000352E+00 0.  1.
       -3    1    3    3    0  502  0.11311570903E+02 -0.41733142727E+03 -0.47493057624E+03  0.63233893939E+03  0.10100000352E+00 0. -1.
</event>
<event>
 5   0  0.2264577E-03  0.1002450E+04  0.7818609E-02  0.9305862E-01
       -2   -1    0    0    0  501  0.00000000000E+00  0.00000000000E+00  0.22993790825E+03  0.22993790826E+03  0.25500000920E-02 0.  1.
        2   -1    0    0  501    0  0.00000000000E+00  0.00000000000E+00 -0.10925844261E+04  0.10925844261E+04  0.25500000920E-02 0. -1.
    10030    2    1    2    0    0  0.00000000000E+00  0.00000000000E+00 -0.86264651784E+03  0.13225223344E+04  0.10024501534E+04 0.  0.
        5    1    3    3  502    0 -0.13977016896E+03  0.61900903017E+02 -0.10610504086E+04  0.10720156163E+04  0.46999998093E+01 0. -1.
       -5    1    3    3    0  502  0.13977016896E+03 -0.61900903017E+02  0.19840389078E+03  0.25050671807E+03  0.46999998093E+01 0.  1.
</event>
<event>
 5   0  0.8680125E-04  0.1002617E+04  0.7818609E-02  0.9305680E-01
       -3   -1    0    0    0  501  0.00000000000E+00  0.00000000000E+00  0.25040074483E+03  0.25040076520E+03  0.10100000352E+00 0. -1.
        3   -1    0    0  501    0  0.00000000000E+00  0.00000000000E+00 -0.10036313470E+04  0.10036313521E+04  0.10100000352E+00 0.  1.
    10030    2    1    2    0    0  0.00000000000E+00  0.00000000000E+00 -0.75323060214E+03  0.12540321173E+04  0.10026166820E+04 0.  0.
        2    1    3    3  502    0 -0.46751458070E+03 -0.15143819266E+03 -0.50047611369E+03  0.70141268148E+03  0.25500000920E-02 0.  1.
       -2    1    3    3    0  502  0.46751458070E+03  0.15143819266E+03 -0.25275448844E+03  0.55261943577E+03  0.25500000920E-02 0. -1.
</event>
<event>
 5   0  0.2255142E-03  0.9989337E+03  0.7818609E-02  0.9309715E-01
        2   -1    0    0  501    0  0.00000000000E+00  0.00000000000E+00  0.70062313079E+03  0.70062313079E+03  0.25500000920E-02 0.  1.
       -2   -1    0    0    0  501  0.00000000000E+00  0.00000000000E+00 -0.35606468652E+03  0.35606468653E+03  0.25500000920E-02 0. -1.
    10030    2    1    2    0    0  0.00000000000E+00  0.00000000000E+00  0.34455844426E+03  0.10566878173E+04  0.99893374243E+03 0.  0.
        4    1    3    3  502    0  0.44641173642E+03 -0.60893236956E+02 -0.55763173439E+02  0.45398520805E+03  0.12699999809E+01 0. -1.
       -4    1    3    3    0  502 -0.44641173642E+03  0.60893236956E+02  0.40032161770E+03  0.60270260927E+03  0.12699999809E+01 0.  1.
</event>
<event>
 5   0  0.1353789E-03  0.1004261E+04  0.7818609E-02  0.9303884E-01
        1   -1    0    0  501    0  0.00000000000E+00  0.00000000000E+00  0.94926985401E+03  0.94926985402E+03  0.50400001928E-02 0.  1.
       -1   -1    0    0    0  501  0.00000000000E+00  0.00000000000E+00 -0.26560936589E+03  0.26560936594E+03  0.50400001928E-02 0. -1.
    10030    2    1    2    0    0  0.00000000000E+00  0.00000000000E+00  0.68366048812E+03  0.12148792200E+04  0.10042608506E+04 0.  0.
        1    1    3    3  502    0 -0.16060694219E+03  0.80212412994E+02  0.90912066331E+03  0.92667631973E+03  0.50400001928E-02 0.  1.
       -1    1    3    3    0  502  0.16060694219E+03 -0.80212412994E+02 -0.22546017519E+03  0.28820290023E+03  0.50400001928E-02 0. -1.
</event>
<event>
 5   0  0.1249195E-03  0.9953723E+03  0.7818609E-02  0.9313635E-01
       -1   -1    0    0    0  501  0.00000000000E+00  0.00000000000E+00  0.28013639809E+03  0.28013639813E+03  0.50400001928E-02 0. -1.
        1   -1    0    0  501    0  0.00000000000E+00  0.00000000000E+00 -0.88418182084E+03  0.88418182085E+03  0.50400001928E-02 0.  1.
    10030    2    1    2    0    0  0.00000000000E+00  0.00000000000E+00 -0.60404542275E+03  0.11643182190E+04  0.99537231342E+03 0.  0.
        2    1    3    3  502    0 -0.14829842517E+03 -0.42508042015E+03 -0.53869435139E+02  0.45341780131E+03  0.25500000920E-02 0.  1.
       -2    1    3    3    0  502  0.14829842517E+03  0.42508042015E+03 -0.55017598761E+03  0.71090041767E+03  0.25500000920E-02 0. -1.
</event>
<event>
 5   0  0.1293575E-03  0.1003864E+04  0.7818609E-02  0.9304317E-01
        1   -1    0    0  501    0  0.00000000000E+00  0.00000000000E+00  0.13086891939E+04  0.13086891939E+04  0.50400001928E-02 0. -1.
       -1   -1    0    0    0  501  0.00000000000E+00  0.00000000000E+00 -0.19250987460E+03  0.19250987466E+03  0.50400001928E-02 0.  1.
    10030    2    1    2    0    0  0.00000000000E+00  0.00000000000E+00  0.11161793193E+04  0.15011990686E+04  0.10038637211E+04 0.  0.
        4    1    3    3  502    0  0.19450566838E+03  0.68053799469E+01 -0.13378341520E+03  0.23617447642E+03  0.12699999809E+01 0.  1.
       -4    1    3    3    0  502 -0.19450566838E+03 -0.68053799469E+01  0.12499627345E+04  0.12650245921E+04  0.12699999809E+01 0. -1.
</event>
<event>
 5   0  0.1293575E-03  0.9970325E+03  0.7818609E-02  0.9311806E-01
       -1   -1    0    0    0  501  0.00000000000E+00  0.00000000000E+00  0.25575691416E+03  0.25575691421E+03  0.50400001928E-02 0.  1.
        1   -1    0    0  501    0  0.00000000000E+00  0.00000000000E+00 -0.97169784794E+03  0.97169784796E+03  0.50400001928E-02 0. -1.
    10030    2    1    2    0    0  0.00000000000E+00  0.00000000000E+00 -0.71594093378E+03  0.12274547622E+04  0.99703248317E+03 0.  0.
        4    1    3    3  502    0  0.55958659527E+02  0.49196113005E+03 -0.42932914091E+03  0.65534895223E+03  0.12699999809E+01 0.  1.
       -4    1    3    3    0  502 -0.55958659527E+02 -0.49196113005E+03 -0.28661179288E+03  0.57210580994E+03  0.12699999809E+01 0. -1.
</event>
<event>
 5   0  0.1353789E-03  0.1002810E+04  0.7818609E-02  0.9305468E-01
        1   -1    0    0  501    0  0.00000000000E+00  0.00000000000E+00  0.46930817803E+03  0.46930817806E+03  0.50400001928E-02 0.  1.
       -1   -1    0    0    0  501  0.00000000000E+00  0.00000000000E+00 -0.53569673145E+03  0.53569673147E+03  0.50400001928E-02 0. -1.
    10030    2    1    2    0    0  0.00000000000E+00  0.00000000000E+00 -0.66388553421E+02  0.10050049095E+04  0.10028097667E+04 0.  0.
        1    1    3    3  502    0 -0.21266353091E+03 -0.29424348804E+03 -0.37978630998E+03  0.52539761030E+03  0.50400001928E-02 0. -1.
       -1    1    3    3    0  502  0.21266353091E+03  0.29424348804E+03  0.31339775655E+03  0.47960729923E+03  0.50400001928E-02 0.  1.
</event>
<event>
 5   0  0.1285769E-03  0.1001607E+04  0.7818609E-02  0.9306784E-01
       -1   -1    0    0    0  501  0.00000000000E+00  0.00000000000E+00  0.32928897649E+03  0.32928897653E+03  0.50400001928E-02 0. -1.
        1   -1    0    0  501    0  0.00000000000E+00  0.00000000000E+00 -0.76165411986E+03  0.76165411988E+03  0.50400001928E-02 0.  1.
    10030    2    1    2    0    0  0.00000000000E+00  0.00000000000E+00 -0.43236514338E+03  0.10909430964E+04  0.10016073195E+04 0.  0.
        5    1    3    3  502    0  0.26841091241E+03 -0.41880451415E+03 -0.27913541174E+03  0.57042116639E+03  0.46999998093E+01 0.  1.
       -5    1    3    3    0  502 -0.26841091241E+03  0.41880451415E+03 -0.15322973163E+03  0.52052193002E+03  0.46999998093E+01 0. -1.
</event>
<event>
 5   0  0.2255142E-03  0.1001203E+04  0.7818609E-02  0.9307227E-01
       -2   -1    0    0    0  501  0.00000000000E+00  0.00000000000E+00  0.62726287979E+03  0.62726287980E+03  0.25500000920E-02 0.  1.
        2   -1    0    0  501    0  0.00000000000E+00  0.00000000000E+00 -0.39951634198E+03  0.39951634198E+03  0.25500000920E-02 0. -1.
    10030    2    1    2    0    0  0.00000000000E+00  0.00000000000E+00  0.22774653782E+03  0.10267792218E+04  0.10012028190E+04 0.  0.
        4    1    3    3  502    0 -0.49032175697E+03  0.10031441913E+03  0.10255734687E+03  0.51087966327E+03  0.12699999809E+01 0.  1.
       -4    1    3    3    0  502  0.49032175697E+03 -0.10031441913E+03  0.12518919095E+03  0.51589955851E+03  0.12699999809E+01 0. -1.
</event>
<event>
 5   0  0.1285769E-03  0.1002743E+04  0.7818609E-02  0.9305541E-01
       -1   -1    0    0    0  501  0.00000000000E+00  0.00000000000E+00  0.10937346963E+03  0.10937346975E+03  0.50400001928E-02 0. -1.
        1   -1    0    0  501    0  0.00000000000E+00  0.00000000000E+00 -0.22983029492E+04  0.22983029492E+04  0.50400001928E-02 0.  1.
    10030    2    1    2    0    0  0.00000000000E+00  0.00000000000E+00 -0.21889294796E+04  0.24076764190E+04  0.10027429740E+04 0.  0.
        5    1    3    3  502    0  0.19194651082E+03 -0.44874338020E+02  0.12367851301E+02  0.19756574341E+03  0.46999998093E+01 0. -1.
       -5    1    3    3    0  502 -0.19194651082E+03  0.44874338020E+02 -0.22012973309E+04  0.22101106756E+04  0.46999998093E+01 0.  1.
</event>
<event>
 5   0  0.2255142E-03  0.9989167E+03  0.7818609E-02  0.9309734E-01
        2   -1    0    0  501    0  0.00000000000E+00  0.00000000000E+00  0.21408750542E+04  0.21408750542E+04  0.25500000920E-02 0.  1.
       -2   -1    0    0    0  501  0.00000000000E+00  0.00000000000E+00 -0.11652180517E+03  0.11652180520E+03  0.25500000920E-02 0. -1.
    10030    2    1    2    0    0  0.00000000000E+00  0.00000000000E+00  0.20243532490E+04  0.22573968594E+04  0.99891666519E+03 0.  0.
        4    1    3    3  502    0 -0.31117199364E+03 -0.31286031997E+03  0.15409389467E+04  0.16028736818E+04  0.12699999809E+01 0.  1.
       -4    1    3    3    0  502  0.31117199364E+03  0.31286031997E+03  0.48341430234E+03  0.65452317762E+03  0.12699999809E+01 0. -1.
</event>
<event>
 5   0  0.1353789E-03  0.9933694E+03  0.7818609E-02  0.9315847E-01
        1   -1    0    0  501    0  0.00000000000E+00  0.00000000000E+00  0.16174470846E+04  0.16174470846E+04  0.50400001928E-02 0.  1.
       -1   -1    0    0    0  501  0.00000000000E+00  0.00000000000E+00 -0.15252165266E+03  0.15252165274E+03  0.50400001928E-02 0. -1.
    10030    2    1    2    0    0  0.00000000000E+00  0.00000000000E+00  0.14649254319E+04  0.17699687373E+04  0.99336942273E+03 0.  0.
        1    1    3    3  502    0  0.28925247662E+03  0.33366744707E+03  0.32734802369E+03  0.54968872019E+03  0.50400001928E-02 0. -1.
       -1    1    3    3    0  502 -0.28925247662E+03 -0.33366744707E+03  0.11375774082E+04  0.12202800171E+04  0.50400001928E-02 0.  1.
</event>
<event>
 5   0  0.8680125E-04  0.9997371E+03  0.7818609E-02  0.9308833E-01
       -3   -1    0    0    0  501  0.00000000000E+00  0.00000000000E+00  0.28546978723E+03  0.28546980510E+03  0.10100000352E+00 0.  1.
        3   -1    0    0  501    0  0.00000000000E+00  0.00000000000E+00 -0.87528899277E+03  0.87528899860E+03  0.10100000352E+00 0. -1.
    10030    2    1    2    0    0  0.00000000000E+00  0.00000000000E+00 -0.58981920554E+03  0.11607588037E+04  0.99973711801E+03 0.  0.
        3    1    3    3  502    0  0.24758456094E+03  0.43368552642E+03 -0.32054034933E+03  0.59340321569E+03  0.10100000352E+00 0.  1.
       -3    1    3    3    0  502 -0.24758456094E+03 -0.43368552642E+03 -0.26927885620E+03  0.56735558800E+03  0.10100000352E+00 0. -1.
</event>
<event>
 5   0  0.2204862E-03  0.1001386E+04  0.7818609E-02  0.9307026E-01
        2   -1    0    0  501    0  0.00000000000E+00  0.00000000000E+00  0.58649729030E+03  0.58649729031E+03  0.25500000920E-02 0.  1.
       -2   -1    0    0    0  501  0.00000000000E+00  0.00000000000E+00 -0.42744198636E+03  0.42744198636E+03  0.25500000920E-02 0. -1.
    10030    2    1    2    0    0  0.00000000000E+00  0.00000000000E+00  0.15905530394E+03  0.10139392767E+04  0.10013861728E+04 0.  0.
        1    1    3    3  502    0  0.10087977857E+03  0.37498227672E+03 -0.24051233864E+03  0.45676539125E+03  0.50400001928E-02 0. -1.
       -1    1    3    3    0  502 -0.10087977857E+03 -0.37498227672E+03  0.39956764258E+03  0.55717388543E+03  0.50400001928E-02 0.  1.
</event>
<event>
 5   0  0.1293716E-03  0.1022399E+04  0.7818609E-02  0.9284314E-01
        1   -1    0    0  501    0  0.00000000000E+00  0.00000000000E+00  0.63075724943E+03  0.63075724945E+03  0.50400001928E-02 0.  1.
       -1   -1    0    0    0  501  0.00000000000E+00  0.00000000000E+00 -0.41430336745E+03  0.41430336748E+03  0.50400001928E-02 0. -1.
    10030    2    1    2    0    0  0.00000000000E+00  0.00000000000E+00  0.21645388198E+03  0.10450606169E+04  0.10223988508E+04 0.  0.
        3    1    3    3  502    0  0.14841121021E+02  0.39930945939E+03  0.43413026424E+03  0.59003169386E+03  0.10100000352E+00 0.  1.
       -3    1    3    3    0  502 -0.14841121021E+02 -0.39930945939E+03 -0.21767638227E+03  0.45502892307E+03  0.10100000352E+00 0. -1.
</event>
<event>
 5   0  0.2284843E-03  0.1029981E+04  0.7818609E-02  0.9276259E-01
        2   -1    0    0  501    0  0.00000000000E+00  0.00000000000E+00  0.14665465648E+04  0.14665465648E+04  0.25500000920E-02 0. -1.
       -2   -1    0    0    0  501  0.00000000000E+00  0.00000000000E+00 -0.18084351988E+03  0.18084351990E+03  0.25500000920E-02 0.  1.
    10030    2    1    2    0    0  0.00000000000E+00  0.00000000000E+00  0.12857030449E+04  0.16473900847E+04  0.10299814423E+04 0.  0.
        2    1    3    3  502    0 -0.61262950105E+02 -0.27467230074E+03  0.13326843496E+04  0.13620740059E+04  0.25500000920E-02 0. -1.
       -2    1    3    3    0  502  0.61262950105E+02  0.27467230074E+03 -0.46981304661E+02  0.28531607884E+03  0.25500000920E-02 0.  1.
</event>
<event>
 5   0  0.1353789E-03  0.1005959E+04  0.7818609E-02  0.9302033E-01
        1   -1    0    0  501    0  0.00000000000E+00  0.00000000000E+00  0.37662036001E+03  0.37662036004E+03  0.50400001928E-02 0.  1.
       -1   -1    0    0    0  501  0.00000000000E+00  0.00000000000E+00 -0.67173351506E+03  0.67173351508E+03  0.50400001928E-02 0. -1.
    10030    2    1    2    0    0  0.00000000000E+00  0.00000000000E+00 -0.29511315505E+03  0.10483538751E+04  0.10059592801E+04 0.  0.
        1    1    3    3  502    0 -0.18117247850E+02 -0.44612808953E+03 -0.38889776642E+03  0.59211483657E+03  0.50400001928E-02 0. -1.
       -1    1    3    3    0  502  0.18117247850E+02  0.44612808953E+03  0.93784611371E+02  0.45623903855E+03  0.50400001928E-02 0.  1.
</event>
<event>
 5   0  0.1293716E-03  0.9923069E+03  0.7818609E-02  0.9317023E-01
       -1   -1    0    0    0  501  0.00000000000E+00  0.00000000000E+00  0.10321728383E+04  0.10321728383E+04  0.50400001928E-02 0.  1.
        1   -1    0    0  501    0  0.00000000000E+00  0.00000000000E+00 -0.23849519664E+03  0.23849519669E+03  0.50400001928E-02 0. -1.
    10030    2    1    2    0    0  0.00000000000E+00  0.00000000000E+00  0.79367764162E+03  0.12706680350E+04  0.99230693653E+03 0.  0.
        3    1    3    3  502    0 -0.20652107589E+03 -0.29776774752E+03 -0.37126205219E+02  0.36427318261E+03  0.10100000352E+00 0. -1.
       -3    1    3    3    0  502  0.20652107589E+03  0.29776774752E+03  0.83080384684E+03  0.90639485236E+03  0.10100000352E+00 0.  1.
</event>
<event>
 5   0  0.1353789E-03  0.9963483E+03  0.7818609E-02  0.9312559E-01
       -1   -1    0    0    0  501  0.00000000000E+00  0.00000000000E+00  0.92882554322E+03  0.92882554323E+03  0.50400001928E-02 0. -1.
        1   -1    0    0  501    0  0.00000000000E+00  0.00000000000E+00 -0.26719493525E+03  0.26719493530E+03  0.50400001928E-02 0.  1.
    10030    2    1    2    0    0  0.00000000000E+00  0.00000000000E+00  0.66163060796E+03  0.11960204785E+04  0.99634829436E+03 0.  0.
        1    1    3    3  502    0  0.38071444143E+03  0.40700803456E+02 -0.51768045369E+02  0.38636766410E+03  0.50400001928E-02 0.  1.
       -1    1    3    3    0  502 -0.38071444143E+03 -0.40700803456E+02  0.71339865333E+03  0.80965281443E+03  0.50400001928E-02 0. -1.
</event>
<event>
 5   0  0.2264577E-03  0.9990795E+03  0.7818609E-02  0.9309555E-01
        2   -1    0    0  501    0  0.00000000000E+00  0.00000000000E+00  0.19424207968E+04  0.19424207968E+04  0.25500000920E-02 0. -1.
       -2   -1    0    0    0  501  0.00000000000E+00  0.00000000000E+00 -0.12846853255E+03  0.12846853258E+03  0.25500000920E-02 0.  1.
    10030    2    1    2    0    0  0.00000000000E+00  0.00000000000E+00  0.18139522642E+04  0.20708893294E+04  0.99907947511E+03 0.  0.
        5    1    3    3  502    0 -0.97713897354E+02 -0.33089231121E+03  0.16557127047E+04  0.16912848305E+04  0.46999998093E+01 0. -1.
       -5    1    3    3    0  502  0.97713897354E+02  0.33089231121E+03  0.15823955950E+03  0.37960449884E+03  0.46999998093E+01 0.  1.
</event>
<event>
 5   0  0.2277570E-03  0.1012183E+04  0.7818609E-02  0.9295283E-01
        2   -1    0    0  501    0  0.00000000000E+00  0.00000000000E+00  0.11213051180E+04  0.11213051180E+04  0.25500000920E-02 0.  1.
       -2   -1    0    0    0  501  0.00000000000E+00  0.00000000000E+00 -0.22842001251E+03  0.22842001253E+03  0.25500000920E-02 0. -1.
    10030    2    1    2    0    0  0.00000000000E+00  0.00000000000E+00  0.89288510553E+03  0.13497251306E+04  0.10121828473E+04 0.  0.
        3    1    3    3  502    0  0.15551211777E+03  0.16899496877E+03 -0.15493336799E+03  0.27703371088E+03  0.10100000352E+00 0. -1.
       -3    1    3    3    0  502 -0.15551211777E+03 -0.16899496877E+03  0.10478184735E+04  0.10726914197E+04  0.10100000352E+00 0.  1.
</event>
<event>
 5   0  0.2204862E-03  0.1004134E+04  0.7818609E-02  0.9304022E-01
        2   -1    0    0  501    0  0.00000000000E+00  0.00000000000E+00  0.67656126300E+03  0.67656126300E+03  0.25500000920E-02 0.  1.
       -2   -1    0    0    0  501  0.00000000000E+00  0.00000000000E+00 -0.37257717592E+03  0.37257717593E+03  0.25500000920E-02 0. -1.
    10030    2    1    2    0    0  0.00000000000E+00  0.00000000000E+00  0.30398408707E+03  0.10491384389E+04  0.10041340244E+04 0.  0.
        1    1    3    3  502    0  0.21754050740E+03  0.40027180713E+03 -0.68486809372E+02  0.46068626529E+03  0.50400001928E-02 0. -1.
       -1    1    3    3    0  502 -0.21754050740E+03 -0.40027180713E+03  0.37247089644E+03  0.58845217364E+03  0.50400001928E-02 0.  1.
</event>
<event>
 5   0  0.1249195E-03  0.9994460E+03  0.7818609E-02  0.9309153E-01
        1   -1    0    0  501    0  0.00000000000E+00  0.00000000000E+00  0.14350731315E+04  0.14350731316E+04  0.50400001928E-02 0.  1.
       -1   -1    0    0    0  501  0.00000000000E+00  0.00000000000E+00 -0.17401416539E+03  0.17401416546E+03  0.50400001928E-02 0. -1.
    10030    2    1    2    0    0  0.00000000000E+00  0.00000000000E+00  0.12610589662E+04  0.16090872970E+04  0.99944595317E+03 0.  0.
        2    1    3    3  502    0  0.34489660045E+03 -0.87400662164E+02  0.65588428697E+02  0.36179328730E+03  0.25500000920E-02 0. -1.
       -2    1    3    3    0  502 -0.34489660045E+03  0.87400662164E+02  0.11954705375E+04  0.12472940097E+04  0.25500000920E-02 0.  1.
</event>
<event>
 5   0  0.1353789E-03  0.9976557E+03  0.7818609E-02  0.9311120E-01
        1   -1    0    0  501    0  0.00000000000E+00  0.00000000000E+00  0.52372645747E+03  0.52372645749E+03  0.50400001928E-02 0.  1.
       -1   -1    0    0    0  501  0.00000000000E+00  0.00000000000E+00 -0.47511295851E+03  0.47511295853E+03  0.50400001928E-02 0. -1.
    10030    2    1    2    0    0  0.00000000000E+00  0.00000000000E+00  0.48613498961E+02  0.99883941603E+03  0.99765570551E+03 0.  0.
        1    1    3    3  502    0 -0.15144357456E+03  0.45802172082E+03 -0.10276970585E+03  0.49323489889E+03  0.50400001928E-02 0. -1.
       -1    1    3    3    0  502  0.15144357456E+03 -0.45802172082E+03  0.15138320482E+03  0.50560451713E+03  0.50400001928E-02 0.  1.
</event>
<event>
 5   0  0.2264577E-03  0.1011934E+04  0.7818609E-02  0.9295552E-01
       -2   -1    0    0    0  501  0.00000000000E+00  0.00000000000E+00  0.19309858942E+03  0.19309858944E+03  0.25500000920E-02 0.  1.
        2   -1    0    0  501    0  0.00000000000E+00  0.00000000000E+00 -0.13257609841E+04  0.13257609841E+04  0.25500000920E-02 0. -1.
    10030    2    1    2    0    0  0.00000000000E+00  0.00000000000E+00 -0.11326623947E+04  0.15188595736E+04  0.10119339424E+04 0.  0.
        5    1    3    3  502    0 -0.32266935085E+03  0.71811541729E+02  0.85690216074E+01  0.33070821828E+03  0.46999998093E+01 0.  1.
       -5    1    3    3    0  502  0.32266935085E+03 -0.71811541729E+02 -0.11412314163E+04  0.11881513553E+04  0.46999998093E+01 0. -1.
</event>
<event>
 5   0  0.1293716E-03  0.1004858E+04  0.7818609E-02  0.9303233E-01
       -1   -1    0    0    0  501  0.00000000000E+00  0.00000000000E+00  0.40039492758E+03  0.40039492761E+03  0.50400001928E-02 0.  1.
        1   -1    0    0  501    0  0.00000000000E+00  0.00000000000E+00 -0.63046417340E+03  0.63046417342E+03  0.50400001928E-02 0. -1.
    10030    2    1    2    0    0  0.00000000000E+00  0.00000000000E+00 -0.23006924582E+03  0.10308591010E+04  0.10048575164E+04 0.  0.
        3    1    3    3  502    0  0.35332781956E+03 -0.26168817845E+03  0.13438911261E+03  0.45976265030E+03  0.10100000352E+00 0.  1.
       -3    1    3    3    0  502 -0.35332781956E+03  0.26168817845E+03 -0.36445835843E+03  0.57109645074E+03  0.10100000352E+00 0. -1.
</event>
<event>
 5   0  0.1293575E-03  0.1012686E+04  0.7818609E-02  0.9294739E-01
        1   -1    0    0  501    0  0.00000000000E+00  0.00000000000E+00  0.11671734144E+04  0.11671734144E+04  0.50400001928E-02 0.  1.
       -1   -1    0    0    0  501  0.00000000000E+00  0.00000000000E+00 -0.21966162105E+03  0.21966162111E+03  0.50400001928E-02 0. -1.
    10030    2    1    2    0    0  0.00000000000E+00  0.00000000000E+00  0.94751179330E+03  0.13868350355E+04  0.10126859420E+04 0.  0.
        4    1    3    3  502    0  0.44054719461E+03  0.92669487547E+02  0.79114075079E+03  0.91026082254E+03  0.12699999809E+01 0.  1.
       -4    1    3    3    0  502 -0.44054719461E+03 -0.92669487547E+02  0.15637104252E+03  0.47657421294E+03  0.12699999809E+01 0. -1.
</event>
<event>
 5   0  0.2264577E-03  0.1025892E+04  0.7818609E-02  0.9280594E-01
        2   -1    0    0  501    0  0.00000000000E+00  0.00000000000E+00  0.78172969390E+03  0.78172969391E+03  0.25500000920E-02 0. -1.
       -2   -1    0    0    0  501  0.00000000000E+00  0.00000000000E+00 -0.33657872588E+03  0.33657872589E+03  0.25500000920E-02 0.  1.
    10030    2    1    2    0    0  0.00000000000E+00  0.00000000000E+00  0.44515096802E+03  0.11183084198E+04  0.10258919716E+04 0.  0.
        5    1    3    3  502    0 -0.10505607236E+02 -0.10286569766E+03 -0.32507622232E+03  0.34115738282E+03  0.46999998093E+01 0.  1.
       -5    1    3    3    0  502  0.10505607236E+02  0.10286569766E+03  0.77022719034E+03  0.77715103698E+03  0.46999998093E+01 0. -1.
</event>
<event>
 5   0  0.1285769E-03  0.9930985E+03  0.7818609E-02  0.9316147E-01
       -1   -1    0    0    0  501  0.00000000000E+00  0.00000000000E+00  0.98594090004E+03  0.98594090006E+03  0.50400001928E-02 0.  1.
        1   -1    0    0  501    0  0.00000000000E+00  0.00000000000E+00 -0.25007700160E+03  0.25007700165E+03  0.50400001928E-02 0. -1.
    10030    2    1    2    0    0  0.00000000000E+00  0.00000000000E+00  0.73586389844E+03  0.12360179017E+04  0.99309847261E+03 0.  0.
        5    1    3    3  502    0  0.35680644010E+01 -0.34884794439E+02  0.98437011440E+03  0.98500573201E+03  0.46999998093E+01 0.  1.
       -5    1    3    3    0  502 -0.35680644010E+01  0.34884794439E+02 -0.24850621596E+03  0.25101216969E+03  0.46999998093E+01 0. -1.
</event>
<event>
 5   0  0.2264577E-03  0.9946641E+03  0.7818609E-02  0.9314417E-01
        2   -1    0    0  501    0  0.00000000000E+00  0.00000000000E+00  0.11037411073E+04  0.11037411073E+04  0.25500000920E-02 0.  1.
       -2   -1    0    0    0  501  0.00000000000E+00  0.00000000000E+00 -0.22409163038E+03  0.22409163040E+03  0.25500000920E-02 0. -1.
    10030    2    1    2    0    0  0.00000000000E+00  0.00000000000E+00  0.87964947691E+03  0.13278327377E+04  0.99466405237E+03 0.  0.
        5    1    3    3  502    0  0.11756251434E+03  0.30872568964E+03  0.93607038097E+03  0.99266426568E+03  0.46999998093E+01 0.  1.
       -5    1    3    3    0  502 -0.11756251434E+03 -0.30872568964E+03 -0.56420904061E+02  0.33516847202E+03  0.46999998093E+01 0. -1.
</event>
<event>
 5   0  0.2255142E-03  0.9970149E+03  0.7818609E-02  0.9311825E-01
       -2   -1    0    0    0  501  0.00000000000E+00  0.00000000000E+00  0.49112339242E+03  0.49112339243E+03  0.25500000920E-02 0.  1.
        2   -1    0    0  501    0  0.00000000000E+00  0.00000000000E+00 -0.50600256898E+03  0.50600256899E+03  0.25500000920E-02 0. -1.
    10030    2    1    2    0    0  0.00000000000E+00  0.00000000000E+00 -0.14879176564E+02  0.99712596142E+03  0.99701494123E+03 0.  0.
        4    1    3    3  502    0 -0.34380088286E+03  0.20059478318E+03 -0.30759093612E+03  0.50304185808E+03  0.12699999809E+01 0. -1.
       -4    1    3    3    0  502  0.34380088286E+03 -0.20059478318E+03  0.29271175956E+03  0.49408410334E+03  0.12699999809E+01 0.  1.
</event>
<event>
 5   0  0.2204862E-03  0.9923979E+03  0.7818609E-02  0.9316922E-01
       -2   -1    0    0    0  501  0.00000000000E+00  0.00000000000E+00  0.78373119338E+03  0.78373119338E+03  0.25500000920E-02 0.  1.
        2   -1    0    0  501    0  0.00000000000E+00  0.00000000000E+00 -0.31415540183E+03  0.31415540184E+03  0.25500000920E-02 0. -1.
    10030    2    1    2    0    0  0.00000000000E+00  0.00000000000E+00  0.46957579155E+03  0.10978865952E+04  0.99239787986E+03 0.  0.
        1    1    3    3  502    0 -0.15033592675E+03  0.40600049142E+03  0.50299608277E+03  0.66365830757E+03  0.50400001928E-02 0.  1.
       -1    1    3    3    0  502  0.15033592675E+03 -0.40600049142E+03 -0.33420291218E+02  0.43422828765E+03  0.50400001928E-02 0. -1.
</event>
<event>
 5   0  0.2204862E-03  0.1006409E+04  0.7818609E-02  0.9301543E-01
       -2   -1    0    0    0  501  0.00000000000E+00  0.00000000000E+00  0.21319671142E+03  0.21319671143E+03  0.25500000920E-02 0.  1.
        2   -1    0    0  501    0  0.00000000000E+00  0.00000000000E+00 -0.11877056296E+04  0.11877056296E+04  0.25500000920E-02 0. -1.
    10030    2    1    2    0    0  0.00000000000E+00  0.00000000000E+00 -0.97450891815E+03  0.14009023410E+04  0.10064093290E+04 0.  0.
        1    1    3    3  502    0 -0.33047022269E+03  0.19061819769E+03 -0.94400459577E+03  0.10181800147E+04  0.50400001928E-02 0. -1.
       -1    1    3    3    0  502  0.33047022269E+03 -0.19061819769E+03 -0.30504322383E+02  0.38272232635E+03  0.50400001928E-02 0.  1.
</event>
<event>
 5   0  0.1249195E-03  0.9979568E+03  0.7818609E-02  0.9310789E-01
        1   -1    0    0  501    0  0.00000000000E+00  0.00000000000E+00  0.54283736358E+03  0.54283736361E+03  0.50400001928E-02 0.  1.
       -1   -1    0    0    0  501  0.00000000000E+00  0.00000000000E+00 -0.45866301553E+03  0.45866301556E+03  0.50400001928E-02 0. -1.
    10030    2    1    2    0    0  0.00000000000E+00  0.00000000000E+00  0.84174348055E+02  0.10015003792E+04  0.99795675688E+03 0.  0.
        2    1    3    3  502    0  0.31596351000E+03 -0.23181851791E+03 -0.26788930076E+03  0.47469721125E+03  0.25500000920E-02 0. -1.
       -2    1    3    3    0  502 -0.31596351000E+03  0.23181851791E+03  0.35206364882E+03  0.52680316792E+03  0.25500000920E-02 0.  1.
</event>
<event>
 5   0  0.2204862E-03  0.9987121E+03  0.7818609E-02  0.9309958E-01
       -2   -1    0    0    0  501  0.00000000000E+00  0.00000000000E+00  0.29411501761E+03  0.29411501762E+03  0.25500000920E-02 0.  1.
        2   -1    0    0  501    0  0.00000000000E+00  0.00000000000E+00 -0.84781956435E+03  0.84781956436E+03  0.25500000920E-02 0. -1.
    10030    2    1    2    0    0  0.00000000000E+00  0.00000000000E+00 -0.55370454675E+03  0.11419345820E+04  0.99871210287E+03 0.  0.
        1    1    3    3  502    0 -0.25432341747E+03  0.27530600602E+03 -0.65414661343E+03  0.75391086310E+03  0.50400001928E-02 0. -1.
       -1    1    3    3    0  502  0.25432341747E+03 -0.27530600602E+03  0.10044206668E+03  0.38802371887E+03  0.50400001928E-02 0.  1.
</event>
<event>
 5   0  0.1285769E-03  0.1004362E+04  0.7818609E-02  0.9303774E-01
        1   -1    0    0  501    0  0.00000000000E+00  0.00000000000E+00  0.71245100296E+03  0.71245100298E+03  0.50400001928E-02 0.  1.
       -1   -1    0    0    0  501  0.00000000000E+00  0.00000000000E+00 -0.35396923729E+03  0.35396923733E+03  0.50400001928E-02 0. -1.
    10030    2    1    2    0    0  0.00000000000E+00  0.00000000000E+00  0.35848176567E+03  0.10664202403E+04  0.10043619629E+04 0.  0.
        5    1    3    3  502    0 -0.89686463601E+02 -0.18555436109E+02 -0.34500292888E+03  0.35698330059E+03  0.46999998093E+01 0. -1.
       -5    1    3    3    0  502  0.89686463601E+02  0.18555436109E+02  0.70348469455E+03  0.70943693971E+03  0.46999998093E+01 0.  1.
</event>
<event>
 5   0  0.1293716E-03  0.1003450E+04  0.7818609E-02  0.9304769E-01
       -1   -1    0    0    0  501  0.00000000000E+00  0.00000000000E+00  0.31717392156E+03  0.31717392160E+03  0.50400001928E-02 0. -1.
        1   -1    0    0  501    0  0.00000000000E+00  0.00000000000E+00 -0.79365883971E+03  0.79365883973E+03  0.50400001928E-02 0.  1.
    10030    2    1    2    0    0  0.00000000000E+00  0.00000000000E+00 -0.47648491815E+03  0.11108327613E+04  0.10034498226E+04 0.  0.
        3    1    3    3  502    0  0.88442029863E+02  0.33641588136E+03 -0.63850140379E+03  0.72710500667E+03  0.10100000352E+00 0.  1.
       -3    1    3    3    0  502 -0.88442029863E+02 -0.33641588136E+03  0.16201648564E+03  0.38372775466E+03  0.10100000352E+00 0. -1.
</event>
<event>
 5   0  0.2255142E-03  0.1055949E+04  0.7818609E-02  0.9249223E-01
        2   -1    0    0  501    0  0.00000000000E+00  0.00000000000E+00  0.19291645203E+03  0.19291645205E+03  0.25500000920E-02 0.  1.
       -2   -1    0    0    0  501  0.00000000000E+00  0.00000000000E+00 -0.14449639386E+04  0.14449639386E+04  0.25500000920E-02 0. -1.
    10030    2    1    2    0    0  0.00000000000E+00  0.00000000000E+00 -0.12520474865E+04  0.16378803906E+04  0.10559494616E+04 0.  0.
        4    1    3    3  502    0  0.94647480608E+02 -0.50531937744E+03 -0.43956994257E+03  0.67640902280E+03  0.12699999809E+01 0. -1.
       -4    1    3    3    0  502 -0.94647480608E+02  0.50531937744E+03 -0.81247754395E+03  0.96147136782E+03  0.12699999809E+01 0.  1.
</event>
<event>
 5   0  0.1293575E-03  0.9937720E+03  0.7818609E-02  0.9315402E-01
       -1   -1    0    0    0  501  0.00000000000E+00  0.00000000000E+00  0.65699782409E+03  0.65699782411E+03  0.50400001928E-02 0.  1.
        1   -1    0    0  501    0  0.00000000000E+00  0.00000000000E+00 -0.37579380992E+03  0.37579380995E+03  0.50400001928E-02 0. -1.
    10030    2    1    2    0    0  0.00000000000E+00  0.00000000000E+00  0.28120401417E+03  0.10327916341E+04  0.99377203714E+03 0.  0.
        4    1    3    3  502    0 -0.42429806473E+03 -0.37862400241E+02 -0.12523780379E+03  0.44401410955E+03  0.12699999809E+01 0. -1.
       -4    1    3    3    0  502  0.42429806473E+03  0.37862400241E+02  0.40644181796E+03  0.58877752451E+03  0.12699999809E+01 0.  1.
</event>
<event>
 5   0  0.2277570E-03  0.9985750E+03  0.7818609E-02  0.9310109E-01
       -2   -1    0    0    0  501  0.00000000000E+00  0.00000000000E+00  0.92086549368E+02  0.92086549403E+02  0.25500000920E-02 0. -1.
        2   -1    0    0  501    0  0.00000000000E+00  0.00000000000E+00 -0.27071056145E+04  0.27071056145E+04  0.25500000920E-02 0.  1.
    10030    2    1    2    0    0  0.00000000000E+00  0.00000000000E+00 -0.26150190651E+04  0.27991921639E+04  0.99857501443E+03 0.  0.
        3    1    3    3  502    0  0.17123833841E+03 -0.45356572106E+03 -0.97295918278E+03  0.10870575024E+04  0.10100000352E+00 0.  1.
       -3    1    3    3    0  502 -0.17123833841E+03  0.45356572106E+03 -0.16420598823E+04  0.17121346615E+04  0.10100000352E+00 0. -1.
</event>
<event>
 5   0  0.2277570E-03  0.1000463E+04  0.7818609E-02  0.9308037E-01
       -2   -1    0    0    0  501  0.00000000000E+00  0.00000000000E+00  0.22739833763E+03  0.22739833765E+03  0.25500000920E-02 0.  1.
        2   -1    0    0  501    0  0.00000000000E+00  0.00000000000E+00 -0.11004114764E+04  0.11004114764E+04  0.25500000920E-02 0. -1.
    10030    2    1    2    0    0  0.00000000000E+00  0.00000000000E+00 -0.87301313872E+03  0.13278098140E+04  0.10004633735E+04 0.  0.
        3    1    3    3  502    0 -0.90653050549E+02 -0.41022633366E+03 -0.79687872729E+03  0.90084368045E+03  0.10100000352E+00 0. -1.
       -3    1    3    3    0  502  0.90653050549E+02  0.41022633366E+03 -0.76134411429E+02  0.42696613356E+03  0.10100000352E+00 0.  1.
</event>
<event>
 5   0  0.2277570E-03  0.1019906E+04  0.7818609E-02  0.9286978E-01
        2   -1    0    0  501    0  0.00000000000E+00  0.00000000000E+00  0.27106196108E+03  0.27106196109E+03  0.25500000920E-02 0. -1.
       -2   -1    0    0    0  501  0.00000000000E+00  0.00000000000E+00 -0.95938252212E+03  0.95938252212E+03  0.25500000920E-02 0.  1.
    10030    2    1    2    0    0  0.00000000000E+00  0.00000000000E+00 -0.68832056104E+03  0.12304444832E+04  0.10199060896E+04 0.  0.
        3    1    3    3  502    0 -0.16347319463E+02 -0.50936398955E+03 -0.32213876784E+03  0.60290322993E+03  0.10100000352E+00 0. -1.
       -3    1    3    3    0  502  0.16347319463E+02  0.50936398955E+03 -0.36618179320E+03  0.62754125329E+03  0.10100000352E+00 0.  1.
</event>
<event>
 5   0  0.1249195E-03  0.1002141E+04  0.7818609E-02  0.9306200E-01
       -1   -1    0    0    0  501  0.00000000000E+00  0.00000000000E+00  0.46540923333E+03  0.46540923336E+03  0.50400001928E-02 0. -1.
        1   -1    0    0  501    0  0.00000000000E+00  0.00000000000E+00 -0.53946428631E+03  0.53946428634E+03  0.50400001928E-02 0.  1.
    10030    2    1    2    0    0  0.00000000000E+00  0.00000000000E+00 -0.74055052979E+02  0.10048735197E+04  0.10021410279E+04 0.  0.
        2    1    3    3  502    0 -0.28319543696E+03 -0.40621708809E+03 -0.11378480608E+03  0.50809345623E+03  0.25500000920E-02 0. -1.
       -2    1    3    3    0  502  0.28319543696E+03  0.40621708809E+03  0.39729753102E+02  0.49678006346E+03  0.25500000920E-02 0.  1.
</event>
<event>
 5   0  0.2264577E-03  0.9957698E+03  0.7818609E-02  0.9313197E-01
        2   -1    0    0  501    0  0.00000000000E+00  0.00000000000E+00  0.76017967463E+03  0.76017967463E+03  0.25500000920E-02 0. -1.
       -2   -1    0    0    0  501  0.00000000000E+00  0.00000000000E+00 -0.32609312447E+03  0.32609312448E+03  0.25500000920E-02 0.  1.
    10030    2    1    2    0    0  0.00000000000E+00  0.00000000000E+00  0.43408655016E+03  0.10862727991E+04  0.99576978317E+03 0.  0.
        5    1    3    3  502    0 -0.18340080661E+03  0.39212666814E+03  0.48529536031E+03  0.65033288127E+03  0.46999998093E+01 0. -1.
       -5    1    3    3    0  502  0.18340080661E+03 -0.39212666814E+03 -0.51208810151E+02  0.43593991784E+03  0.46999998093E+01 0.  1.
</event>
<event>
 5   0  0.2264577E-03  0.9990371E+03  0.7818609E-02  0.9309602E-01
       -2   -1    0    0    0  501  0.00000000000E+00  0.00000000000E+00  0.70783917320E+03  0.70783917321E+03  0.25500000920E-02 0. -1.
        2   -1    0    0  501    0  0.00000000000E+00  0.00000000000E+00 -0.35250773389E+03  0.35250773390E+03  0.25500000920E-02 0.  1.
    10030    2    1    2    0    0  0.00000000000E+00  0.00000000000E+00  0.35533143932E+03  0.10603469071E+04  0.99903710223E+03 0.  0.
        5    1    3    3  502    0  0.21178102292E+03 -0.41586626981E+03  0.36663927558E+03  0.59350013010E+03  0.46999998093E+01 0. -1.
       -5    1    3    3    0  502 -0.21178102292E+03  0.41586626981E+03 -0.11307836266E+02  0.46684677700E+03  0.46999998093E+01 0.  1.
</event>
<event>
 5   0  0.2255142E-03  0.9994722E+03  0.7818609E-02  0.9309124E-01
        2   -1    0    0  501    0  0.00000000000E+00  0.00000000000E+00  0.60845521237E+03  0.60845521238E+03  0.25500000920E-02 0.  1.
       -2   -1    0    0    0  501  0.00000000000E+00  0.00000000000E+00 -0.41044294911E+03  0.41044294912E+03  0.25500000920E-02 0. -1.
    10030    2    1    2    0    0  0.00000000000E+00  0.00000000000E+00  0.19801226326E+03  0.10188981615E+04  0.99947216424E+03 0.  0.
        4    1    3    3  502    0  0.16380387428E+03 -0.32776770997E+02 -0.38113483139E+03  0.41613867705E+03  0.12699999809E+01 0. -1.
       -4    1    3    3    0  502 -0.16380387428E+03  0.32776770997E+02  0.57914709465E+03  0.60275948444E+03  0.12699999809E+01 0.  1.
</event>
<event>
 5   0  0.2255142E-03  0.9396621E+03  0.7818609E-02  0.9377316E-01
        2   -1    0    0  501    0  0.00000000000E+00  0.00000000000E+00  0.68834059522E+03  0.68834059522E+03  0.25500000920E-02 0. -1.
       -2   -1    0    0    0  501  0.00000000000E+00  0.00000000000E+00 -0.32068606162E+03  0.32068606163E+03  0.25500000920E-02 0.  1.
    10030    2    1    2    0    0  0.00000000000E+00  0.00000000000E+00  0.36765453359E+03  0.10090266569E+04  0.93966214044E+03 0.  0.
        4    1    3    3  502    0  0.76913712319E+02 -0.31350699981E+03 -0.18274813444E+03  0.37094588772E+03  0.12699999809E+01 0.  1.
       -4    1    3    3    0  502 -0.76913712319E+02  0.31350699981E+03  0.55040266803E+03  0.63808076914E+03  0.12699999809E+01 0. -1.
</event>
<event>
 5   0  0.1249195E-03  0.1013181E+04  0.7818609E-02  0.9294205E-01
        1   -1    0    0  501    0  0.00000000000E+00  0.00000000000E+00  0.11114865083E+04  0.11114865083E+04  0.50400001928E-02 0.  1.
       -1   -1    0    0    0  501  0.00000000000E+00  0.00000000000E+00 -0.23089256241E+03  0.23089256246E+03  0.50400001928E-02 0. -1.
    10030    2    1    2    0    0  0.00000000000E+00  0.00000000000E+00  0.88059394587E+03  0.13423790708E+04  0.10131810658E+04 0.  0.
        2    1    3    3  502    0  0.40930657482E+03 -0.55194499160E+02  0.51629823733E+02  0.41622583250E+03  0.25500000920E-02 0. -1.
       -2    1    3    3    0  502 -0.40930657482E+03  0.55194499160E+02  0.82896412214E+03  0.92615323826E+03  0.25500000920E-02 0.  1.
</event>
<event>
 5   0  0.2277570E-03  0.1000797E+04  0.7818609E-02  0.9307671E-01
        2   -1    0    0  501    0  0.00000000000E+00  0.00000000000E+00  0.42268059858E+03  0.42268059858E+03  0.25500000920E-02 0. -1.
       -2   -1    0    0    0  501  0.00000000000E+00  0.00000000000E+00 -0.59240593571E+03  0.59240593572E+03  0.25500000920E-02 0.  1.
    10030    2    1    2    0    0  0.00000000000E+00  0.00000000000E+00 -0.16972533714E+03  0.10150865343E+04  0.10007966737E+04 0.  0.
        3    1    3    3  502    0 -0.43313099739E+03  0.79886317735E+01 -0.33890289664E+03  0.55001951120E+03  0.10100000352E+00 0.  1.
       -3    1    3    3    0  502  0.43313099739E+03 -0.79886317735E+01  0.16917755950E+03  0.46506702311E+03  0.10100000352E+00 0. -1.
</event>
<event>
 5   0  0.1293575E-03  0.9993343E+03  0.7818609E-02  0.9309275E-01
        1   -1    0    0  501    0  0.00000000000E+00  0.00000000000E+00  0.97315447948E+02  0.97315448079E+02  0.50400001928E-02 0. -1.
       -1   -1    0    0    0  501  0.00000000000E+00  0.00000000000E+00 -0.25655461003E+04  0.25655461003E+04  0.50400001928E-02 0.  1.
    10030    2    1    2    0    0  0.00000000000E+00  0.00000000000E+00 -0.24682306523E+04  0.26628615483E+04  0.99933431475E+03 0.  0.
        4    1    3    3  502    0  0.10732868319E+03 -0.71525855522E+02  0.52189641948E+02  0.13914296917E+03  0.12699999809E+01 0. -1.
       -4    1    3    3    0  502 -0.10732868319E+03  0.71525855522E+02 -0.25204202943E+04  0.25237185792E+04  0.12699999809E+01 0.  1.
</event>
<event>
 5   0  0.2204862E-03  0.1000614E+04  0.7818609E-02  0.9307872E-01
       -2   -1    0    0    0  501  0.00000000000E+00  0.00000000000E+00  0.23378137420E+03  0.23378137421E+03  0.25500000920E-02 0.  1.
        2   -1    0    0  501    0  0.00000000000E+00  0.00000000000E+00 -0.10706880130E+04  0.10706880130E+04  0.25500000920E-02 0. -1.
    10030    2    1    2    0    0  0.00000000000E+00  0.00000000000E+00 -0.83690663875E+03  0.13044693872E+04  0.10006136418E+04 0.  0.
        1    1    3    3  502    0  0.21163095784E+03 -0.60126653713E+02 -0.10042406503E+04  0.10280574695E+04  0.50400001928E-02 0. -1.
       -1    1    3    3    0  502 -0.21163095784E+03  0.60126653713E+02  0.16733401154E+03  0.27641191770E+03  0.50400001928E-02 0.  1.
</event>
<event>
 5   0  0.2284843E-03  0.1010025E+04  0.7818609E-02  0.9297617E-01
        2   -1    0    0  501    0  0.00000000000E+00  0.00000000000E+00  0.11114618830E+04  0.11114618830E+04  0.25500000920E-02 0.  1.
       -2   -1    0    0    0  501  0.00000000000E+00  0.00000000000E+00 -0.22946138152E+03  0.22946138154E+03  0.25500000920E-02 0. -1.
    10030    2    1    2    0    0  0.00000000000E+00  0.00000000000E+00  0.88200050145E+03  0.13409232645E+04  0.10100249090E+04 0.  0.
        2    1    3    3  502    0  0.24176809745E+02  0.16998585413E+02 -0.22831227551E+03  0.23021721306E+03  0.25500000920E-02 0. -1.
       -2    1    3    3    0  502 -0.24176809745E+02 -0.16998585413E+02  0.11103127770E+04  0.11107060514E+04  0.25500000920E-02 0.  1.
</event>
<event>
 5   0  0.1293575E-03  0.9985579E+03  0.7818609E-02  0.9310128E-01
       -1   -1    0    0    0  501  0.00000000000E+00  0.00000000000E+00  0.11179870786E+03  0.11179870798E+03  0.50400001928E-02 0. -1.
        1   -1    0    0  501    0  0.00000000000E+00  0.00000000000E+00 -0.22297168883E+04  0.22297168884E+04  0.50400001928E-02 0.  1.
    10030    2    1    2    0    0  0.00000000000E+00  0.00000000000E+00 -0.21179181805E+04  0.23415155963E+04  0.99855789449E+03 0.  0.
        4    1    3    3  502    0 -0.15308677858E+03 -0.36388323675E+03 -0.17757128183E+04  0.18190668480E+04  0.12699999809E+01 0.  1.
       -4    1    3    3    0  502  0.15308677858E+03  0.36388323675E+03 -0.34220536222E+03  0.52244874830E+03  0.12699999809E+01 0. -1.
</event>
<event>
 5   0  0.1249195E-03  0.9983388E+03  0.7818609E-02  0.9310369E-01
       -1   -1    0    0    0  501  0.00000000000E+00  0.00000000000E+00  0.20315664192E+03  0.20315664199E+03  0.50400001928E-02 0.  1.
        1   -1    0    0  501    0  0.00000000000E+00  0.00000000000E+00 -0.12264924961E+04  0.12264924961E+04  0.50400001928E-02 0. -1.
    10030    2    1    2    0    0  0.00000000000E+00  0.00000000000E+00 -0.10233358542E+04  0.14296491381E+04  0.99833881404E+03 0.  0.
        2    1    3    3  502    0 -0.34133498707E+03  0.19443409860E+03 -0.70622121674E+02  0.39912614068E+03  0.25500000920E-02 0.  1.
       -2    1    3    3    0  502  0.34133498707E+03 -0.19443409860E+03 -0.95271373249E+03  0.10305229974E+04  0.25500000920E-02 0. -1.
</event>
<event>
 5   0  0.2255142E-03  0.9946117E+03  0.7818609E-02  0.9314474E-01
        2   -1    0    0  501    0  0.00000000000E+00  0.00000000000E+00  0.16493235029E+04  0.16493235029E+04  0.25500000920E-02 0. -1.
       -2   -1    0    0    0  501  0.00000000000E+00  0.00000000000E+00 -0.14994821479E+03  0.14994821481E+03  0.25500000920E-02 0.  1.
    10030    2    1    2    0    0  0.00000000000E+00  0.00000000000E+00  0.14993752881E+04  0.17992717178E+04  0.99461171298E+03 0.  0.
        4    1    3    3  502    0  0.48418168182E+03  0.19834796172E+02  0.54754496747E+03  0.73118562927E+03  0.12699999809E+01 0.  1.
       -4    1    3    3    0  502 -0.48418168182E+03 -0.19834796172E+02  0.95183032068E+03  0.10680860885E+04  0.12699999809E+01 0. -1.
</event>
<event>
 5   0  0.2255142E-03  0.1043332E+04  0.7818609E-02  0.9262255E-01
       -2   -1    0    0    0  501  0.00000000000E+00  0.00000000000E+00  0.47924228776E+03  0.47924228777E+03  0.25500000920E-02 0. -1.
        2   -1    0    0  501    0  0.00000000000E+00  0.00000000000E+00 -0.56784568475E+03  0.56784568476E+03  0.25500000920E-02 0.  1.
    10030    2    1    2    0    0  0.00000000000E+00  0.00000000000E+00 -0.88603396991E+02  0.10470879725E+04  0.10433324783E+04 0.  0.
        4    1    3    3  502    0 -0.35314265127E+03 -0.26239239349E+03 -0.32562221138E+03  0.54734900909E+03  0.12699999809E+01 0.  1.
       -4    1    3    3    0  502  0.35314265127E+03  0.26239239349E+03  0.23701881439E+03  0.49973896344E+03  0.12699999809E+01 0. -1.
</event>
<event>
 5   0  0.1293575E-03  0.1002157E+04  0.7818609E-02  0.9306183E-01
       -1   -1    0    0    0  501  0.00000000000E+00  0.00000000000E+00  0.33953357827E+03  0.33953357831E+03  0.50400001928E-02 0. -1.
        1   -1    0    0  501    0  0.00000000000E+00  0.00000000000E+00 -0.73948333984E+03  0.73948333985E+03  0.50400001928E-02 0.  1.
    10030    2    1    2    0    0  0.00000000000E+00  0.00000000000E+00 -0.39994976156E+03  0.10790169182E+04  0.10021565237E+04 0.  0.
        4    1    3    3  502    0 -0.32775518813E+03  0.37863794827E+03 -0.21823596955E+03  0.54627713710E+03  0.12699999809E+01 0. -1.
       -4    1    3    3    0  502  0.32775518813E+03 -0.37863794827E+03 -0.18171379201E+03  0.53273978106E+03  0.12699999809E+01 0.  1.
</event>
<event>
 5   0  0.1249195E-03  0.1001539E+04  0.7818609E-02  0.9306858E-01
       -1   -1    0    0    0  501  0.00000000000E+00  0.00000000000E+00  0.43667060431E+03  0.43667060434E+03  0.50400001928E-02 0.  1.
        1   -1    0    0  501    0  0.00000000000E+00  0.00000000000E+00 -0.57427768036E+03  0.57427768039E+03  0.50400001928E-02 0. -1.
    10030    2    1    2    0    0  0.00000000000E+00  0.00000000000E+00 -0.13760707606E+03  0.10109482847E+04  0.10015391790E+04 0.  0.
        2    1    3    3  502    0  0.25258853812E+03  0.35880416524E+03 -0.31237693553E+03  0.53862858116E+03  0.25500000920E-02 0.  1.
       -2    1    3    3    0  502 -0.25258853812E+03 -0.35880416524E+03  0.17476985948E+03  0.47231970356E+03  0.25500000920E-02 0. -1.
</event>
<event>
 5   0  0.2264577E-03  0.1000678E+04  0.7818609E-02  0.9307802E-01
       -2   -1    0    0    0  501  0.00000000000E+00  0.00000000000E+00  0.35409085496E+03  0.35409085497E+03  0.25500000920E-02 0. -1.
        2   -1    0    0  501    0  0.00000000000E+00  0.00000000000E+00 -0.70699102703E+03  0.70699102704E+03  0.25500000920E-02 0.  1.
    10030    2    1    2    0    0  0.00000000000E+00  0.00000000000E+00 -0.35290017207E+03  0.10610818820E+04  0.10006778847E+04 0.  0.
        5    1    3    3  502    0  0.11578809743E+03 -0.15474979133E+02 -0.69230403688E+03  0.70210635090E+03  0.46999998093E+01 0.  1.
       -5    1    3    3    0  502 -0.11578809743E+03  0.15474979133E+02  0.33940386481E+03  0.35897553111E+03  0.46999998093E+01 0. -1.
</event>
<event>
 5   0  0.8680125E-04  0.1000698E+04  0.7818609E-02  0.9307780E-01
       -4   -1    0    0    0  501  0.00000000000E+00  0.00000000000E+00  0.39061762968E+03  0.39061969422E+03  0.12699999809E+01 0.  1.
        4   -1    0    0  501    0  0.00000000000E+00  0.00000000000E+00 -0.64090123610E+03  0.64090249440E+03  0.12699999809E+01 0. -1.
    10030    2    1    2    0    0  0.00000000000E+00  0.00000000000E+00 -0.25028360642E+03  0.10315221886E+04  0.10006978275E+04 0.  0.
        2    1    3    3  502    0 -0.23346387028E+03  0.42189923876E+03  0.12556982442E+02  0.48235052006E+03  0.25500000920E-02 0.  1.
       -2    1    3    3    0  502  0.23346387028E+03 -0.42189923876E+03 -0.26284058886E+03  0.54917166856E+03  0.25500000920E-02 0. -1.
</event>
<event>
 5   0  0.1285769E-03  0.9971325E+03  0.7818609E-02  0.9311695E-01
        1   -1    0    0  501    0  0.00000000000E+00  0.00000000000E+00  0.10001912222E+04  0.10001912222E+04  0.50400001928E-02 0.  1.
       -1   -1    0    0    0  501  0.00000000000E+00  0.00000000000E+00 -0.24852079116E+03  0.24852079122E+03  0.50400001928E-02 0. -1.
    10030    2    1    2    0    0  0.00000000000E+00  0.00000000000E+00  0.75167043106E+03  0.12487120134E+04  0.99713251657E+03 0.  0.
        5    1    3    3  502    0  0.30120342722E+03 -0.16949110309E+03  0.82578592229E+03  0.89520680184E+03  0.46999998093E+01 0.  1.
       -5    1    3    3    0  502 -0.30120342722E+03  0.16949110309E+03 -0.74115491236E+02  0.35350521161E+03  0.46999998093E+01 0. -1.
</event>
<event>
 5   0  0.2284843E-03  0.1005436E+04  0.7818609E-02  0.9302603E-01
       -2   -1    0    0    0  501  0.00000000000E+00  0.00000000000E+00  0.22366289191E+03  0.22366289192E+03  0.25500000920E-02 0.  1.
        2   -1    0    0  501    0  0.00000000000E+00  0.00000000000E+00 -0.11299390115E+04  0.11299390115E+04  0.25500000920E-02 0. -1.
    10030    2    1    2    0    0  0.00000000000E+00  0.00000000000E+00 -0.90627611956E+03  0.13536019034E+04  0.10054360785E+04 0.  0.
        2    1    3    3  502    0 -0.12290789075E+03  0.34108757035E+03  0.15705684061E+02  0.36289633337E+03  0.25500000920E-02 0.  1.
       -2    1    3    3    0  502  0.12290789075E+03 -0.34108757035E+03 -0.92198180362E+03  0.99070557002E+03  0.25500000920E-02 0. -1.
</event>
<event>
 5   0  0.1293575E-03  0.1000500E+04  0.7818609E-02  0.9307996E-01
       -1   -1    0    0    0  501  0.00000000000E+00  0.00000000000E+00  0.43028464123E+03  0.43028464126E+03  0.50400001928E-02 0. -1.
        1   -1    0    0  501    0  0.00000000000E+00  0.00000000000E+00 -0.58159244620E+03  0.58159244622E+03  0.50400001928E-02 0.  1.
    10030    2    1    2    0    0  0.00000000000E+00  0.00000000000E+00 -0.15130780497E+03  0.10118770875E+04  0.10005004689E+04 0.  0.
        4    1    3    3  502    0 -0.49946768964E+03  0.25994942538E+02 -0.86016094888E+02  0.50748802105E+03  0.12699999809E+01 0. -1.
       -4    1    3    3    0  502  0.49946768964E+03 -0.25994942538E+02 -0.65291710086E+02  0.50438906643E+03  0.12699999809E+01 0.  1.
</event>
<event>
 5   0  0.2277570E-03  0.9985359E+03  0.7818609E-02  0.9310152E-01
       -2   -1    0    0    0  501  0.00000000000E+00  0.00000000000E+00  0.50845742539E+03  0.50845742540E+03  0.25500000920E-02 0.  1.
        2   -1    0    0  501    0  0.00000000000E+00  0.00000000000E+00 -0.49024457985E+03  0.49024457986E+03  0.25500000920E-02 0. -1.
    10030    2    1    2    0    0  0.00000000000E+00  0.00000000000E+00  0.18212845540E+02  0.99870200526E+03  0.99853592202E+03 0.  0.
        3    1    3    3  502    0  0.16398070126E+03 -0.13740436940E+03 -0.44207708292E+03  0.49112298721E+03  0.10100000352E+00 0. -1.
       -3    1    3    3    0  502 -0.16398070126E+03  0.13740436940E+03  0.46028992846E+03  0.50757901805E+03  0.10100000352E+00 0.  1.
</event>
<event>
 5   0  0.8680125E-04  0.1000162E+04  0.7818609E-02  0.9308367E-01
        4   -1    0    0  501    0  0.00000000000E+00  0.00000000000E+00  0.26119357702E+03  0.26119666456E+03  0.12699999809E+01 0.  1.
       -4   -1    0    0    0  501  0.00000000000E+00  0.00000000000E+00 -0.95744601269E+03  0.95744685499E+03  0.12699999809E+01 0. -1.
    10030    2    1    2    0    0  0.00000000000E+00  0.00000000000E+00 -0.69625243567E+03  0.12186435195E+04  0.10001622736E+04 0.  0.
        4    1    3    3  502    0 -0.11688306863E+03 -0.47416373687E+03 -0.21697124175E+03  0.53438846707E+03  0.12699999809E+01 0. -1.
       -4    1    3    3    0  502  0.11688306863E+03  0.47416373687E+03 -0.47928119392E+03  0.68425505247E+03  0.12699999809E+01 0.  1.
</event>
<event>
 5   0  0.2284843E-03  0.9846364E+03  0.7818609E-02  0.9325558E-01
       -2   -1    0    0    0  501  0.00000000000E+00  0.00000000000E+00  0.48945080486E+03  0.48945080487E+03  0.25500000920E-02 0.  1.
        2   -1    0    0  501    0  0.00000000000E+00  0.00000000000E+00 -0.49520238613E+03  0.49520238614E+03  0.25500000920E-02 0. -1.
    10030    2    1    2    0    0  0.00000000000E+00  0.00000000000E+00 -0.57515812737E+01  0.98465319100E+03  0.98463639272E+03 0.  0.
        2    1    3    3  502    0 -0.37642872195E+03  0.46034171088E+02  0.31107140524E+03  0.49049275915E+03  0.25500000920E-02 0.  1.
       -2    1    3    3    0  502  0.37642872195E+03 -0.46034171088E+02 -0.31682298652E+03  0.49416043185E+03  0.25500000920E-02 0. -1.
</event>
<event>
 5   0  0.1293716E-03  0.1003228E+04  0.7818609E-02  0.9305012E-01
       -1   -1    0    0    0  501  0.00000000000E+00  0.00000000000E+00  0.26675123531E+03  0.26675123536E+03  0.50400001928E-02 0.  1.
        1   -1    0    0  501    0  0.00000000000E+00  0.00000000000E+00 -0.94326284387E+03  0.94326284388E+03  0.50400001928E-02 0. -1.
    10030    2    1    2    0    0  0.00000000000E+00  0.00000000000E+00 -0.67651160856E+03  0.12100140792E+04  0.10032278482E+04 0.  0.
        3    1    3    3  502    0 -0.11510343893E+03  0.30957748973E+03 -0.79360357796E+03  0.85958924665E+03  0.10100000352E+00 0. -1.
       -3    1    3    3    0  502  0.11510343893E+03 -0.30957748973E+03  0.11709196940E+03  0.35042483259E+03  0.10100000352E+00 0.  1.
</event>
<event>
 5   0  0.2284843E-03  0.9722737E+03  0.7818609E-02  0.9339488E-01
        2   -1    0    0  501    0  0.00000000000E+00  0.00000000000E+00  0.30576970637E+03  0.30576970638E+03  0.25500000920E-02 0. -1.
       -2   -1    0    0    0  501  0.00000000000E+00  0.00000000000E+00 -0.77289873996E+03  0.77289873996E+03  0.25500000920E-02 0.  1.
    10030    2    1    2    0    0  0.00000000000E+00  0.00000000000E+00 -0.46712903359E+03  0.10786684463E+04  0.97227366678E+03 0.  0.
        2    1    3    3  502    0 -0.12597523165E+03  0.16369469328E+03 -0.72179301469E+03  0.75076685307E+03  0.25500000920E-02 0.  1.
       -2    1    3    3    0  502  0.12597523165E+03 -0.16369469328E+03  0.25466398110E+03  0.32790159328E+03  0.25500000920E-02 0. -1.
</event>
<event>
 5   0  0.1285769E-03  0.1001245E+04  0.7818609E-02  0.9307180E-01
       -1   -1    0    0    0  501  0.00000000000E+00  0.00000000000E+00  0.55675614476E+03  0.55675614478E+03  0.50400001928E-02 0.  1.
        1   -1    0    0  501    0  0.00000000000E+00  0.00000000000E+00 -0.45014879148E+03  0.45014879151E+03  0.50400001928E-02 0. -1.
    10030    2    1    2    0    0  0.00000000000E+00  0.00000000000E+00  0.10660735328E+03  0.10069049363E+04  0.10012454359E+04 0.  0.
        5    1    3    3  502    0  0.25462300795E+03 -0.24800992234E+03 -0.30119304940E+03  0.46591967200E+03  0.46999998093E+01 0. -1.
       -5    1    3    3    0  502 -0.25462300795E+03  0.24800992234E+03  0.40780040268E+03  0.54098526429E+03  0.46999998093E+01 0.  1.
</event>
<event>
 5   0  0.1293575E-03  0.9952570E+03  0.7818609E-02  0.9313762E-01
        1   -1    0    0  501    0  0.00000000000E+00  0.00000000000E+00  0.22188791832E+04  0.22188791832E+04  0.50400001928E-02 0. -1.
       -1   -1    0    0    0  501  0.00000000000E+00  0.00000000000E+00 -0.11160324393E+03  0.11160324404E+03  0.50400001928E-02 0.  1.
    10030    2    1    2    0    0  0.00000000000E+00  0.00000000000E+00  0.21072759393E+04  0.23304824273E+04  0.99525698162E+03 0.  0.
        4    1    3    3  502    0  0.20101102581E+03 -0.17988608149E+03  0.20328254557E+04  0.20506451134E+04  0.12699999809E+01 0. -1.
       -4    1    3    3    0  502 -0.20101102581E+03  0.17988608149E+03  0.74450483545E+02  0.27983731383E+03  0.12699999809E+01 0.  1.
</event>
<event>
 5   0  0.2277570E-03  0.1000784E+04  0.7818609E-02  0.9307686E-01
        2   -1    0    0  501    0  0.00000000000E+00  0.00000000000E+00  0.14090984849E+04  0.14090984849E+04  0.25500000920E-02 0.  1.
       -2   -1    0    0    0  501  0.00000000000E+00  0.00000000000E+00 -0.17769662719E+03  0.17769662721E+03  0.25500000920E-02 0. -1.
    10030    2    1    2    0    0  0.00000000000E+00  0.00000000000E+00  0.12314018577E+04  0.15867951121E+04  0.10007837891E+04 0.  0.
        3    1    3    3  502    0 -0.39921593755E+03 -0.29624624713E+03  0.52521554813E+03  0.72317811494E+03  0.10100000352E+00 0. -1.
       -3    1    3    3    0  502  0.39921593755E+03  0.29624624713E+03  0.70618630955E+03  0.86361699713E+03  0.10100000352E+00 0.  1.
</event>
<event>
 5   0  0.1293716E-03  0.1003201E+04  0.7818609E-02  0.9305041E-01
        1   -1    0    0  501    0  0.00000000000E+00  0.00000000000E+00  0.47488160050E+03  0.47488160053E+03  0.50400001928E-02 0.  1.
       -1   -1    0    0    0  501  0.00000000000E+00  0.00000000000E+00 -0.52982260430E+03  0.52982260432E+03  0.50400001928E-02 0. -1.
    10030    2    1    2    0    0  0.00000000000E+00  0.00000000000E+00 -0.54941003793E+02  0.10047042049E+04  0.10032008898E+04 0.  0.
        3    1    3    3  502    0 -0.88693650840E+02  0.14103653162E+03 -0.50130222724E+03  0.52826300286E+03  0.10100000352E+00 0. -1.
       -3    1    3    3    0  502  0.88693650840E+02 -0.14103653162E+03  0.44636122345E+03  0.47644120199E+03  0.10100000352E+00 0.  1.
</event>
<event>
 5   0  0.1249195E-03  0.9992638E+03  0.7818609E-02  0.9309353E-01
       -1   -1    0    0    0  501  0.00000000000E+00  0.00000000000E+00  0.21052855082E+03  0.21052855088E+03  0.50400001928E-02 0. -1.
        1   -1    0    0  501    0  0.00000000000E+00  0.00000000000E+00 -0.11857396978E+04  0.11857396978E+04  0.50400001928E-02 0.  1.
    10030    2    1    2    0    0  0.00000000000E+00  0.00000000000E+00 -0.97521114694E+03  0.13962682487E+04  0.99926384958E+03 0.  0.
        2    1    3    3  502    0  0.34504472847E+03 -0.22743192509E+03 -0.95238952088E+02  0.42408914534E+03  0.25500000920E-02 0.  1.
       -2    1    3    3    0  502 -0.34504472847E+03  0.22743192509E+03 -0.87997219486E+03  0.97217910331E+03  0.25500000920E-02 0. -1.
</event>
<event>
 5   0  0.1249195E-03  0.1048600E+04  0.7818609E-02  0.9256790E-01
       -1   -1    0    0    0  501  0.00000000000E+00  0.00000000000E+00  0.96950960896E+02  0.96950961027E+02  0.50400001928E-02 0. -1.
        1   -1    0    0  501    0  0.00000000000E+00  0.00000000000E+00 -0.28353582941E+04  0.28353582941E+04  0.50400001928E-02 0.  1.
    10030    2    1    2    0    0  0.00000000000E+00  0.00000000000E+00 -0.27384073332E+04  0.29323092551E+04  0.10486004221E+04 0.  0.
        2    1    3    3  502    0  0.30626763269E+03  0.10006090417E+03 -0.25258422296E+04  0.25463092931E+04  0.25500000920E-02 0.  1.
       -2    1    3    3    0  502 -0.30626763269E+03 -0.10006090417E+03 -0.21256510355E+03  0.38599996196E+03  0.25500000920E-02 0. -1.
</event>
<event>
 5   0  0.2255142E-03  0.1001339E+04  0.7818609E-02  0.9307078E-01
        2   -1    0    0  501    0  0.00000000000E+00  0.00000000000E+00  0.25598993082E+03  0.25598993083E+03  0.25500000920E-02 0.  1.
       -2   -1    0    0    0  501  0.00000000000E+00  0.00000000000E+00 -0.97921704786E+03  0.97921704786E+03  0.25500000920E-02 0. -1.
    10030    2    1    2    0    0  0.00000000000E+00  0.00000000000E+00 -0.72322711704E+03  0.12352069787E+04  0.10013385129E+04 0.  0.
        4    1    3    3  502    0  0.25321454227E+03  0.41399871444E+03 -0.20975310636E+03  0.52868754336E+03  0.12699999809E+01 0.  1.
       -4    1    3    3    0  502 -0.25321454227E+03 -0.41399871444E+03 -0.51347401067E+03  0.70651943534E+03  0.12699999809E+01 0. -1.
</event>
<event>
 5   0  0.1293575E-03  0.9977560E+03  0.7818609E-02  0.9311009E-01
       -1   -1    0    0    0  501  0.00000000000E+00  0.00000000000E+00  0.30188917536E+03  0.30188917540E+03  0.50400001928E-02 0. -1.
        1   -1    0    0  501    0  0.00000000000E+00  0.00000000000E+00 -0.82440607566E+03  0.82440607567E+03  0.50400001928E-02 0.  1.
    10030    2    1    2    0    0  0.00000000000E+00  0.00000000000E+00 -0.52251690030E+03  0.11262952511E+04  0.99775602303E+03 0.  0.
        4    1    3    3  502    0  0.98173565018E+02 -0.41756506356E+03  0.26269492283E+02  0.42975612887E+03  0.12699999809E+01 0. -1.
       -4    1    3    3    0  502 -0.98173565018E+02  0.41756506356E+03 -0.54878639258E+03  0.69653912220E+03  0.12699999809E+01 0.  1.
</event>
<event>
 5   0  0.1353789E-03  0.9990371E+03  0.7818609E-02  0.9309602E-01
       -1   -1    0    0    0  501  0.00000000000E+00  0.00000000000E+00  0.14833493971E+04  0.14833493971E+04  0.50400001928E-02 0.  1.
        1   -1    0    0  501    0  0.00000000000E+00  0.00000000000E+00 -0.16821307387E+03  0.16821307394E+03  0.50400001928E-02 0. -1.
    10030    2    1    2    0    0  0.00000000000E+00  0.00000000000E+00  0.13151363232E+04  0.16515624711E+04  0.99903705993E+03 0.  0.
        1    1    3    3  502    0  0.22797542538E+03  0.13692634994E+03 -0.41458423265E+02  0.26914758176E+03  0.50400001928E-02 0. -1.
       -1    1    3    3    0  502 -0.22797542538E+03 -0.13692634994E+03  0.13565947465E+04  0.13824148893E+04  0.50400001928E-02 0.  1.
</event>
<event>
 5   0  0.2264577E-03  0.1001745E+04  0.7818609E-02  0.9306633E-01
       -2   -1    0    0    0  501  0.00000000000E+00  0.00000000000E+00  0.20715158735E+03  0.20715158736E+03  0.25500000920E-02 0. -1.
        2   -1    0    0  501    0  0.00000000000E+00  0.00000000000E+00 -0.12110614330E+04  0.12110614330E+04  0.25500000920E-02 0.  1.
    10030    2    1    2    0    0  0.00000000000E+00  0.00000000000E+00 -0.10039098456E+04  0.14182130203E+04  0.10017450738E+04 0.  0.
        5    1    3    3  502    0  0.18644329269E+03 -0.18491047952E+03  0.10185254371E+03  0.28168957646E+03  0.46999998093E+01 0. -1.
       -5    1    3    3    0  502 -0.18644329269E+03  0.18491047952E+03 -0.11057623893E+04  0.11365234439E+04  0.46999998093E+01 0.  1.
</event>
<event>
 5   0  0.2204862E-03  0.9967018E+03  0.7818609E-02  0.9312170E-01
        2   -1    0    0  501    0  0.00000000000E+00  0.00000000000E+00  0.15671203813E+04  0.15671203813E+04  0.25500000920E-02 0. -1.
       -2   -1    0    0    0  501  0.00000000000E+00  0.00000000000E+00 -0.15847767988E+03  0.15847767990E+03  0.25500000920E-02 0.  1.
    10030    2    1    2    0    0  0.00000000000E+00  0.00000000000E+00  0.14086427015E+04  0.17255980612E+04  0.99670176512E+03 0.  0.
        1    1    3    3  502    0 -0.38076859874E+03  0.10492204657E+03  0.12304802791E+04  0.12923138469E+04  0.50400001928E-02 0. -1.
       -1    1    3    3    0  502  0.38076859874E+03 -0.10492204657E+03  0.17816242240E+03  0.43328421437E+03  0.50400001928E-02 0.  1.
</event>
<event>
 5   0  0.2204862E-03  0.1001828E+04  0.7818609E-02  0.9306543E-01
       -2   -1    0    0    0  501  0.00000000000E+00  0.00000000000E+00  0.26646037288E+03  0.26646037289E+03  0.25500000920E-02 0.  1.
        2   -1    0    0  501    0  0.00000000000E+00  0.00000000000E+00 -0.94165839470E+03  0.94165839470E+03  0.25500000920E-02 0. -1.
    10030    2    1    2    0    0  0.00000000000E+00  0.00000000000E+00 -0.67519802182E+03  0.12081187676E+04  0.10018276239E+04 0.  0.
        1    1    3    3  502    0  0.22417742640E+03 -0.35135060050E+03 -0.25111438069E+01  0.41678419937E+03  0.50400001928E-02 0.  1.
       -1    1    3    3    0  502 -0.22417742640E+03  0.35135060050E+03 -0.67268687802E+03  0.79133456822E+03  0.50400001928E-02 0. -1.
</event>
<event>
 5   0  0.1293716E-03  0.9926516E+03  0.7818609E-02  0.9316641E-01
        1   -1    0    0  501    0  0.00000000000E+00  0.00000000000E+00  0.34706785035E+03  0.34706785039E+03  0.50400001928E-02 0. -1.
       -1   -1    0    0    0  501  0.00000000000E+00  0.00000000000E+00 -0.70977276886E+03  0.70977276888E+03  0.50400001928E-02 0.  1.
    10030    2    1    2    0    0  0.00000000000E+00  0.00000000000E+00 -0.36270491851E+03  0.10568406193E+04  0.99265161896E+03 0.  0.
        3    1    3    3  502    0  0.17119990717E+03 -0.22631976168E+03 -0.61488033447E+03  0.67720593519E+03  0.10100000352E+00 0.  1.
       -3    1    3    3    0  502 -0.17119990717E+03  0.22631976168E+03  0.25217541596E+03  0.37963468408E+03  0.10100000352E+00 0. -1.
</event>
<event>
 5   0  0.2264577E-03  0.1014983E+04  0.7818609E-02  0.9292263E-01
       -2   -1    0    0    0  501  0.00000000000E+00  0.00000000000E+00  0.11237453701E+03  0.11237453704E+03  0.25500000920E-02 0.  1.
        2   -1    0    0  501    0  0.00000000000E+00  0.00000000000E+00 -0.22918681503E+04  0.22918681503E+04  0.25500000920E-02 0. -1.
    10030    2    1    2    0    0  0.00000000000E+00  0.00000000000E+00 -0.21794936133E+04  0.24042426873E+04  0.10149829995E+04 0.  0.
        5    1    3    3  502    0 -0.22934818704E+03  0.42187345144E+03 -0.70089810911E+03  0.84962229801E+03  0.46999998093E+01 0.  1.
       -5    1    3    3    0  502  0.22934818704E+03 -0.42187345144E+03 -0.14785955042E+04  0.15546203893E+04  0.46999998093E+01 0. -1.
</event>
<event>
 5   0  0.2284843E-03  0.1001958E+04  0.7818609E-02  0.9306400E-01
        2   -1    0    0  501    0  0.00000000000E+00  0.00000000000E+00  0.10350285842E+04  0.10350285842E+04  0.25500000920E-02 0. -1.
       -2   -1    0    0    0  501  0.00000000000E+00  0.00000000000E+00 -0.24248615446E+03  0.24248615447E+03  0.25500000920E-02 0.  1.
    10030    2    1    2    0    0  0.00000000000E+00  0.00000000000E+00  0.79254242971E+03  0.12775147386E+04  0.10019582848E+04 0.  0.
        2    1    3    3  502    0 -0.37847795404E+03 -0.23959361796E+03  0.11023085373E+03  0.46130413458E+03  0.25500000920E-02 0.  1.
       -2    1    3    3    0  502  0.37847795404E+03  0.23959361796E+03  0.68231157598E+03  0.81621060406E+03  0.25500000920E-02 0. -1.
</event>
<event>
 5   0  0.1285769E-03  0.1000073E+04  0.7818609E-02  0.9308464E-01
       -1   -1    0    0    0  501  0.00000000000E+00  0.00000000000E+00  0.24402328700E+03  0.24402328705E+03  0.50400001928E-02 0.  1.
        1   -1    0    0  501    0  0.00000000000E+00  0.00000000000E+00 -0.10246428414E+04  0.10246428414E+04  0.50400001928E-02 0. -1.
    10030    2    1    2    0    0  0.00000000000E+00  0.00000000000E+00 -0.78061955436E+03  0.12686661284E+04  0.10000734257E+04 0.  0.
        5    1    3    3  502    0 -0.67601664903E+02 -0.39341860809E+03 -0.77228811499E+03  0.86936713122E+03  0.46999998093E+01 0. -1.
       -5    1    3    3    0  502  0.67601664903E+02  0.39341860809E+03 -0.83314393708E+01  0.39929899721E+03  0.46999998093E+01 0.  1.
</event>
<event>
 5   0  0.2204862E-03  0.9986174E+03  0.7818609E-02  0.9310063E-01
       -2   -1    0    0    0  501  0.00000000000E+00  0.00000000000E+00  0.33183833769E+03  0.33183833770E+03  0.25500000920E-02 0. -1.
        2   -1    0    0  501    0  0.00000000000E+00  0.00000000000E+00 -0.75129709804E+03  0.75129709805E+03  0.25500000920E-02 0.  1.
    10030    2    1    2    0    0  0.00000000000E+00  0.00000000000E+00 -0.41945876035E+03  0.10831354357E+04  0.99861740448E+03 0.  0.
        1    1    3    3  502    0  0.97750057836E+02 -0.59686255455E+01 -0.74077813242E+03  0.74722348718E+03  0.50400001928E-02 0.  1.
       -1    1    3    3    0  502 -0.97750057836E+02  0.59686255455E+01  0.32131937207E+03  0.33591194856E+03  0.50400001928E-02 0. -1.
</event>
<event>
 5   0  0.2255142E-03  0.1005410E+04  0.7818609E-02  0.9302631E-01
        2   -1    0    0  501    0  0.00000000000E+00  0.00000000000E+00  0.95023654325E+03  0.95023654326E+03  0.25500000920E-02 0. -1.
       -2   -1    0    0    0  501  0.00000000000E+00  0.00000000000E+00 -0.26594659367E+03  0.26594659368E+03  0.25500000920E-02 0.  1.
    10030    2    1    2    0    0  0.00000000000E+00  0.00000000000E+00  0.68428994959E+03  0.12161831369E+04  0.10054097112E+04 0.  0.
        4    1    3    3  502    0  0.47154840891E+03 -0.11007079208E+03  0.17878956310E+03  0.51617904063E+03  0.12699999809E+01 0.  1.
       -4    1    3    3    0  502 -0.47154840891E+03  0.11007079208E+03  0.50550038649E+03  0.70000409631E+03  0.12699999809E+01 0. -1.
</event>
<event>
 5   0  0.2204862E-03  0.1009340E+04  0.7818609E-02  0.9298360E-01
        2   -1    0    0  501    0  0.00000000000E+00  0.00000000000E+00  0.52642217917E+03  0.52642217917E+03  0.25500000920E-02 0.  1.
       -2   -1    0    0    0  501  0.00000000000E+00  0.00000000000E+00 -0.48381622949E+03  0.48381622950E+03  0.25500000920E-02 0. -1.
    10030    2    1    2    0    0  0.00000000000E+00  0.00000000000E+00  0.42605949676E+02  0.10102384087E+04  0.10093395739E+04 0.  0.
        1    1    3    3  502    0 -0.50627901790E+02  0.25099315197E+03  0.45658201842E+03  0.52347672952E+03  0.50400001928E-02 0.  1.
       -1    1    3    3    0  502  0.50627901790E+02 -0.25099315197E+03 -0.41397606875E+03  0.48676167916E+03  0.50400001928E-02 0. -1.
</event>
<event>
 5   0  0.2284843E-03  0.1005161E+04  0.7818609E-02  0.9302903E-01
        2   -1    0    0  501    0  0.00000000000E+00  0.00000000000E+00  0.43325253132E+03  0.43325253133E+03  0.25500000920E-02 0.  1.
       -2   -1    0    0    0  501  0.00000000000E+00  0.00000000000E+00 -0.58300176611E+03  0.58300176611E+03  0.25500000920E-02 0. -1.
    10030    2    1    2    0    0  0.00000000000E+00  0.00000000000E+00 -0.14974923478E+03  0.10162542974E+04  0.10051606656E+04 0.  0.
        2    1    3    3  502    0  0.49991781470E+03 -0.37391106216E+01 -0.22777392281E+02  0.50045040914E+03  0.25500000920E-02 0.  1.
       -2    1    3    3    0  502 -0.49991781470E+03  0.37391106216E+01 -0.12697184250E+03  0.51580388831E+03  0.25500000920E-02 0. -1.
</event>
<event>
 5   0  0.1249195E-03  0.1005751E+04  0.7818609E-02  0.9302260E-01
        1   -1    0    0  501    0  0.00000000000E+00  0.00000000000E+00  0.18102364448E+04  0.18102364448E+04  0.50400001928E-02 0.  1.
       -1   -1    0    0    0  501  0.00000000000E+00  0.00000000000E+00 -0.13969646151E+03  0.13969646160E+03  0.50400001928E-02 0. -1.
    10030    2    1    2    0    0  0.00000000000E+00  0.00000000000E+00  0.16705399833E+04  0.19499329064E+04  0.10057507165E+04 0.  0.
        2    1    3    3  502    0  0.31201679718E+03 -0.39418588348E+03  0.85874716766E+03  0.99507974074E+03  0.25500000920E-02 0.  1.
       -2    1    3    3    0  502 -0.31201679718E+03  0.39418588348E+03  0.81179281559E+03  0.95485316563E+03  0.25500000920E-02 0. -1.
</event>
<event>
 5   0  0.1249195E-03  0.9956527E+03  0.7818609E-02  0.9313326E-01
        1   -1    0    0  501    0  0.00000000000E+00  0.00000000000E+00  0.14982291931E+04  0.14982291931E+04  0.50400001928E-02 0.  1.
       -1   -1    0    0    0  501  0.00000000000E+00  0.00000000000E+00 -0.16541599433E+03  0.16541599440E+03  0.50400001928E-02 0. -1.
    10030    2    1    2    0    0  0.00000000000E+00  0.00000000000E+00  0.13328131988E+04  0.16636451875E+04  0.99565269403E+03 0.  0.
        2    1    3    3  502    0 -0.44733240926E+03 -0.21381078505E+03  0.59149961778E+03  0.77181159231E+03  0.25500000920E-02 0.  1.
       -2    1    3    3    0  502  0.44733240926E+03  0.21381078505E+03  0.74131358102E+03  0.89183359523E+03  0.25500000920E-02 0. -1.
</event>
<event>
 5   0  0.2204862E-03  0.1002609E+04  0.7818609E-02  0.9305688E-01
       -2   -1    0    0    0  501  0.00000000000E+00  0.00000000000E+00  0.18173579968E+03  0.18173579970E+03  0.25500000920E-02 0. -1.
        2   -1    0    0  501    0  0.00000000000E+00  0.00000000000E+00 -0.13828102741E+04  0.13828102741E+04  0.25500000920E-02 0.  1.
    10030    2    1    2    0    0  0.00000000000E+00  0.00000000000E+00 -0.12010744744E+04  0.15645460738E+04  0.10026088589E+04 0.  0.
        1    1    3    3  502    0  0.10442580448E+03 -0.18810030007E+03  0.10603175303E+03  0.23985246341E+03  0.50400001928E-02 0. -1.
       -1    1    3    3    0  502 -0.10442580448E+03  0.18810030007E+03 -0.13071062275E+04  0.13246936104E+04  0.50400001928E-02 0.  1.
</event>
<event>
 5   0  0.1353789E-03  0.1001496E+04  0.7818609E-02  0.9306905E-01
        1   -1    0    0  501    0  0.00000000000E+00  0.00000000000E+00  0.34060197794E+03  0.34060197797E+03  0.50400001928E-02 0.  1.
       -1   -1    0    0    0  501  0.00000000000E+00  0.00000000000E+00 -0.73619292219E+03  0.73619292220E+03  0.50400001928E-02 0. -1.
    10030    2    1    2    0    0  0.00000000000E+00  0.00000000000E+00 -0.39559094425E+03  0.10767949002E+04  0.10014964113E+04 0.  0.
        1    1    3    3  502    0  0.59390716537E+01 -0.66063208016E+02 -0.73144867784E+03  0.73444999038E+03  0.50400001928E-02 0. -1.
       -1    1    3    3    0  502 -0.59390716537E+01  0.66063208016E+02  0.33585773359E+03  0.34234490980E+03  0.50400001928E-02 0.  1.
</event>
<event>
 5   0  0.1285769E-03  0.1000296E+04  0.7818609E-02  0.9308221E-01
       -1   -1    0    0    0  501  0.00000000000E+00  0.00000000000E+00  0.41009074718E+03  0.41009074721E+03  0.50400001928E-02 0.  1.
        1   -1    0    0  501    0  0.00000000000E+00  0.00000000000E+00 -0.60998161449E+03  0.60998161451E+03  0.50400001928E-02 0. -1.
    10030    2    1    2    0    0  0.00000000000E+00  0.00000000000E+00 -0.19989086731E+03  0.10200723617E+04  0.10002955885E+04 0.  0.
        5    1    3    3  502    0  0.46252741700E+03  0.35612205782E+02  0.90634134989E+02  0.47269067803E+03  0.46999998093E+01 0. -1.
       -5    1    3    3    0  502 -0.46252741700E+03 -0.35612205782E+02 -0.29052500230E+03  0.54738168369E+03  0.46999998093E+01 0.  1.
</event>
<event>
 5   0  0.2277570E-03  0.1002721E+04  0.7818609E-02  0.9305565E-01
        2   -1    0    0  501    0  0.00000000000E+00  0.00000000000E+00  0.67899106119E+03  0.67899106119E+03  0.25500000920E-02 0.  1.
       -2   -1    0    0    0  501  0.00000000000E+00  0.00000000000E+00 -0.37019981307E+03  0.37019981308E+03  0.25500000920E-02 0. -1.
    10030    2    1    2    0    0  0.00000000000E+00  0.00000000000E+00  0.30879124812E+03  0.10491908743E+04  0.10027210259E+04 0.  0.
        3    1    3    3  502    0  0.78091288352E+02 -0.39373623100E+03  0.46870983963E+03  0.61710241685E+03  0.10100000352E+00 0.  1.
       -3    1    3    3    0  502 -0.78091288352E+02  0.39373623100E+03 -0.15991859151E+03  0.43208845742E+03  0.10100000352E+00 0. -1.
</event>
<event>
 5   0  0.1293575E-03  0.9958217E+03  0.7818609E-02  0.9313139E-01
        1   -1    0    0  501    0  0.00000000000E+00  0.00000000000E+00  0.62238707229E+03  0.62238707231E+03  0.50400001928E-02 0. -1.
       -1   -1    0    0    0  501  0.00000000000E+00  0.00000000000E+00 -0.39832962956E+03  0.39832962959E+03  0.50400001928E-02 0.  1.
    10030    2    1    2    0    0  0.00000000000E+00  0.00000000000E+00  0.22405744273E+03  0.10207167019E+04  0.99582169483E+03 0.  0.
        4    1    3    3  502    0 -0.46048448804E+03  0.18102485638E+03  0.54980924157E+02  0.49783579348E+03  0.12699999809E+01 0.  1.
       -4    1    3    3    0  502  0.46048448804E+03 -0.18102485638E+03  0.16907651857E+03  0.52288090841E+03  0.12699999809E+01 0. -1.
</event>
<event>
 5   0  0.2284843E-03  0.9987600E+03  0.7818609E-02  0.9309906E-01
        2   -1    0    0  501    0  0.00000000000E+00  0.00000000000E+00  0.50321024681E+03  0.50321024682E+03  0.25500000920E-02 0. -1.
       -2   -1    0    0    0  501  0.00000000000E+00  0.00000000000E+00 -0.49557893165E+03  0.49557893166E+03  0.25500000920E-02 0.  1.
    10030    2    1    2    0    0  0.00000000000E+00  0.00000000000E+00  0.76313151613E+01  0.99878917847E+03  0.99876002426E+03 0.  0.
        2    1    3    3  502    0  0.62896869884E+02  0.23159731997E+03 -0.43413212298E+03  0.49604842008E+03  0.25500000920E-02 0.  1.
       -2    1    3    3    0  502 -0.62896869884E+02 -0.23159731997E+03  0.44176343814E+03  0.50274075839E+03  0.25500000920E-02 0. -1.
</event>
<event>
 5   0  0.1293575E-03  0.1000395E+04  0.7818609E-02  0.9308111E-01
       -1   -1    0    0    0  501  0.00000000000E+00  0.00000000000E+00  0.53741243556E+03  0.53741243558E+03  0.50400001928E-02 0.  1.
        1   -1    0    0  501    0  0.00000000000E+00  0.00000000000E+00 -0.46556006810E+03  0.46556006813E+03  0.50400001928E-02 0. -1.
    10030    2    1    2    0    0  0.00000000000E+00  0.00000000000E+00  0.71852367462E+02  0.10029725037E+04  0.10003954620E+04 0.  0.
        4    1    3    3  502    0 -0.33740937138E+03 -0.24367925621E+03 -0.24222586975E+03  0.48155960034E+03  0.12699999809E+01 0. -1.
       -4    1    3    3    0  502  0.33740937138E+03  0.24367925621E+03  0.31407823721E+03  0.52141290337E+03  0.12699999809E+01 0.  1.
</event>
<event>
 5   0  0.1353789E-03  0.1000351E+04  0.7818609E-02  0.9308160E-01
        1   -1    0    0  501    0  0.00000000000E+00  0.00000000000E+00  0.10581622810E+04  0.10581622811E+04  0.50400001928E-02 0.  1.
       -1   -1    0    0    0  501  0.00000000000E+00  0.00000000000E+00 -0.23642455605E+03  0.23642455610E+03  0.50400001928E-02 0. -1.
    10030    2    1    2    0    0  0.00000000000E+00  0.00000000000E+00  0.82173772499E+03  0.12945868372E+04  0.10003510335E+04 0.  0.
        1    1    3    3  502    0  0.36209502945E+03  0.23204845518E+03  0.80380113883E+02  0.43751600958E+03  0.50400001928E-02 0. -1.
       -1    1    3    3    0  502 -0.36209502945E+03 -0.23204845518E+03  0.74135761111E+03  0.85707082757E+03  0.50400001928E-02 0.  1.
</event>
<event>
 5   0  0.2264577E-03  0.9981432E+03  0.7818609E-02  0.9310584E-01
        2   -1    0    0  501    0  0.00000000000E+00  0.00000000000E+00  0.10743041171E+04  0.10743041171E+04  0.25500000920E-02 0.  1.
       -2   -1    0    0    0  501  0.00000000000E+00  0.00000000000E+00 -0.23184539276E+03  0.23184539278E+03  0.25500000920E-02 0. -1.
    10030    2    1    2    0    0  0.00000000000E+00  0.00000000000E+00  0.84245872430E+03  0.13061495098E+04  0.99814319610E+03 0.  0.
        5    1    3    3  502    0 -0.18794523444E+03  0.44698764924E+03  0.57566944087E+03  0.75268769411E+03  0.46999998093E+01 0.  1.
       -5    1    3    3    0  502  0.18794523444E+03 -0.44698764924E+03  0.26678928343E+03  0.55346181573E+03  0.46999998093E+01 0. -1.
</event>
<event>
 5   0  0.1293716E-03  0.9999191E+03  0.7818609E-02  0.9308634E-01
        1   -1    0    0  501    0  0.00000000000E+00  0.00000000000E+00  0.53980457653E+03  0.53980457656E+03  0.50400001928E-02 0. -1.
       -1   -1    0    0    0  501  0.00000000000E+00  0.00000000000E+00 -0.46305559246E+03  0.46305559248E+03  0.50400001928E-02 0.  1.
    10030    2    1    2    0    0  0.00000000000E+00  0.00000000000E+00  0.76748984077E+02  0.10028601690E+04  0.99991905277E+03 0.  0.
        3    1    3    3  502    0 -0.48327735779E+03 -0.98756795988E+02 -0.43410492895E+02  0.49517107185E+03  0.10100000352E+00 0.  1.
       -3    1    3    3    0  502  0.48327735779E+03  0.98756795988E+02  0.12015947697E+03  0.50768909719E+03  0.10100000352E+00 0. -1.
</event>
<event>
 5   0  0.1293716E-03  0.9981056E+03  0.7818609E-02  0.9310625E-01
        1   -1    0    0  501    0  0.00000000000E+00  0.00000000000E+00  0.15379466548E+04  0.15379466548E+04  0.50400001928E-02 0.  1.
       -1   -1    0    0    0  501  0.00000000000E+00  0.00000000000E+00 -0.16193908434E+03  0.16193908442E+03  0.50400001928E-02 0. -1.
    10030    2    1    2    0    0  0.00000000000E+00  0.00000000000E+00  0.13760075705E+04  0.16998857392E+04  0.99810555177E+03 0.  0.
        3    1    3    3  502    0 -0.26670846492E+03  0.34870392214E+03  0.10922044918E+04  0.11771314678E+04  0.10100000352E+00 0.  1.
       -3    1    3    3    0  502  0.26670846492E+03 -0.34870392214E+03  0.28380307871E+03  0.52275427139E+03  0.10100000352E+00 0. -1.
</event>
<event>
 5   0  0.2284843E-03  0.1004604E+04  0.7818609E-02  0.9303510E-01
        2   -1    0    0  501    0  0.00000000000E+00  0.00000000000E+00  0.14018398383E+03  0.14018398385E+03  0.25500000920E-02 0. -1.
       -2   -1    0    0    0  501  0.00000000000E+00  0.00000000000E+00 -0.17998297785E+04  0.17998297785E+04  0.25500000920E-02 0.  1.
    10030    2    1    2    0    0  0.00000000000E+00  0.00000000000E+00 -0.16596457946E+04  0.19400137623E+04  0.10046040187E+04 0.  0.
        2    1    3    3  502    0  0.32466931065E+03  0.21221037257E+03 -0.21348331409E+03  0.44273979819E+03  0.25500000920E-02 0. -1.
       -2    1    3    3    0  502 -0.32466931065E+03 -0.21221037257E+03 -0.14461624805E+04  0.14972739641E+04  0.25500000920E-02 0.  1.
</event>
<event>
 5   0  0.2255142E-03  0.9968722E+03  0.7818609E-02  0.9311982E-01
        2   -1    0    0  501    0  0.00000000000E+00  0.00000000000E+00  0.71807086557E+03  0.71807086558E+03  0.25500000920E-02 0.  1.
       -2   -1    0    0    0  501  0.00000000000E+00  0.00000000000E+00 -0.34598051078E+03  0.34598051079E+03  0.25500000920E-02 0. -1.
    10030    2    1    2    0    0  0.00000000000E+00  0.00000000000E+00  0.37209035479E+03  0.10640513764E+04  0.99687215801E+03 0.  0.
        4    1    3    3  502    0  0.42352569578E+03 -0.56310088744E+02  0.46003833012E+03  0.62783892773E+03  0.12699999809E+01 0.  1.
       -4    1    3    3    0  502 -0.42352569578E+03  0.56310088744E+02 -0.87947975330E+02  0.43621244864E+03  0.12699999809E+01 0. -1.
</event>
<event>
 5   0  0.1293716E-03  0.9988706E+03  0.7818609E-02  0.9309784E-01
       -1   -1    0    0    0  501  0.00000000000E+00  0.00000000000E+00  0.35910588668E+03  0.35910588671E+03  0.50400001928E-02 0. -1.
        1   -1    0    0  501    0  0.00000000000E+00  0.00000000000E+00 -0.69460190900E+03  0.69460190902E+03  0.50400001928E-02 0.  1.
    10030    2    1    2    0    0  0.00000000000E+00  0.00000000000E+00 -0.33549602232E+03  0.10537077957E+04  0.99887063116E+03 0.  0.
        3    1    3    3  502    0  0.22240465690E+03 -0.22919534126E+03  0.23731306068E+03  0.39788419777E+03  0.10100000352E+00 0. -1.
       -3    1    3    3    0  502 -0.22240465690E+03  0.22919534126E+03 -0.57280908301E+03  0.65582359796E+03  0.10100000352E+00 0.  1.
</event>
<event>
 5   0  0.2284843E-03  0.9978464E+03  0.7818609E-02  0.9310910E-01
        2   -1    0    0  501    0  0.00000000000E+00  0.00000000000E+00  0.11829509692E+04  0.11829509692E+04  0.25500000920E-02 0. -1.
       -2   -1    0    0    0  501  0.00000000000E+00  0.00000000000E+00 -0.21042661336E+03  0.21042661337E+03  0.25500000920E-02 0.  1.
    10030    2    1    2    0    0  0.00000000000E+00  0.00000000000E+00  0.97252435585E+03  0.13933775826E+04  0.99784641350E+03 0.  0.
        2    1    3    3  502    0  0.35154106541E+03  0.34523708729E+03  0.59581031676E+03  0.77314920984E+03  0.25500000920E-02 0. -1.
       -2    1    3    3    0  502 -0.35154106541E+03 -0.34523708729E+03  0.37671403909E+03  0.62022837275E+03  0.25500000920E-02 0.  1.
</event>
<event>
 5   0  0.2255142E-03  0.1012476E+04  0.7818609E-02  0.9294966E-01
       -2   -1    0    0    0  501  0.00000000000E+00  0.00000000000E+00  0.23303926330E+03  0.23303926331E+03  0.25500000920E-02 0. -1.
        2   -1    0    0  501    0  0.00000000000E+00  0.00000000000E+00 -0.10997164572E+04  0.10997164572E+04  0.25500000920E-02 0.  1.
    10030    2    1    2    0    0  0.00000000000E+00  0.00000000000E+00 -0.86667719387E+03  0.13327557205E+04  0.10124763958E+04 0.  0.
        4    1    3    3  502    0  0.37072444314E+03 -0.33978286408E+03 -0.35673648956E+03  0.61656430593E+03  0.12699999809E+01 0.  1.
       -4    1    3    3    0  502 -0.37072444314E+03  0.33978286408E+03 -0.50994070431E+03  0.71619141455E+03  0.12699999809E+01 0. -1.
</event>
<event>
 5   0  0.2277570E-03  0.1006193E+04  0.7818609E-02  0.9301778E-01
        2   -1    0    0  501    0  0.00000000000E+00  0.00000000000E+00  0.93178520144E+03  0.93178520145E+03  0.25500000920E-02 0.  1.
       -2   -1    0    0    0  501  0.00000000000E+00  0.00000000000E+00 -0.27163585113E+03  0.27163585115E+03  0.25500000920E-02 0. -1.
    10030    2    1    2    0    0  0.00000000000E+00  0.00000000000E+00  0.66014935031E+03  0.12034210526E+04  0.10061933537E+04 0.  0.
        3    1    3    3  502    0  0.30036860235E+02 -0.22254157468E+03 -0.20836970466E+03  0.30634116513E+03  0.10100000352E+00 0. -1.
       -3    1    3    3    0  502 -0.30036860235E+02  0.22254157468E+03  0.86851905497E+03  0.89707988746E+03  0.10100000352E+00 0.  1.
</event>
<event>
 5   0  0.1293716E-03  0.9897775E+03  0.7818609E-02  0.9319828E-01
        1   -1    0    0  501    0  0.00000000000E+00  0.00000000000E+00  0.73551763384E+03  0.73551763386E+03  0.50400001928E-02 0. -1.
       -1   -1    0    0    0  501  0.00000000000E+00  0.00000000000E+00 -0.33298303387E+03  0.33298303390E+03  0.50400001928E-02 0.  1.
    10030    2    1    2    0    0  0.00000000000E+00  0.00000000000E+00  0.40253459998E+03  0.10685006678E+04  0.98977753704E+03 0.  0.
        3    1    3    3  502    0 -0.11805569260E+03 -0.39913373014E+03  0.49027267014E+03  0.64312687891E+03  0.10100000352E+00 0. -1.
       -3    1    3    3    0  502  0.11805569260E+03  0.39913373014E+03 -0.87738070166E+02  0.42537378885E+03  0.10100000352E+00 0.  1.
</event>
<event>
 5   0  0.2284843E-03  0.9983823E+03  0.7818609E-02  0.9310321E-01
        2   -1    0    0  501    0  0.00000000000E+00  0.00000000000E+00  0.35049666486E+03  0.35049666487E+03  0.25500000920E-02 0.  1.
       -2   -1    0    0    0  501  0.00000000000E+00  0.00000000000E+00 -0.71096767611E+03  0.71096767612E+03  0.25500000920E-02 0. -1.
    10030    2    1    2    0    0  0.00000000000E+00  0.00000000000E+00 -0.36047101125E+03  0.10614643410E+04  0.99838229012E+03 0.  0.
        2    1    3    3  502    0  0.14691213728E+03  0.19375180992E+03 -0.64375075269E+03  0.68814095324E+03  0.25500000920E-02 0. -1.
       -2    1    3    3    0  502 -0.14691213728E+03 -0.19375180992E+03  0.28327974143E+03  0.37332338775E+03  0.25500000920E-02 0.  1.
</event>
<event>
 5   0  0.1285769E-03  0.9945306E+03  0.7818609E-02  0.9314564E-01
       -1   -1    0    0    0  501  0.00000000000E+00  0.00000000000E+00  0.49184216917E+03  0.49184216920E+03  0.50400001928E-02 0. -1.
        1   -1    0    0  501    0  0.00000000000E+00  0.00000000000E+00 -0.50274817765E+03  0.50274817768E+03  0.50400001928E-02 0.  1.
    10030    2    1    2    0    0  0.00000000000E+00  0.00000000000E+00 -0.10906008478E+02  0.99459034687E+03  0.99453055110E+03 0.  0.
        5    1    3    3  502    0 -0.25185500772E+03 -0.29534241683E+03  0.30535914436E+03  0.49388701656E+03  0.46999998093E+01 0. -1.
       -5    1    3    3    0  502  0.25185500772E+03  0.29534241683E+03 -0.31626515283E+03  0.50070333031E+03  0.46999998093E+01 0.  1.
</event>
<event>
 5   0  0.1293575E-03  0.1005025E+04  0.7818609E-02  0.9303050E-01
       -1   -1    0    0    0  501  0.00000000000E+00  0.00000000000E+00  0.37696662519E+03  0.37696662522E+03  0.50400001928E-02 0.  1.
        1   -1    0    0  501    0  0.00000000000E+00  0.00000000000E+00 -0.66987068405E+03  0.66987068407E+03  0.50400001928E-02 0. -1.
    10030    2    1    2    0    0  0.00000000000E+00  0.00000000000E+00 -0.29290405887E+03  0.10468373093E+04  0.10050251561E+04 0.  0.
        4    1    3    3  502    0 -0.10653975970E+03 -0.42729790275E+03 -0.39856099290E+03  0.59395849691E+03  0.12699999809E+01 0. -1.
       -4    1    3    3    0  502  0.10653975970E+03  0.42729790275E+03  0.10565693403E+03  0.45287881238E+03  0.12699999809E+01 0.  1.
</event>
<event>
 5   0  0.2284843E-03  0.9980007E+03  0.7818609E-02  0.9310740E-01
       -2   -1    0    0    0  501  0.00000000000E+00  0.00000000000E+00  0.27880211630E+03  0.27880211631E+03  0.25500000920E-02 0.  1.
        2   -1    0    0  501    0  0.00000000000E+00  0.00000000000E+00 -0.89311143669E+03  0.89311143670E+03  0.25500000920E-02 0. -1.
    10030    2    1    2    0    0  0.00000000000E+00  0.00000000000E+00 -0.61430932039E+03  0.11719135530E+04  0.99800071874E+03 0.  0.
        2    1    3    3  502    0  0.11305700340E+03 -0.12648014989E+03  0.24390080623E+03  0.29709715182E+03  0.25500000920E-02 0.  1.
       -2    1    3    3    0  502 -0.11305700340E+03  0.12648014989E+03 -0.85821012663E+03  0.87481640118E+03  0.25500000920E-02 0. -1.
</event>
<event>
 5   0  0.1285769E-03  0.1001379E+04  0.7818609E-02  0.9307034E-01
        1   -1    0    0  501    0  0.00000000000E+00  0.00000000000E+00  0.66804039919E+03  0.66804039921E+03  0.50400001928E-02 0. -1.
       -1   -1    0    0    0  501  0.00000000000E+00  0.00000000000E+00 -0.37526164101E+03  0.37526164105E+03  0.50400001928E-02 0.  1.
    10030    2    1    2    0    0  0.00000000000E+00  0.00000000000E+00  0.29277875818E+03  0.10433020403E+04  0.10013789223E+04 0.  0.
        5    1    3    3  502    0 -0.47682635004E+02  0.11605438508E+03  0.65137240030E+03  0.66336290810E+03  0.46999998093E+01 0. -1.
       -5    1    3    3    0  502  0.47682635004E+02 -0.11605438508E+03 -0.35859364212E+03  0.37993913216E+03  0.46999998093E+01 0.  1.
</event>
<event>
 5   0  0.1293716E-03  0.1005321E+04  0.7818609E-02  0.9302728E-01
       -1   -1    0    0    0  501  0.00000000000E+00  0.00000000000E+00  0.45232500224E+03  0.45232500226E+03  0.50400001928E-02 0. -1.
        1   -1    0    0  501    0  0.00000000000E+00  0.00000000000E+00 -0.55859736068E+03  0.55859736070E+03  0.50400001928E-02 0.  1.
    10030    2    1    2    0    0  0.00000000000E+00  0.00000000000E+00 -0.10627235845E+03  0.10109223630E+04  0.10053209486E+04 0.  0.
        3    1    3    3  502    0  0.39535050707E+03  0.31032034727E+03 -0.61354898710E+02  0.50632516742E+03  0.10100000352E+00 0. -1.
       -3    1    3    3    0  502 -0.39535050707E+03 -0.31032034727E+03 -0.44917459736E+02  0.50459719555E+03  0.10100000352E+00 0.  1.
</event>
<event>
 5   0  0.1293716E-03  0.1004041E+04  0.7818609E-02  0.9304124E-01
        1   -1    0    0  501    0  0.00000000000E+00  0.00000000000E+00  0.13027913223E+04  0.13027913224E+04  0.50400001928E-02 0.  1.
       -1   -1    0    0    0  501  0.00000000000E+00  0.00000000000E+00 -0.19344959208E+03  0.19344959214E+03  0.50400001928E-02 0. -1.
    10030    2    1    2    0    0  0.00000000000E+00  0.00000000000E+00  0.11093417303E+04  0.14962409145E+04  0.10040407361E+04 0.  0.
        3    1    3    3  502    0 -0.80969141060E+02 -0.12026315604E+03  0.12709150046E+04  0.12791576086E+04  0.10100000352E+00 0.  1.
       -3    1    3    3    0  502  0.80969141060E+02  0.12026315604E+03 -0.16157327436E+03  0.21708330588E+03  0.10100000352E+00 0. -1.
</event>
<event>
 5   0  0.1249195E-03  0.1003607E+04  0.7818609E-02  0.9304597E-01
        1   -1    0    0  501    0  0.00000000000E+00  0.00000000000E+00  0.91061130985E+03  0.91061130986E+03  0.50400001928E-02 0. -1.
       -1   -1    0    0    0  501  0.00000000000E+00  0.00000000000E+00 -0.27652507521E+03  0.27652507526E+03  0.50400001928E-02 0.  1.
    10030    2    1    2    0    0  0.00000000000E+00  0.00000000000E+00  0.63408623464E+03  0.11871363851E+04  0.10036072160E+04 0.  0.
        2    1    3    3  502    0  0.32111860637E+03 -0.62625694358E+02  0.76710549909E+03  0.83396042094E+03  0.25500000920E-02 0. -1.
       -2    1    3    3    0  502 -0.32111860637E+03  0.62625694358E+02 -0.13301926445E+03  0.35317596418E+03  0.25500000920E-02 0.  1.
</event>
<event>
 5   0  0.2264577E-03  0.1007511E+04  0.7818609E-02  0.9300345E-01
       -2   -1    0    0    0  501  0.00000000000E+00  0.00000000000E+00  0.30051186058E+03  0.30051186059E+03  0.25500000920E-02 0. -1.
        2   -1    0    0  501    0  0.00000000000E+00  0.00000000000E+00 -0.84445766334E+03  0.84445766334E+03  0.25500000920E-02 0.  1.
    10030    2    1    2    0    0  0.00000000000E+00  0.00000000000E+00 -0.54394580276E+03  0.11449695239E+04  0.10075108805E+04 0.  0.
        5    1    3    3  502    0  0.99321229424E+02 -0.18606028280E+03 -0.79183933061E+03  0.81946003621E+03  0.46999998093E+01 0.  1.
       -5    1    3    3    0  502 -0.99321229424E+02  0.18606028280E+03  0.24789352785E+03  0.32550948772E+03  0.46999998093E+01 0. -1.
</event>
<event>
 5   0  0.1293575E-03  0.9877650E+03  0.7818609E-02  0.9322067E-01
        1   -1    0    0  501    0  0.00000000000E+00  0.00000000000E+00  0.15828542311E+04  0.15828542311E+04  0.50400001928E-02 0. -1.
       -1   -1    0    0    0  501  0.00000000000E+00  0.00000000000E+00 -0.15410132754E+03  0.15410132762E+03  0.50400001928E-02 0.  1.
    10030    2    1    2    0    0  0.00000000000E+00  0.00000000000E+00  0.14287529035E+04  0.17369555587E+04  0.98776502953E+03 0.  0.
        4    1    3    3  502    0  0.47769147559E+03  0.19578337996E+02  0.49653987977E+03  0.68929378517E+03  0.12699999809E+01 0.  1.
       -4    1    3    3    0  502 -0.47769147559E+03 -0.19578337996E+02  0.93221302377E+03  0.10476617735E+04  0.12699999809E+01 0. -1.
</event>
<event>
 5   0  0.1293716E-03  0.1000326E+04  0.7818609E-02  0.9308187E-01
       -1   -1    0    0    0  501  0.00000000000E+00  0.00000000000E+00  0.36302787591E+03  0.36302787595E+03  0.50400001928E-02 0. -1.
        1   -1    0    0  501    0  0.00000000000E+00  0.00000000000E+00 -0.68910199908E+03  0.68910199910E+03  0.50400001928E-02 0.  1.
    10030    2    1    2    0    0  0.00000000000E+00  0.00000000000E+00 -0.32607412317E+03  0.10521298750E+04  0.10003264168E+04 0.  0.
        3    1    3    3  502    0  0.26681927587E+03  0.19511334755E+03 -0.55784456029E+03  0.64842293915E+03  0.10100000352E+00 0.  1.
       -3    1    3    3    0  502 -0.26681927587E+03 -0.19511334755E+03  0.23177043712E+03  0.40370693590E+03  0.10100000352E+00 0. -1.
</event>
<event>
 5   0  0.2284843E-03  0.1000535E+04  0.7818609E-02  0.9307958E-01
       -2   -1    0    0    0  501  0.00000000000E+00  0.00000000000E+00  0.40954506406E+03  0.40954506407E+03  0.25500000920E-02 0.  1.
        2   -1    0    0  501    0  0.00000000000E+00  0.00000000000E+00 -0.61108706915E+03  0.61108706915E+03  0.25500000920E-02 0. -1.
    10030    2    1    2    0    0  0.00000000000E+00  0.00000000000E+00 -0.20154200508E+03  0.10206321332E+04  0.10005352425E+04 0.  0.
        2    1    3    3  502    0 -0.23002841610E+03 -0.42123057929E+03 -0.24474205792E+03  0.53874571744E+03  0.25500000920E-02 0. -1.
       -2    1    3    3    0  502  0.23002841610E+03  0.42123057929E+03  0.43200052836E+02  0.48188641578E+03  0.25500000920E-02 0.  1.
</event>
<event>
 5   0  0.1249195E-03  0.1000778E+04  0.7818609E-02  0.9307692E-01
        1   -1    0    0  501    0  0.00000000000E+00  0.00000000000E+00  0.62117425213E+03  0.62117425215E+03  0.50400001928E-02 0.  1.
       -1   -1    0    0    0  501  0.00000000000E+00  0.00000000000E+00 -0.40309021172E+03  0.40309021176E+03  0.50400001928E-02 0. -1.
    10030    2    1    2    0    0  0.00000000000E+00  0.00000000000E+00  0.21808404041E+03  0.10242644639E+04  0.10007782189E+04 0.  0.
        2    1    3    3  502    0  0.34114447862E+03  0.21749347138E+03 -0.19232767326E+03  0.44796528804E+03  0.25500000920E-02 0. -1.
       -2    1    3    3    0  502 -0.34114447862E+03 -0.21749347138E+03  0.41041171367E+03  0.57629917587E+03  0.25500000920E-02 0.  1.
</event>
<event>
 5   0  0.2264577E-03  0.9997651E+03  0.7818609E-02  0.9308802E-01
       -2   -1    0    0    0  501  0.00000000000E+00  0.00000000000E+00  0.30315416532E+03  0.30315416533E+03  0.25500000920E-02 0.  1.
        2   -1    0    0  501    0  0.00000000000E+00  0.00000000000E+00 -0.82427561855E+03  0.82427561855E+03  0.25500000920E-02 0. -1.
    10030    2    1    2    0    0  0.00000000000E+00  0.00000000000E+00 -0.52112145323E+03  0.11274297839E+04  0.99976514670E+03 0.  0.
        5    1    3    3  502    0 -0.39769411986E+03 -0.20265237799E+03 -0.68121502404E+01  0.44642703174E+03  0.46999998093E+01 0.  1.
       -5    1    3    3    0  502  0.39769411986E+03  0.20265237799E+03 -0.51430930299E+03  0.68100275214E+03  0.46999998093E+01 0. -1.
</event>
<event>
 5   0  0.1353789E-03  0.1026202E+04  0.7818609E-02  0.9280265E-01
        1   -1    0    0  501    0  0.00000000000E+00  0.00000000000E+00  0.67216878572E+03  0.67216878574E+03  0.50400001928E-02 0.  1.
       -1   -1    0    0    0  501  0.00000000000E+00  0.00000000000E+00 -0.39167652334E+03  0.39167652337E+03  0.50400001928E-02 0. -1.
    10030    2    1    2    0    0  0.00000000000E+00  0.00000000000E+00  0.28049226238E+03  0.10638453091E+04  0.10262021889E+04 0.  0.
        1    1    3    3  502    0  0.37592209086E+03  0.16884539792E+03 -0.17665746949E+03  0.44836820622E+03  0.50400001928E-02 0. -1.
       -1    1    3    3    0  502 -0.37592209086E+03 -0.16884539792E+03  0.45714973188E+03  0.61547710289E+03  0.50400001928E-02 0.  1.
</event>
<event>
 5   0  0.2277570E-03  0.9958135E+03  0.7818609E-02  0.9313148E-01
       -2   -1    0    0    0  501  0.00000000000E+00  0.00000000000E+00  0.18302161227E+03  0.18302161229E+03  0.25500000920E-02 0.  1.
        2   -1    0    0  501    0  0.00000000000E+00  0.00000000000E+00 -0.13545457149E+04  0.13545457149E+04  0.25500000920E-02 0. -1.
    10030    2    1    2    0    0  0.00000000000E+00  0.00000000000E+00 -0.11715241026E+04  0.15375673272E+04  0.99581351797E+03 0.  0.
        3    1    3    3  502    0  0.10273420844E+03  0.38241768224E+02 -0.13356820260E+04  0.13401728378E+04  0.10100000352E+00 0. -1.
       -3    1    3    3    0  502 -0.10273420844E+03 -0.38241768224E+02  0.16415792339E+03  0.19739448936E+03  0.10100000352E+00 0.  1.
</event>
<event>
 5   0  0.2264577E-03  0.1011458E+04  0.7818609E-02  0.9296066E-01
       -2   -1    0    0    0  501  0.00000000000E+00  0.00000000000E+00  0.44739064031E+03  0.44739064031E+03  0.25500000920E-02 0.  1.
        2   -1    0    0  501    0  0.00000000000E+00  0.00000000000E+00 -0.57167462497E+03  0.57167462497E+03  0.25500000920E-02 0. -1.
    10030    2    1    2    0    0  0.00000000000E+00  0.00000000000E+00 -0.12428398466E+03  0.10190652653E+04  0.10114581089E+04 0.  0.
        5    1    3    3  502    0 -0.44886963870E+03 -0.16662023486E+03  0.10185052141E+03  0.48953230120E+03  0.46999998093E+01 0. -1.
       -5    1    3    3    0  502  0.44886963870E+03  0.16662023486E+03 -0.22613450607E+03  0.52953296408E+03  0.46999998093E+01 0.  1.
</event>
<event>
 5   0  0.1353789E-03  0.1005898E+04  0.7818609E-02  0.9302099E-01
        1   -1    0    0  501    0  0.00000000000E+00  0.00000000000E+00  0.33327282161E+03  0.33327282165E+03  0.50400001928E-02 0. -1.
       -1   -1    0    0    0  501  0.00000000000E+00  0.00000000000E+00 -0.75901126762E+03  0.75901126764E+03  0.50400001928E-02 0.  1.
    10030    2    1    2    0    0  0.00000000000E+00  0.00000000000E+00 -0.42573844601E+03  0.10922840893E+04  0.10058982589E+04 0.  0.
        1    1    3    3  502    0  0.41087901475E+03  0.28114799744E+03 -0.29035616913E+03  0.57634405193E+03  0.50400001928E-02 0. -1.
       -1    1    3    3    0  502 -0.41087901475E+03 -0.28114799744E+03 -0.13538227688E+03  0.51594003735E+03  0.50400001928E-02 0.  1.
</event>
<event>
 5   0  0.2284843E-03  0.1001024E+04  0.7818609E-02  0.9307423E-01
        2   -1    0    0  501    0  0.00000000000E+00  0.00000000000E+00  0.22510642561E+03  0.22510642563E+03  0.25500000920E-02 0.  1.
       -2   -1    0    0    0  501  0.00000000000E+00  0.00000000000E+00 -0.11128606252E+04  0.11128606252E+04  0.25500000920E-02 0. -1.
    10030    2    1    2    0    0  0.00000000000E+00  0.00000000000E+00 -0.88775419955E+03  0.13379670508E+04  0.10010236312E+04 0.  0.
        2    1    3    3  502    0 -0.25923301155E+03  0.19722430101E+03  0.64053153105E+02  0.33196684415E+03  0.25500000920E-02 0.  1.
       -2    1    3    3    0  502  0.25923301155E+03 -0.19722430101E+03 -0.95180735265E+03  0.10060002066E+04  0.25500000920E-02 0. -1.
</event>
<event>
 5   0  0.2264577E-03  0.1006072E+04  0.7818609E-02  0.9301910E-01
        2   -1    0    0  501    0  0.00000000000E+00  0.00000000000E+00  0.99400874600E+03  0.99400874600E+03  0.25500000920E-02 0.  1.
       -2   -1    0    0    0  501  0.00000000000E+00  0.00000000000E+00 -0.25457033014E+03  0.25457033015E+03  0.25500000920E-02 0. -1.
    10030    2    1    2    0    0  0.00000000000E+00  0.00000000000E+00  0.73943841586E+03  0.12485790762E+04  0.10060718357E+04 0.  0.
        5    1    3    3  502    0 -0.42890669947E+03  0.11878646603E+03  0.78796063668E+02  0.45199788828E+03  0.46999998093E+01 0. -1.
       -5    1    3    3    0  502  0.42890669947E+03 -0.11878646603E+03  0.66064235219E+03  0.79658118787E+03  0.46999998093E+01 0.  1.
</event>
<event>
 5   0  0.1249195E-03  0.9962803E+03  0.7818609E-02  0.9312634E-01
        1   -1    0    0  501    0  0.00000000000E+00  0.00000000000E+00  0.71614716174E+03  0.71614716175E+03  0.50400001928E-02 0.  1.
       -1   -1    0    0    0  501  0.00000000000E+00  0.00000000000E+00 -0.34649809673E+03  0.34649809677E+03  0.50400001928E-02 0. -1.
    10030    2    1    2    0    0  0.00000000000E+00  0.00000000000E+00  0.36964906500E+03  0.10626452585E+04  0.99628033916E+03 0.  0.
        2    1    3    3  502    0 -0.12596391775E+03 -0.44719231187E+03  0.37650571398E+03  0.59800035538E+03  0.25500000920E-02 0.  1.
       -2    1    3    3    0  502  0.12596391775E+03  0.44719231187E+03 -0.68566489753E+01  0.46464490314E+03  0.25500000920E-02 0. -1.
</event>
<event>
 5   0  0.2264577E-03  0.1004274E+04  0.7818609E-02  0.9303870E-01
        2   -1    0    0  501    0  0.00000000000E+00  0.00000000000E+00  0.13309976657E+04  0.13309976657E+04  0.25500000920E-02 0. -1.
       -2   -1    0    0    0  501  0.00000000000E+00  0.00000000000E+00 -0.18943790877E+03  0.18943790878E+03  0.25500000920E-02 0.  1.
    10030    2    1    2    0    0  0.00000000000E+00  0.00000000000E+00  0.11415597570E+04  0.15204355745E+04  0.10042736965E+04 0.  0.
        5    1    3    3  502    0  0.26938352854E+03 -0.31363866486E+03  0.10021474410E+04  0.10840932990E+04  0.46999998093E+01 0. -1.
       -5    1    3    3    0  502 -0.26938352854E+03  0.31363866486E+03  0.13941231601E+03  0.43634227551E+03  0.46999998093E+01 0.  1.
</event>
<event>
 5   0  0.1293575E-03  0.9997160E+03  0.7818609E-02  0.9308856E-01
        1   -1    0    0  501    0  0.00000000000E+00  0.00000000000E+00  0.36955332174E+03  0.36955332177E+03  0.50400001928E-02 0. -1.
       -1   -1    0    0    0  501  0.00000000000E+00  0.00000000000E+00 -0.67610820824E+03  0.67610820826E+03  0.50400001928E-02 0.  1.
    10030    2    1    2    0    0  0.00000000000E+00  0.00000000000E+00 -0.30655488650E+03  0.10456615300E+04  0.99971602815E+03 0.  0.
        4    1    3    3  502    0 -0.30508922257E+03 -0.39047181738E+03 -0.84619625663E+02  0.50270246453E+03  0.12699999809E+01 0.  1.
       -4    1    3    3    0  502  0.30508922257E+03  0.39047181738E+03 -0.22193526084E+03  0.54295906550E+03  0.12699999809E+01 0. -1.
</event>
<event>
 5   0  0.1285769E-03  0.9938347E+03  0.7818609E-02  0.9315333E-01
        1   -1    0    0  501    0  0.00000000000E+00  0.00000000000E+00  0.90808282612E+03  0.90808282613E+03  0.50400001928E-02 0. -1.
       -1   -1    0    0    0  501  0.00000000000E+00  0.00000000000E+00 -0.27192105971E+03  0.27192105975E+03  0.50400001928E-02 0.  1.
    10030    2    1    2    0    0  0.00000000000E+00  0.00000000000E+00  0.63616176641E+03  0.11800038859E+04  0.99383468327E+03 0.  0.
        5    1    3    3  502    0  0.23519968294E+03  0.17853879130E+03  0.79257957783E+03  0.84581290369E+03  0.46999998093E+01 0. -1.
       -5    1    3    3    0  502 -0.23519968294E+03 -0.17853879130E+03 -0.15641781142E+03  0.33419098220E+03  0.46999998093E+01 0.  1.
</event>
<event>
 5   0  0.1285769E-03  0.1001159E+04  0.7818609E-02  0.9307274E-01
        1   -1    0    0  501    0  0.00000000000E+00  0.00000000000E+00  0.17507639070E+04  0.17507639070E+04  0.50400001928E-02 0.  1.
       -1   -1    0    0    0  501  0.00000000000E+00  0.00000000000E+00 -0.14312606275E+03  0.14312606284E+03  0.50400001928E-02 0. -1.
    10030    2    1    2    0    0  0.00000000000E+00  0.00000000000E+00  0.16076378442E+04  0.18938899698E+04  0.10011592179E+04 0.  0.
        5    1    3    3  502    0  0.13606378585E+03 -0.15771172517E+03 -0.57207764833E+02  0.21605823389E+03  0.46999998093E+01 0. -1.
       -5    1    3    3    0  502 -0.13606378585E+03  0.15771172517E+03  0.16648456090E+04  0.16778317359E+04  0.46999998093E+01 0.  1.
</event>
<event>
 5   0  0.1285769E-03  0.9963386E+03  0.7818609E-02  0.9312570E-01
        1   -1    0    0  501    0  0.00000000000E+00  0.00000000000E+00  0.51125793226E+03  0.51125793228E+03  0.50400001928E-02 0.  1.
       -1   -1    0    0    0  501  0.00000000000E+00  0.00000000000E+00 -0.48541579509E+03  0.48541579512E+03  0.50400001928E-02 0. -1.
    10030    2    1    2    0    0  0.00000000000E+00  0.00000000000E+00  0.25842137163E+02  0.99667372740E+03  0.99633864867E+03 0.  0.
        5    1    3    3  502    0  0.32507077591E+03 -0.58356188464E+02  0.38597293015E+03  0.50800949488E+03  0.46999998093E+01 0.  1.
       -5    1    3    3    0  502 -0.32507077591E+03  0.58356188464E+02 -0.36013079299E+03  0.48866423252E+03  0.46999998093E+01 0. -1.
</event>
<event>
 5   0  0.2277570E-03  0.9970003E+03  0.7818609E-02  0.9311841E-01
        2   -1    0    0  501    0  0.00000000000E+00  0.00000000000E+00  0.53559197899E+03  0.53559197900E+03  0.25500000920E-02 0.  1.
       -2   -1    0    0    0  501  0.00000000000E+00  0.00000000000E+00 -0.46397711027E+03  0.46397711028E+03  0.25500000920E-02 0. -1.
    10030    2    1    2    0    0  0.00000000000E+00  0.00000000000E+00  0.71614868718E+02  0.99956908928E+03  0.99700033842E+03 0.  0.
        3    1    3    3  502    0 -0.15410999699E+03 -0.35589429841E+03  0.34981042746E+03  0.52228152196E+03  0.10100000352E+00 0.  1.
       -3    1    3    3    0  502  0.15410999699E+03  0.35589429841E+03 -0.27819555874E+03  0.47728756732E+03  0.10100000352E+00 0. -1.
</event>
<event>
 5   0  0.1285769E-03  0.1001693E+04  0.7818609E-02  0.9306690E-01
       -1   -1    0    0    0  501  0.00000000000E+00  0.00000000000E+00  0.49147337518E+03  0.49147337521E+03  0.50400001928E-02 0.  1.
        1   -1    0    0  501    0  0.00000000000E+00  0.00000000000E+00 -0.51039811155E+03  0.51039811158E+03  0.50400001928E-02 0. -1.
    10030    2    1    2    0    0  0.00000000000E+00  0.00000000000E+00 -0.18924736371E+02  0.10018714868E+04  0.10016927325E+04 0.  0.
        5    1    3    3  502    0  0.11676858169E+03 -0.27591814854E+03 -0.41085588349E+03  0.50851782010E+03  0.46999998093E+01 0. -1.
       -5    1    3    3    0  502 -0.11676858169E+03  0.27591814854E+03  0.39193114711E+03  0.49335366669E+03  0.46999998093E+01 0.  1.
</event>
<event>
 5   0  0.1285769E-03  0.9999239E+03  0.7818609E-02  0.9308628E-01
        1   -1    0    0  501    0  0.00000000000E+00  0.00000000000E+00  0.84077821300E+03  0.84077821301E+03  0.50400001928E-02 0.  1.
       -1   -1    0    0    0  501  0.00000000000E+00  0.00000000000E+00 -0.29729831617E+03  0.29729831621E+03  0.50400001928E-02 0. -1.
    10030    2    1    2    0    0  0.00000000000E+00  0.00000000000E+00  0.54347989683E+03  0.11380765292E+04  0.99992389116E+03 0.  0.
        5    1    3    3  502    0 -0.47879496916E+02 -0.30855216252E+03 -0.17264386138E+03  0.35682611464E+03  0.46999998093E+01 0. -1.
       -5    1    3    3    0  502  0.47879496916E+02  0.30855216252E+03  0.71612375821E+03  0.78125041458E+03  0.46999998093E+01 0.  1.
</event>
<event>
 5   0  0.2277570E-03  0.1006513E+04  0.7818609E-02  0.9301430E-01
        2   -1    0    0  501    0  0.00000000000E+00  0.00000000000E+00  0.96627392034E+03  0.96627392034E+03  0.25500000920E-02 0.  1.
       -2   -1    0    0    0  501  0.00000000000E+00  0.00000000000E+00 -0.26210707406E+03  0.26210707407E+03  0.25500000920E-02 0. -1.
    10030    2    1    2    0    0  0.00000000000E+00  0.00000000000E+00  0.70416684627E+03  0.12283809944E+04  0.10065132488E+04 0.  0.
        3    1    3    3  502    0  0.49357902753E+03 -0.80823290387E+02  0.42019358028E+03  0.65323450291E+03  0.10100000352E+00 0. -1.
       -3    1    3    3    0  502 -0.49357902753E+03  0.80823290387E+02  0.28397326599E+03  0.57514649150E+03  0.10100000352E+00 0.  1.
</event>
<event>
 5   0  0.2204862E-03  0.1001393E+04  0.7818609E-02  0.9307019E-01
        2   -1    0    0  501    0  0.00000000000E+00  0.00000000000E+00  0.86983698666E+03  0.86983698666E+03  0.25500000920E-02 0.  1.
       -2   -1    0    0    0  501  0.00000000000E+00  0.00000000000E+00 -0.28821129972E+03  0.28821129973E+03  0.25500000920E-02 0. -1.
    10030    2    1    2    0    0  0.00000000000E+00  0.00000000000E+00  0.58162568694E+03  0.11580482864E+04  0.10013927271E+04 0.  0.
        1    1    3    3  502    0 -0.17879394279E+03  0.16088172649E+03  0.79865444977E+03  0.83408580737E+03  0.50400001928E-02 0.  1.
       -1    1    3    3    0  502  0.17879394279E+03 -0.16088172649E+03 -0.21702876283E+03  0.32396247902E+03  0.50400001928E-02 0. -1.
</event>
<event>
 5   0  0.2255142E-03  0.9998037E+03  0.7818609E-02  0.9308760E-01
        2   -1    0    0  501    0  0.00000000000E+00  0.00000000000E+00  0.64332174964E+03  0.64332174964E+03  0.25500000920E-02 0. -1.
       -2   -1    0    0    0  501  0.00000000000E+00  0.00000000000E+00 -0.38845546514E+03  0.38845546515E+03  0.25500000920E-02 0.  1.
    10030    2    1    2    0    0  0.00000000000E+00  0.00000000000E+00  0.25486628449E+03  0.10317772148E+04  0.99980367973E+03 0.  0.
        4    1    3    3  502    0 -0.17775846796E+03  0.22865706991E+03  0.54791661682E+03  0.61975508101E+03  0.12699999809E+01 0. -1.
       -4    1    3    3    0  502  0.17775846796E+03 -0.22865706991E+03 -0.29305033232E+03  0.41202213379E+03  0.12699999809E+01 0.  1.
</event>
<event>
 5   0  0.1249195E-03  0.1001060E+04  0.7818609E-02  0.9307383E-01
       -1   -1    0    0    0  501  0.00000000000E+00  0.00000000000E+00  0.20658306035E+03  0.20658306041E+03  0.50400001928E-02 0.  1.
        1   -1    0    0  501    0  0.00000000000E+00  0.00000000000E+00 -0.12127339600E+04  0.12127339600E+04  0.50400001928E-02 0. -1.
    10030    2    1    2    0    0  0.00000000000E+00  0.00000000000E+00 -0.10061508997E+04  0.14193170204E+04  0.10010600240E+04 0.  0.
        2    1    3    3  502    0  0.46184925002E+03 -0.10974028990E+03 -0.72806888735E+03  0.86915589263E+03  0.25500000920E-02 0.  1.
       -2    1    3    3    0  502 -0.46184925002E+03  0.10974028990E+03 -0.27808201233E+03  0.55016112781E+03  0.25500000920E-02 0. -1.
</event>
<event>
 5   0  0.2264577E-03  0.1001987E+04  0.7818609E-02  0.9306368E-01
       -2   -1    0    0    0  501  0.00000000000E+00  0.00000000000E+00  0.27091101204E+03  0.27091101205E+03  0.25500000920E-02 0. -1.
        2   -1    0    0  501    0  0.00000000000E+00  0.00000000000E+00 -0.92648320490E+03  0.92648320490E+03  0.25500000920E-02 0.  1.
    10030    2    1    2    0    0  0.00000000000E+00  0.00000000000E+00 -0.65557219286E+03  0.11973942170E+04  0.10019870312E+04 0.  0.
        5    1    3    3  502    0 -0.81321008604E+02  0.53234091420E+02 -0.91508135520E+03  0.92024070306E+03  0.46999998093E+01 0.  1.
       -5    1    3    3    0  502  0.81321008604E+02 -0.53234091420E+02  0.25950916234E+03  0.27715351390E+03  0.46999998093E+01 0. -1.
</event>
<event>
 5   0  0.1293575E-03  0.9996021E+03  0.7818609E-02  0.9308981E-01
        1   -1    0    0  501    0  0.00000000000E+00  0.00000000000E+00  0.46941948667E+03  0.46941948670E+03  0.50400001928E-02 0.  1.
       -1   -1    0    0    0  501  0.00000000000E+00  0.00000000000E+00 -0.53214898743E+03  0.53214898746E+03  0.50400001928E-02 0. -1.
    10030    2    1    2    0    0  0.00000000000E+00  0.00000000000E+00 -0.62729500761E+02  0.10015684742E+04  0.99960212993E+03 0.  0.
        4    1    3    3  502    0  0.46941854194E+03 -0.60256505042E+02 -0.19235089852E+03  0.51086700322E+03  0.12699999809E+01 0.  1.
       -4    1    3    3    0  502 -0.46941854194E+03  0.60256505042E+02  0.12962139776E+03  0.49070147093E+03  0.12699999809E+01 0. -1.
</event>
<event>
 5   0  0.2204862E-03  0.1004855E+04  0.7818609E-02  0.9303236E-01
       -2   -1    0    0    0  501  0.00000000000E+00  0.00000000000E+00  0.19318988883E+03  0.19318988884E+03  0.25500000920E-02 0. -1.
        2   -1    0    0  501    0  0.00000000000E+00  0.00000000000E+00 -0.13066582231E+04  0.13066582231E+04  0.25500000920E-02 0.  1.
    10030    2    1    2    0    0  0.00000000000E+00  0.00000000000E+00 -0.11134683343E+04  0.14998481119E+04  0.10048545305E+04 0.  0.
        1    1    3    3  502    0 -0.10686571111E+03 -0.23835400867E+02  0.17516581327E+03  0.20657073536E+03  0.50400001928E-02 0. -1.
       -1    1    3    3    0  502  0.10686571111E+03  0.23835400867E+02 -0.12886341475E+04  0.12932773766E+04  0.50400001928E-02 0.  1.
</event>
<event>
 5   0  0.8680125E-04  0.1008152E+04  0.7818609E-02  0.9299648E-01
       -4   -1    0    0    0  501  0.00000000000E+00  0.00000000000E+00  0.89745633858E+03  0.89745723717E+03  0.12699999809E+01 0. -1.
        4   -1    0    0  501    0  0.00000000000E+00  0.00000000000E+00 -0.28312312409E+03  0.28312597248E+03  0.12699999809E+01 0.  1.
    10030    2    1    2    0    0  0.00000000000E+00  0.00000000000E+00  0.61433321449E+03  0.11805832097E+04  0.10081524768E+04 0.  0.
        2    1    3    3  502    0 -0.19421046115E+03  0.33498101303E+03  0.68511008362E+03  0.78695985222E+03  0.25500000920E-02 0. -1.
       -2    1    3    3    0  502  0.19421046115E+03 -0.33498101303E+03 -0.70776869129E+02  0.39362335744E+03  0.25500000920E-02 0.  1.
</event>
<event>
 5   0  0.2284843E-03  0.1002501E+04  0.7818609E-02  0.9305806E-01
        2   -1    0    0  501    0  0.00000000000E+00  0.00000000000E+00  0.41098348580E+03  0.41098348581E+03  0.25500000920E-02 0. -1.
       -2   -1    0    0    0  501  0.00000000000E+00  0.00000000000E+00 -0.61134395814E+03  0.61134395815E+03  0.25500000920E-02 0.  1.
    10030    2    1    2    0    0  0.00000000000E+00  0.00000000000E+00 -0.20036047234E+03  0.10223274440E+04  0.10025014134E+04 0.  0.
        2    1    3    3  502    0  0.41656142408E+03 -0.69155830634E+02 -0.37560737177E+03  0.56514320899E+03  0.25500000920E-02 0.  1.
       -2    1    3    3    0  502 -0.41656142408E+03  0.69155830634E+02  0.17524689943E+03  0.45718423497E+03  0.25500000920E-02 0. -1.
</event>
<event>
 5   0  0.1353789E-03  0.9928257E+03  0.7818609E-02  0.9316449E-01
        1   -1    0    0  501    0  0.00000000000E+00  0.00000000000E+00  0.12664880896E+04  0.12664880896E+04  0.50400001928E-02 0.  1.
       -1   -1    0    0    0  501  0.00000000000E+00  0.00000000000E+00 -0.19457405642E+03  0.19457405649E+03  0.50400001928E-02 0. -1.
    10030    2    1    2    0    0  0.00000000000E+00  0.00000000000E+00  0.10719140332E+04  0.14610621461E+04  0.99282571494E+03 0.  0.
        1    1    3    3  502    0  0.70766503452E+02 -0.46839942854E+03  0.31758228702E+03  0.57031958736E+03  0.50400001928E-02 0. -1.
       -1    1    3    3    0  502 -0.70766503452E+02  0.46839942854E+03  0.75433174615E+03  0.89074255873E+03  0.50400001928E-02 0.  1.
</event>
<event>
 5   0  0.1293575E-03  0.9973114E+03  0.7818609E-02  0.9311499E-01
       -1   -1    0    0    0  501  0.00000000000E+00  0.00000000000E+00  0.48495220588E+03  0.48495220591E+03  0.50400001928E-02 0. -1.
        1   -1    0    0  501    0  0.00000000000E+00  0.00000000000E+00 -0.51274643879E+03  0.51274643881E+03  0.50400001928E-02 0.  1.
    10030    2    1    2    0    0  0.00000000000E+00  0.00000000000E+00 -0.27794232911E+02  0.99769864472E+03  0.99731141891E+03 0.  0.
        4    1    3    3  502    0 -0.18378851627E+03  0.32951636503E+03  0.31226114222E+03  0.48976309311E+03  0.12699999809E+01 0. -1.
       -4    1    3    3    0  502  0.18378851627E+03 -0.32951636503E+03 -0.34005537513E+03  0.50793555161E+03  0.12699999809E+01 0.  1.
</event>
<event>
 5   0  0.2284843E-03  0.9999812E+03  0.7818609E-02  0.9308565E-01
        2   -1    0    0  501    0  0.00000000000E+00  0.00000000000E+00  0.72538508900E+03  0.72538508901E+03  0.25500000920E-02 0. -1.
       -2   -1    0    0    0  501  0.00000000000E+00  0.00000000000E+00 -0.34463154015E+03  0.34463154016E+03  0.25500000920E-02 0.  1.
    10030    2    1    2    0    0  0.00000000000E+00  0.00000000000E+00  0.38075354885E+03  0.10700166292E+04  0.99998116069E+03 0.  0.
        2    1    3    3  502    0 -0.24146391796E+03  0.24129388593E+02  0.65814752583E+03  0.70145934795E+03  0.25500000920E-02 0. -1.
       -2    1    3    3    0  502  0.24146391796E+03 -0.24129388593E+02 -0.27739397698E+03  0.36855728122E+03  0.25500000920E-02 0.  1.
</event>
<event>
 5   0  0.2264577E-03  0.9961788E+03  0.7818609E-02  0.9312746E-01
       -2   -1    0    0    0  501  0.00000000000E+00  0.00000000000E+00  0.47183253961E+03  0.47183253961E+03  0.25500000920E-02 0.  1.
        2   -1    0    0  501    0  0.00000000000E+00  0.00000000000E+00 -0.52580743714E+03  0.52580743715E+03  0.25500000920E-02 0. -1.
    10030    2    1    2    0    0  0.00000000000E+00  0.00000000000E+00 -0.53974897535E+02  0.99763997676E+03  0.99617881611E+03 0.  0.
        5    1    3    3  502    0  0.22033879868E+03 -0.96094528171E+02 -0.46384697753E+03  0.52245521637E+03  0.46999998093E+01 0. -1.
       -5    1    3    3    0  502 -0.22033879868E+03  0.96094528171E+02  0.40987208000E+03  0.47518476039E+03  0.46999998093E+01 0.  1.
</event>
<event>
 5   0  0.1293575E-03  0.1002782E+04  0.7818609E-02  0.9305498E-01
        1   -1    0    0  501    0  0.00000000000E+00  0.00000000000E+00  0.13853614882E+04  0.13853614882E+04  0.50400001928E-02 0.  1.
       -1   -1    0    0    0  501  0.00000000000E+00  0.00000000000E+00 -0.18146393116E+03  0.18146393123E+03  0.50400001928E-02 0. -1.
    10030    2    1    2    0    0  0.00000000000E+00  0.00000000000E+00  0.12038975571E+04  0.15668254195E+04  0.10027824127E+04 0.  0.
        4    1    3    3  502    0 -0.82350571994E+02  0.46847342701E+03  0.35419593311E+03  0.59304750270E+03  0.12699999809E+01 0. -1.
       -4    1    3    3    0  502  0.82350571994E+02 -0.46847342701E+03  0.84970162397E+03  0.97377791677E+03  0.12699999809E+01 0.  1.
</event>
<event>
 5   0  0.1249195E-03  0.1000008E+04  0.7818609E-02  0.9308536E-01
       -1   -1    0    0    0  501  0.00000000000E+00  0.00000000000E+00  0.76012436064E+03  0.76012436066E+03  0.50400001928E-02 0.  1.
        1   -1    0    0  501    0  0.00000000000E+00  0.00000000000E+00 -0.32889904665E+03  0.32889904669E+03  0.50400001928E-02 0. -1.
    10030    2    1    2    0    0  0.00000000000E+00  0.00000000000E+00  0.43122531399E+03  0.10890234073E+04  0.10000083551E+04 0.  0.
        2    1    3    3  502    0  0.23321151717E+02  0.70447303775E+02  0.75409414615E+03  0.75773655051E+03  0.25500000920E-02 0.  1.
       -2    1    3    3    0  502 -0.23321151717E+02 -0.70447303775E+02 -0.32286883216E+03  0.33128685683E+03  0.25500000920E-02 0. -1.
</event>
<event>
 5   0  0.8680125E-04  0.9987119E+03  0.7818609E-02  0.9309959E-01
        3   -1    0    0  501    0  0.00000000000E+00  0.00000000000E+00  0.44265152719E+03  0.44265153872E+03  0.10100000352E+00 0.  1.
       -3   -1    0    0    0  501  0.00000000000E+00  0.00000000000E+00 -0.56332428996E+03  0.56332429901E+03  0.10100000352E+00 0. -1.
    10030    2    1    2    0    0  0.00000000000E+00  0.00000000000E+00 -0.12067276277E+03  0.10059758377E+04  0.99871190562E+03 0.  0.
        5    1    3    3  502    0 -0.19964150295E+03 -0.25996069742E+03  0.31909691140E+03  0.45747264702E+03  0.46999998093E+01 0.  1.
       -5    1    3    3    0  502  0.19964150295E+03  0.25996069742E+03 -0.43976967417E+03  0.54850319071E+03  0.46999998093E+01 0. -1.
</event>
<event>
 5   0  0.2255142E-03  0.1000735E+04  0.7818609E-02  0.9307739E-01
       -2   -1    0    0    0  501  0.00000000000E+00  0.00000000000E+00  0.26657967143E+03  0.26657967144E+03  0.25500000920E-02 0.  1.
        2   -1    0    0  501    0  0.00000000000E+00  0.00000000000E+00 -0.93918476581E+03  0.93918476582E+03  0.25500000920E-02 0. -1.
    10030    2    1    2    0    0  0.00000000000E+00  0.00000000000E+00 -0.67260509438E+03  0.12057644373E+04  0.10007348626E+04 0.  0.
        4    1    3    3  502    0 -0.17592201256E+03  0.19852259845E+03  0.17489309752E+03  0.31772470010E+03  0.12699999809E+01 0.  1.
       -4    1    3    3    0  502  0.17592201256E+03 -0.19852259845E+03 -0.84749819190E+03  0.88803973716E+03  0.12699999809E+01 0. -1.
</event>
<event>
 5   0  0.1285769E-03  0.1026705E+04  0.7818609E-02  0.9279731E-01
       -1   -1    0    0    0  501  0.00000000000E+00  0.00000000000E+00  0.23521183761E+03  0.23521183767E+03  0.50400001928E-02 0.  1.
        1   -1    0    0  501    0  0.00000000000E+00  0.00000000000E+00 -0.11203969806E+04  0.11203969806E+04  0.50400001928E-02 0. -1.
    10030    2    1    2    0    0  0.00000000000E+00  0.00000000000E+00 -0.88518514294E+03  0.13556088182E+04  0.10267046950E+04 0.  0.
        5    1    3    3  502    0 -0.47968901327E+02  0.13454703312E+02  0.23198381676E+03  0.23731967000E+03  0.46999998093E+01 0.  1.
       -5    1    3    3    0  502  0.47968901327E+02 -0.13454703312E+02 -0.11171689597E+04  0.11182891482E+04  0.46999998093E+01 0. -1.
</event>
<event>
 5   0  0.2255142E-03  0.1004936E+04  0.7818609E-02  0.9303148E-01
        2   -1    0    0  501    0  0.00000000000E+00  0.00000000000E+00  0.11079976189E+04  0.11079976190E+04  0.25500000920E-02 0.  1.
       -2   -1    0    0    0  501  0.00000000000E+00  0.00000000000E+00 -0.22786498959E+03  0.22786498961E+03  0.25500000920E-02 0. -1.
    10030    2    1    2    0    0  0.00000000000E+00  0.00000000000E+00  0.88013262935E+03  0.13358626086E+04  0.10049355520E+04 0.  0.
        4    1    3    3  502    0 -0.35143214047E+03  0.29157269780E+03  0.71875425038E+03  0.85154475678E+03  0.12699999809E+01 0.  1.
       -4    1    3    3    0  502  0.35143214047E+03 -0.29157269780E+03  0.16137837897E+03  0.48431785178E+03  0.12699999809E+01 0. -1.
</event>
<event>
 5   0  0.2255142E-03  0.1001750E+04  0.7818609E-02  0.9306628E-01
        2   -1    0    0  501    0  0.00000000000E+00  0.00000000000E+00  0.16680616740E+04  0.16680616740E+04  0.25500000920E-02 0. -1.
       -2   -1    0    0    0  501  0.00000000000E+00  0.00000000000E+00 -0.15039957454E+03  0.15039957456E+03  0.25500000920E-02 0.  1.
    10030    2    1    2    0    0  0.00000000000E+00  0.00000000000E+00  0.15176620995E+04  0.18184612486E+04  0.10017500009E+04 0.  0.
        4    1    3    3  502    0  0.23657679295E+03 -0.14602714554E+03  0.15151354054E+04  0.15404315680E+04  0.12699999809E+01 0. -1.
       -4    1    3    3    0  502 -0.23657679295E+03  0.14602714554E+03  0.25266941126E+01  0.27802968057E+03  0.12699999809E+01 0.  1.
</event>
<event>
 5   0  0.2264577E-03  0.9997860E+03  0.7818609E-02  0.9308779E-01
        2   -1    0    0  501    0  0.00000000000E+00  0.00000000000E+00  0.14143347580E+04  0.14143347580E+04  0.25500000920E-02 0. -1.
       -2   -1    0    0    0  501  0.00000000000E+00  0.00000000000E+00 -0.17668591855E+03  0.17668591857E+03  0.25500000920E-02 0.  1.
    10030    2    1    2    0    0  0.00000000000E+00  0.00000000000E+00  0.12376488394E+04  0.15910206765E+04  0.99978604883E+03 0.  0.
        5    1    3    3  502    0  0.30378221901E+03 -0.15384523599E+03  0.36466784955E+02  0.34249658338E+03  0.46999998093E+01 0.  1.
       -5    1    3    3    0  502 -0.30378221901E+03  0.15384523599E+03  0.12011820545E+04  0.12485240931E+04  0.46999998093E+01 0. -1.
</event>
<event>
 5   0  0.1249195E-03  0.9976838E+03  0.7818609E-02  0.9311089E-01
       -1   -1    0    0    0  501  0.00000000000E+00  0.00000000000E+00  0.24769603009E+03  0.24769603014E+03  0.50400001928E-02 0. -1.
        1   -1    0    0  501    0  0.00000000000E+00  0.00000000000E+00 -0.10046314853E+04  0.10046314853E+04  0.50400001928E-02 0.  1.
    10030    2    1    2    0    0  0.00000000000E+00  0.00000000000E+00 -0.75693545519E+03  0.12523275154E+04  0.99768377885E+03 0.  0.
        2    1    3    3  502    0 -0.24231704439E+02 -0.27318274893E+03 -0.90150657171E+03  0.94230042378E+03  0.25500000920E-02 0.  1.
       -2    1    3    3    0  502  0.24231704439E+02  0.27318274893E+03  0.14457111653E+03  0.31002709165E+03  0.25500000920E-02 0. -1.
</event>
<event>
 5   0  0.1293575E-03  0.9994749E+03  0.7818609E-02  0.9309121E-01
        1   -1    0    0  501    0  0.00000000000E+00  0.00000000000E+00  0.10032714919E+04  0.10032714919E+04  0.50400001928E-02 0.  1.
       -1   -1    0    0    0  501  0.00000000000E+00  0.00000000000E+00 -0.24892316436E+03  0.24892316441E+03  0.50400001928E-02 0. -1.
    10030    2    1    2    0    0  0.00000000000E+00  0.00000000000E+00  0.75434832749E+03  0.12521946563E+04  0.99947489114E+03 0.  0.
        4    1    3    3  502    0 -0.46442984337E+02 -0.33770461775E+03  0.83499627988E+03  0.90189897436E+03  0.12699999809E+01 0.  1.
       -4    1    3    3    0  502  0.46442984337E+02  0.33770461775E+03 -0.80647952383E+02  0.35029568191E+03  0.12699999809E+01 0. -1.
</event>
<event>
 5   0  0.1285769E-03  0.1005063E+04  0.7818609E-02  0.9303009E-01
        1   -1    0    0  501    0  0.00000000000E+00  0.00000000000E+00  0.70246935934E+03  0.70246935936E+03  0.50400001928E-02 0.  1.
       -1   -1    0    0    0  501  0.00000000000E+00  0.00000000000E+00 -0.35950051509E+03  0.35950051512E+03  0.50400001928E-02 0. -1.
    10030    2    1    2    0    0  0.00000000000E+00  0.00000000000E+00  0.34296884425E+03  0.10619698745E+04  0.10050633742E+04 0.  0.
        5    1    3    3  502    0 -0.22692159932E+03 -0.11302017061E+03 -0.28695834971E+03  0.38292839497E+03  0.46999998093E+01 0. -1.
       -5    1    3    3    0  502  0.22692159932E+03  0.11302017061E+03  0.62992719396E+03  0.67904147951E+03  0.46999998093E+01 0.  1.
</event>
<event>
 5   0  0.2204862E-03  0.1000528E+04  0.7818609E-02  0.9307966E-01
       -2   -1    0    0    0  501  0.00000000000E+00  0.00000000000E+00  0.21860199447E+03  0.21860199448E+03  0.25500000920E-02 0.  1.
        2   -1    0    0  501    0  0.00000000000E+00  0.00000000000E+00 -0.11448380352E+04  0.11448380352E+04  0.25500000920E-02 0. -1.
    10030    2    1    2    0    0  0.00000000000E+00  0.00000000000E+00 -0.92623604068E+03  0.13634400296E+04  0.10005276165E+04 0.  0.
        1    1    3    3  502    0 -0.11936184344E+03 -0.19496017997E+03 -0.10695015593E+04  0.10936591365E+04  0.50400001928E-02 0. -1.
       -1    1    3    3    0  502  0.11936184344E+03  0.19496017997E+03  0.14326551864E+03  0.26978089313E+03  0.50400001928E-02 0.  1.
</event>
<event>
 5   0  0.2264577E-03  0.1015567E+04  0.7818609E-02  0.9291634E-01
       -2   -1    0    0    0  501  0.00000000000E+00  0.00000000000E+00  0.19077040197E+03  0.19077040199E+03  0.25500000920E-02 0.  1.
        2   -1    0    0  501    0  0.00000000000E+00  0.00000000000E+00 -0.13515931953E+04  0.13515931953E+04  0.25500000920E-02 0. -1.
    10030    2    1    2    0    0  0.00000000000E+00  0.00000000000E+00 -0.11608227934E+04  0.15423635973E+04  0.10155667919E+04 0.  0.
        5    1    3    3  502    0 -0.18925677451E+03  0.15875790075E+03 -0.12541485225E+04  0.12782538105E+04  0.46999998093E+01 0. -1.
       -5    1    3    3    0  502  0.18925677451E+03 -0.15875790075E+03  0.93325729129E+02  0.26410978676E+03  0.46999998093E+01 0.  1.
</event>
<event>
 5   0  0.2255142E-03  0.9994194E+03  0.7818609E-02  0.9309182E-01
       -2   -1    0    0    0  501  0.00000000000E+00  0.00000000000E+00  0.12919734861E+03  0.12919734863E+03  0.25500000920E-02 0. -1.
        2   -1    0    0  501    0  0.00000000000E+00  0.00000000000E+00 -0.19327779040E+04  0.19327779040E+04  0.25500000920E-02 0.  1.
    10030    2    1    2    0    0  0.00000000000E+00  0.00000000000E+00 -0.18035805554E+04  0.20619752527E+04  0.99941939280E+03 0.  0.
        4    1    3    3  502    0  0.38139070562E+03  0.16130725819E+03 -0.14788493907E+04  0.15357330612E+04  0.12699999809E+01 0.  1.
       -4    1    3    3    0  502 -0.38139070562E+03 -0.16130725819E+03 -0.32473116474E+03  0.52624219152E+03  0.12699999809E+01 0. -1.
</event>
<event>
 5   0  0.1285769E-03  0.9789701E+03  0.7818609E-02  0.9331916E-01
       -1   -1    0    0    0  501  0.00000000000E+00  0.00000000000E+00  0.31014679132E+03  0.31014679136E+03  0.50400001928E-02 0.  1.
        1   -1    0    0  501    0  0.00000000000E+00  0.00000000000E+00 -0.77252319792E+03  0.77252319794E+03  0.50400001928E-02 0. -1.
    10030    2    1    2    0    0  0.00000000000E+00  0.00000000000E+00 -0.46237640661E+03  0.10826699893E+04  0.97897005283E+03 0.  0.
        5    1    3    3  502    0  0.10606427487E+03 -0.42387492579E+03 -0.47512965345E+03  0.64551519014E+03  0.46999998093E+01 0. -1.
       -5    1    3    3    0  502 -0.10606427487E+03  0.42387492579E+03  0.12753246840E+02  0.43715479915E+03  0.46999998093E+01 0.  1.
</event>
<event>
 5   0  0.1353789E-03  0.1000995E+04  0.7818609E-02  0.9307455E-01
        1   -1    0    0  501    0  0.00000000000E+00  0.00000000000E+00  0.14140243516E+04  0.14140243516E+04  0.50400001928E-02 0. -1.
       -1   -1    0    0    0  501  0.00000000000E+00  0.00000000000E+00 -0.17715224281E+03  0.17715224288E+03  0.50400001928E-02 0.  1.
    10030    2    1    2    0    0  0.00000000000E+00  0.00000000000E+00  0.12368721088E+04  0.15911765944E+04  0.10009946760E+04 0.  0.
        1    1    3    3  502    0  0.38516190131E+03 -0.28164848355E+03  0.85857561946E+03  0.98225640892E+03  0.50400001928E-02 0. -1.
       -1    1    3    3    0  502 -0.38516190131E+03  0.28164848355E+03  0.37829648930E+03  0.60892018553E+03  0.50400001928E-02 0.  1.
</event>
<event>
 5   0  0.1249195E-03  0.1003326E+04  0.7818609E-02  0.9304905E-01
        1   -1    0    0  501    0  0.00000000000E+00  0.00000000000E+00  0.68677907780E+03  0.68677907782E+03  0.50400001928E-02 0.  1.
       -1   -1    0    0    0  501  0.00000000000E+00  0.00000000000E+00 -0.36644335537E+03  0.36644335541E+03  0.50400001928E-02 0. -1.
    10030    2    1    2    0    0  0.00000000000E+00  0.00000000000E+00  0.32033572243E+03  0.10532224332E+04  0.10033257292E+04 0.  0.
        2    1    3    3  502    0  0.22366210834E+02  0.32938261361E+03  0.55667248013E+03  0.64720738846E+03  0.25500000920E-02 0.  1.
       -2    1    3    3    0  502 -0.22366210834E+02 -0.32938261361E+03 -0.23633675770E+03  0.40601504477E+03  0.25500000920E-02 0. -1.
</event>
<event>
 5   0  0.1249195E-03  0.9980537E+03  0.7818609E-02  0.9310682E-01
        1   -1    0    0  501    0  0.00000000000E+00  0.00000000000E+00  0.53871147501E+03  0.53871147503E+03  0.50400001928E-02 0.  1.
       -1   -1    0    0    0  501  0.00000000000E+00  0.00000000000E+00 -0.46226561480E+03  0.46226561482E+03  0.50400001928E-02 0. -1.
    10030    2    1    2    0    0  0.00000000000E+00  0.00000000000E+00  0.76445860211E+02  0.10009770899E+04  0.99805368837E+03 0.  0.
        2    1    3    3  502    0 -0.28951153702E+03  0.31344869718E+03 -0.22130282934E+03  0.48066824122E+03  0.25500000920E-02 0. -1.
       -2    1    3    3    0  502  0.28951153702E+03 -0.31344869718E+03  0.29774868955E+03  0.52030884864E+03  0.25500000920E-02 0.  1.
</event>
<event>
 5   0  0.1293716E-03  0.1000602E+04  0.7818609E-02  0.9307885E-01
       -1   -1    0    0    0  501  0.00000000000E+00  0.00000000000E+00  0.98477438108E+02  0.98477438237E+02  0.50400001928E-02 0. -1.
        1   -1    0    0  501    0  0.00000000000E+00  0.00000000000E+00 -0.25417078712E+04  0.25417078712E+04  0.50400001928E-02 0.  1.
    10030    2    1    2    0    0  0.00000000000E+00  0.00000000000E+00 -0.24432304331E+04  0.26401853094E+04  0.10006015786E+04 0.  0.
        3    1    3    3  502    0  0.17508812965E+03 -0.44662267814E+03 -0.15963815944E+04  0.16669018792E+04  0.10100000352E+00 0.  1.
       -3    1    3    3    0  502 -0.17508812965E+03  0.44662267814E+03 -0.84684883872E+03  0.97328343026E+03  0.10100000352E+00 0. -1.
</event>
<event>
 5   0  0.2204862E-03  0.1000562E+04  0.7818609E-02  0.9307929E-01
        2   -1    0    0  501    0  0.00000000000E+00  0.00000000000E+00  0.11111915183E+04  0.11111915183E+04  0.25500000920E-02 0. -1.
       -2   -1    0    0    0  501  0.00000000000E+00  0.00000000000E+00 -0.22523669831E+03  0.22523669832E+03  0.25500000920E-02 0.  1.
    10030    2    1    2    0    0  0.00000000000E+00  0.00000000000E+00  0.88595481996E+03  0.13364282166E+04  0.10005620596E+04 0.  0.
        1    1    3    3  502    0 -0.28719363721E+03  0.35118099654E+03  0.16130196145E+03  0.48148374883E+03  0.50400001928E-02 0.  1.
       -1    1    3    3    0  502  0.28719363721E+03 -0.35118099654E+03  0.72465285850E+03  0.85494446776E+03  0.50400001928E-02 0. -1.
</event>
<event>
 5   0  0.1249195E-03  0.1002827E+04  0.7818609E-02  0.9305450E-01
       -1   -1    0    0    0  501  0.00000000000E+00  0.00000000000E+00  0.70975773903E+03  0.70975773905E+03  0.50400001928E-02 0.  1.
        1   -1    0    0  501    0  0.00000000000E+00  0.00000000000E+00 -0.35422726630E+03  0.35422726634E+03  0.50400001928E-02 0. -1.
    10030    2    1    2    0    0  0.00000000000E+00  0.00000000000E+00  0.35553047273E+03  0.10639850054E+04  0.10028270911E+04 0.  0.
        2    1    3    3  502    0  0.59311442139E+02  0.12689140897E+03 -0.33304861870E+03  0.36130410911E+03  0.25500000920E-02 0. -1.
       -2    1    3    3    0  502 -0.59311442139E+02 -0.12689140897E+03  0.68857909142E+03  0.70268089628E+03  0.25500000920E-02 0.  1.
</event>
<event>
 5   0  0.1293575E-03  0.9891613E+03  0.7818609E-02  0.9320513E-01
        1   -1    0    0  501    0  0.00000000000E+00  0.00000000000E+00  0.10003620573E+04  0.10003620573E+04  0.50400001928E-02 0. -1.
       -1   -1    0    0    0  501  0.00000000000E+00  0.00000000000E+00 -0.24452146829E+03  0.24452146834E+03  0.50400001928E-02 0.  1.
    10030    2    1    2    0    0  0.00000000000E+00  0.00000000000E+00  0.75584058900E+03  0.12448835256E+04  0.98916125907E+03 0.  0.
        4    1    3    3  502    0  0.40378956724E+03  0.48173377784E+02  0.23646926955E+02  0.40734196812E+03  0.12699999809E+01 0.  1.
       -4    1    3    3    0  502 -0.40378956724E+03 -0.48173377784E+02  0.73219366205E+03  0.83754155752E+03  0.12699999809E+01 0. -1.
</event>
<event>
 5   0  0.2255142E-03  0.1004834E+04  0.7818609E-02  0.9303258E-01
       -2   -1    0    0    0  501  0.00000000000E+00  0.00000000000E+00  0.11569721242E+03  0.11569721245E+03  0.25500000920E-02 0. -1.
        2   -1    0    0  501    0  0.00000000000E+00  0.00000000000E+00 -0.21817557627E+04  0.21817557627E+04  0.25500000920E-02 0.  1.
    10030    2    1    2    0    0  0.00000000000E+00  0.00000000000E+00 -0.20660585502E+04  0.22974529751E+04  0.10048344340E+04 0.  0.
        4    1    3    3  502    0 -0.13615765210E+03 -0.37418291526E+03 -0.17335400278E+04  0.17786833336E+04  0.12699999809E+01 0.  1.
       -4    1    3    3    0  502  0.13615765210E+03  0.37418291526E+03 -0.33251852242E+03  0.51876964151E+03  0.12699999809E+01 0. -1.
</event>
<event>
 5   0  0.1285769E-03  0.9789949E+03  0.7818609E-02  0.9331888E-01
       -1   -1    0    0    0  501  0.00000000000E+00  0.00000000000E+00  0.29316360033E+03  0.29316360037E+03  0.50400001928E-02 0.  1.
        1   -1    0    0  501    0  0.00000000000E+00  0.00000000000E+00 -0.81731760533E+03  0.81731760534E+03  0.50400001928E-02 0. -1.
    10030    2    1    2    0    0  0.00000000000E+00  0.00000000000E+00 -0.52415400500E+03  0.11104812057E+04  0.97899493732E+03 0.  0.
        5    1    3    3  502    0  0.61170080669E+02  0.47833691248E+03 -0.16691881108E+03  0.51032534731E+03  0.46999998093E+01 0.  1.
       -5    1    3    3    0  502 -0.61170080669E+02 -0.47833691248E+03 -0.35723519391E+03  0.60015585841E+03  0.46999998093E+01 0. -1.
</event>
<event>
 5   0  0.1285769E-03  0.1009357E+04  0.7818609E-02  0.9298342E-01
        1   -1    0    0  501    0  0.00000000000E+00  0.00000000000E+00  0.83365395432E+03  0.83365395434E+03  0.50400001928E-02 0.  1.
       -1   -1    0    0    0  501  0.00000000000E+00  0.00000000000E+00 -0.30552263516E+03  0.30552263521E+03  0.50400001928E-02 0. -1.
    10030    2    1    2    0    0  0.00000000000E+00  0.00000000000E+00  0.52813131916E+03  0.11391765895E+04  0.10093565336E+04 0.  0.
        5    1    3    3  502    0 -0.45790407673E+03  0.59876201413E+02  0.49375165379E+03  0.67607254684E+03  0.46999998093E+01 0.  1.
       -5    1    3    3    0  502  0.45790407673E+03 -0.59876201413E+02  0.34379665370E+02  0.46310404270E+03  0.46999998093E+01 0. -1.
</event>
<event>
 5   0  0.1249195E-03  0.1008091E+04  0.7818609E-02  0.9299715E-01
        1   -1    0    0  501    0  0.00000000000E+00  0.00000000000E+00  0.16377071698E+04  0.16377071698E+04  0.50400001928E-02 0. -1.
       -1   -1    0    0    0  501  0.00000000000E+00  0.00000000000E+00 -0.15513259401E+03  0.15513259409E+03  0.50400001928E-02 0.  1.
    10030    2    1    2    0    0  0.00000000000E+00  0.00000000000E+00  0.14825745757E+04  0.17928397639E+04  0.10080907926E+04 0.  0.
        2    1    3    3  502    0 -0.10920847315E+03  0.39674659679E+03  0.22361634281E+03  0.46833601340E+03  0.25500000920E-02 0.  1.
       -2    1    3    3    0  502  0.10920847315E+03 -0.39674659679E+03  0.12589582329E+04  0.13245037505E+04  0.25500000920E-02 0. -1.
</event>
<event>
 5   0  0.2204862E-03  0.1001988E+04  0.7818609E-02  0.9306367E-01
        2   -1    0    0  501    0  0.00000000000E+00  0.00000000000E+00  0.12129605657E+04  0.12129605657E+04  0.25500000920E-02 0.  1.
       -2   -1    0    0    0  501  0.00000000000E+00  0.00000000000E+00 -0.20692748824E+03  0.20692748825E+03  0.25500000920E-02 0. -1.
    10030    2    1    2    0    0  0.00000000000E+00  0.00000000000E+00  0.10060330775E+04  0.14198880540E+04  0.10019877908E+04 0.  0.
        1    1    3    3  502    0  0.21364549824E+03  0.37374494015E+03  0.86614419322E+03  0.96723081148E+03  0.50400001928E-02 0.  1.
       -1    1    3    3    0  502 -0.21364549824E+03 -0.37374494015E+03  0.13988888424E+03  0.45265724247E+03  0.50400001928E-02 0. -1.
</event>
<event>
 5   0  0.1249195E-03  0.1000236E+04  0.7818609E-02  0.9308286E-01
       -1   -1    0    0    0  501  0.00000000000E+00  0.00000000000E+00  0.45839933551E+03  0.45839933554E+03  0.50400001928E-02 0. -1.
        1   -1    0    0  501    0  0.00000000000E+00  0.00000000000E+00 -0.54563316660E+03  0.54563316663E+03  0.50400001928E-02 0.  1.
    10030    2    1    2    0    0  0.00000000000E+00  0.00000000000E+00 -0.87233831090E+02  0.10040325022E+04  0.10002357343E+04 0.  0.
        2    1    3    3  502    0  0.12059435201E+03 -0.10321584230E+03  0.43244207236E+03  0.46065459272E+03  0.25500000920E-02 0. -1.
       -2    1    3    3    0  502 -0.12059435201E+03  0.10321584230E+03 -0.51967590345E+03  0.54337790945E+03  0.25500000920E-02 0.  1.
</event>
<event>
 5   0  0.2204862E-03  0.1001188E+04  0.7818609E-02  0.9307243E-01
        2   -1    0    0  501    0  0.00000000000E+00  0.00000000000E+00  0.30155728990E+03  0.30155728991E+03  0.25500000920E-02 0.  1.
       -2   -1    0    0    0  501  0.00000000000E+00  0.00000000000E+00 -0.83100095229E+03  0.83100095229E+03  0.25500000920E-02 0. -1.
    10030    2    1    2    0    0  0.00000000000E+00  0.00000000000E+00 -0.52944366239E+03  0.11325582422E+04  0.10011880844E+04 0.  0.
        1    1    3    3  502    0 -0.32673526749E+03 -0.16409188470E+03 -0.65151161969E+03  0.74709401835E+03  0.50400001928E-02 0. -1.
       -1    1    3    3    0  502  0.32673526749E+03  0.16409188470E+03  0.12206795730E+03  0.38546422385E+03  0.50400001928E-02 0.  1.
</event>
<event>
 5   0  0.2277570E-03  0.1002667E+04  0.7818609E-02  0.9305625E-01
       -2   -1    0    0    0  501  0.00000000000E+00  0.00000000000E+00  0.21043628900E+03  0.21043628902E+03  0.25500000920E-02 0.  1.
        2   -1    0    0  501    0  0.00000000000E+00  0.00000000000E+00 -0.11943531866E+04  0.11943531866E+04  0.25500000920E-02 0. -1.
    10030    2    1    2    0    0  0.00000000000E+00  0.00000000000E+00 -0.98391689756E+03  0.14047894756E+04  0.10026669484E+04 0.  0.
        3    1    3    3  502    0  0.14698290961E+02  0.43344669060E+03 -0.13961893008E+03  0.45561554977E+03  0.10100000352E+00 0.  1.
       -3    1    3    3    0  502 -0.14698290961E+02 -0.43344669060E+03 -0.84429796748E+03  0.94917392582E+03  0.10100000352E+00 0. -1.
</event>
<event>
 5   0  0.2277570E-03  0.1000924E+04  0.7818609E-02  0.9307532E-01
       -2   -1    0    0    0  501  0.00000000000E+00  0.00000000000E+00  0.24292499566E+03  0.24292499567E+03  0.25500000920E-02 0. -1.
        2   -1    0    0  501    0  0.00000000000E+00  0.00000000000E+00 -0.10310259540E+04  0.10310259540E+04  0.25500000920E-02 0.  1.
    10030    2    1    2    0    0  0.00000000000E+00  0.00000000000E+00 -0.78810095838E+03  0.12739509497E+04  0.10009235244E+04 0.  0.
        3    1    3    3  502    0  0.75827616689E+02  0.36730934075E+03 -0.81579072025E+03  0.89787554188E+03  0.10100000352E+00 0.  1.
       -3    1    3    3    0  502 -0.75827616689E+02 -0.36730934075E+03  0.27689761874E+02  0.37607540783E+03  0.10100000352E+00 0. -1.
</event>
<event>
 5   0  0.1353789E-03  0.1004004E+04  0.7818609E-02  0.9304164E-01
       -1   -1    0    0    0  501  0.00000000000E+00  0.00000000000E+00  0.14957153337E+03  0.14957153345E+03  0.50400001928E-02 0.  1.
        1   -1    0    0  501    0  0.00000000000E+00  0.00000000000E+00 -0.16848528590E+04  0.16848528590E+04  0.50400001928E-02 0. -1.
    10030    2    1    2    0    0  0.00000000000E+00  0.00000000000E+00 -0.15352813256E+04  0.18344243925E+04  0.10040040353E+04 0.  0.
        1    1    3    3  502    0 -0.34922938763E+03 -0.35738040899E+03 -0.85572366644E+03  0.99093133730E+03  0.50400001928E-02 0.  1.
       -1    1    3    3    0  502  0.34922938763E+03  0.35738040899E+03 -0.67955765920E+03  0.84349305516E+03  0.50400001928E-02 0. -1.
</event>
<event>
 5   0  0.1285769E-03  0.1000357E+04  0.7818609E-02  0.9308153E-01
       -1   -1    0    0    0  501  0.00000000000E+00  0.00000000000E+00  0.23312084968E+03  0.23312084973E+03  0.50400001928E-02 0. -1.
        1   -1    0    0  501    0  0.00000000000E+00  0.00000000000E+00 -0.10731713468E+04  0.10731713468E+04  0.50400001928E-02 0.  1.
    10030    2    1    2    0    0  0.00000000000E+00  0.00000000000E+00 -0.84005049714E+03  0.13062921966E+04  0.10003571687E+04 0.  0.
        5    1    3    3  502    0 -0.57983212513E+02 -0.45571515418E+03 -0.67829557854E+03  0.81923460410E+03  0.46999998093E+01 0.  1.
       -5    1    3    3    0  502  0.57983212513E+02  0.45571515418E+03 -0.16175491860E+03  0.48705759246E+03  0.46999998093E+01 0. -1.
</event>
<event>
 5   0  0.2277570E-03  0.1000335E+04  0.7818609E-02  0.9308178E-01
        2   -1    0    0  501    0  0.00000000000E+00  0.00000000000E+00  0.10314306189E+04  0.10314306189E+04  0.25500000920E-02 0.  1.
       -2   -1    0    0    0  501  0.00000000000E+00  0.00000000000E+00 -0.24254402947E+03  0.24254402948E+03  0.25500000920E-02 0. -1.
    10030    2    1    2    0    0  0.00000000000E+00  0.00000000000E+00  0.78888658946E+03  0.12739746484E+04  0.10003346209E+04 0.  0.
        3    1    3    3  502    0 -0.12329479299E+03  0.75015571409E+02 -0.21545000505E+03  0.25932153172E+03  0.10100000352E+00 0. -1.
       -3    1    3    3    0  502  0.12329479299E+03 -0.75015571409E+02  0.10043365945E+04  0.10146531167E+04  0.10100000352E+00 0.  1.
</event>
<event>
 5   0  0.1285769E-03  0.9999918E+03  0.7818609E-02  0.9308554E-01
       -1   -1    0    0    0  501  0.00000000000E+00  0.00000000000E+00  0.17651908935E+03  0.17651908942E+03  0.50400001928E-02 0.  1.
        1   -1    0    0  501    0  0.00000000000E+00  0.00000000000E+00 -0.14162540978E+04  0.14162540978E+04  0.50400001928E-02 0. -1.
    10030    2    1    2    0    0  0.00000000000E+00  0.00000000000E+00 -0.12397350084E+04  0.15927731872E+04  0.99999176735E+03 0.  0.
        5    1    3    3  502    0 -0.13736360827E+02  0.37832923158E+03 -0.99701201566E+02  0.39151515254E+03  0.46999998093E+01 0.  1.
       -5    1    3    3    0  502  0.13736360827E+02 -0.37832923158E+03 -0.11400338068E+04  0.12012580347E+04  0.46999998093E+01 0. -1.
</event>
<event>
 5   0  0.2284843E-03  0.9966094E+03  0.7818609E-02  0.9312271E-01
       -2   -1    0    0    0  501  0.00000000000E+00  0.00000000000E+00  0.38894247662E+03  0.38894247663E+03  0.25500000920E-02 0. -1.
        2   -1    0    0  501    0  0.00000000000E+00  0.00000000000E+00 -0.63841716622E+03  0.63841716622E+03  0.25500000920E-02 0.  1.
    10030    2    1    2    0    0  0.00000000000E+00  0.00000000000E+00 -0.24947468960E+03  0.10273596429E+04  0.99660935928E+03 0.  0.
        2    1    3    3  502    0 -0.16436214196E+02 -0.23166864362E+03  0.32973645911E+03  0.40331952847E+03  0.25500000920E-02 0. -1.
       -2    1    3    3    0  502  0.16436214196E+02  0.23166864362E+03 -0.57921114870E+03  0.62404011438E+03  0.25500000920E-02 0.  1.
</event>
<event>
 5   0  0.1353789E-03  0.1007590E+04  0.7818609E-02  0.9300259E-01
       -1   -1    0    0    0  501  0.00000000000E+00  0.00000000000E+00  0.47680367130E+03  0.47680367133E+03  0.50400001928E-02 0. -1.
        1   -1    0    0  501    0  0.00000000000E+00  0.00000000000E+00 -0.53231455836E+03  0.53231455838E+03  0.50400001928E-02 0.  1.
    10030    2    1    2    0    0  0.00000000000E+00  0.00000000000E+00 -0.55510887059E+02  0.10091182297E+04  0.10075902654E+04 0.  0.
        1    1    3    3  502    0  0.35141679847E+03 -0.10089524311E+03  0.31937645769E+03  0.48546363209E+03  0.50400001928E-02 0. -1.
       -1    1    3    3    0  502 -0.35141679847E+03  0.10089524311E+03 -0.37488734474E+03  0.52365459762E+03  0.50400001928E-02 0.  1.
</event>
<event>
 5   0  0.1353789E-03  0.9997332E+03  0.7818609E-02  0.9308837E-01
        1   -1    0    0  501    0  0.00000000000E+00  0.00000000000E+00  0.50252423656E+03  0.50252423659E+03  0.50400001928E-02 0. -1.
       -1   -1    0    0    0  501  0.00000000000E+00  0.00000000000E+00 -0.49722303301E+03  0.49722303303E+03  0.50400001928E-02 0.  1.
    10030    2    1    2    0    0  0.00000000000E+00  0.00000000000E+00  0.53012035560E+01  0.99974726962E+03  0.99973321459E+03 0.  0.
        1    1    3    3  502    0 -0.13175015306E+03 -0.43797405133E+03  0.20436425187E+03  0.50094323025E+03  0.50400001928E-02 0. -1.
       -1    1    3    3    0  502  0.13175015306E+03  0.43797405133E+03 -0.19906304831E+03  0.49880403937E+03  0.50400001928E-02 0.  1.
</event>
<event>
 5   0  0.1249195E-03  0.9981427E+03  0.7818609E-02  0.9310584E-01
       -1   -1    0    0    0  501  0.00000000000E+00  0.00000000000E+00  0.20236895882E+03  0.20236895889E+03  0.50400001928E-02 0. -1.
        1   -1    0    0  501    0  0.00000000000E+00  0.00000000000E+00 -0.12307827953E+04  0.12307827953E+04  0.50400001928E-02 0.  1.
    10030    2    1    2    0    0  0.00000000000E+00  0.00000000000E+00 -0.10284138365E+04  0.14331517542E+04  0.99814274106E+03 0.  0.
        2    1    3    3  502    0  0.31819557265E+03  0.36948839222E+03 -0.66685095339E+03  0.82611154724E+03  0.25500000920E-02 0. -1.
       -2    1    3    3    0  502 -0.31819557265E+03 -0.36948839222E+03 -0.36156288312E+03  0.60704020698E+03  0.25500000920E-02 0.  1.
</event>
<event>
 5   0  0.2255142E-03  0.1006173E+04  0.7818609E-02  0.9301800E-01
        2   -1    0    0  501    0  0.00000000000E+00  0.00000000000E+00  0.56060820083E+03  0.56060820083E+03  0.25500000920E-02 0. -1.
       -2   -1    0    0    0  501  0.00000000000E+00  0.00000000000E+00 -0.45146730038E+03  0.45146730039E+03  0.25500000920E-02 0.  1.
    10030    2    1    2    0    0  0.00000000000E+00  0.00000000000E+00  0.10914090044E+03  0.10120755012E+04  0.10061734860E+04 0.  0.
        4    1    3    3  502    0 -0.31173441530E+02  0.55228802184E+02 -0.44742879895E+03  0.45190280711E+03  0.12699999809E+01 0.  1.
       -4    1    3    3    0  502  0.31173441530E+02 -0.55228802184E+02  0.55656969939E+03  0.56017269411E+03  0.12699999809E+01 0. -1.
</event>
<event>
 5   0  0.1293716E-03  0.9993484E+03  0.7818609E-02  0.9309260E-01
        1   -1    0    0  501    0  0.00000000000E+00  0.00000000000E+00  0.45941333700E+03  0.45941333703E+03  0.50400001928E-02 0. -1.
       -1   -1    0    0    0  501  0.00000000000E+00  0.00000000000E+00 -0.54346332129E+03  0.54346332132E+03  0.50400001928E-02 0.  1.
    10030    2    1    2    0    0  0.00000000000E+00  0.00000000000E+00 -0.84049984292E+02  0.10028766583E+04  0.99934838369E+03 0.  0.
        3    1    3    3  502    0  0.38534133078E+03  0.23661781837E+03 -0.25537463568E+03  0.51931892699E+03  0.10100000352E+00 0.  1.
       -3    1    3    3    0  502 -0.38534133078E+03 -0.23661781837E+03  0.17132465139E+03  0.48355773135E+03  0.10100000352E+00 0. -1.
</event>
<event>
 5   0  0.1285769E-03  0.9973338E+03  0.7818609E-02  0.9311474E-01
       -1   -1    0    0    0  501  0.00000000000E+00  0.00000000000E+00  0.26202192565E+03  0.26202192569E+03  0.50400001928E-02 0. -1.
        1   -1    0    0  501    0  0.00000000000E+00  0.00000000000E+00 -0.94903768687E+03  0.94903768688E+03  0.50400001928E-02 0.  1.
    10030    2    1    2    0    0  0.00000000000E+00  0.00000000000E+00 -0.68701576122E+03  0.12110596126E+04  0.99733381024E+03 0.  0.
        5    1    3    3  502    0 -0.29904641966E+03  0.30521051788E+03 -0.31397199820E+02  0.42847414798E+03  0.46999998093E+01 0. -1.
       -5    1    3    3    0  502  0.29904641966E+03 -0.30521051788E+03 -0.65561856140E+03  0.78258546459E+03  0.46999998093E+01 0.  1.
</event>
<event>
 5   0  0.1249195E-03  0.9974873E+03  0.7818609E-02  0.9311305E-01
       -1   -1    0    0    0  501  0.00000000000E+00  0.00000000000E+00  0.43724576051E+03  0.43724576054E+03  0.50400001928E-02 0.  1.
        1   -1    0    0  501    0  0.00000000000E+00  0.00000000000E+00 -0.56889110303E+03  0.56889110305E+03  0.50400001928E-02 0. -1.
    10030    2    1    2    0    0  0.00000000000E+00  0.00000000000E+00 -0.13164534252E+03  0.10061368636E+04  0.99748728918E+03 0.  0.
        2    1    3    3  502    0 -0.24546997955E+03 -0.43398628729E+03 -0.53650945708E+02  0.50147585425E+03  0.25500000920E-02 0.  1.
       -2    1    3    3    0  502  0.24546997955E+03  0.43398628729E+03 -0.77994396816E+02  0.50466100934E+03  0.25500000920E-02 0. -1.
</event>
<event>
 5   0  0.2284843E-03  0.1001743E+04  0.7818609E-02  0.9306635E-01
        2   -1    0    0  501    0  0.00000000000E+00  0.00000000000E+00  0.14030639717E+04  0.14030639717E+04  0.25500000920E-02 0. -1.
       -2   -1    0    0    0  501  0.00000000000E+00  0.00000000000E+00 -0.17880323504E+03  0.17880323506E+03  0.25500000920E-02 0.  1.
    10030    2    1    2    0    0  0.00000000000E+00  0.00000000000E+00  0.12242607367E+04  0.15818672068E+04  0.10017432348E+04 0.  0.
        2    1    3    3  502    0  0.35324641525E+03 -0.13680441017E+03  0.11295739089E+04  0.11914007269E+04  0.25500000920E-02 0. -1.
       -2    1    3    3    0  502 -0.35324641525E+03  0.13680441017E+03  0.94686827839E+02  0.39046647987E+03  0.25500000920E-02 0.  1.
</event>
<event>
 5   0  0.8680125E-04  0.9999085E+03  0.7818609E-02  0.9308645E-01
        3   -1    0    0  501    0  0.00000000000E+00  0.00000000000E+00  0.72709222526E+03  0.72709223227E+03  0.10100000352E+00 0. -1.
       -3   -1    0    0    0  501  0.00000000000E+00  0.00000000000E+00 -0.34377239924E+03  0.34377241407E+03  0.10100000352E+00 0.  1.
    10030    2    1    2    0    0  0.00000000000E+00  0.00000000000E+00  0.38331982602E+03  0.10708646463E+04  0.99990849670E+03 0.  0.
        1    1    3    3  502    0 -0.37517281272E+03  0.17735332201E+03 -0.10695514365E+03  0.42854199678E+03  0.50400001928E-02 0.  1.
       -1    1    3    3    0  502  0.37517281272E+03 -0.17735332201E+03  0.49027496967E+03  0.64232264956E+03  0.50400001928E-02 0. -1.
</event>
<event>
 5   0  0.2255142E-03  0.1001812E+04  0.7818609E-02  0.9306560E-01
        2   -1    0    0  501    0  0.00000000000E+00  0.00000000000E+00  0.20579709920E+04  0.20579709920E+04  0.25500000920E-02 0.  1.
       -2   -1    0    0    0  501  0.00000000000E+00  0.00000000000E+00 -0.12191950957E+03  0.12191950960E+03  0.25500000920E-02 0. -1.
    10030    2    1    2    0    0  0.00000000000E+00  0.00000000000E+00  0.19360514824E+04  0.21798905016E+04  0.10018119865E+04 0.  0.
        4    1    3    3  502    0 -0.44402783430E+02  0.10295524078E+03  0.20303113193E+04  0.20334052855E+04  0.12699999809E+01 0.  1.
       -4    1    3    3    0  502  0.44402783430E+02 -0.10295524078E+03 -0.94259836910E+02  0.14648521610E+03  0.12699999809E+01 0. -1.
</event>
<event>
 5   0  0.2255142E-03  0.9997861E+03  0.7818609E-02  0.9308779E-01
        2   -1    0    0  501    0  0.00000000000E+00  0.00000000000E+00  0.83161889714E+03  0.83161889715E+03  0.25500000920E-02 0.  1.
       -2   -1    0    0    0  501  0.00000000000E+00  0.00000000000E+00 -0.30048989215E+03  0.30048989216E+03  0.25500000920E-02 0. -1.
    10030    2    1    2    0    0  0.00000000000E+00  0.00000000000E+00  0.53112900499E+03  0.11321087893E+04  0.99978612257E+03 0.  0.
        4    1    3    3  502    0  0.44160466363E+03  0.88644696075E+02  0.51110169419E+03  0.68124820425E+03  0.12699999809E+01 0.  1.
       -4    1    3    3    0  502 -0.44160466363E+03 -0.88644696075E+02  0.20027310804E+02  0.45086058506E+03  0.12699999809E+01 0. -1.
</event>
<event>
 5   0  0.1293575E-03  0.9942227E+03  0.7818609E-02  0.9314904E-01
        1   -1    0    0  501    0  0.00000000000E+00  0.00000000000E+00  0.16255224731E+03  0.16255224739E+03  0.50400001928E-02 0. -1.
       -1   -1    0    0    0  501  0.00000000000E+00  0.00000000000E+00 -0.15202479205E+04  0.15202479205E+04  0.50400001928E-02 0.  1.
    10030    2    1    2    0    0  0.00000000000E+00  0.00000000000E+00 -0.13576956732E+04  0.16828001679E+04  0.99422274369E+03 0.  0.
        4    1    3    3  502    0 -0.19782005435E+03 -0.16278743136E+03  0.42209693243E+02  0.25964551376E+03  0.12699999809E+01 0. -1.
       -4    1    3    3    0  502  0.19782005435E+03  0.16278743136E+03 -0.13999053665E+04  0.14231546542E+04  0.12699999809E+01 0.  1.
</event>
<event>
 5   0  0.2284843E-03  0.1001221E+04  0.7818609E-02  0.9307207E-01
       -2   -1    0    0    0  501  0.00000000000E+00  0.00000000000E+00  0.17681546682E+03  0.17681546684E+03  0.25500000920E-02 0. -1.
        2   -1    0    0  501    0  0.00000000000E+00  0.00000000000E+00 -0.14173572869E+04  0.14173572870E+04  0.25500000920E-02 0.  1.
    10030    2    1    2    0    0  0.00000000000E+00  0.00000000000E+00 -0.12405418201E+04  0.15941727538E+04  0.10012206357E+04 0.  0.
        2    1    3    3  502    0  0.31250579678E+03  0.32293234770E+03 -0.97152084874E+03  0.10704195130E+04  0.25500000920E-02 0.  1.
       -2    1    3    3    0  502 -0.31250579678E+03 -0.32293234770E+03 -0.26902097139E+03  0.52375324082E+03  0.25500000920E-02 0. -1.
</event>
<event>
 5   0  0.8680125E-04  0.1002715E+04  0.7818609E-02  0.9305572E-01
       -3   -1    0    0    0  501  0.00000000000E+00  0.00000000000E+00  0.53091227222E+03  0.53091228183E+03  0.10100000352E+00 0. -1.
        3   -1    0    0  501    0  0.00000000000E+00  0.00000000000E+00 -0.47344835075E+03  0.47344836153E+03  0.10100000352E+00 0.  1.
    10030    2    1    2    0    0  0.00000000000E+00  0.00000000000E+00  0.57463921464E+02  0.10043606434E+04  0.10027154131E+04 0.  0.
        5    1    3    3  502    0 -0.41670862601E+02  0.31386262359E+03  0.41807432018E+03  0.52445632275E+03  0.46999998093E+01 0. -1.
       -5    1    3    3    0  502  0.41670862601E+02 -0.31386262359E+03 -0.36061039872E+03  0.47990432061E+03  0.46999998093E+01 0.  1.
</event>
<event>
 5   0  0.2255142E-03  0.9996617E+03  0.7818609E-02  0.9308916E-01
       -2   -1    0    0    0  501  0.00000000000E+00  0.00000000000E+00  0.11000939254E+03  0.11000939257E+03  0.25500000920E-02 0. -1.
        2   -1    0    0  501    0  0.00000000000E+00  0.00000000000E+00 -0.22709959881E+04  0.22709959881E+04  0.25500000920E-02 0.  1.
    10030    2    1    2    0    0  0.00000000000E+00  0.00000000000E+00 -0.21609865956E+04  0.23810053807E+04  0.99966172107E+03 0.  0.
        4    1    3    3  502    0  0.87737207435E+02 -0.26956915487E+03 -0.20609895783E+04  0.20803953955E+04  0.12699999809E+01 0.  1.
       -4    1    3    3    0  502 -0.87737207435E+02  0.26956915487E+03 -0.99997017257E+02  0.30060998517E+03  0.12699999809E+01 0. -1.
</event>
<event>
 5   0  0.2264577E-03  0.1000472E+04  0.7818609E-02  0.9308027E-01
        2   -1    0    0  501    0  0.00000000000E+00  0.00000000000E+00  0.88813246976E+03  0.88813246977E+03  0.25500000920E-02 0.  1.
       -2   -1    0    0    0  501  0.00000000000E+00  0.00000000000E+00 -0.28175528899E+03  0.28175528900E+03  0.25500000920E-02 0. -1.
    10030    2    1    2    0    0  0.00000000000E+00  0.00000000000E+00  0.60637718078E+03  0.11698877588E+04  0.10004719300E+04 0.  0.
        5    1    3    3  502    0  0.37329154008E+03 -0.32800114341E+03  0.37018456587E+03  0.61966928824E+03  0.46999998093E+01 0. -1.
       -5    1    3    3    0  502 -0.37329154008E+03  0.32800114341E+03  0.23619261491E+03  0.55021847053E+03  0.46999998093E+01 0.  1.
</event>
<event>
 5   0  0.8680125E-04  0.9990943E+03  0.7818609E-02  0.9309539E-01
        4   -1    0    0  501    0  0.00000000000E+00  0.00000000000E+00  0.18432109561E+03  0.18432547081E+03  0.12699999809E+01 0.  1.
       -4   -1    0    0    0  501  0.00000000000E+00  0.00000000000E+00 -0.13538521720E+04  0.13538527677E+04  0.12699999809E+01 0. -1.
    10030    2    1    2    0    0  0.00000000000E+00  0.00000000000E+00 -0.11695310764E+04  0.15381782385E+04  0.99909426717E+03 0.  0.
        3    1    3    3  502    0  0.14978371855E+03 -0.95227432869E+02 -0.13036716382E+04  0.13156987409E+04  0.10100000352E+00 0. -1.
       -3    1    3    3    0  502 -0.14978371855E+03  0.95227432869E+02  0.13414056183E+03  0.22247949758E+03  0.10100000352E+00 0.  1.
</event>
<event>
 5   0  0.2264577E-03  0.1018967E+04  0.7818609E-02  0.9287983E-01
        2   -1    0    0  501    0  0.00000000000E+00  0.00000000000E+00  0.55424033614E+03  0.55424033615E+03  0.25500000920E-02 0. -1.
       -2   -1    0    0    0  501  0.00000000000E+00  0.00000000000E+00 -0.46834131706E+03  0.46834131707E+03  0.25500000920E-02 0.  1.
    10030    2    1    2    0    0  0.00000000000E+00  0.00000000000E+00  0.85899019077E+02  0.10225816532E+04  0.10189674166E+04 0.  0.
        5    1    3    3  502    0 -0.47991925774E+03  0.13116206180E+03  0.15299967256E+03  0.52053527278E+03  0.46999998093E+01 0. -1.
       -5    1    3    3    0  502  0.47991925774E+03 -0.13116206180E+03 -0.67100653482E+02  0.50204638043E+03  0.46999998093E+01 0.  1.
</event>
<event>
 5   0  0.1285769E-03  0.1001090E+04  0.7818609E-02  0.9307350E-01
       -1   -1    0    0    0  501  0.00000000000E+00  0.00000000000E+00  0.46860961774E+03  0.46860961777E+03  0.50400001928E-02 0.  1.
        1   -1    0    0  501    0  0.00000000000E+00  0.00000000000E+00 -0.53465712973E+03  0.53465712976E+03  0.50400001928E-02 0. -1.
    10030    2    1    2    0    0  0.00000000000E+00  0.00000000000E+00 -0.66047511993E+02  0.10032667475E+04  0.10010903520E+04 0.  0.
        5    1    3    3  502    0  0.37371109734E+03  0.30981124852E+03 -0.15527415575E+03  0.50968141758E+03  0.46999998093E+01 0. -1.
       -5    1    3    3    0  502 -0.37371109734E+03 -0.30981124852E+03  0.89226643761E+02  0.49358532995E+03  0.46999998093E+01 0.  1.
</event>
<event>
 5   0  0.1249195E-03  0.1012851E+04  0.7818609E-02  0.9294561E-01
        1   -1    0    0  501    0  0.00000000000E+00  0.00000000000E+00  0.30914984207E+03  0.30914984211E+03  0.50400001928E-02 0.  1.
       -1   -1    0    0    0  501  0.00000000000E+00  0.00000000000E+00 -0.82958810894E+03  0.82958810895E+03  0.50400001928E-02 0. -1.
    10030    2    1    2    0    0  0.00000000000E+00  0.00000000000E+00 -0.52043826687E+03  0.11387379511E+04  0.10128514854E+04 0.  0.
        2    1    3    3  502    0 -0.47584792113E+03 -0.16477985419E+03 -0.32059030523E+03  0.59696045783E+03  0.25500000920E-02 0. -1.
       -2    1    3    3    0  502  0.47584792113E+03  0.16477985419E+03 -0.19984796164E+03  0.54177749323E+03  0.25500000920E-02 0.  1.
</event>
<event>
 5   0  0.2204862E-03  0.1015610E+04  0.7818609E-02  0.9291587E-01
        2   -1    0    0  501    0  0.00000000000E+00  0.00000000000E+00  0.57960509076E+03  0.57960509077E+03  0.25500000920E-02 0. -1.
       -2   -1    0    0    0  501  0.00000000000E+00  0.00000000000E+00 -0.44489977042E+03  0.44489977042E+03  0.25500000920E-02 0.  1.
    10030    2    1    2    0    0  0.00000000000E+00  0.00000000000E+00  0.13470532035E+03  0.10245048612E+04  0.10156104998E+04 0.  0.
        1    1    3    3  502    0  0.33064669390E+03 -0.38527339094E+03  0.77607803640E+02  0.51360081110E+03  0.50400001928E-02 0. -1.
       -1    1    3    3    0  502 -0.33064669390E+03  0.38527339094E+03  0.57097516706E+02  0.51090405009E+03  0.50400001928E-02 0.  1.
</event>
<event>
 5   0  0.1293575E-03  0.1015693E+04  0.7818609E-02  0.9291498E-01
       -1   -1    0    0    0  501  0.00000000000E+00  0.00000000000E+00  0.10173370346E+04  0.10173370346E+04  0.50400001928E-02 0.  1.
        1   -1    0    0  501    0  0.00000000000E+00  0.00000000000E+00 -0.25351300700E+03  0.25351300705E+03  0.50400001928E-02 0. -1.
    10030    2    1    2    0    0  0.00000000000E+00  0.00000000000E+00  0.76382402759E+03  0.12708500416E+04  0.10156932033E+04 0.  0.
        4    1    3    3  502    0  0.15892254580E+02 -0.69331723694E+02  0.10110715086E+04  0.10135712407E+04  0.12699999809E+01 0.  1.
       -4    1    3    3    0  502 -0.15892254580E+02  0.69331723694E+02 -0.24724748097E+03  0.25727880094E+03  0.12699999809E+01 0. -1.
</event>
<event>
 5   0  0.2277570E-03  0.9999199E+03  0.7818609E-02  0.9308633E-01
       -2   -1    0    0    0  501  0.00000000000E+00  0.00000000000E+00  0.18731606047E+03  0.18731606048E+03  0.25500000920E-02 0. -1.
        2   -1    0    0  501    0  0.00000000000E+00  0.00000000000E+00 -0.13344287001E+04  0.13344287001E+04  0.25500000920E-02 0.  1.
    10030    2    1    2    0    0  0.00000000000E+00  0.00000000000E+00 -0.11471126396E+04  0.15217447606E+04  0.99991985096E+03 0.  0.
        3    1    3    3  502    0 -0.40286007291E+03  0.18974242698E+03 -0.91946390736E+03  0.10216223931E+04  0.10100000352E+00 0.  1.
       -3    1    3    3    0  502  0.40286007291E+03 -0.18974242698E+03 -0.22764873225E+03  0.50012236747E+03  0.10100000352E+00 0. -1.
</event>
<event>
 5   0  0.1285769E-03  0.1000189E+04  0.7818609E-02  0.9308338E-01
        1   -1    0    0  501    0  0.00000000000E+00  0.00000000000E+00  0.16750309977E+04  0.16750309977E+04  0.50400001928E-02 0.  1.
       -1   -1    0    0    0  501  0.00000000000E+00  0.00000000000E+00 -0.14930732500E+03  0.14930732508E+03  0.50400001928E-02 0. -1.
    10030    2    1    2    0    0  0.00000000000E+00  0.00000000000E+00  0.15257236727E+04  0.18243383228E+04  0.10001887774E+04 0.  0.
        5    1    3    3  502    0  0.41553237134E+03 -0.22603619630E+03  0.10587358932E+04  0.11596134249E+04  0.46999998093E+01 0. -1.
       -5    1    3    3    0  502 -0.41553237134E+03  0.22603619630E+03  0.46698777953E+03  0.66472489791E+03  0.46999998093E+01 0.  1.
</event>
<event>
 5   0  0.1293716E-03  0.1002395E+04  0.7818609E-02  0.9305922E-01
        1   -1    0    0  501    0  0.00000000000E+00  0.00000000000E+00  0.17694725474E+04  0.17694725474E+04  0.50400001928E-02 0. -1.
       -1   -1    0    0    0  501  0.00000000000E+00  0.00000000000E+00 -0.14196267958E+03  0.14196267967E+03  0.50400001928E-02 0.  1.
    10030    2    1    2    0    0  0.00000000000E+00  0.00000000000E+00  0.16275098678E+04  0.19114352271E+04  0.10023952601E+04 0.  0.
        3    1    3    3  502    0  0.12567652791E+03 -0.25791912167E+03  0.15973875591E+04  0.16229491327E+04  0.10100000352E+00 0. -1.
       -3    1    3    3    0  502 -0.12567652791E+03  0.25791912167E+03  0.30122308711E+02  0.28848609442E+03  0.10100000352E+00 0.  1.
</event>
<event>
 5   0  0.1285769E-03  0.1044359E+04  0.7818609E-02  0.9261187E-01
       -1   -1    0    0    0  501  0.00000000000E+00  0.00000000000E+00  0.32150567361E+03  0.32150567365E+03  0.50400001928E-02 0. -1.
        1   -1    0    0  501    0  0.00000000000E+00  0.00000000000E+00 -0.84810796021E+03  0.84810796023E+03  0.50400001928E-02 0.  1.
    10030    2    1    2    0    0  0.00000000000E+00  0.00000000000E+00 -0.52660228661E+03  0.11696136339E+04  0.10443591740E+04 0.  0.
        5    1    3    3  502    0 -0.29282967277E+03 -0.83683040161E+02 -0.73831352950E+03  0.79867454342E+03  0.46999998093E+01 0.  1.
       -5    1    3    3    0  502  0.29282967277E+03  0.83683040161E+02  0.21171124289E+03  0.37093909046E+03  0.46999998093E+01 0. -1.
</event>
<event>
 5   0  0.2284843E-03  0.1005777E+04  0.7818609E-02  0.9302231E-01
       -2   -1    0    0    0  501  0.00000000000E+00  0.00000000000E+00  0.18568773402E+03  0.18568773404E+03  0.25500000920E-02 0.  1.
        2   -1    0    0  501    0  0.00000000000E+00  0.00000000000E+00 -0.13619473962E+04  0.13619473962E+04  0.25500000920E-02 0. -1.
    10030    2    1    2    0    0  0.00000000000E+00  0.00000000000E+00 -0.11762596622E+04  0.15476351302E+04  0.10057771639E+04 0.  0.
        2    1    3    3  502    0  0.35331982243E+03  0.18929289916E+03 -0.12082158141E+03  0.41864609533E+03  0.25500000920E-02 0.  1.
       -2    1    3    3    0  502 -0.35331982243E+03 -0.18929289916E+03 -0.10554380807E+04  0.11289890349E+04  0.25500000920E-02 0. -1.
</event>
<event>
 5   0  0.2264577E-03  0.9991241E+03  0.7818609E-02  0.9309506E-01
       -2   -1    0    0    0  501  0.00000000000E+00  0.00000000000E+00  0.15069305328E+03  0.15069305330E+03  0.25500000920E-02 0.  1.
        2   -1    0    0  501    0  0.00000000000E+00  0.00000000000E+00 -0.16560965647E+04  0.16560965647E+04  0.25500000920E-02 0. -1.
    10030    2    1    2    0    0  0.00000000000E+00  0.00000000000E+00 -0.15054035114E+04  0.18067896180E+04  0.99912411217E+03 0.  0.
        5    1    3    3  502    0  0.62142071750E+02 -0.96828198825E+02 -0.16317700151E+04  0.16358278666E+04  0.46999998093E+01 0. -1.
       -5    1    3    3    0  502 -0.62142071750E+02  0.96828198825E+02  0.12636650368E+03  0.17096175134E+03  0.46999998093E+01 0.  1.
</event>
<event>
 5   0  0.1293575E-03  0.1004240E+04  0.7818609E-02  0.9303906E-01
       -1   -1    0    0    0  501  0.00000000000E+00  0.00000000000E+00  0.35871934590E+03  0.35871934593E+03  0.50400001928E-02 0.  1.
        1   -1    0    0  501    0  0.00000000000E+00  0.00000000000E+00 -0.70284630079E+03  0.70284630081E+03  0.50400001928E-02 0. -1.
    10030    2    1    2    0    0  0.00000000000E+00  0.00000000000E+00 -0.34412695489E+03  0.10615656467E+04  0.10042401412E+04 0.  0.
        4    1    3    3  502    0  0.69552264863E+02 -0.19285077980E+02  0.35320545524E+03  0.36050677981E+03  0.12699999809E+01 0.  1.
       -4    1    3    3    0  502 -0.69552264863E+02  0.19285077980E+02 -0.69733241013E+03  0.70105886693E+03  0.12699999809E+01 0. -1.
</event>
<event>
 5   0  0.2255142E-03  0.1005979E+04  0.7818609E-02  0.9302011E-01
        2   -1    0    0  501    0  0.00000000000E+00  0.00000000000E+00  0.92464074737E+03  0.92464074737E+03  0.25500000920E-02 0. -1.
       -2   -1    0    0    0  501  0.00000000000E+00  0.00000000000E+00 -0.27361813554E+03  0.27361813555E+03  0.25500000920E-02 0.  1.
    10030    2    1    2    0    0  0.00000000000E+00  0.00000000000E+00  0.65102261182E+03  0.11982588829E+04  0.10059790800E+04 0.  0.
        4    1    3    3  502    0  0.42953466821E+03  0.22347242795E+03  0.48777243952E+03  0.68728707460E+03  0.12699999809E+01 0. -1.
       -4    1    3    3    0  502 -0.42953466821E+03 -0.22347242795E+03  0.16325017230E+03  0.51097180833E+03  0.12699999809E+01 0.  1.
</event>
<event>
 5   0  0.1285769E-03  0.1000189E+04  0.7818609E-02  0.9308337E-01
       -1   -1    0    0    0  501  0.00000000000E+00  0.00000000000E+00  0.18375400087E+03  0.18375400094E+03  0.50400001928E-02 0. -1.
        1   -1    0    0  501    0  0.00000000000E+00  0.00000000000E+00 -0.13610292908E+04  0.13610292908E+04  0.50400001928E-02 0.  1.
    10030    2    1    2    0    0  0.00000000000E+00  0.00000000000E+00 -0.11772752899E+04  0.15447832918E+04  0.10001891372E+04 0.  0.
        5    1    3    3  502    0  0.39496305652E+03  0.25649183596E+03 -0.32886630699E+03  0.57442059138E+03  0.46999998093E+01 0.  1.
       -5    1    3    3    0  502 -0.39496305652E+03 -0.25649183596E+03 -0.84840898295E+03  0.97036270038E+03  0.46999998093E+01 0. -1.
</event>
<event>
 5   0  0.2284843E-03  0.1016680E+04  0.7818609E-02  0.9290437E-01
       -2   -1    0    0    0  501  0.00000000000E+00  0.00000000000E+00  0.14704577396E+03  0.14704577398E+03  0.25500000920E-02 0. -1.
        2   -1    0    0  501    0  0.00000000000E+00  0.00000000000E+00 -0.17573419391E+04  0.17573419391E+04  0.25500000920E-02 0.  1.
    10030    2    1    2    0    0  0.00000000000E+00  0.00000000000E+00 -0.16102961651E+04  0.19043877131E+04  0.10166802950E+04 0.  0.
        2    1    3    3  502    0 -0.69272539960E+02  0.41380651436E+03 -0.26753580564E+03  0.49760418349E+03  0.25500000920E-02 0. -1.
       -2    1    3    3    0  502  0.69272539960E+02 -0.41380651436E+03 -0.13427603595E+04  0.14067835296E+04  0.25500000920E-02 0.  1.
</event>
<event>
 5   0  0.2277570E-03  0.9969639E+03  0.7818609E-02  0.9311881E-01
        2   -1    0    0  501    0  0.00000000000E+00  0.00000000000E+00  0.10447599998E+04  0.10447599998E+04  0.25500000920E-02 0. -1.
       -2   -1    0    0    0  501  0.00000000000E+00  0.00000000000E+00 -0.23783857618E+03  0.23783857619E+03  0.25500000920E-02 0.  1.
    10030    2    1    2    0    0  0.00000000000E+00  0.00000000000E+00  0.80692142366E+03  0.12825985760E+04  0.99696385255E+03 0.  0.
        3    1    3    3  502    0  0.37568217601E+03  0.19071554135E+03  0.74619940855E+03  0.85692653279E+03  0.10100000352E+00 0. -1.
       -3    1    3    3    0  502 -0.37568217601E+03 -0.19071554135E+03  0.60722015116E+02  0.42567204325E+03  0.10100000352E+00 0.  1.
</event>
<event>
 5   0  0.1249195E-03  0.9988254E+03  0.7818609E-02  0.9309834E-01
        1   -1    0    0  501    0  0.00000000000E+00  0.00000000000E+00  0.14770217729E+04  0.14770217729E+04  0.50400001928E-02 0.  1.
       -1   -1    0    0    0  501  0.00000000000E+00  0.00000000000E+00 -0.16886212842E+03  0.16886212849E+03  0.50400001928E-02 0. -1.
    10030    2    1    2    0    0  0.00000000000E+00  0.00000000000E+00  0.13081596445E+04  0.16458839014E+04  0.99882539087E+03 0.  0.
        2    1    3    3  502    0 -0.13729169946E+03 -0.47457791371E+03  0.77449285051E+03  0.91864703909E+03  0.25500000920E-02 0. -1.
       -2    1    3    3    0  502  0.13729169946E+03  0.47457791371E+03  0.53366679400E+03  0.72723686234E+03  0.25500000920E-02 0.  1.
</event>
<event>
 5   0  0.1285769E-03  0.9733914E+03  0.7818609E-02  0.9338220E-01
       -1   -1    0    0    0  501  0.00000000000E+00  0.00000000000E+00  0.17843795397E+03  0.17843795405E+03  0.50400001928E-02 0.  1.
        1   -1    0    0  501    0  0.00000000000E+00  0.00000000000E+00 -0.13274794845E+04  0.13274794845E+04  0.50400001928E-02 0. -1.
    10030    2    1    2    0    0  0.00000000000E+00  0.00000000000E+00 -0.11490415305E+04  0.15059174385E+04  0.97339143866E+03 0.  0.
        5    1    3    3  502    0  0.33812712135E+03  0.21708920511E+03 -0.99931541449E+03  0.10770845189E+04  0.46999998093E+01 0. -1.
       -5    1    3    3    0  502 -0.33812712135E+03 -0.21708920511E+03 -0.14972611601E+03  0.42883291966E+03  0.46999998093E+01 0.  1.
</event>
<event>
 5   0  0.2277570E-03  0.1005587E+04  0.7818609E-02  0.9302438E-01
       -2   -1    0    0    0  501  0.00000000000E+00  0.00000000000E+00  0.17654173686E+03  0.17654173688E+03  0.25500000920E-02 0. -1.
        2   -1    0    0  501    0  0.00000000000E+00  0.00000000000E+00 -0.14319645860E+04  0.14319645860E+04  0.25500000920E-02 0.  1.
    10030    2    1    2    0    0  0.00000000000E+00  0.00000000000E+00 -0.12554228492E+04  0.16085063229E+04  0.10055874207E+04 0.  0.
        3    1    3    3  502    0 -0.16820352665E+03  0.12755068955E+02  0.12992785105E+03  0.21292340135E+03  0.10100000352E+00 0. -1.
       -3    1    3    3    0  502  0.16820352665E+03 -0.12755068955E+02 -0.13853507002E+04  0.13955829216E+04  0.10100000352E+00 0.  1.
</event>
<event>
 5   0  0.2277570E-03  0.1021452E+04  0.7818609E-02  0.9285325E-01
        2   -1    0    0  501    0  0.00000000000E+00  0.00000000000E+00  0.11881491802E+04  0.11881491802E+04  0.25500000920E-02 0. -1.
       -2   -1    0    0    0  501  0.00000000000E+00  0.00000000000E+00 -0.21953557107E+03  0.21953557108E+03  0.25500000920E-02 0.  1.
    10030    2    1    2    0    0  0.00000000000E+00  0.00000000000E+00  0.96861360916E+03  0.14076847513E+04  0.10214519251E+04 0.  0.
        3    1    3    3  502    0  0.64438461982E+02 -0.88023678972E+02  0.11719058528E+04  0.11769723113E+04  0.10100000352E+00 0. -1.
       -3    1    3    3    0  502 -0.64438461982E+02  0.88023678972E+02 -0.20329224367E+03  0.23071244002E+03  0.10100000352E+00 0.  1.
</event>
<event>
 5   0  0.2284843E-03  0.1000457E+04  0.7818609E-02  0.9308044E-01
        2   -1    0    0  501    0  0.00000000000E+00  0.00000000000E+00  0.40922350744E+03  0.40922350745E+03  0.25500000920E-02 0. -1.
       -2   -1    0    0    0  501  0.00000000000E+00  0.00000000000E+00 -0.61147126304E+03  0.61147126305E+03  0.25500000920E-02 0.  1.
    10030    2    1    2    0    0  0.00000000000E+00  0.00000000000E+00 -0.20224775560E+03  0.10206947705E+04  0.10004567256E+04 0.  0.
        2    1    3    3  502    0  0.20621612772E+03 -0.38801834389E+03 -0.34500997060E+03  0.55867271846E+03  0.25500000920E-02 0. -1.
       -2    1    3    3    0  502 -0.20621612772E+03  0.38801834389E+03  0.14276221500E+03  0.46202205204E+03  0.25500000920E-02 0.  1.
</event>
<event>
 5   0  0.1353789E-03  0.9932323E+03  0.7818609E-02  0.9315999E-01
       -1   -1    0    0    0  501  0.00000000000E+00  0.00000000000E+00  0.38985537379E+03  0.38985537382E+03  0.50400001928E-02 0. -1.
        1   -1    0    0  501    0  0.00000000000E+00  0.00000000000E+00 -0.63261304842E+03  0.63261304844E+03  0.50400001928E-02 0.  1.
    10030    2    1    2    0    0  0.00000000000E+00  0.00000000000E+00 -0.24275767463E+03  0.10224684223E+04  0.99323229203E+03 0.  0.
        1    1    3    3  502    0 -0.14192340955E+03 -0.82267011350E+02  0.36115900628E+03  0.39666855582E+03  0.50400001928E-02 0. -1.
       -1    1    3    3    0  502  0.14192340955E+03  0.82267011350E+02 -0.60391668090E+03  0.62579986644E+03  0.50400001928E-02 0.  1.
</event>
<event>
 5   0  0.2255142E-03  0.9980303E+03  0.7818609E-02  0.9310708E-01
        2   -1    0    0  501    0  0.00000000000E+00  0.00000000000E+00  0.45444441652E+03  0.45444441653E+03  0.25500000920E-02 0.  1.
       -2   -1    0    0    0  501  0.00000000000E+00  0.00000000000E+00 -0.54795721737E+03  0.54795721738E+03  0.25500000920E-02 0. -1.
    10030    2    1    2    0    0  0.00000000000E+00  0.00000000000E+00 -0.93512800848E+02  0.10024016339E+04  0.99803025592E+03 0.  0.
        4    1    3    3  502    0  0.27509162903E+03 -0.38118226362E+03 -0.21493881287E+03  0.51689034489E+03  0.12699999809E+01 0. -1.
       -4    1    3    3    0  502 -0.27509162903E+03  0.38118226362E+03  0.12142601202E+03  0.48551128901E+03  0.12699999809E+01 0.  1.
</event>
<event>
 5   0  0.2277570E-03  0.1002319E+04  0.7818609E-02  0.9306005E-01
       -2   -1    0    0    0  501  0.00000000000E+00  0.00000000000E+00  0.25105432400E+03  0.25105432402E+03  0.25500000920E-02 0.  1.
        2   -1    0    0  501    0  0.00000000000E+00  0.00000000000E+00 -0.10004237939E+04  0.10004237939E+04  0.25500000920E-02 0. -1.
    10030    2    1    2    0    0  0.00000000000E+00  0.00000000000E+00 -0.74936946991E+03  0.12514781179E+04  0.10023187503E+04 0.  0.
        3    1    3    3  502    0 -0.11329382639E+03  0.14601214526E+03 -0.95632296980E+03  0.97401677112E+03  0.10100000352E+00 0. -1.
       -3    1    3    3    0  502  0.11329382639E+03 -0.14601214526E+03  0.20695349988E+03  0.27746134681E+03  0.10100000352E+00 0.  1.
</event>
<event>
 5   0  0.1249195E-03  0.1000892E+04  0.7818609E-02  0.9307567E-01
        1   -1    0    0  501    0  0.00000000000E+00  0.00000000000E+00  0.28745762773E+03  0.28745762778E+03  0.50400001928E-02 0.  1.
       -1   -1    0    0    0  501  0.00000000000E+00  0.00000000000E+00 -0.87124506924E+03  0.87124506925E+03  0.50400001928E-02 0. -1.
    10030    2    1    2    0    0  0.00000000000E+00  0.00000000000E+00 -0.58378744150E+03  0.11587026970E+04  0.10008916841E+04 0.  0.
        2    1    3    3  502    0 -0.29321904898E+03  0.15864164292E+02 -0.76102451227E+03  0.81571281139E+03  0.25500000920E-02 0. -1.
       -2    1    3    3    0  502  0.29321904898E+03 -0.15864164292E+02  0.17723707076E+03  0.34298988564E+03  0.25500000920E-02 0.  1.
</event>
<event>
 5   0  0.1353789E-03  0.9990909E+03  0.7818609E-02  0.9309542E-01
        1   -1    0    0  501    0  0.00000000000E+00  0.00000000000E+00  0.66549761706E+03  0.66549761708E+03  0.50400001928E-02 0. -1.
       -1   -1    0    0    0  501  0.00000000000E+00  0.00000000000E+00 -0.37497603881E+03  0.37497603884E+03  0.50400001928E-02 0.  1.
    10030    2    1    2    0    0  0.00000000000E+00  0.00000000000E+00  0.29052157826E+03  0.10404736559E+04  0.99909090739E+03 0.  0.
        1    1    3    3  502    0 -0.35931805967E+03  0.21855579945E+02 -0.21543547343E+03  0.41952303586E+03  0.50400001928E-02 0.  1.
       -1    1    3    3    0  502  0.35931805967E+03 -0.21855579945E+02  0.50595705169E+03  0.62095062006E+03  0.50400001928E-02 0. -1.
</event>
<event>
 5   0  0.2204862E-03  0.9956570E+03  0.7818609E-02  0.9313321E-01
        2   -1    0    0  501    0  0.00000000000E+00  0.00000000000E+00  0.14542410551E+04  0.14542410551E+04  0.25500000920E-02 0.  1.
       -2   -1    0    0    0  501  0.00000000000E+00  0.00000000000E+00 -0.17042100839E+03  0.17042100841E+03  0.25500000920E-02 0. -1.
    10030    2    1    2    0    0  0.00000000000E+00  0.00000000000E+00  0.12838200467E+04  0.16246620635E+04  0.99565702342E+03 0.  0.
        1    1    3    3  502    0 -0.43111119891E+01 -0.10866818624E+03 -0.15080059834E+03  0.18592520236E+03  0.50400001928E-02 0. -1.
       -1    1    3    3    0  502  0.43111119891E+01  0.10866818624E+03  0.14346206451E+04  0.14387368612E+04  0.50400001928E-02 0.  1.
</event>
<event>
 5   0  0.1285769E-03  0.1062638E+04  0.7818609E-02  0.9242393E-01
        1   -1    0    0  501    0  0.00000000000E+00  0.00000000000E+00  0.96159505010E+03  0.96159505011E+03  0.50400001928E-02 0. -1.
       -1   -1    0    0    0  501  0.00000000000E+00  0.00000000000E+00 -0.29357439332E+03  0.29357439337E+03  0.50400001928E-02 0.  1.
    10030    2    1    2    0    0  0.00000000000E+00  0.00000000000E+00  0.66802065678E+03  0.12551694435E+04  0.10626376306E+04 0.  0.
        5    1    3    3  502    0 -0.40456821109E+03 -0.17630653598E+03 -0.15424556557E+02  0.44161005310E+03  0.46999998093E+01 0.  1.
       -5    1    3    3    0  502  0.40456821109E+03  0.17630653598E+03  0.68344521333E+03  0.81355939038E+03  0.46999998093E+01 0. -1.
</event>
<event>
 5   0  0.1293575E-03  0.1001411E+04  0.7818609E-02  0.9306999E-01
       -1   -1    0    0    0  501  0.00000000000E+00  0.00000000000E+00  0.51859383284E+03  0.51859383287E+03  0.50400001928E-02 0. -1.
        1   -1    0    0  501    0  0.00000000000E+00  0.00000000000E+00 -0.48343397408E+03  0.48343397410E+03  0.50400001928E-02 0.  1.
    10030    2    1    2    0    0  0.00000000000E+00  0.00000000000E+00  0.35159858769E+02  0.10020278070E+04  0.10014107600E+04 0.  0.
        4    1    3    3  502    0  0.28488367040E+03  0.40025310611E+03 -0.79138877032E+02  0.49762016576E+03  0.12699999809E+01 0.  1.
       -4    1    3    3    0  502 -0.28488367040E+03 -0.40025310611E+03  0.11429873580E+03  0.50440764121E+03  0.12699999809E+01 0. -1.
</event>
<event>
 5   0  0.2277570E-03  0.1006167E+04  0.7818609E-02  0.9301807E-01
       -2   -1    0    0    0  501  0.00000000000E+00  0.00000000000E+00  0.79909525566E+03  0.79909525566E+03  0.25500000920E-02 0. -1.
        2   -1    0    0  501    0  0.00000000000E+00  0.00000000000E+00 -0.31672436956E+03  0.31672436957E+03  0.25500000920E-02 0.  1.
    10030    2    1    2    0    0  0.00000000000E+00  0.00000000000E+00  0.48237088610E+03  0.11158196252E+04  0.10061668670E+04 0.  0.
        3    1    3    3  502    0 -0.19188816683E+03 -0.13191997449E+03  0.73573237237E+03  0.77170336412E+03  0.10100000352E+00 0. -1.
       -3    1    3    3    0  502  0.19188816683E+03  0.13191997449E+03 -0.25336148627E+03  0.34411626111E+03  0.10100000352E+00 0.  1.
</event>
<event>
 5   0  0.1293575E-03  0.9999096E+03  0.7818609E-02  0.9308644E-01
        1   -1    0    0  501    0  0.00000000000E+00  0.00000000000E+00  0.45852827247E+03  0.45852827250E+03  0.50400001928E-02 0. -1.
       -1   -1    0    0    0  501  0.00000000000E+00  0.00000000000E+00 -0.54512403383E+03  0.54512403385E+03  0.50400001928E-02 0.  1.
    10030    2    1    2    0    0  0.00000000000E+00  0.00000000000E+00 -0.86595761362E+02  0.10036523064E+04  0.99990955899E+03 0.  0.
        4    1    3    3  502    0  0.17599008371E+03 -0.17019821408E+03  0.39423881592E+03  0.46407520783E+03  0.12699999809E+01 0. -1.
       -4    1    3    3    0  502 -0.17599008371E+03  0.17019821408E+03 -0.48083457728E+03  0.53957709852E+03  0.12699999809E+01 0.  1.
</event>
<event>
 5   0  0.1353789E-03  0.9955731E+03  0.7818609E-02  0.9313413E-01
       -1   -1    0    0    0  501  0.00000000000E+00  0.00000000000E+00  0.33911954307E+03  0.33911954311E+03  0.50400001928E-02 0.  1.
        1   -1    0    0  501    0  0.00000000000E+00  0.00000000000E+00 -0.73069062453E+03  0.73069062455E+03  0.50400001928E-02 0. -1.
    10030    2    1    2    0    0  0.00000000000E+00  0.00000000000E+00 -0.39157108146E+03  0.10698101677E+04  0.99557314297E+03 0.  0.
        1    1    3    3  502    0 -0.30473436104E+03  0.84471303203E+01 -0.61864795993E+03  0.68968085602E+03  0.50400001928E-02 0. -1.
       -1    1    3    3    0  502  0.30473436104E+03 -0.84471303203E+01  0.22707687847E+03  0.38012931164E+03  0.50400001928E-02 0.  1.
</event>
<event>
 5   0  0.1249195E-03  0.1000250E+04  0.7818609E-02  0.9308271E-01
       -1   -1    0    0    0  501  0.00000000000E+00  0.00000000000E+00  0.25633956516E+03  0.25633956521E+03  0.50400001928E-02 0.  1.
        1   -1    0    0  501    0  0.00000000000E+00  0.00000000000E+00 -0.97575660047E+03  0.97575660048E+03  0.50400001928E-02 0. -1.
    10030    2    1    2    0    0  0.00000000000E+00  0.00000000000E+00 -0.71941703531E+03  0.12320961657E+04  0.10002500142E+04 0.  0.
        2    1    3    3  502    0 -0.42618253128E+03  0.24614421669E+03 -0.25017977461E+03  0.55209459789E+03  0.25500000920E-02 0.  1.
       -2    1    3    3    0  502  0.42618253128E+03 -0.24614421669E+03 -0.46923726069E+03  0.68000156780E+03  0.25500000920E-02 0. -1.
</event>
<event>
 5   0  0.2204862E-03  0.9959990E+03  0.7818609E-02  0.9312944E-01
       -2   -1    0    0    0  501  0.00000000000E+00  0.00000000000E+00  0.43555485338E+03  0.43555485339E+03  0.25500000920E-02 0.  1.
        2   -1    0    0  501    0  0.00000000000E+00  0.00000000000E+00 -0.56939666015E+03  0.56939666016E+03  0.25500000920E-02 0. -1.
    10030    2    1    2    0    0  0.00000000000E+00  0.00000000000E+00 -0.13384180677E+03  0.10049515135E+04  0.99599895348E+03 0.  0.
        1    1    3    3  502    0 -0.24704671084E+03 -0.40759983593E+03  0.78715590031E+02  0.48307954596E+03  0.50400001928E-02 0.  1.
       -1    1    3    3    0  502  0.24704671084E+03  0.40759983593E+03 -0.21255739680E+03  0.52187196758E+03  0.50400001928E-02 0. -1.
</event>
<event>
 5   0  0.1285769E-03  0.9993667E+03  0.7818609E-02  0.9309240E-01
        1   -1    0    0  501    0  0.00000000000E+00  0.00000000000E+00  0.13584851957E+04  0.13584851957E+04  0.50400001928E-02 0. -1.
       -1   -1    0    0    0  501  0.00000000000E+00  0.00000000000E+00 -0.18379549532E+03  0.18379549539E+03  0.50400001928E-02 0.  1.
    10030    2    1    2    0    0  0.00000000000E+00  0.00000000000E+00  0.11746897004E+04  0.15422806911E+04  0.99936671845E+03 0.  0.
        5    1    3    3  502    0  0.12740169498E+03 -0.56310352782E+02 -0.15319281033E+03  0.20710426082E+03  0.46999998093E+01 0.  1.
       -5    1    3    3    0  502 -0.12740169498E+03  0.56310352782E+02  0.13278825107E+04  0.13351764303E+04  0.46999998093E+01 0. -1.
</event>
<event>
 5   0  0.2277570E-03  0.9963460E+03  0.7818609E-02  0.9312561E-01
        2   -1    0    0  501    0  0.00000000000E+00  0.00000000000E+00  0.14651284391E+04  0.14651284391E+04  0.25500000920E-02 0.  1.
       -2   -1    0    0    0  501  0.00000000000E+00  0.00000000000E+00 -0.16938880583E+03  0.16938880585E+03  0.25500000920E-02 0. -1.
    10030    2    1    2    0    0  0.00000000000E+00  0.00000000000E+00  0.12957396333E+04  0.16345172450E+04  0.99634603769E+03 0.  0.
        3    1    3    3  502    0  0.12198283976E+03 -0.45327320410E+03  0.37414547284E+03  0.60026765346E+03  0.10100000352E+00 0.  1.
       -3    1    3    3    0  502 -0.12198283976E+03  0.45327320410E+03  0.92159416045E+03  0.10342495915E+04  0.10100000352E+00 0. -1.
</event>
<event>
 5   0  0.2284843E-03  0.1007306E+04  0.7818609E-02  0.9300568E-01
        2   -1    0    0  501    0  0.00000000000E+00  0.00000000000E+00  0.84738906706E+03  0.84738906707E+03  0.25500000920E-02 0.  1.
       -2   -1    0    0    0  501  0.00000000000E+00  0.00000000000E+00 -0.29935064494E+03  0.29935064495E+03  0.25500000920E-02 0. -1.
    10030    2    1    2    0    0  0.00000000000E+00  0.00000000000E+00  0.54803842212E+03  0.11467397120E+04  0.10073062370E+04 0.  0.
        2    1    3    3  502    0 -0.40155092042E+03  0.12239373227E+03  0.59082614904E+03  0.72477507254E+03  0.25500000920E-02 0.  1.
       -2    1    3    3    0  502  0.40155092042E+03 -0.12239373227E+03 -0.42787726915E+02  0.42196463948E+03  0.25500000920E-02 0. -1.
</event>
<event>
 5   0  0.2204862E-03  0.9980650E+03  0.7818609E-02  0.9310670E-01
       -2   -1    0    0    0  501  0.00000000000E+00  0.00000000000E+00  0.23026638188E+03  0.23026638190E+03  0.25500000920E-02 0. -1.
        2   -1    0    0  501    0  0.00000000000E+00  0.00000000000E+00 -0.10815015130E+04  0.10815015130E+04  0.25500000920E-02 0.  1.
    10030    2    1    2    0    0  0.00000000000E+00  0.00000000000E+00 -0.85123513109E+03  0.13117678949E+04  0.99806500872E+03 0.  0.
        1    1    3    3  502    0 -0.37017486221E+03  0.32865398750E+03 -0.50864383794E+03  0.70976152757E+03  0.50400001928E-02 0.  1.
       -1    1    3    3    0  502  0.37017486221E+03 -0.32865398750E+03 -0.34259129315E+03  0.60200636731E+03  0.50400001928E-02 0. -1.
</event>
<event>
 5   0  0.2277570E-03  0.9997246E+03  0.7818609E-02  0.9308847E-01
        2   -1    0    0  501    0  0.00000000000E+00  0.00000000000E+00  0.10868382311E+04  0.10868382311E+04  0.25500000920E-02 0. -1.
       -2   -1    0    0    0  501  0.00000000000E+00  0.00000000000E+00 -0.22989836904E+03  0.22989836906E+03  0.25500000920E-02 0.  1.
    10030    2    1    2    0    0  0.00000000000E+00  0.00000000000E+00  0.85693986201E+03  0.13167366001E+04  0.99972463557E+03 0.  0.
        3    1    3    3  502    0  0.90784902747E+02 -0.14117842289E+03 -0.19167138214E+03  0.25477671517E+03  0.10100000352E+00 0.  1.
       -3    1    3    3    0  502 -0.90784902747E+02  0.14117842289E+03  0.10486112442E+04  0.10619598849E+04  0.10100000352E+00 0. -1.
</event>
<event>
 5   0  0.1353789E-03  0.1000871E+04  0.7818609E-02  0.9307590E-01
        1   -1    0    0  501    0  0.00000000000E+00  0.00000000000E+00  0.75884405085E+03  0.75884405087E+03  0.50400001928E-02 0. -1.
       -1   -1    0    0    0  501  0.00000000000E+00  0.00000000000E+00 -0.33002261488E+03  0.33002261492E+03  0.50400001928E-02 0.  1.
    10030    2    1    2    0    0  0.00000000000E+00  0.00000000000E+00  0.42882143597E+03  0.10888666658E+04  0.10008710166E+04 0.  0.
        1    1    3    3  502    0 -0.43941167689E+03 -0.59666946214E+02 -0.37913651395E+02  0.44506203078E+03  0.50400001928E-02 0.  1.
       -1    1    3    3    0  502  0.43941167689E+03  0.59666946214E+02  0.46673508736E+03  0.64380463501E+03  0.50400001928E-02 0. -1.
</event>
<event>
 5   0  0.1285769E-03  0.9833080E+03  0.7818609E-02  0.9327044E-01
       -1   -1    0    0    0  501  0.00000000000E+00  0.00000000000E+00  0.41120010020E+03  0.41120010023E+03  0.50400001928E-02 0. -1.
        1   -1    0    0  501    0  0.00000000000E+00  0.00000000000E+00 -0.58784922011E+03  0.58784922013E+03  0.50400001928E-02 0.  1.
    10030    2    1    2    0    0  0.00000000000E+00  0.00000000000E+00 -0.17664911991E+03  0.99904932037E+03  0.98330800514E+03 0.  0.
        5    1    3    3  502    0 -0.21648384004E+03 -0.44117113261E+03 -0.10284840094E+03  0.50209272532E+03  0.46999998093E+01 0.  1.
       -5    1    3    3    0  502  0.21648384004E+03  0.44117113261E+03 -0.73800718966E+02  0.49695659505E+03  0.46999998093E+01 0. -1.
</event>
<event>
 5   0  0.8680125E-04  0.1002193E+04  0.7818609E-02  0.9306143E-01
       -3   -1    0    0    0  501  0.00000000000E+00  0.00000000000E+00  0.94970833147E+03  0.94970833684E+03  0.10100000352E+00 0. -1.
        3   -1    0    0  501    0  0.00000000000E+00  0.00000000000E+00 -0.26439426707E+03  0.26439428636E+03  0.10100000352E+00 0.  1.
    10030    2    1    2    0    0  0.00000000000E+00  0.00000000000E+00  0.68531406441E+03  0.12141026232E+04  0.10021925029E+04 0.  0.
        4    1    3    3  502    0 -0.25884401242E+01 -0.45386456213E+03  0.85396159835E+02  0.46183747985E+03  0.12699999809E+01 0. -1.
       -4    1    3    3    0  502  0.25884401242E+01  0.45386456213E+03  0.59991790457E+03  0.75226514335E+03  0.12699999809E+01 0.  1.
</event>
<event>
 5   0  0.2255142E-03  0.9974675E+03  0.7818609E-02  0.9311327E-01
       -2   -1    0    0    0  501  0.00000000000E+00  0.00000000000E+00  0.11007565961E+04  0.11007565961E+04  0.25500000920E-02 0.  1.
        2   -1    0    0  501    0  0.00000000000E+00  0.00000000000E+00 -0.22596761169E+03  0.22596761171E+03  0.25500000920E-02 0. -1.
    10030    2    1    2    0    0  0.00000000000E+00  0.00000000000E+00  0.87478898439E+03  0.13267242078E+04  0.99746747131E+03 0.  0.
        4    1    3    3  502    0 -0.15358017150E+03  0.31488199612E+03 -0.34734435257E+02  0.35205913488E+03  0.12699999809E+01 0. -1.
       -4    1    3    3    0  502  0.15358017150E+03 -0.31488199612E+03  0.90952341965E+03  0.97466507291E+03  0.12699999809E+01 0.  1.
</event>
<event>
 5   0  0.2284843E-03  0.9623309E+03  0.7818609E-02  0.9350853E-01
        2   -1    0    0  501    0  0.00000000000E+00  0.00000000000E+00  0.87743190169E+03  0.87743190170E+03  0.25500000920E-02 0. -1.
       -2   -1    0    0    0  501  0.00000000000E+00  0.00000000000E+00 -0.26386116413E+03  0.26386116414E+03  0.25500000920E-02 0.  1.
    10030    2    1    2    0    0  0.00000000000E+00  0.00000000000E+00  0.61357073757E+03  0.11412930658E+04  0.96233092652E+03 0.  0.
        2    1    3    3  502    0  0.27971182908E+03 -0.20952751967E+02  0.77044017987E+03  0.81991206597E+03  0.25500000920E-02 0. -1.
       -2    1    3    3    0  502 -0.27971182908E+03  0.20952751967E+02 -0.15686944231E+03  0.32138099987E+03  0.25500000920E-02 0.  1.
</event>
<event>
 5   0  0.1249195E-03  0.9983559E+03  0.7818609E-02  0.9310350E-01
       -1   -1    0    0    0  501  0.00000000000E+00  0.00000000000E+00  0.25744033332E+03  0.25744033337E+03  0.50400001928E-02 0.  1.
        1   -1    0    0  501    0  0.00000000000E+00  0.00000000000E+00 -0.96790817036E+03  0.96790817037E+03  0.50400001928E-02 0. -1.
    10030    2    1    2    0    0  0.00000000000E+00  0.00000000000E+00 -0.71046783705E+03  0.12253485037E+04  0.99835585246E+03 0.  0.
        2    1    3    3  502    0  0.57340942857E+02  0.49216968123E+03 -0.42948323181E+03  0.65572465659E+03  0.25500000920E-02 0. -1.
       -2    1    3    3    0  502 -0.57340942857E+02 -0.49216968123E+03 -0.28098460524E+03  0.56962384715E+03  0.25500000920E-02 0.  1.
</event>
<event>
 5   0  0.8680125E-04  0.1000135E+04  0.7818609E-02  0.9308397E-01
       -4   -1    0    0    0  501  0.00000000000E+00  0.00000000000E+00  0.43599125902E+03  0.43599310871E+03  0.12699999809E+01 0. -1.
        4   -1    0    0  501    0  0.00000000000E+00  0.00000000000E+00 -0.57355692743E+03  0.57355833347E+03  0.12699999809E+01 0.  1.
    10030    2    1    2    0    0  0.00000000000E+00  0.00000000000E+00 -0.13756566841E+03  0.10095514422E+04  0.10001348915E+04 0.  0.
        3    1    3    3  502    0  0.98799082931E+01 -0.49945624896E+03 -0.45913776227E+02  0.50165948836E+03  0.10100000352E+00 0. -1.
       -3    1    3    3    0  502 -0.98799082931E+01  0.49945624896E+03 -0.91651892180E+02  0.50789195382E+03  0.10100000352E+00 0.  1.
</event>
<event>
 5   0  0.2204862E-03  0.1000329E+04  0.7818609E-02  0.9308184E-01
       -2   -1    0    0    0  501  0.00000000000E+00  0.00000000000E+00  0.32246254871E+03  0.32246254872E+03  0.25500000920E-02 0. -1.
        2   -1    0    0  501    0  0.00000000000E+00  0.00000000000E+00 -0.77579440831E+03  0.77579440831E+03  0.25500000920E-02 0.  1.
    10030    2    1    2    0    0  0.00000000000E+00  0.00000000000E+00 -0.45333185960E+03  0.10982569570E+04  0.10003292302E+04 0.  0.
        1    1    3    3  502    0 -0.14841769207E+03  0.34385601234E+03  0.13729905148E+03  0.39889321642E+03  0.50400001928E-02 0. -1.
       -1    1    3    3    0  502  0.14841769207E+03 -0.34385601234E+03 -0.59063091108E+03  0.69936374062E+03  0.50400001928E-02 0.  1.
</event>
<event>
 5   0  0.1293575E-03  0.9971522E+03  0.7818609E-02  0.9311674E-01
        1   -1    0    0  501    0  0.00000000000E+00  0.00000000000E+00  0.11050314612E+04  0.11050314612E+04  0.50400001928E-02 0.  1.
       -1   -1    0    0    0  501  0.00000000000E+00  0.00000000000E+00 -0.22495116732E+03  0.22495116737E+03  0.50400001928E-02 0. -1.
    10030    2    1    2    0    0  0.00000000000E+00  0.00000000000E+00  0.88008029386E+03  0.13299826286E+04  0.99715217928E+03 0.  0.
        4    1    3    3  502    0  0.49760079379E+03  0.18870574958E+02  0.47308605312E+03  0.68685855541E+03  0.12699999809E+01 0.  1.
       -4    1    3    3    0  502 -0.49760079379E+03 -0.18870574958E+02  0.40699424075E+03  0.64312407316E+03  0.12699999809E+01 0. -1.
</event>
<event>
 5   0  0.1285769E-03  0.9999263E+03  0.7818609E-02  0.9308626E-01
        1   -1    0    0  501    0  0.00000000000E+00  0.00000000000E+00  0.12569662808E+04  0.12569662808E+04  0.50400001928E-02 0. -1.
       -1   -1    0    0    0  501  0.00000000000E+00  0.00000000000E+00 -0.19886226596E+03  0.19886226602E+03  0.50400001928E-02 0.  1.
    10030    2    1    2    0    0  0.00000000000E+00  0.00000000000E+00  0.10581040149E+04  0.14558285469E+04  0.99992632307E+03 0.  0.
        5    1    3    3  502    0  0.47387861327E+03 -0.45251591006E+02  0.30665846072E+03  0.56627744802E+03  0.46999998093E+01 0.  1.
       -5    1    3    3    0  502 -0.47387861327E+03  0.45251591006E+02  0.75144555415E+03  0.88955109884E+03  0.46999998093E+01 0. -1.
</event>
<event>
 5   0  0.1353789E-03  0.1004194E+04  0.7818609E-02  0.9303957E-01
        1   -1    0    0  501    0  0.00000000000E+00  0.00000000000E+00  0.31231707893E+03  0.31231707898E+03  0.50400001928E-02 0. -1.
       -1   -1    0    0    0  501  0.00000000000E+00  0.00000000000E+00 -0.80719652342E+03  0.80719652343E+03  0.50400001928E-02 0.  1.
    10030    2    1    2    0    0  0.00000000000E+00  0.00000000000E+00 -0.49487944448E+03  0.11195136024E+04  0.10041937270E+04 0.  0.
        1    1    3    3  502    0 -0.45067107620E+03  0.15983786151E+03 -0.41815455247E+03  0.63522105654E+03  0.50400001928E-02 0.  1.
       -1    1    3    3    0  502  0.45067107620E+03 -0.15983786151E+03 -0.76724892015E+02  0.48429254587E+03  0.50400001928E-02 0. -1.
</event>
<event>
 5   0  0.1293716E-03  0.9984442E+03  0.7818609E-02  0.9310253E-01
       -1   -1    0    0    0  501  0.00000000000E+00  0.00000000000E+00  0.19293913857E+03  0.19293913864E+03  0.50400001928E-02 0. -1.
        1   -1    0    0  501    0  0.00000000000E+00  0.00000000000E+00 -0.12917166301E+04  0.12917166302E+04  0.50400001928E-02 0.  1.
    10030    2    1    2    0    0  0.00000000000E+00  0.00000000000E+00 -0.10987774916E+04  0.14846557688E+04  0.99844417761E+03 0.  0.
        3    1    3    3  502    0 -0.84311882049E+02 -0.36718219692E+02 -0.12790134436E+04  0.12823151408E+04  0.10100000352E+00 0.  1.
       -3    1    3    3    0  502  0.84311882049E+02  0.36718219692E+02  0.18023595207E+03  0.20234062798E+03  0.10100000352E+00 0. -1.
</event>
<event>
 5   0  0.2277570E-03  0.1001043E+04  0.7818609E-02  0.9307401E-01
       -2   -1    0    0    0  501  0.00000000000E+00  0.00000000000E+00  0.12723272418E+04  0.12723272418E+04  0.25500000920E-02 0. -1.
        2   -1    0    0  501    0  0.00000000000E+00  0.00000000000E+00 -0.19690048411E+03  0.19690048413E+03  0.25500000920E-02 0.  1.
    10030    2    1    2    0    0  0.00000000000E+00  0.00000000000E+00  0.10754267577E+04  0.14692277260E+04  0.10010431557E+04 0.  0.
        3    1    3    3  502    0  0.15443825582E+03 -0.23684980689E+03  0.11438789239E+04  0.11783072641E+04  0.10100000352E+00 0. -1.
       -3    1    3    3    0  502 -0.15443825582E+03  0.23684980689E+03 -0.68452166176E+02  0.29092046187E+03  0.10100000352E+00 0.  1.
</event>
<event>
 5   0  0.2204862E-03  0.1002286E+04  0.7818609E-02  0.9306041E-01
       -2   -1    0    0    0  501  0.00000000000E+00  0.00000000000E+00  0.32608808931E+03  0.32608808932E+03  0.25500000920E-02 0. -1.
        2   -1    0    0  501    0  0.00000000000E+00  0.00000000000E+00 -0.77017393292E+03  0.77017393292E+03  0.25500000920E-02 0.  1.
    10030    2    1    2    0    0  0.00000000000E+00  0.00000000000E+00 -0.44408584361E+03  0.10962620222E+04  0.10022864785E+04 0.  0.
        1    1    3    3  502    0 -0.48318750223E+03 -0.12050178719E+03 -0.16061965581E+03  0.52324900085E+03  0.50400001928E-02 0. -1.
       -1    1    3    3    0  502  0.48318750223E+03  0.12050178719E+03 -0.28346618779E+03  0.57301302139E+03  0.50400001928E-02 0.  1.
</event>
<event>
 5   0  0.8680125E-04  0.9987828E+03  0.7818609E-02  0.9309881E-01
        3   -1    0    0  501    0  0.00000000000E+00  0.00000000000E+00  0.18178755495E+04  0.18178755523E+04  0.10100000352E+00 0. -1.
       -3   -1    0    0    0  501  0.00000000000E+00  0.00000000000E+00 -0.13718857156E+03  0.13718860874E+03  0.10100000352E+00 0.  1.
    10030    2    1    2    0    0  0.00000000000E+00  0.00000000000E+00  0.16806869780E+04  0.19550641611E+04  0.99878283725E+03 0.  0.
        2    1    3    3  502    0 -0.49080813496E+02  0.45121397194E+03  0.12480792791E+04  0.13280455044E+04  0.25500000920E-02 0. -1.
       -2    1    3    3    0  502  0.49080813496E+02 -0.45121397194E+03  0.43260769883E+03  0.62701865668E+03  0.25500000920E-02 0.  1.
</event>
<event>
 5   0  0.2255142E-03  0.1001702E+04  0.7818609E-02  0.9306681E-01
        2   -1    0    0  501    0  0.00000000000E+00  0.00000000000E+00  0.12823783414E+04  0.12823783414E+04  0.25500000920E-02 0.  1.
       -2   -1    0    0    0  501  0.00000000000E+00  0.00000000000E+00 -0.19561424845E+03  0.19561424846E+03  0.25500000920E-02 0. -1.
    10030    2    1    2    0    0  0.00000000000E+00  0.00000000000E+00  0.10867640930E+04  0.14779925899E+04  0.10017015034E+04 0.  0.
        4    1    3    3  502    0 -0.46086017259E+03  0.17774176172E+03  0.66563915787E+03  0.82889162979E+03  0.12699999809E+01 0.  1.
       -4    1    3    3    0  502  0.46086017259E+03 -0.17774176172E+03  0.42112493513E+03  0.64910096012E+03  0.12699999809E+01 0. -1.
</event>
<event>
 5   0  0.1249195E-03  0.9964947E+03  0.7818609E-02  0.9312398E-01
        1   -1    0    0  501    0  0.00000000000E+00  0.00000000000E+00  0.53398934850E+03  0.53398934852E+03  0.50400001928E-02 0. -1.
       -1   -1    0    0    0  501  0.00000000000E+00  0.00000000000E+00 -0.46489770930E+03  0.46489770932E+03  0.50400001928E-02 0.  1.
    10030    2    1    2    0    0  0.00000000000E+00  0.00000000000E+00  0.69091639203E+02  0.99888705784E+03  0.99649470632E+03 0.  0.
        2    1    3    3  502    0 -0.19798401552E+02 -0.49679192972E+03  0.19681526542E+01  0.49719017666E+03  0.25500000920E-02 0.  1.
       -2    1    3    3    0  502  0.19798401552E+02  0.49679192972E+03  0.67123486549E+02  0.50169688118E+03  0.25500000920E-02 0. -1.
</event>
<event>
 5   0  0.2264577E-03  0.9934078E+03  0.7818609E-02  0.9315805E-01
       -2   -1    0    0    0  501  0.00000000000E+00  0.00000000000E+00  0.10766689912E+03  0.10766689915E+03  0.25500000920E-02 0. -1.
        2   -1    0    0  501    0  0.00000000000E+00  0.00000000000E+00 -0.22914632373E+04  0.22914632373E+04  0.25500000920E-02 0.  1.
    10030    2    1    2    0    0  0.00000000000E+00  0.00000000000E+00 -0.21837963381E+04  0.23991301364E+04  0.99340775362E+03 0.  0.
        5    1    3    3  502    0 -0.25564075753E+03 -0.21509913648E+03 -0.20431258993E+03  0.39164468569E+03  0.46999998093E+01 0. -1.
       -5    1    3    3    0  502  0.25564075753E+03  0.21509913648E+03 -0.19794837482E+04  0.20074854507E+04  0.46999998093E+01 0.  1.
</event>
<event>
 5   0  0.2264577E-03  0.1000205E+04  0.7818609E-02  0.9308319E-01
       -2   -1    0    0    0  501  0.00000000000E+00  0.00000000000E+00  0.20993065037E+03  0.20993065038E+03  0.25500000920E-02 0. -1.
        2   -1    0    0  501    0  0.00000000000E+00  0.00000000000E+00 -0.11913588926E+04  0.11913588926E+04  0.25500000920E-02 0.  1.
    10030    2    1    2    0    0  0.00000000000E+00  0.00000000000E+00 -0.98142824221E+03  0.14012895430E+04  0.10002054732E+04 0.  0.
        5    1    3    3  502    0 -0.13126060887E+03 -0.11050979357E+03  0.16736739325E+03  0.23974089397E+03  0.46999998093E+01 0. -1.
       -5    1    3    3    0  502  0.13126060887E+03  0.11050979357E+03 -0.11487956355E+04  0.11615486490E+04  0.46999998093E+01 0.  1.
</event>
<event>
 5   0  0.2277570E-03  0.1006834E+04  0.7818609E-02  0.9301081E-01
        2   -1    0    0  501    0  0.00000000000E+00  0.00000000000E+00  0.22473020783E+03  0.22473020784E+03  0.25500000920E-02 0.  1.
       -2   -1    0    0    0  501  0.00000000000E+00  0.00000000000E+00 -0.11277028696E+04  0.11277028696E+04  0.25500000920E-02 0. -1.
    10030    2    1    2    0    0  0.00000000000E+00  0.00000000000E+00 -0.90297266182E+03  0.13524330775E+04  0.10068344457E+04 0.  0.
        3    1    3    3  502    0 -0.19723405479E+03 -0.25300211519E+02 -0.10727134960E+04  0.10909883719E+04  0.10100000352E+00 0. -1.
       -3    1    3    3    0  502  0.19723405479E+03  0.25300211519E+02  0.16974083416E+03  0.26144470554E+03  0.10100000352E+00 0.  1.
</event>
<event>
 5   0  0.2264577E-03  0.9992593E+03  0.7818609E-02  0.9309358E-01
       -2   -1    0    0    0  501  0.00000000000E+00  0.00000000000E+00  0.20928194378E+03  0.20928194379E+03  0.25500000920E-02 0.  1.
        2   -1    0    0  501    0  0.00000000000E+00  0.00000000000E+00 -0.11927917489E+04  0.11927917489E+04  0.25500000920E-02 0. -1.
    10030    2    1    2    0    0  0.00000000000E+00  0.00000000000E+00 -0.98350980514E+03  0.14020736927E+04  0.99925927716E+03 0.  0.
        5    1    3    3  502    0 -0.65115411694E+02  0.44198569882E+03 -0.80555168046E+03  0.92115523919E+03  0.46999998093E+01 0. -1.
       -5    1    3    3    0  502  0.65115411694E+02 -0.44198569882E+03 -0.17795812468E+03  0.48091845352E+03  0.46999998093E+01 0.  1.
</event>
<event>
 5   0  0.2284843E-03  0.1000962E+04  0.7818609E-02  0.9307490E-01
       -2   -1    0    0    0  501  0.00000000000E+00  0.00000000000E+00  0.33669957143E+03  0.33669957144E+03  0.25500000920E-02 0.  1.
        2   -1    0    0  501    0  0.00000000000E+00  0.00000000000E+00 -0.74393087254E+03  0.74393087255E+03  0.25500000920E-02 0. -1.
    10030    2    1    2    0    0  0.00000000000E+00  0.00000000000E+00 -0.40723130111E+03  0.10806304440E+04  0.10009619493E+04 0.  0.
        2    1    3    3  502    0  0.22055565779E+03  0.10934218215E+03  0.26681979456E+03  0.36303348848E+03  0.25500000920E-02 0.  1.
       -2    1    3    3    0  502 -0.22055565779E+03 -0.10934218215E+03 -0.67405109567E+03  0.71759695551E+03  0.25500000920E-02 0. -1.
</event>
<event>
 5   0  0.2264577E-03  0.9974506E+03  0.7818609E-02  0.9311345E-01
       -2   -1    0    0    0  501  0.00000000000E+00  0.00000000000E+00  0.58935430930E+03  0.58935430930E+03  0.25500000920E-02 0. -1.
        2   -1    0    0  501    0  0.00000000000E+00  0.00000000000E+00 -0.42203292524E+03  0.42203292525E+03  0.25500000920E-02 0.  1.
    10030    2    1    2    0    0  0.00000000000E+00  0.00000000000E+00  0.16732138406E+03  0.10113872345E+04  0.99745059659E+03 0.  0.
        5    1    3    3  502    0  0.48981602452E+03 -0.78996420860E+02  0.13481014827E+03  0.51415565587E+03  0.46999998093E+01 0. -1.
       -5    1    3    3    0  502 -0.48981602452E+03  0.78996420860E+02  0.32511235787E+02  0.49723157868E+03  0.46999998093E+01 0.  1.
</event>
<event>
 5   0  0.2284843E-03  0.1001927E+04  0.7818609E-02  0.9306434E-01
       -2   -1    0    0    0  501  0.00000000000E+00  0.00000000000E+00  0.19639330283E+03  0.19639330285E+03  0.25500000920E-02 0.  1.
        2   -1    0    0  501    0  0.00000000000E+00  0.00000000000E+00 -0.12778658837E+04  0.12778658837E+04  0.25500000920E-02 0. -1.
    10030    2    1    2    0    0  0.00000000000E+00  0.00000000000E+00 -0.10814725809E+04  0.14742591865E+04  0.10019267468E+04 0.  0.
        2    1    3    3  502    0  0.28888898760E+03 -0.24363837591E+03 -0.10246263594E+04  0.10920969196E+04  0.25500000920E-02 0.  1.
       -2    1    3    3    0  502 -0.28888898760E+03  0.24363837591E+03 -0.56846221430E+02  0.38216226693E+03  0.25500000920E-02 0. -1.
</event>
<event>
 5   0  0.2255142E-03  0.1001709E+04  0.7818609E-02  0.9306672E-01
        2   -1    0    0  501    0  0.00000000000E+00  0.00000000000E+00  0.17182059087E+03  0.17182059088E+03  0.25500000920E-02 0. -1.
       -2   -1    0    0    0  501  0.00000000000E+00  0.00000000000E+00 -0.14599838155E+04  0.14599838155E+04  0.25500000920E-02 0.  1.
    10030    2    1    2    0    0  0.00000000000E+00  0.00000000000E+00 -0.12881632246E+04  0.16318044063E+04  0.10017091032E+04 0.  0.
        4    1    3    3  502    0 -0.37442676367E+03 -0.31767919947E+03 -0.80483705580E+03  0.94280420789E+03  0.12699999809E+01 0.  1.
       -4    1    3    3    0  502  0.37442676367E+03  0.31767919947E+03 -0.48332616879E+03  0.68900019845E+03  0.12699999809E+01 0. -1.
</event>
<event>
 5   0  0.2204862E-03  0.1001092E+04  0.7818609E-02  0.9307348E-01
       -2   -1    0    0    0  501  0.00000000000E+00  0.00000000000E+00  0.53668215746E+03  0.53668215746E+03  0.25500000920E-02 0. -1.
        2   -1    0    0  501    0  0.00000000000E+00  0.00000000000E+00 -0.46684266192E+03  0.46684266193E+03  0.25500000920E-02 0.  1.
    10030    2    1    2    0    0  0.00000000000E+00  0.00000000000E+00  0.69839495536E+02  0.10035248194E+04  0.10010916581E+04 0.  0.
        1    1    3    3  502    0 -0.39854558586E+03 -0.19921598276E+03  0.26355420521E+03  0.51767403924E+03  0.50400001928E-02 0. -1.
       -1    1    3    3    0  502  0.39854558586E+03  0.19921598276E+03 -0.19371470967E+03  0.48585078014E+03  0.50400001928E-02 0.  1.
</event>
<event>
 5   0  0.1353789E-03  0.1001574E+04  0.7818609E-02  0.9306820E-01
       -1   -1    0    0    0  501  0.00000000000E+00  0.00000000000E+00  0.96104161123E+03  0.96104161124E+03  0.50400001928E-02 0.  1.
        1   -1    0    0  501    0  0.00000000000E+00  0.00000000000E+00 -0.26095388164E+03  0.26095388169E+03  0.50400001928E-02 0. -1.
    10030    2    1    2    0    0  0.00000000000E+00  0.00000000000E+00  0.70008772959E+03  0.12219954929E+04  0.10015738393E+04 0.  0.
        1    1    3    3  502    0 -0.34608371825E+03 -0.45081075073E+02 -0.88133560416E+02  0.35996356463E+03  0.50400001928E-02 0. -1.
       -1    1    3    3    0  502  0.34608371825E+03  0.45081075073E+02  0.78822129000E+03  0.86203192830E+03  0.50400001928E-02 0.  1.
</event>
<event>
 5   0  0.1285769E-03  0.9987974E+03  0.7818609E-02  0.9309865E-01
       -1   -1    0    0    0  501  0.00000000000E+00  0.00000000000E+00  0.58140512422E+03  0.58140512424E+03  0.50400001928E-02 0.  1.
        1   -1    0    0  501    0  0.00000000000E+00  0.00000000000E+00 -0.42895913436E+03  0.42895913439E+03  0.50400001928E-02 0. -1.
    10030    2    1    2    0    0  0.00000000000E+00  0.00000000000E+00  0.15244598986E+03  0.10103642586E+04  0.99879735446E+03 0.  0.
        5    1    3    3  502    0  0.46822698355E+03  0.91838384695E+02 -0.72813287611E+02  0.48269520598E+03  0.46999998093E+01 0. -1.
       -5    1    3    3    0  502 -0.46822698355E+03 -0.91838384695E+02  0.22525927747E+03  0.52766905264E+03  0.46999998093E+01 0.  1.
</event>
<event>
 5   0  0.1249195E-03  0.9966310E+03  0.7818609E-02  0.9312248E-01
       -1   -1    0    0    0  501  0.00000000000E+00  0.00000000000E+00  0.13611849743E+04  0.13611849743E+04  0.50400001928E-02 0.  1.
        1   -1    0    0  501    0  0.00000000000E+00  0.00000000000E+00 -0.18242807199E+03  0.18242807206E+03  0.50400001928E-02 0. -1.
    10030    2    1    2    0    0  0.00000000000E+00  0.00000000000E+00  0.11787569024E+04  0.15436130464E+04  0.99663102610E+03 0.  0.
        2    1    3    3  502    0  0.22819635597E+03  0.42055449043E+03  0.37376974539E+03  0.60716017563E+03  0.25500000920E-02 0.  1.
       -2    1    3    3    0  502 -0.22819635597E+03 -0.42055449043E+03  0.80498715696E+03  0.93645287077E+03  0.25500000920E-02 0. -1.
</event>
<event>
 5   0  0.1285769E-03  0.9954592E+03  0.7818609E-02  0.9313539E-01
       -1   -1    0    0    0  501  0.00000000000E+00  0.00000000000E+00  0.34692838480E+03  0.34692838484E+03  0.50400001928E-02 0.  1.
        1   -1    0    0  501    0  0.00000000000E+00  0.00000000000E+00 -0.71408041197E+03  0.71408041199E+03  0.50400001928E-02 0. -1.
    10030    2    1    2    0    0  0.00000000000E+00  0.00000000000E+00 -0.36715202717E+03  0.10610087968E+04  0.99545921860E+03 0.  0.
        5    1    3    3  502    0  0.92730472630E+02 -0.21878038882E+03  0.28254100111E+03  0.36920902805E+03  0.46999998093E+01 0.  1.
       -5    1    3    3    0  502 -0.92730472630E+02  0.21878038882E+03 -0.64969302828E+03  0.69179976878E+03  0.46999998093E+01 0. -1.
</event>
<event>
 5   0  0.2204862E-03  0.9965284E+03  0.7818609E-02  0.9312361E-01
        2   -1    0    0  501    0  0.00000000000E+00  0.00000000000E+00  0.63895154415E+03  0.63895154415E+03  0.25500000920E-02 0. -1.
       -2   -1    0    0    0  501  0.00000000000E+00  0.00000000000E+00 -0.38855407550E+03  0.38855407551E+03  0.25500000920E-02 0.  1.
    10030    2    1    2    0    0  0.00000000000E+00  0.00000000000E+00  0.25039746865E+03  0.10275056197E+04  0.99652842716E+03 0.  0.
        1    1    3    3  502    0  0.48680453896E+02  0.39178763354E+03 -0.18822381677E+03  0.43737345783E+03  0.50400001928E-02 0. -1.
       -1    1    3    3    0  502 -0.48680453896E+02 -0.39178763354E+03  0.43862128542E+03  0.59013216184E+03  0.50400001928E-02 0.  1.
</event>
<event>
 5   0  0.2255142E-03  0.1012212E+04  0.7818609E-02  0.9295251E-01
       -2   -1    0    0    0  501  0.00000000000E+00  0.00000000000E+00  0.26251572305E+03  0.26251572306E+03  0.25500000920E-02 0. -1.
        2   -1    0    0  501    0  0.00000000000E+00  0.00000000000E+00 -0.97572566916E+03  0.97572566916E+03  0.25500000920E-02 0.  1.
    10030    2    1    2    0    0  0.00000000000E+00  0.00000000000E+00 -0.71320994611E+03  0.12382413922E+04  0.10122120915E+04 0.  0.
        4    1    3    3  502    0 -0.22872151218E+03  0.20275987989E+03 -0.85006246914E+03  0.90334540093E+03  0.12699999809E+01 0.  1.
       -4    1    3    3    0  502  0.22872151218E+03 -0.20275987989E+03  0.13685252303E+03  0.33489599130E+03  0.12699999809E+01 0. -1.
</event>
<event>
 5   0  0.1293575E-03  0.1000850E+04  0.7818609E-02  0.9307613E-01
        1   -1    0    0  501    0  0.00000000000E+00  0.00000000000E+00  0.45162475911E+03  0.45162475914E+03  0.50400001928E-02 0. -1.
       -1   -1    0    0    0  501  0.00000000000E+00  0.00000000000E+00 -0.55449856423E+03  0.55449856425E+03  0.50400001928E-02 0.  1.
    10030    2    1    2    0    0  0.00000000000E+00  0.00000000000E+00 -0.10287380512E+03  0.10061233234E+04  0.10008501996E+04 0.  0.
        4    1    3    3  502    0  0.43648652765E+03  0.13356951110E+03  0.15473476229E+03  0.48198108124E+03  0.12699999809E+01 0. -1.
       -4    1    3    3    0  502 -0.43648652765E+03 -0.13356951110E+03 -0.25760856741E+03  0.52414224216E+03  0.12699999809E+01 0.  1.
</event>
<event>
 5   0  0.1249195E-03  0.9969554E+03  0.7818609E-02  0.9311890E-01
        1   -1    0    0  501    0  0.00000000000E+00  0.00000000000E+00  0.82917263600E+03  0.82917263601E+03  0.50400001928E-02 0. -1.
       -1   -1    0    0    0  501  0.00000000000E+00  0.00000000000E+00 -0.29967220973E+03  0.29967220977E+03  0.50400001928E-02 0.  1.
    10030    2    1    2    0    0  0.00000000000E+00  0.00000000000E+00  0.52950042627E+03  0.11288448458E+04  0.99695535729E+03 0.  0.
        2    1    3    3  502    0 -0.38991892967E+03 -0.15420580368E+03 -0.40473013678E+02  0.42125320942E+03  0.25500000920E-02 0. -1.
       -2    1    3    3    0  502  0.38991892967E+03  0.15420580368E+03  0.56997343995E+03  0.70759163637E+03  0.25500000920E-02 0.  1.
</event>
<event>
 5   0  0.1249195E-03  0.1003205E+04  0.7818609E-02  0.9305037E-01
       -1   -1    0    0    0  501  0.00000000000E+00  0.00000000000E+00  0.24602463051E+03  0.24602463056E+03  0.50400001928E-02 0.  1.
        1   -1    0    0  501    0  0.00000000000E+00  0.00000000000E+00 -0.10226822529E+04  0.10226822529E+04  0.50400001928E-02 0. -1.
    10030    2    1    2    0    0  0.00000000000E+00  0.00000000000E+00 -0.77665762238E+03  0.12687068835E+04  0.10032049111E+04 0.  0.
        2    1    3    3  502    0  0.25663227653E+03 -0.42045282914E+03 -0.26859129680E+03  0.56105435708E+03  0.25500000920E-02 0.  1.
       -2    1    3    3    0  502 -0.25663227653E+03  0.42045282914E+03 -0.50806632558E+03  0.70765252637E+03  0.25500000920E-02 0. -1.
</event>
<event>
 5   0  0.2284843E-03  0.9993245E+03  0.7818609E-02  0.9309286E-01
        2   -1    0    0  501    0  0.00000000000E+00  0.00000000000E+00  0.17344557463E+04  0.17344557463E+04  0.25500000920E-02 0.  1.
       -2   -1    0    0    0  501  0.00000000000E+00  0.00000000000E+00 -0.14394277033E+03  0.14394277035E+03  0.25500000920E-02 0. -1.
    10030    2    1    2    0    0  0.00000000000E+00  0.00000000000E+00  0.15905129760E+04  0.18783985167E+04  0.99932450219E+03 0.  0.
        2    1    3    3  502    0 -0.35537250725E+02  0.40123965328E+03  0.23954120028E+03  0.46865354175E+03  0.25500000920E-02 0. -1.
       -2    1    3    3    0  502  0.35537250725E+02 -0.40123965328E+03  0.13509717757E+04  0.14097449749E+04  0.25500000920E-02 0.  1.
</event>
<event>
 5   0  0.1353789E-03  0.1003579E+04  0.7818609E-02  0.9304628E-01
       -1   -1    0    0    0  501  0.00000000000E+00  0.00000000000E+00  0.29626551518E+03  0.29626551523E+03  0.50400001928E-02 0.  1.
        1   -1    0    0  501    0  0.00000000000E+00  0.00000000000E+00 -0.84988836672E+03  0.84988836674E+03  0.50400001928E-02 0. -1.
    10030    2    1    2    0    0  0.00000000000E+00  0.00000000000E+00 -0.55362285154E+03  0.11461538820E+04  0.10035788257E+04 0.  0.
        1    1    3    3  502    0 -0.13671306114E+03  0.13016178560E+03  0.25416980455E+03  0.31659886463E+03  0.50400001928E-02 0.  1.
       -1    1    3    3    0  502  0.13671306114E+03 -0.13016178560E+03 -0.80779265609E+03  0.82955501733E+03  0.50400001928E-02 0. -1.
</event>
<event>
 5   0  0.1249195E-03  0.1003231E+04  0.7818609E-02  0.9305008E-01
       -1   -1    0    0    0  501  0.00000000000E+00  0.00000000000E+00  0.38366311024E+03  0.38366311027E+03  0.50400001928E-02 0. -1.
        1   -1    0    0  501    0  0.00000000000E+00  0.00000000000E+00 -0.65583054295E+03  0.65583054297E+03  0.50400001928E-02 0.  1.
    10030    2    1    2    0    0  0.00000000000E+00  0.00000000000E+00 -0.27216743272E+03  0.10394936532E+04  0.10032307530E+04 0.  0.
        2    1    3    3  502    0 -0.13799608565E+03 -0.45703881960E+03 -0.29556469264E+03  0.56150324115E+03  0.25500000920E-02 0.  1.
       -2    1    3    3    0  502  0.13799608565E+03  0.45703881960E+03  0.23397259924E+02  0.47799041210E+03  0.25500000920E-02 0. -1.
</event>
<event>
 5   0  0.1293716E-03  0.1006951E+04  0.7818609E-02  0.9300954E-01
       -1   -1    0    0    0  501  0.00000000000E+00  0.00000000000E+00  0.68101236916E+03  0.68101236917E+03  0.50400001928E-02 0.  1.
        1   -1    0    0  501    0  0.00000000000E+00  0.00000000000E+00 -0.37222176273E+03  0.37222176276E+03  0.50400001928E-02 0. -1.
    10030    2    1    2    0    0  0.00000000000E+00  0.00000000000E+00  0.30879060643E+03  0.10532341319E+04  0.10069510902E+04 0.  0.
        3    1    3    3  502    0 -0.48125652203E+02 -0.19894431697E+03  0.63553022827E+03  0.66767776727E+03  0.10100000352E+00 0.  1.
       -3    1    3    3    0  502  0.48125652203E+02  0.19894431697E+03 -0.32673962184E+03  0.38555636467E+03  0.10100000352E+00 0. -1.
</event>
<event>
 5   0  0.1293575E-03  0.1002540E+04  0.7818609E-02  0.9305764E-01
        1   -1    0    0  501    0  0.00000000000E+00  0.00000000000E+00  0.11873804363E+04  0.11873804363E+04  0.50400001928E-02 0.  1.
       -1   -1    0    0    0  501  0.00000000000E+00  0.00000000000E+00 -0.21161839728E+03  0.21161839734E+03  0.50400001928E-02 0. -1.
    10030    2    1    2    0    0  0.00000000000E+00  0.00000000000E+00  0.97576203906E+03  0.13989988337E+04  0.10025398644E+04 0.  0.
        4    1    3    3  502    0  0.31830760887E+03  0.15756907798E+03 -0.57277418485E+01  0.35522129459E+03  0.12699999809E+01 0. -1.
       -4    1    3    3    0  502 -0.31830760887E+03 -0.15756907798E+03  0.98148978091E+03  0.10437775391E+04  0.12699999809E+01 0.  1.
</event>
<event>
 5   0  0.2255142E-03  0.9864812E+03  0.7818609E-02  0.9323498E-01
       -2   -1    0    0    0  501  0.00000000000E+00  0.00000000000E+00  0.23351165777E+03  0.23351165778E+03  0.25500000920E-02 0.  1.
        2   -1    0    0  501    0  0.00000000000E+00  0.00000000000E+00 -0.10418592534E+04  0.10418592534E+04  0.25500000920E-02 0. -1.
    10030    2    1    2    0    0  0.00000000000E+00  0.00000000000E+00 -0.80834759559E+03  0.12753709111E+04  0.98648118365E+03 0.  0.
        4    1    3    3  502    0  0.37550971759E+02  0.27646858349E+03 -0.93003071202E+03  0.97098078834E+03  0.12699999809E+01 0. -1.
       -4    1    3    3    0  502 -0.37550971759E+02 -0.27646858349E+03  0.12168311642E+03  0.30439012280E+03  0.12699999809E+01 0.  1.
</event>
<event>
 5   0  0.2284843E-03  0.9966705E+03  0.7818609E-02  0.9312204E-01
       -2   -1    0    0    0  501  0.00000000000E+00  0.00000000000E+00  0.53235298900E+03  0.53235298901E+03  0.25500000920E-02 0.  1.
        2   -1    0    0  501    0  0.00000000000E+00  0.00000000000E+00 -0.46649123782E+03  0.46649123783E+03  0.25500000920E-02 0. -1.
    10030    2    1    2    0    0  0.00000000000E+00  0.00000000000E+00  0.65861751183E+02  0.99884422684E+03  0.99667046671E+03 0.  0.
        2    1    3    3  502    0 -0.13344597215E+03 -0.10705235068E+03 -0.43613906208E+03  0.46849259839E+03  0.25500000920E-02 0. -1.
       -2    1    3    3    0  502  0.13344597215E+03  0.10705235068E+03  0.50200081326E+03  0.53035162844E+03  0.25500000920E-02 0.  1.
</event>
<event>
 5   0  0.2264577E-03  0.9996349E+03  0.7818609E-02  0.9308945E-01
        2   -1    0    0  501    0  0.00000000000E+00  0.00000000000E+00  0.42337321489E+03  0.42337321490E+03  0.25500000920E-02 0. -1.
       -2   -1    0    0    0  501  0.00000000000E+00  0.00000000000E+00 -0.59006446920E+03  0.59006446921E+03  0.25500000920E-02 0.  1.
    10030    2    1    2    0    0  0.00000000000E+00  0.00000000000E+00 -0.16669125431E+03  0.10134376841E+04  0.99963491601E+03 0.  0.
        5    1    3    3  502    0 -0.12655791016E+03 -0.85444876852E+02 -0.56581341864E+03  0.58607563191E+03  0.46999998093E+01 0.  1.
       -5    1    3    3    0  502  0.12655791016E+03  0.85444876852E+02  0.39912216433E+03  0.42736205220E+03  0.46999998093E+01 0. -1.
</event>
<event>
 5   0  0.2277570E-03  0.9993393E+03  0.7818609E-02  0.9309270E-01
        2   -1    0    0  501    0  0.00000000000E+00  0.00000000000E+00  0.11179200316E+04  0.11179200316E+04  0.25500000920E-02 0. -1.
       -2   -1    0    0    0  501  0.00000000000E+00  0.00000000000E+00 -0.22333418335E+03  0.22333418336E+03  0.25500000920E-02 0.  1.
    10030    2    1    2    0    0  0.00000000000E+00  0.00000000000E+00  0.89458584828E+03  0.13412542150E+04  0.99933929638E+03 0.  0.
        3    1    3    3  502    0  0.27132647892E+03  0.11165077767E+03 -0.95545931271E+02  0.30856602130E+03  0.10100000352E+00 0.  1.
       -3    1    3    3    0  502 -0.27132647892E+03 -0.11165077767E+03  0.99013177955E+03  0.10326881937E+04  0.10100000352E+00 0. -1.
</event>
<event>
 5   0  0.2204862E-03  0.9820554E+03  0.7818609E-02  0.9328448E-01
       -2   -1    0    0    0  501  0.00000000000E+00  0.00000000000E+00  0.23690919731E+03  0.23690919732E+03  0.25500000920E-02 0. -1.
        2   -1    0    0  501    0  0.00000000000E+00  0.00000000000E+00 -0.10177240804E+04  0.10177240804E+04  0.25500000920E-02 0.  1.
    10030    2    1    2    0    0  0.00000000000E+00  0.00000000000E+00 -0.78081488313E+03  0.12546332778E+04  0.98205538538E+03 0.  0.
        1    1    3    3  502    0  0.23302500641E+03 -0.35884138157E+03 -0.69819143853E+03  0.81886450381E+03  0.50400001928E-02 0.  1.
       -1    1    3    3    0  502 -0.23302500641E+03  0.35884138157E+03 -0.82623444603E+02  0.43576877396E+03  0.50400001928E-02 0. -1.
</event>
<event>
 5   0  0.1293716E-03  0.1002115E+04  0.7818609E-02  0.9306228E-01
       -1   -1    0    0    0  501  0.00000000000E+00  0.00000000000E+00  0.17597169851E+03  0.17597169859E+03  0.50400001928E-02 0.  1.
        1   -1    0    0  501    0  0.00000000000E+00  0.00000000000E+00 -0.14267001184E+04  0.14267001184E+04  0.50400001928E-02 0. -1.
    10030    2    1    2    0    0  0.00000000000E+00  0.00000000000E+00 -0.12507284199E+04  0.16026718170E+04  0.10021154488E+04 0.  0.
        3    1    3    3  502    0 -0.37089562353E+03  0.30454375480E+03 -0.85573045490E+03  0.98111420527E+03  0.10100000352E+00 0.  1.
       -3    1    3    3    0  502  0.37089562353E+03 -0.30454375480E+03 -0.39499796496E+03  0.62155761170E+03  0.10100000352E+00 0. -1.
</event>
<event>
 5   0  0.1293716E-03  0.9995064E+03  0.7818609E-02  0.9309086E-01
        1   -1    0    0  501    0  0.00000000000E+00  0.00000000000E+00  0.15879964049E+04  0.15879964049E+04  0.50400001928E-02 0.  1.
       -1   -1    0    0    0  501  0.00000000000E+00  0.00000000000E+00 -0.15727571837E+03  0.15727571845E+03  0.50400001928E-02 0. -1.
    10030    2    1    2    0    0  0.00000000000E+00  0.00000000000E+00  0.14307206865E+04  0.17452721233E+04  0.99950642904E+03 0.  0.
        3    1    3    3  502    0 -0.47805683575E+03  0.12925945194E+03  0.83258461337E+03  0.96873293159E+03  0.10100000352E+00 0.  1.
       -3    1    3    3    0  502  0.47805683575E+03 -0.12925945194E+03  0.59813607314E+03  0.77653919175E+03  0.10100000352E+00 0. -1.
</event>
<event>
 5   0  0.2264577E-03  0.9956922E+03  0.7818609E-02  0.9313282E-01
       -2   -1    0    0    0  501  0.00000000000E+00  0.00000000000E+00  0.29094504974E+03  0.29094504975E+03  0.25500000920E-02 0.  1.
        2   -1    0    0  501    0  0.00000000000E+00  0.00000000000E+00 -0.85188154475E+03  0.85188154476E+03  0.25500000920E-02 0. -1.
    10030    2    1    2    0    0  0.00000000000E+00  0.00000000000E+00 -0.56093649501E+03  0.11428265945E+04  0.99569215809E+03 0.  0.
        5    1    3    3  502    0  0.35144302684E+02 -0.48450629114E+03 -0.40539699423E+03  0.63273239295E+03  0.46999998093E+01 0. -1.
       -5    1    3    3    0  502 -0.35144302684E+02  0.48450629114E+03 -0.15553950078E+03  0.51009420156E+03  0.46999998093E+01 0.  1.
</event>
<event>
 5   0  0.1293575E-03  0.9999103E+03  0.7818609E-02  0.9308643E-01
       -1   -1    0    0    0  501  0.00000000000E+00  0.00000000000E+00  0.64996864486E+03  0.64996864488E+03  0.50400001928E-02 0. -1.
        1   -1    0    0  501    0  0.00000000000E+00  0.00000000000E+00 -0.38456490357E+03  0.38456490360E+03  0.50400001928E-02 0.  1.
    10030    2    1    2    0    0  0.00000000000E+00  0.00000000000E+00  0.26540374130E+03  0.10345335485E+04  0.99991025449E+03 0.  0.
        4    1    3    3  502    0  0.19777131729E+03 -0.11580715482E+03 -0.32701318519E+03  0.39932947204E+03  0.12699999809E+01 0.  1.
       -4    1    3    3    0  502 -0.19777131729E+03  0.11580715482E+03  0.59241692649E+03  0.63520407645E+03  0.12699999809E+01 0. -1.
</event>
<event>
 5   0  0.2204862E-03  0.9987888E+03  0.7818609E-02  0.9309874E-01
        2   -1    0    0  501    0  0.00000000000E+00  0.00000000000E+00  0.55917373883E+03  0.55917373884E+03  0.25500000920E-02 0.  1.
       -2   -1    0    0    0  501  0.00000000000E+00  0.00000000000E+00 -0.44600585684E+03  0.44600585685E+03  0.25500000920E-02 0. -1.
    10030    2    1    2    0    0  0.00000000000E+00  0.00000000000E+00  0.11316788199E+03  0.10051795957E+04  0.99878879152E+03 0.  0.
        1    1    3    3  502    0 -0.31163031921E+02 -0.86898160008E+02  0.55051173813E+03  0.55819852975E+03  0.50400001928E-02 0.  1.
       -1    1    3    3    0  502  0.31163031921E+02  0.86898160008E+02 -0.43734385615E+03  0.44698106594E+03  0.50400001928E-02 0. -1.
</event>
<event>
 5   0  0.2277570E-03  0.9831105E+03  0.7818609E-02  0.9327265E-01
       -2   -1    0    0    0  501  0.00000000000E+00  0.00000000000E+00  0.22883431014E+03  0.22883431015E+03  0.25500000920E-02 0.  1.
        2   -1    0    0  501    0  0.00000000000E+00  0.00000000000E+00 -0.10559018108E+04  0.10559018108E+04  0.25500000920E-02 0. -1.
    10030    2    1    2    0    0  0.00000000000E+00  0.00000000000E+00 -0.82706750069E+03  0.12847361210E+04  0.98311049728E+03 0.  0.
        3    1    3    3  502    0 -0.31470554075E+03  0.34340649907E+03 -0.20832356971E+03  0.51026103210E+03  0.10100000352E+00 0.  1.
       -3    1    3    3    0  502  0.31470554075E+03 -0.34340649907E+03 -0.61874393098E+03  0.77447508889E+03  0.10100000352E+00 0. -1.
</event>
<event>
 5   0  0.8680125E-04  0.1001351E+04  0.7818609E-02  0.9307065E-01
        3   -1    0    0  501    0  0.00000000000E+00  0.00000000000E+00  0.39613322361E+03  0.39613323648E+03  0.10100000352E+00 0.  1.
       -3   -1    0    0    0  501  0.00000000000E+00  0.00000000000E+00 -0.63280679441E+03  0.63280680247E+03  0.10100000352E+00 0. -1.
    10030    2    1    2    0    0  0.00000000000E+00  0.00000000000E+00 -0.23667357080E+03  0.10289400390E+04  0.10013507001E+04 0.  0.
        5    1    3    3  502    0  0.30466784656E+03 -0.33243863106E+03 -0.34185187352E+03  0.56588226123E+03  0.46999998093E+01 0. -1.
       -5    1    3    3    0  502 -0.30466784656E+03  0.33243863106E+03  0.10517830271E+03  0.46305777773E+03  0.46999998093E+01 0.  1.
</event>
<event>
 5   0  0.1353789E-03  0.9990581E+03  0.7818609E-02  0.9309578E-01
        1   -1    0    0  501    0  0.00000000000E+00  0.00000000000E+00  0.68592710572E+03  0.68592710573E+03  0.50400001928E-02 0. -1.
       -1   -1    0    0    0  501  0.00000000000E+00  0.00000000000E+00 -0.36378393523E+03  0.36378393527E+03  0.50400001928E-02 0.  1.
    10030    2    1    2    0    0  0.00000000000E+00  0.00000000000E+00  0.32214317048E+03  0.10497110410E+04  0.99905808005E+03 0.  0.
        1    1    3    3  502    0 -0.20176596467E+03 -0.45388765736E+03  0.10541665360E+03  0.50777571908E+03  0.50400001928E-02 0.  1.
       -1    1    3    3    0  502  0.20176596467E+03  0.45388765736E+03  0.21672651689E+03  0.54193532193E+03  0.50400001928E-02 0. -1.
</event>
<event>
 5   0  0.2277570E-03  0.9984148E+03  0.7818609E-02  0.9310285E-01
        2   -1    0    0  501    0  0.00000000000E+00  0.00000000000E+00  0.17691242770E+04  0.17691242770E+04  0.25500000920E-02 0.  1.
       -2   -1    0    0    0  501  0.00000000000E+00  0.00000000000E+00 -0.14086519530E+03  0.14086519532E+03  0.25500000920E-02 0. -1.
    10030    2    1    2    0    0  0.00000000000E+00  0.00000000000E+00  0.16282590817E+04  0.19099894723E+04  0.99841481722E+03 0.  0.
        3    1    3    3  502    0 -0.19488503156E+03  0.35357507501E+03  0.25242864154E+03  0.47614676148E+03  0.10100000352E+00 0. -1.
       -3    1    3    3    0  502  0.19488503156E+03 -0.35357507501E+03  0.13758304401E+04  0.14338427108E+04  0.10100000352E+00 0.  1.
</event>
<event>
 5   0  0.2204862E-03  0.9950347E+03  0.7818609E-02  0.9314007E-01
       -2   -1    0    0    0  501  0.00000000000E+00  0.00000000000E+00  0.15184238870E+03  0.15184238872E+03  0.25500000920E-02 0.  1.
        2   -1    0    0  501    0  0.00000000000E+00  0.00000000000E+00 -0.16301346259E+04  0.16301346259E+04  0.25500000920E-02 0. -1.
    10030    2    1    2    0    0  0.00000000000E+00  0.00000000000E+00 -0.14782922372E+04  0.17819770146E+04  0.99503474416E+03 0.  0.
        1    1    3    3  502    0  0.17438466976E+03 -0.38265883826E+03 -0.12152807210E+04  0.12859801828E+04  0.50400001928E-02 0. -1.
       -1    1    3    3    0  502 -0.17438466976E+03  0.38265883826E+03 -0.26301151615E+03  0.49599683184E+03  0.50400001928E-02 0.  1.
</event>
<event>
 5   0  0.1249195E-03  0.9990529E+03  0.7818609E-02  0.9309584E-01
       -1   -1    0    0    0  501  0.00000000000E+00  0.00000000000E+00  0.59300740821E+03  0.59300740823E+03  0.50400001928E-02 0. -1.
        1   -1    0    0  501    0  0.00000000000E+00  0.00000000000E+00 -0.42078172024E+03  0.42078172027E+03  0.50400001928E-02 0.  1.
    10030    2    1    2    0    0  0.00000000000E+00  0.00000000000E+00  0.17222568797E+03  0.10137891285E+04  0.99905290624E+03 0.  0.
        2    1    3    3  502    0  0.15272148711E+03 -0.47502392327E+03  0.62204824361E+02  0.50283299463E+03  0.25500000920E-02 0.  1.
       -2    1    3    3    0  502 -0.15272148711E+03  0.47502392327E+03  0.11002086361E+03  0.51095613387E+03  0.25500000920E-02 0. -1.
</event>
<event>
 5   0  0.2255142E-03  0.9995323E+03  0.7818609E-02  0.9309058E-01
       -2   -1    0    0    0  501  0.00000000000E+00  0.00000000000E+00  0.37913252899E+03  0.37913252900E+03  0.25500000920E-02 0.  1.
        2   -1    0    0  501    0  0.00000000000E+00  0.00000000000E+00 -0.65878331110E+03  0.65878331110E+03  0.25500000920E-02 0. -1.
    10030    2    1    2    0    0  0.00000000000E+00  0.00000000000E+00 -0.27965078211E+03  0.10379158401E+04  0.99953225621E+03 0.  0.
        4    1    3    3  502    0 -0.39310715610E+03 -0.29586267940E+03 -0.23092468868E+03  0.54350325296E+03  0.12699999809E+01 0. -1.
       -4    1    3    3    0  502  0.39310715610E+03  0.29586267940E+03 -0.48726093428E+02  0.49441258714E+03  0.12699999809E+01 0.  1.
</event>
<event>
 5   0  0.2284843E-03  0.1005662E+04  0.7818609E-02  0.9302357E-01
        2   -1    0    0  501    0  0.00000000000E+00  0.00000000000E+00  0.89133192258E+03  0.89133192258E+03  0.25500000920E-02 0. -1.
       -2   -1    0    0    0  501  0.00000000000E+00  0.00000000000E+00 -0.28366414103E+03  0.28366414104E+03  0.25500000920E-02 0.  1.
    10030    2    1    2    0    0  0.00000000000E+00  0.00000000000E+00  0.60766778155E+03  0.11749960636E+04  0.10056617805E+04 0.  0.
        2    1    3    3  502    0  0.56767629725E+02  0.47775820567E+03  0.47460721473E+03  0.67581615485E+03  0.25500000920E-02 0. -1.
       -2    1    3    3    0  502 -0.56767629725E+02 -0.47775820567E+03  0.13306056682E+03  0.49917990877E+03  0.25500000920E-02 0.  1.
</event>
<event>
 5   0  0.1293716E-03  0.9860127E+03  0.7818609E-02  0.9324020E-01
        1   -1    0    0  501    0  0.00000000000E+00  0.00000000000E+00  0.59939851680E+03  0.59939851682E+03  0.50400001928E-02 0.  1.
       -1   -1    0    0    0  501  0.00000000000E+00  0.00000000000E+00 -0.40549856565E+03  0.40549856568E+03  0.50400001928E-02 0. -1.
    10030    2    1    2    0    0  0.00000000000E+00  0.00000000000E+00  0.19389995115E+03  0.10048970825E+04  0.98601265478E+03 0.  0.
        3    1    3    3  502    0  0.43374808538E+03 -0.83240693672E+02  0.32020904226E+03  0.54552750215E+03  0.10100000352E+00 0. -1.
       -3    1    3    3    0  502 -0.43374808538E+03  0.83240693672E+02 -0.12630909111E+03  0.45936958036E+03  0.10100000352E+00 0.  1.
</event>
<event>
 5   0  0.1293575E-03  0.1004092E+04  0.7818609E-02  0.9304068E-01
       -1   -1    0    0    0  501  0.00000000000E+00  0.00000000000E+00  0.42307384516E+03  0.42307384519E+03  0.50400001928E-02 0. -1.
        1   -1    0    0  501    0  0.00000000000E+00  0.00000000000E+00 -0.59575939798E+03  0.59575939800E+03  0.50400001928E-02 0.  1.
    10030    2    1    2    0    0  0.00000000000E+00  0.00000000000E+00 -0.17268555283E+03  0.10188332432E+04  0.10040920661E+04 0.  0.
        4    1    3    3  502    0  0.49457615027E+03  0.82788953259E+02 -0.11096896809E+03  0.51359059958E+03  0.12699999809E+01 0. -1.
       -4    1    3    3    0  502 -0.49457615027E+03 -0.82788953259E+02 -0.61716584731E+02  0.50524264361E+03  0.12699999809E+01 0.  1.
</event>
<event>
 5   0  0.1285769E-03  0.1012206E+04  0.7818609E-02  0.9295258E-01
       -1   -1    0    0    0  501  0.00000000000E+00  0.00000000000E+00  0.56103932584E+03  0.56103932586E+03  0.50400001928E-02 0.  1.
        1   -1    0    0  501    0  0.00000000000E+00  0.00000000000E+00 -0.45654621719E+03  0.45654621721E+03  0.50400001928E-02 0. -1.
    10030    2    1    2    0    0  0.00000000000E+00  0.00000000000E+00  0.10449310865E+03  0.10175855431E+04  0.10122062674E+04 0.  0.
        5    1    3    3  502    0  0.89009248147E+02  0.36672344228E+03 -0.28675399398E+03  0.47398172163E+03  0.46999998093E+01 0. -1.
       -5    1    3    3    0  502 -0.89009248147E+02 -0.36672344228E+03  0.39124710263E+03  0.54360382145E+03  0.46999998093E+01 0.  1.
</event>
<event>
 5   0  0.1293575E-03  0.9971564E+03  0.7818609E-02  0.9311669E-01
       -1   -1    0    0    0  501  0.00000000000E+00  0.00000000000E+00  0.43368025841E+03  0.43368025844E+03  0.50400001928E-02 0. -1.
        1   -1    0    0  501    0  0.00000000000E+00  0.00000000000E+00 -0.57318773141E+03  0.57318773143E+03  0.50400001928E-02 0.  1.
    10030    2    1    2    0    0  0.00000000000E+00  0.00000000000E+00 -0.13950747299E+03  0.10068679899E+04  0.99715636387E+03 0.  0.
        4    1    3    3  502    0  0.43765026696E+03  0.64524795444E+02  0.16243666064E+03  0.47126265184E+03  0.12699999809E+01 0. -1.
       -4    1    3    3    0  502 -0.43765026696E+03 -0.64524795444E+02 -0.30194413363E+03  0.53560533803E+03  0.12699999809E+01 0.  1.
</event>
<event>
 5   0  0.1353789E-03  0.1001815E+04  0.7818609E-02  0.9306557E-01
        1   -1    0    0  501    0  0.00000000000E+00  0.00000000000E+00  0.74827808733E+03  0.74827808734E+03  0.50400001928E-02 0. -1.
       -1   -1    0    0    0  501  0.00000000000E+00  0.00000000000E+00 -0.33531406928E+03  0.33531406932E+03  0.50400001928E-02 0.  1.
    10030    2    1    2    0    0  0.00000000000E+00  0.00000000000E+00  0.41296401804E+03  0.10835921567E+04  0.10018146943E+04 0.  0.
        1    1    3    3  502    0 -0.23301320953E+03  0.17339424694E+03  0.64789737662E+03  0.71002234567E+03  0.50400001928E-02 0. -1.
       -1    1    3    3    0  502  0.23301320953E+03 -0.17339424694E+03 -0.23493335857E+03  0.37356981100E+03  0.50400001928E-02 0.  1.
</event>
<event>
 5   0  0.2264577E-03  0.1014580E+04  0.7818609E-02  0.9292697E-01
       -2   -1    0    0    0  501  0.00000000000E+00  0.00000000000E+00  0.23990198746E+03  0.23990198747E+03  0.25500000920E-02 0. -1.
        2   -1    0    0  501    0  0.00000000000E+00  0.00000000000E+00 -0.10727009124E+04  0.10727009124E+04  0.25500000920E-02 0.  1.
    10030    2    1    2    0    0  0.00000000000E+00  0.00000000000E+00 -0.83279892490E+03  0.13126028998E+04  0.10145798753E+04 0.  0.
        5    1    3    3  502    0  0.24092384233E+03  0.36204509303E+03 -0.78537389735E+02  0.44194022082E+03  0.46999998093E+01 0. -1.
       -5    1    3    3    0  502 -0.24092384233E+03 -0.36204509303E+03 -0.75426153517E+03  0.87066267901E+03  0.46999998093E+01 0.  1.
</event>
<event>
 5   0  0.1293575E-03  0.1001460E+04  0.7818609E-02  0.9306945E-01
        1   -1    0    0  501    0  0.00000000000E+00  0.00000000000E+00  0.52805161204E+03  0.52805161207E+03  0.50400001928E-02 0. -1.
       -1   -1    0    0    0  501  0.00000000000E+00  0.00000000000E+00 -0.47482162486E+03  0.47482162488E+03  0.50400001928E-02 0.  1.
    10030    2    1    2    0    0  0.00000000000E+00  0.00000000000E+00  0.53229987187E+02  0.10028732370E+04  0.10014595837E+04 0.  0.
        4    1    3    3  502    0 -0.20791030263E+03 -0.37410521695E+03 -0.23365051979E+03  0.48762238011E+03  0.12699999809E+01 0.  1.
       -4    1    3    3    0  502  0.20791030263E+03  0.37410521695E+03  0.28688050698E+03  0.51525085684E+03  0.12699999809E+01 0. -1.
</event>
<event>
 5   0  0.8680125E-04  0.1001038E+04  0.7818609E-02  0.9307407E-01
        4   -1    0    0  501    0  0.00000000000E+00  0.00000000000E+00  0.23010198838E+03  0.23010549311E+03  0.12699999809E+01 0.  1.
       -4   -1    0    0    0  501  0.00000000000E+00  0.00000000000E+00 -0.10887194921E+04  0.10887202328E+04  0.12699999809E+01 0. -1.
    10030    2    1    2    0    0  0.00000000000E+00  0.00000000000E+00 -0.85861750372E+03  0.13188257259E+04  0.10010381000E+04 0.  0.
        4    1    3    3  502    0 -0.40998160721E+03 -0.28303288821E+03 -0.36578086797E+03  0.61805322613E+03  0.12699999809E+01 0.  1.
       -4    1    3    3    0  502  0.40998160721E+03  0.28303288821E+03 -0.49283663574E+03  0.70077249981E+03  0.12699999809E+01 0. -1.
</event>
<event>
 5   0  0.2277570E-03  0.1002374E+04  0.7818609E-02  0.9305945E-01
       -2   -1    0    0    0  501  0.00000000000E+00  0.00000000000E+00  0.29659004989E+03  0.29659004990E+03  0.25500000920E-02 0.  1.
        2   -1    0    0  501    0  0.00000000000E+00  0.00000000000E+00 -0.84692045183E+03  0.84692045183E+03  0.25500000920E-02 0. -1.
    10030    2    1    2    0    0  0.00000000000E+00  0.00000000000E+00 -0.55033040193E+03  0.11435105017E+04  0.10023735413E+04 0.  0.
        3    1    3    3  502    0  0.38885115506E+03 -0.43378437335E+02  0.82147006506E+02  0.39979375995E+03  0.10100000352E+00 0.  1.
       -3    1    3    3    0  502 -0.38885115506E+03  0.43378437335E+02 -0.63247740844E+03  0.74371674178E+03  0.10100000352E+00 0. -1.
</event>
<event>
 5   0  0.2277570E-03  0.1002169E+04  0.7818609E-02  0.9306169E-01
       -2   -1    0    0    0  501  0.00000000000E+00  0.00000000000E+00  0.13000706978E+03  0.13000706980E+03  0.25500000920E-02 0.  1.
        2   -1    0    0  501    0  0.00000000000E+00  0.00000000000E+00 -0.19313242187E+04  0.19313242187E+04  0.25500000920E-02 0. -1.
    10030    2    1    2    0    0  0.00000000000E+00  0.00000000000E+00 -0.18013171489E+04  0.20613312885E+04  0.10021692522E+04 0.  0.
        3    1    3    3  502    0  0.37843423140E+03 -0.13163681484E+03 -0.28173199312E+03  0.48980980458E+03  0.10100000352E+00 0.  1.
       -3    1    3    3    0  502 -0.37843423140E+03  0.13163681484E+03 -0.15195851558E+04  0.15715214839E+04  0.10100000352E+00 0. -1.
</event>
<event>
 5   0  0.1285769E-03  0.1005522E+04  0.7818609E-02  0.9302509E-01
       -1   -1    0    0    0  501  0.00000000000E+00  0.00000000000E+00  0.67210556011E+03  0.67210556013E+03  0.50400001928E-02 0. -1.
        1   -1    0    0  501    0  0.00000000000E+00  0.00000000000E+00 -0.37608493502E+03  0.37608493505E+03  0.50400001928E-02 0.  1.
    10030    2    1    2    0    0  0.00000000000E+00  0.00000000000E+00  0.29602062510E+03  0.10481904952E+04  0.10055223039E+04 0.  0.
        5    1    3    3  502    0  0.39247847656E+03 -0.11749726763E+03  0.45175365109E+03  0.60987573631E+03  0.46999998093E+01 0. -1.
       -5    1    3    3    0  502 -0.39247847656E+03  0.11749726763E+03 -0.15573302599E+03  0.43831475888E+03  0.46999998093E+01 0.  1.
</event>
<event>
 5   0  0.2264577E-03  0.9868228E+03  0.7818609E-02  0.9323117E-01
       -2   -1    0    0    0  501  0.00000000000E+00  0.00000000000E+00  0.18085035335E+03  0.18085035337E+03  0.25500000920E-02 0. -1.
        2   -1    0    0  501    0  0.00000000000E+00  0.00000000000E+00 -0.13461671084E+04  0.13461671084E+04  0.25500000920E-02 0.  1.
    10030    2    1    2    0    0  0.00000000000E+00  0.00000000000E+00 -0.11653167551E+04  0.15270174618E+04  0.98682277487E+03 0.  0.
        5    1    3    3  502    0  0.47151316097E+03  0.57280343091E+02 -0.37605183216E+03  0.60584054762E+03  0.46999998093E+01 0. -1.
       -5    1    3    3    0  502 -0.47151316097E+03 -0.57280343091E+02 -0.78926492291E+03  0.92117691418E+03  0.46999998093E+01 0.  1.
</event>
<event>
 5   0  0.2277570E-03  0.1001104E+04  0.7818609E-02  0.9307334E-01
        2   -1    0    0  501    0  0.00000000000E+00  0.00000000000E+00  0.75446306706E+03  0.75446306706E+03  0.25500000920E-02 0.  1.
       -2   -1    0    0    0  501  0.00000000000E+00  0.00000000000E+00 -0.33209386283E+03  0.33209386284E+03  0.25500000920E-02 0. -1.
    10030    2    1    2    0    0  0.00000000000E+00  0.00000000000E+00  0.42236920423E+03  0.10865569299E+04  0.10011044987E+04 0.  0.
        3    1    3    3  502    0  0.38256231414E+03 -0.29979765221E+03  0.34106523452E+03  0.59376599841E+03  0.10100000352E+00 0.  1.
       -3    1    3    3    0  502 -0.38256231414E+03  0.29979765221E+03  0.81303969706E+02  0.49279093149E+03  0.10100000352E+00 0. -1.
</event>
<event>
 5   0  0.1293716E-03  0.1000885E+04  0.7818609E-02  0.9307575E-01
        1   -1    0    0  501    0  0.00000000000E+00  0.00000000000E+00  0.80386703806E+03  0.80386703808E+03  0.50400001928E-02 0. -1.
       -1   -1    0    0    0  501  0.00000000000E+00  0.00000000000E+00 -0.31154723343E+03  0.31154723347E+03  0.50400001928E-02 0.  1.
    10030    2    1    2    0    0  0.00000000000E+00  0.00000000000E+00  0.49231980463E+03  0.11154142715E+04  0.10008847122E+04 0.  0.
        3    1    3    3  502    0  0.18712066847E+02  0.40681471925E+03  0.57029226491E+03  0.70077217044E+03  0.10100000352E+00 0. -1.
       -3    1    3    3    0  502 -0.18712066847E+02 -0.40681471925E+03 -0.77972460285E+02  0.41464210111E+03  0.10100000352E+00 0.  1.
</event>
<event>
 5   0  0.1293716E-03  0.9930163E+03  0.7818609E-02  0.9316238E-01
        1   -1    0    0  501    0  0.00000000000E+00  0.00000000000E+00  0.13537171152E+04  0.13537171152E+04  0.50400001928E-02 0. -1.
       -1   -1    0    0    0  501  0.00000000000E+00  0.00000000000E+00 -0.18210622976E+03  0.18210622983E+03  0.50400001928E-02 0.  1.
    10030    2    1    2    0    0  0.00000000000E+00  0.00000000000E+00  0.11716108854E+04  0.15358233450E+04  0.99301625379E+03 0.  0.
        3    1    3    3  502    0  0.43446519144E+03 -0.23643367294E+03  0.65249753007E+03  0.81878808078E+03  0.10100000352E+00 0. -1.
       -3    1    3    3    0  502 -0.43446519144E+03  0.23643367294E+03  0.51911335538E+03  0.71703526427E+03  0.10100000352E+00 0.  1.
</event>
<event>
 5   0  0.1293575E-03  0.9933835E+03  0.7818609E-02  0.9315832E-01
       -1   -1    0    0    0  501  0.00000000000E+00  0.00000000000E+00  0.59538070369E+03  0.59538070371E+03  0.50400001928E-02 0. -1.
        1   -1    0    0  501    0  0.00000000000E+00  0.00000000000E+00 -0.41436127283E+03  0.41436127286E+03  0.50400001928E-02 0.  1.
    10030    2    1    2    0    0  0.00000000000E+00  0.00000000000E+00  0.18101943086E+03  0.10097419766E+04  0.99338352357E+03 0.  0.
        4    1    3    3  502    0  0.47158919012E+03  0.68960299446E+02 -0.51611208476E+02  0.47939254987E+03  0.12699999809E+01 0.  1.
       -4    1    3    3    0  502 -0.47158919012E+03 -0.68960299446E+02  0.23263063934E+03  0.53034942669E+03  0.12699999809E+01 0. -1.
</event>
<event>
 5   0  0.8680125E-04  0.9952700E+03  0.7818609E-02  0.9313748E-01
       -3   -1    0    0    0  501  0.00000000000E+00  0.00000000000E+00  0.35215089715E+03  0.35215091164E+03  0.10100000352E+00 0. -1.
        3   -1    0    0  501    0  0.00000000000E+00  0.00000000000E+00 -0.70322288496E+03  0.70322289222E+03  0.10100000352E+00 0.  1.
    10030    2    1    2    0    0  0.00000000000E+00  0.00000000000E+00 -0.35107198781E+03  0.10553738039E+04  0.99526997605E+03 0.  0.
        5    1    3    3  502    0  0.38487493295E+03 -0.52503699591E+02 -0.50533781322E+03  0.63739606835E+03  0.46999998093E+01 0.  1.
       -5    1    3    3    0  502 -0.38487493295E+03  0.52503699591E+02  0.15426582541E+03  0.41797773550E+03  0.46999998093E+01 0. -1.
</event>
<event>
 5   0  0.2204862E-03  0.9980922E+03  0.7818609E-02  0.9310640E-01
       -2   -1    0    0    0  501  0.00000000000E+00  0.00000000000E+00  0.11207112472E+03  0.11207112475E+03  0.25500000920E-02 0.  1.
        2   -1    0    0  501    0  0.00000000000E+00  0.00000000000E+00 -0.22222227572E+04  0.22222227572E+04  0.25500000920E-02 0. -1.
    10030    2    1    2    0    0  0.00000000000E+00  0.00000000000E+00 -0.21101516324E+04  0.23342938819E+04  0.99809218776E+03 0.  0.
        1    1    3    3  502    0  0.32863317077E+03 -0.11577909014E+03 -0.18906450354E+04  0.19224836042E+04  0.50400001928E-02 0. -1.
       -1    1    3    3    0  502 -0.32863317077E+03  0.11577909014E+03 -0.21950659706E+03  0.41181027770E+03  0.50400001928E-02 0.  1.
</event>
<event>
 5   0  0.8680125E-04  0.9975731E+03  0.7818609E-02  0.9311211E-01
       -4   -1    0    0    0  501  0.00000000000E+00  0.00000000000E+00  0.49877189668E+03  0.49877351355E+03  0.12699999809E+01 0.  1.
        4   -1    0    0  501    0  0.00000000000E+00  0.00000000000E+00 -0.49879795048E+03  0.49879956727E+03  0.12699999809E+01 0. -1.
    10030    2    1    2    0    0  0.00000000000E+00  0.00000000000E+00 -0.26053803657E-01  0.99757308082E+03  0.99757308048E+03 0.  0.
        4    1    3    3  502    0 -0.97146061991E+01 -0.38149072844E+03 -0.32119342860E+03  0.49879492874E+03  0.12699999809E+01 0. -1.
       -4    1    3    3    0  502  0.97146061991E+01  0.38149072844E+03  0.32116737480E+03  0.49877815208E+03  0.12699999809E+01 0.  1.
</event>
<event>
 5   0  0.2284843E-03  0.9838133E+03  0.7818609E-02  0.9326478E-01
        2   -1    0    0  501    0  0.00000000000E+00  0.00000000000E+00  0.16638945883E+04  0.16638945883E+04  0.25500000920E-02 0. -1.
       -2   -1    0    0    0  501  0.00000000000E+00  0.00000000000E+00 -0.14542517981E+03  0.14542517983E+03  0.25500000920E-02 0.  1.
    10030    2    1    2    0    0  0.00000000000E+00  0.00000000000E+00  0.15184694085E+04  0.18093197682E+04  0.98381333538E+03 0.  0.
        2    1    3    3  502    0 -0.37791937418E+03 -0.23699729941E+03  0.37795570627E+03  0.58467195009E+03  0.25500000920E-02 0.  1.
       -2    1    3    3    0  502  0.37791937418E+03  0.23699729941E+03  0.11405137022E+04  0.12246478181E+04  0.25500000920E-02 0. -1.
</event>
<event>
 5   0  0.2277570E-03  0.1012071E+04  0.7818609E-02  0.9295404E-01
        2   -1    0    0  501    0  0.00000000000E+00  0.00000000000E+00  0.87510797134E+03  0.87510797134E+03  0.25500000920E-02 0.  1.
       -2   -1    0    0    0  501  0.00000000000E+00  0.00000000000E+00 -0.29261747108E+03  0.29261747110E+03  0.25500000920E-02 0. -1.
    10030    2    1    2    0    0  0.00000000000E+00  0.00000000000E+00  0.58249050025E+03  0.11677254424E+04  0.10120709096E+04 0.  0.
        3    1    3    3  502    0  0.47582005492E+03 -0.13245926736E+03  0.16421376605E+03  0.52049625679E+03  0.10100000352E+00 0. -1.
       -3    1    3    3    0  502 -0.47582005492E+03  0.13245926736E+03  0.41827673420E+03  0.64722918564E+03  0.10100000352E+00 0.  1.
</event>
<event>
 5   0  0.1249195E-03  0.1000182E+04  0.7818609E-02  0.9308345E-01
       -1   -1    0    0    0  501  0.00000000000E+00  0.00000000000E+00  0.10168858705E+04  0.10168858705E+04  0.50400001928E-02 0.  1.
        1   -1    0    0  501    0  0.00000000000E+00  0.00000000000E+00 -0.24593816009E+03  0.24593816014E+03  0.50400001928E-02 0. -1.
    10030    2    1    2    0    0  0.00000000000E+00  0.00000000000E+00  0.77094771040E+03  0.12628240306E+04  0.10001820635E+04 0.  0.
        2    1    3    3  502    0  0.12256916740E+03  0.50439934615E+02 -0.22335796646E+03  0.25972325462E+03  0.25500000920E-02 0. -1.
       -2    1    3    3    0  502 -0.12256916740E+03 -0.50439934615E+02  0.99430567686E+03  0.10031007760E+04  0.25500000920E-02 0.  1.
</event>
<event>
 5   0  0.1353789E-03  0.1047699E+04  0.7818609E-02  0.9257723E-01
        1   -1    0    0  501    0  0.00000000000E+00  0.00000000000E+00  0.28000671082E+03  0.28000671087E+03  0.50400001928E-02 0. -1.
       -1   -1    0    0    0  501  0.00000000000E+00  0.00000000000E+00 -0.98004113245E+03  0.98004113246E+03  0.50400001928E-02 0.  1.
    10030    2    1    2    0    0  0.00000000000E+00  0.00000000000E+00 -0.70003442162E+03  0.12600478433E+04  0.10476986093E+04 0.  0.
        1    1    3    3  502    0  0.50750800497E+03  0.10746948025E+03 -0.26242738940E+03  0.58136236465E+03  0.50400001928E-02 0. -1.
       -1    1    3    3    0  502 -0.50750800497E+03 -0.10746948025E+03 -0.43760703222E+03  0.67868547868E+03  0.50400001928E-02 0.  1.
</event>
<event>
 5   0  0.2277570E-03  0.1001549E+04  0.7818609E-02  0.9306848E-01
       -2   -1    0    0    0  501  0.00000000000E+00  0.00000000000E+00  0.39530145457E+03  0.39530145458E+03  0.25500000920E-02 0.  1.
        2   -1    0    0  501    0  0.00000000000E+00  0.00000000000E+00 -0.63438943192E+03  0.63438943192E+03  0.25500000920E-02 0. -1.
    10030    2    1    2    0    0  0.00000000000E+00  0.00000000000E+00 -0.23908797735E+03  0.10296908865E+04  0.10015489308E+04 0.  0.
        3    1    3    3  502    0 -0.35902303258E+03  0.17274071393E+03 -0.43144635372E+03  0.58726728030E+03  0.10100000352E+00 0. -1.
       -3    1    3    3    0  502  0.35902303258E+03 -0.17274071393E+03  0.19235837637E+03  0.44242360621E+03  0.10100000352E+00 0.  1.
</event>
<event>
 5   0  0.2264577E-03  0.9981401E+03  0.7818609E-02  0.9310587E-01
        2   -1    0    0  501    0  0.00000000000E+00  0.00000000000E+00  0.22556273284E+04  0.22556273284E+04  0.25500000920E-02 0. -1.
       -2   -1    0    0    0  501  0.00000000000E+00  0.00000000000E+00 -0.11042202168E+03  0.11042202171E+03  0.25500000920E-02 0.  1.
    10030    2    1    2    0    0  0.00000000000E+00  0.00000000000E+00  0.21452053067E+04  0.23660493501E+04  0.99814013005E+03 0.  0.
        5    1    3    3  502    0 -0.37303340493E+03 -0.26123709341E+02  0.18559752902E+04  0.18932783042E+04  0.46999998093E+01 0. -1.
       -5    1    3    3    0  502  0.37303340493E+03  0.26123709341E+02  0.28923001650E+03  0.47277104589E+03  0.46999998093E+01 0.  1.
</event>
<event>
 5   0  0.1293716E-03  0.1001731E+04  0.7818609E-02  0.9306648E-01
       -1   -1    0    0    0  501  0.00000000000E+00  0.00000000000E+00  0.19513128781E+03  0.19513128787E+03  0.50400001928E-02 0.  1.
        1   -1    0    0  501    0  0.00000000000E+00  0.00000000000E+00 -0.12856283004E+04  0.12856283004E+04  0.50400001928E-02 0. -1.
    10030    2    1    2    0    0  0.00000000000E+00  0.00000000000E+00 -0.10904970126E+04  0.14807595883E+04  0.10017311135E+04 0.  0.
        3    1    3    3  502    0 -0.72861751341E+02  0.40574203553E+03 -0.96577220181E+03  0.10500720881E+04  0.10100000352E+00 0. -1.
       -3    1    3    3    0  502  0.72861751341E+02 -0.40574203553E+03 -0.12472481080E+03  0.43068750021E+03  0.10100000352E+00 0.  1.
</event>
<event>
 5   0  0.1249195E-03  0.9990749E+03  0.7818609E-02  0.9309560E-01
       -1   -1    0    0    0  501  0.00000000000E+00  0.00000000000E+00  0.45474233559E+03  0.45474233562E+03  0.50400001928E-02 0. -1.
        1   -1    0    0  501    0  0.00000000000E+00  0.00000000000E+00 -0.54874515931E+03  0.54874515933E+03  0.50400001928E-02 0.  1.
    10030    2    1    2    0    0  0.00000000000E+00  0.00000000000E+00 -0.94002823719E+02  0.10034874950E+04  0.99907488291E+03 0.  0.
        2    1    3    3  502    0  0.11054309082E+02  0.29525689529E+03  0.35756639216E+03  0.46384540180E+03  0.25500000920E-02 0. -1.
       -2    1    3    3    0  502 -0.11054309082E+02 -0.29525689529E+03 -0.45156921588E+03  0.53964209315E+03  0.25500000920E-02 0.  1.
</event>
<event>
 5   0  0.1249195E-03  0.1002542E+04  0.7818609E-02  0.9305761E-01
        1   -1    0    0  501    0  0.00000000000E+00  0.00000000000E+00  0.82386427059E+03  0.82386427061E+03  0.50400001928E-02 0.  1.
       -1   -1    0    0    0  501  0.00000000000E+00  0.00000000000E+00 -0.30499285008E+03  0.30499285012E+03  0.50400001928E-02 0. -1.
    10030    2    1    2    0    0  0.00000000000E+00  0.00000000000E+00  0.51887142051E+03  0.11288571207E+04  0.10025421926E+04 0.  0.
        2    1    3    3  502    0 -0.17706360781E+03 -0.46856464444E+03  0.23782468570E+03  0.55449520139E+03  0.25500000920E-02 0.  1.
       -2    1    3    3    0  502  0.17706360781E+03  0.46856464444E+03  0.28104673481E+03  0.57436191934E+03  0.25500000920E-02 0. -1.
</event>
<event>
 5   0  0.2255142E-03  0.1007709E+04  0.7818609E-02  0.9300130E-01
        2   -1    0    0  501    0  0.00000000000E+00  0.00000000000E+00  0.13669140850E+04  0.13669140850E+04  0.25500000920E-02 0.  1.
       -2   -1    0    0    0  501  0.00000000000E+00  0.00000000000E+00 -0.18572432822E+03  0.18572432824E+03  0.25500000920E-02 0. -1.
    10030    2    1    2    0    0  0.00000000000E+00  0.00000000000E+00  0.11811897568E+04  0.15526384132E+04  0.10077086884E+04 0.  0.
        4    1    3    3  502    0  0.91983609178E+01  0.49279747511E+03  0.75170299841E+03  0.89888429291E+03  0.12699999809E+01 0. -1.
       -4    1    3    3    0  502 -0.91983609178E+01 -0.49279747511E+03  0.42948675835E+03  0.65375412031E+03  0.12699999809E+01 0.  1.
</event>
<event>
 5   0  0.1285769E-03  0.1001383E+04  0.7818609E-02  0.9307030E-01
       -1   -1    0    0    0  501  0.00000000000E+00  0.00000000000E+00  0.11018254111E+04  0.11018254111E+04  0.50400001928E-02 0.  1.
        1   -1    0    0  501    0  0.00000000000E+00  0.00000000000E+00 -0.22752401116E+03  0.22752401121E+03  0.50400001928E-02 0. -1.
    10030    2    1    2    0    0  0.00000000000E+00  0.00000000000E+00  0.87430139994E+03  0.13293494223E+04  0.10013825187E+04 0.  0.
        5    1    3    3  502    0 -0.62914565046E+02  0.15287326026E+02 -0.22191386787E+03  0.23121375301E+03  0.46999998093E+01 0. -1.
       -5    1    3    3    0  502  0.62914565046E+02 -0.15287326026E+02  0.10962152678E+04  0.10981356693E+04  0.46999998093E+01 0.  1.
</event>
<event>
 5   0  0.2264577E-03  0.1000656E+04  0.7818609E-02  0.9307825E-01
        2   -1    0    0  501    0  0.00000000000E+00  0.00000000000E+00  0.47501157083E+03  0.47501157083E+03  0.25500000920E-02 0.  1.
       -2   -1    0    0    0  501  0.00000000000E+00  0.00000000000E+00 -0.52699402005E+03  0.52699402006E+03  0.25500000920E-02 0. -1.
    10030    2    1    2    0    0  0.00000000000E+00  0.00000000000E+00 -0.51982449223E+02  0.10020055909E+04  0.10006562992E+04 0.  0.
        5    1    3    3  502    0  0.14594918975E+02  0.41919111114E+03  0.24708874631E+03  0.48683584283E+03  0.46999998093E+01 0.  1.
       -5    1    3    3    0  502 -0.14594918975E+02 -0.41919111114E+03 -0.29907119553E+03  0.51516974806E+03  0.46999998093E+01 0. -1.
</event>
<event>
 5   0  0.1249195E-03  0.9985624E+03  0.7818609E-02  0.9310123E-01
       -1   -1    0    0    0  501  0.00000000000E+00  0.00000000000E+00  0.93886235728E+03  0.93886235729E+03  0.50400001928E-02 0.  1.
        1   -1    0    0  501    0  0.00000000000E+00  0.00000000000E+00 -0.26551466974E+03  0.26551466979E+03  0.50400001928E-02 0. -1.
    10030    2    1    2    0    0  0.00000000000E+00  0.00000000000E+00  0.67334768753E+03  0.12043770271E+04  0.99856242422E+03 0.  0.
        2    1    3    3  502    0 -0.39713052135E+03  0.24266642392E+03  0.11863085947E+03  0.48028421284E+03  0.25500000920E-02 0. -1.
       -2    1    3    3    0  502  0.39713052135E+03 -0.24266642392E+03  0.55471682806E+03  0.72409281424E+03  0.25500000920E-02 0.  1.
</event>
<event>
 5   0  0.2204862E-03  0.9966831E+03  0.7818609E-02  0.9312190E-01
       -2   -1    0    0    0  501  0.00000000000E+00  0.00000000000E+00  0.17826228613E+03  0.17826228615E+03  0.25500000920E-02 0. -1.
        2   -1    0    0  501    0  0.00000000000E+00  0.00000000000E+00 -0.13931399142E+04  0.13931399142E+04  0.25500000920E-02 0.  1.
    10030    2    1    2    0    0  0.00000000000E+00  0.00000000000E+00 -0.12148776280E+04  0.15714022003E+04  0.99668311116E+03 0.  0.
        1    1    3    3  502    0 -0.29281637106E+03  0.10781185469E+03  0.51784401645E+01  0.31207633592E+03  0.50400001928E-02 0. -1.
       -1    1    3    3    0  502  0.29281637106E+03 -0.10781185469E+03 -0.12200560682E+04  0.12593258644E+04  0.50400001928E-02 0.  1.
</event>
<event>
 5   0  0.1285769E-03  0.1000025E+04  0.7818609E-02  0.9308518E-01
       -1   -1    0    0    0  501  0.00000000000E+00  0.00000000000E+00  0.47902147812E+03  0.47902147815E+03  0.50400001928E-02 0.  1.
        1   -1    0    0  501    0  0.00000000000E+00  0.00000000000E+00 -0.52192316821E+03  0.52192316823E+03  0.50400001928E-02 0. -1.
    10030    2    1    2    0    0  0.00000000000E+00  0.00000000000E+00 -0.42901690088E+02  0.10009446464E+04  0.10000248147E+04 0.  0.
        5    1    3    3  502    0 -0.24145950810E+03  0.43768481092E+02 -0.45747975682E+03  0.51916104620E+03  0.46999998093E+01 0. -1.
       -5    1    3    3    0  502  0.24145950810E+03 -0.43768481092E+02  0.41457806673E+03  0.48178360018E+03  0.46999998093E+01 0.  1.
</event>
<event>
 5   0  0.8680125E-04  0.1004047E+04  0.7818609E-02  0.9304117E-01
        4   -1    0    0  501    0  0.00000000000E+00  0.00000000000E+00  0.29664650029E+03  0.29664921883E+03  0.12699999809E+01 0. -1.
       -4   -1    0    0    0  501  0.00000000000E+00  0.00000000000E+00 -0.84958149802E+03  0.84958244725E+03  0.12699999809E+01 0.  1.
    10030    2    1    2    0    0  0.00000000000E+00  0.00000000000E+00 -0.55293499773E+03  0.11462316661E+04  0.10040467721E+04 0.  0.
        5    1    3    3  502    0  0.79870510412E+02 -0.23310198211E+03 -0.77577039989E+03  0.81397643445E+03  0.46999998093E+01 0.  1.
       -5    1    3    3    0  502 -0.79870510412E+02  0.23310198211E+03  0.22283540216E+03  0.33225523164E+03  0.46999998093E+01 0. -1.
</event>
<event>
 5   0  0.2284843E-03  0.1003645E+04  0.7818609E-02  0.9304556E-01
        2   -1    0    0  501    0  0.00000000000E+00  0.00000000000E+00  0.14550092649E+04  0.14550092649E+04  0.25500000920E-02 0.  1.
       -2   -1    0    0    0  501  0.00000000000E+00  0.00000000000E+00 -0.17307518887E+03  0.17307518889E+03  0.25500000920E-02 0. -1.
    10030    2    1    2    0    0  0.00000000000E+00  0.00000000000E+00  0.12819340760E+04  0.16280844538E+04  0.10036453624E+04 0.  0.
        2    1    3    3  502    0  0.24576187922E+02  0.22894397067E+03  0.13642564798E+04  0.13835516157E+04  0.25500000920E-02 0.  1.
       -2    1    3    3    0  502 -0.24576187922E+02 -0.22894397067E+03 -0.82322403777E+02  0.24453283806E+03  0.25500000920E-02 0. -1.
</event>
<event>
 5   0  0.2284843E-03  0.1003321E+04  0.7818609E-02  0.9304909E-01
        2   -1    0    0  501    0  0.00000000000E+00  0.00000000000E+00  0.14453293425E+04  0.14453293425E+04  0.25500000920E-02 0.  1.
       -2   -1    0    0    0  501  0.00000000000E+00  0.00000000000E+00 -0.17412187509E+03  0.17412187511E+03  0.25500000920E-02 0. -1.
    10030    2    1    2    0    0  0.00000000000E+00  0.00000000000E+00  0.12712074674E+04  0.16194512176E+04  0.10033213947E+04 0.  0.
        2    1    3    3  502    0 -0.99513230098E+01 -0.33918495733E+03  0.12319832820E+04  0.12778608184E+04  0.25500000920E-02 0.  1.
       -2    1    3    3    0  502  0.99513230098E+01  0.33918495733E+03  0.39224185423E+02  0.34159039921E+03  0.25500000920E-02 0. -1.
</event>
<event>
 5   0  0.2255142E-03  0.1000231E+04  0.7818609E-02  0.9308292E-01
       -2   -1    0    0    0  501  0.00000000000E+00  0.00000000000E+00  0.25390398633E+03  0.25390398634E+03  0.25500000920E-02 0. -1.
        2   -1    0    0  501    0  0.00000000000E+00  0.00000000000E+00 -0.98507822966E+03  0.98507822966E+03  0.25500000920E-02 0.  1.
    10030    2    1    2    0    0  0.00000000000E+00  0.00000000000E+00 -0.73117424333E+03  0.12389822160E+04  0.10002305522E+04 0.  0.
        4    1    3    3  502    0  0.42378115900E+03 -0.53593850864E+02 -0.43404759212E+02  0.42935807620E+03  0.12699999809E+01 0. -1.
       -4    1    3    3    0  502 -0.42378115900E+03  0.53593850864E+02 -0.68776948412E+03  0.80962413981E+03  0.12699999809E+01 0.  1.
</event>
<event>
 5   0  0.2284843E-03  0.1005008E+04  0.7818609E-02  0.9303069E-01
        2   -1    0    0  501    0  0.00000000000E+00  0.00000000000E+00  0.24234689757E+04  0.24234689757E+04  0.25500000920E-02 0. -1.
       -2   -1    0    0    0  501  0.00000000000E+00  0.00000000000E+00 -0.10419372189E+03  0.10419372192E+03  0.25500000920E-02 0.  1.
    10030    2    1    2    0    0  0.00000000000E+00  0.00000000000E+00  0.23192752538E+04  0.25276626976E+04  0.10050079651E+04 0.  0.
        2    1    3    3  502    0 -0.23204305034E+03  0.22126514293E+03  0.18650476864E+03  0.37092623177E+03  0.25500000920E-02 0.  1.
       -2    1    3    3    0  502  0.23204305034E+03 -0.22126514293E+03  0.21327704852E+04  0.21567364659E+04  0.25500000920E-02 0. -1.
</event>
<event>
 5   0  0.2284843E-03  0.1006259E+04  0.7818609E-02  0.9301706E-01
        2   -1    0    0  501    0  0.00000000000E+00  0.00000000000E+00  0.48438481564E+03  0.48438481565E+03  0.25500000920E-02 0.  1.
       -2   -1    0    0    0  501  0.00000000000E+00  0.00000000000E+00 -0.52259999142E+03  0.52259999143E+03  0.25500000920E-02 0. -1.
    10030    2    1    2    0    0  0.00000000000E+00  0.00000000000E+00 -0.38215175780E+02  0.10069848071E+04  0.10062594109E+04 0.  0.
        2    1    3    3  502    0  0.33462176126E+03  0.16061561423E+03 -0.35901463274E+03  0.51639191044E+03  0.25500000920E-02 0. -1.
       -2    1    3    3    0  502 -0.33462176126E+03 -0.16061561423E+03  0.32079945696E+03  0.49059289664E+03  0.25500000920E-02 0.  1.
</event>
<event>
 5   0  0.2277570E-03  0.9977128E+03  0.7818609E-02  0.9311057E-01
        2   -1    0    0  501    0  0.00000000000E+00  0.00000000000E+00  0.13408075386E+04  0.13408075386E+04  0.25500000920E-02 0. -1.
       -2   -1    0    0    0  501  0.00000000000E+00  0.00000000000E+00 -0.18560286788E+03  0.18560286790E+03  0.25500000920E-02 0.  1.
    10030    2    1    2    0    0  0.00000000000E+00  0.00000000000E+00  0.11552046707E+04  0.15264104065E+04  0.99771283335E+03 0.  0.
        3    1    3    3  502    0 -0.43296866386E+03 -0.22765764072E+03  0.42795364653E+03  0.64994938190E+03  0.10100000352E+00 0.  1.
       -3    1    3    3    0  502  0.43296866386E+03  0.22765764072E+03  0.72725102419E+03  0.87646102460E+03  0.10100000352E+00 0. -1.
</event>
<event>
 5   0  0.1293575E-03  0.9990030E+03  0.7818609E-02  0.9309639E-01
        1   -1    0    0  501    0  0.00000000000E+00  0.00000000000E+00  0.55149428482E+03  0.55149428484E+03  0.50400001928E-02 0.  1.
       -1   -1    0    0    0  501  0.00000000000E+00  0.00000000000E+00 -0.45241035497E+03  0.45241035499E+03  0.50400001928E-02 0. -1.
    10030    2    1    2    0    0  0.00000000000E+00  0.00000000000E+00  0.99083929850E+02  0.10039046398E+04  0.99900295331E+03 0.  0.
        4    1    3    3  502    0 -0.33558460644E+03 -0.36597590580E+03 -0.49895715993E+01  0.49657013647E+03  0.12699999809E+01 0.  1.
       -4    1    3    3    0  502  0.33558460644E+03  0.36597590580E+03  0.10407350145E+03  0.50733450337E+03  0.12699999809E+01 0. -1.
</event>
<event>
 5   0  0.1353789E-03  0.9983815E+03  0.7818609E-02  0.9310322E-01
       -1   -1    0    0    0  501  0.00000000000E+00  0.00000000000E+00  0.12707048990E+03  0.12707049000E+03  0.50400001928E-02 0. -1.
        1   -1    0    0  501    0  0.00000000000E+00  0.00000000000E+00 -0.19610484400E+04  0.19610484400E+04  0.50400001928E-02 0.  1.
    10030    2    1    2    0    0  0.00000000000E+00  0.00000000000E+00 -0.18339779501E+04  0.20881189300E+04  0.99838146238E+03 0.  0.
        1    1    3    3  502    0 -0.42959409957E+03  0.90465839200E+02 -0.42003673827E+03  0.60759033894E+03  0.50400001928E-02 0. -1.
       -1    1    3    3    0  502  0.42959409957E+03 -0.90465839200E+02 -0.14139412118E+04  0.14805285911E+04  0.50400001928E-02 0.  1.
</event>
<event>
 5   0  0.1293716E-03  0.9950050E+03  0.7818609E-02  0.9314040E-01
        1   -1    0    0  501    0  0.00000000000E+00  0.00000000000E+00  0.60411149388E+03  0.60411149390E+03  0.50400001928E-02 0. -1.
       -1   -1    0    0    0  501  0.00000000000E+00  0.00000000000E+00 -0.40970703029E+03  0.40970703032E+03  0.50400001928E-02 0.  1.
    10030    2    1    2    0    0  0.00000000000E+00  0.00000000000E+00  0.19440446359E+03  0.10138185242E+04  0.99500497717E+03 0.  0.
        3    1    3    3  502    0  0.22012286672E+03 -0.14377690020E+03  0.52754202724E+03  0.58942893905E+03  0.10100000352E+00 0. -1.
       -3    1    3    3    0  502 -0.22012286672E+03  0.14377690020E+03 -0.33313756365E+03  0.42438958517E+03  0.10100000352E+00 0.  1.
</event>
<event>
 5   0  0.8680125E-04  0.1012432E+04  0.7818609E-02  0.9295014E-01
       -3   -1    0    0    0  501  0.00000000000E+00  0.00000000000E+00  0.82044924852E+03  0.82044925474E+03  0.10100000352E+00 0.  1.
        3   -1    0    0  501    0  0.00000000000E+00  0.00000000000E+00 -0.31233427603E+03  0.31233429236E+03  0.10100000352E+00 0. -1.
    10030    2    1    2    0    0  0.00000000000E+00  0.00000000000E+00  0.50811497248E+03  0.11327835471E+04  0.10124315974E+04 0.  0.
        5    1    3    3  502    0 -0.36861925057E+03  0.28099992515E+02 -0.13282483678E+03  0.39285402980E+03  0.46999998093E+01 0. -1.
       -5    1    3    3    0  502  0.36861925057E+03 -0.28099992515E+02  0.64093980927E+03  0.73992951730E+03  0.46999998093E+01 0.  1.
</event>
<event>
 5   0  0.1249195E-03  0.9958526E+03  0.7818609E-02  0.9313105E-01
        1   -1    0    0  501    0  0.00000000000E+00  0.00000000000E+00  0.56565215166E+03  0.56565215168E+03  0.50400001928E-02 0. -1.
       -1   -1    0    0    0  501  0.00000000000E+00  0.00000000000E+00 -0.43830929575E+03  0.43830929578E+03  0.50400001928E-02 0.  1.
    10030    2    1    2    0    0  0.00000000000E+00  0.00000000000E+00  0.12734285591E+03  0.10039614475E+04  0.99585259203E+03 0.  0.
        2    1    3    3  502    0 -0.29147296884E+03 -0.27497843507E+03  0.36164701847E+03  0.53977606217E+03  0.25500000920E-02 0. -1.
       -2    1    3    3    0  502  0.29147296884E+03  0.27497843507E+03 -0.23430416257E+03  0.46418538529E+03  0.25500000920E-02 0.  1.
</event>
<event>
 5   0  0.1353789E-03  0.1006036E+04  0.7818609E-02  0.9301950E-01
       -1   -1    0    0    0  501  0.00000000000E+00  0.00000000000E+00  0.14581319606E+03  0.14581319615E+03  0.50400001928E-02 0.  1.
        1   -1    0    0  501    0  0.00000000000E+00  0.00000000000E+00 -0.17352811951E+04  0.17352811951E+04  0.50400001928E-02 0. -1.
    10030    2    1    2    0    0  0.00000000000E+00  0.00000000000E+00 -0.15894679991E+04  0.18810943913E+04  0.10060355803E+04 0.  0.
        1    1    3    3  502    0  0.59095159869E+02 -0.27278606139E+03 -0.12263220752E+02  0.27938299844E+03  0.50400001928E-02 0.  1.
       -1    1    3    3    0  502 -0.59095159869E+02  0.27278606139E+03 -0.15772047783E+04  0.16017113928E+04  0.50400001928E-02 0. -1.
</event>
<event>
 5   0  0.2255142E-03  0.9969526E+03  0.7818609E-02  0.9311894E-01
       -2   -1    0    0    0  501  0.00000000000E+00  0.00000000000E+00  0.17058520998E+03  0.17058521000E+03  0.25500000920E-02 0.  1.
        2   -1    0    0  501    0  0.00000000000E+00  0.00000000000E+00 -0.14566245223E+04  0.14566245223E+04  0.25500000920E-02 0. -1.
    10030    2    1    2    0    0  0.00000000000E+00  0.00000000000E+00 -0.12860393123E+04  0.16272097323E+04  0.99695255655E+03 0.  0.
        4    1    3    3  502    0  0.21748035976E+03 -0.29970483212E+03 -0.98358472119E+02  0.38314056848E+03  0.12699999809E+01 0.  1.
       -4    1    3    3    0  502 -0.21748035976E+03  0.29970483212E+03 -0.11876808402E+04  0.12440691638E+04  0.12699999809E+01 0. -1.
</event>
<event>
 5   0  0.2255142E-03  0.9965829E+03  0.7818609E-02  0.9312301E-01
        2   -1    0    0  501    0  0.00000000000E+00  0.00000000000E+00  0.15955888540E+04  0.15955888540E+04  0.25500000920E-02 0. -1.
       -2   -1    0    0    0  501  0.00000000000E+00  0.00000000000E+00 -0.15561298595E+03  0.15561298597E+03  0.25500000920E-02 0.  1.
    10030    2    1    2    0    0  0.00000000000E+00  0.00000000000E+00  0.14399758680E+04  0.17512018399E+04  0.99658285342E+03 0.  0.
        4    1    3    3  502    0 -0.20060920223E+03  0.15311117604E+03 -0.35009172361E+02  0.25478292584E+03  0.12699999809E+01 0.  1.
       -4    1    3    3    0  502  0.20060920223E+03 -0.15311117604E+03  0.14749850404E+04  0.14964189141E+04  0.12699999809E+01 0. -1.
</event>
<event>
 5   0  0.2284843E-03  0.9993349E+03  0.7818609E-02  0.9309275E-01
        2   -1    0    0  501    0  0.00000000000E+00  0.00000000000E+00  0.76096341791E+03  0.76096341791E+03  0.25500000920E-02 0. -1.
       -2   -1    0    0    0  501  0.00000000000E+00  0.00000000000E+00 -0.32809406174E+03  0.32809406175E+03  0.25500000920E-02 0.  1.
    10030    2    1    2    0    0  0.00000000000E+00  0.00000000000E+00  0.43286935617E+03  0.10890574797E+04  0.99933493609E+03 0.  0.
        2    1    3    3  502    0  0.37547589759E+03 -0.21845755299E+03  0.48550658761E+03  0.65147716672E+03  0.25500000920E-02 0.  1.
       -2    1    3    3    0  502 -0.37547589759E+03  0.21845755299E+03 -0.52637231441E+02  0.43758031294E+03  0.25500000920E-02 0. -1.
</event>
<event>
 5   0  0.1285769E-03  0.1000397E+04  0.7818609E-02  0.9308110E-01
       -1   -1    0    0    0  501  0.00000000000E+00  0.00000000000E+00  0.14357465889E+03  0.14357465898E+03  0.50400001928E-02 0.  1.
        1   -1    0    0  501    0  0.00000000000E+00  0.00000000000E+00 -0.17426362534E+04  0.17426362534E+04  0.50400001928E-02 0. -1.
    10030    2    1    2    0    0  0.00000000000E+00  0.00000000000E+00 -0.15990615945E+04  0.18862109123E+04  0.10003967328E+04 0.  0.
        5    1    3    3  502    0 -0.29143804832E+03  0.91137639324E+02 -0.52606368932E+02  0.30988986005E+03  0.46999998093E+01 0.  1.
       -5    1    3    3    0  502  0.29143804832E+03 -0.91137639324E+02 -0.15464552255E+04  0.15763210523E+04  0.46999998093E+01 0. -1.
</event>
<event>
 5   0  0.1293575E-03  0.9950974E+03  0.7818609E-02  0.9313938E-01
       -1   -1    0    0    0  501  0.00000000000E+00  0.00000000000E+00  0.48430269600E+03  0.48430269603E+03  0.50400001928E-02 0.  1.
        1   -1    0    0  501    0  0.00000000000E+00  0.00000000000E+00 -0.51115696921E+03  0.51115696924E+03  0.50400001928E-02 0. -1.
    10030    2    1    2    0    0  0.00000000000E+00  0.00000000000E+00 -0.26854273215E+02  0.99545966526E+03  0.99509737874E+03 0.  0.
        4    1    3    3  502    0  0.72678547594E+02  0.49000667330E+03  0.33112636681E+02  0.49647434049E+03  0.12699999809E+01 0.  1.
       -4    1    3    3    0  502 -0.72678547594E+02 -0.49000667330E+03 -0.59966909896E+02  0.49898532477E+03  0.12699999809E+01 0. -1.
</event>
<event>
 5   0  0.1293716E-03  0.1005419E+04  0.7818609E-02  0.9302621E-01
        1   -1    0    0  501    0  0.00000000000E+00  0.00000000000E+00  0.30587479569E+03  0.30587479574E+03  0.50400001928E-02 0.  1.
       -1   -1    0    0    0  501  0.00000000000E+00  0.00000000000E+00 -0.82620999446E+03  0.82620999447E+03  0.50400001928E-02 0. -1.
    10030    2    1    2    0    0  0.00000000000E+00  0.00000000000E+00 -0.52033519876E+03  0.11320847902E+04  0.10054189441E+04 0.  0.
        3    1    3    3  502    0 -0.34546123501E+02 -0.25774179324E+03 -0.74459237315E+03  0.78869644286E+03  0.10100000352E+00 0. -1.
       -3    1    3    3    0  502  0.34546123501E+02  0.25774179324E+03  0.22425717439E+03  0.34338834735E+03  0.10100000352E+00 0.  1.
</event>
<event>
 5   0  0.8680125E-04  0.9960285E+03  0.7818609E-02  0.9312911E-01
       -3   -1    0    0    0  501  0.00000000000E+00  0.00000000000E+00  0.35045145005E+03  0.35045146460E+03  0.10100000352E+00 0.  1.
        3   -1    0    0  501    0  0.00000000000E+00  0.00000000000E+00 -0.70771047119E+03  0.70771047840E+03  0.10100000352E+00 0. -1.
    10030    2    1    2    0    0  0.00000000000E+00  0.00000000000E+00 -0.35725902114E+03  0.10581619430E+04  0.99602845814E+03 0.  0.
        3    1    3    3  502    0 -0.13483014189E+03 -0.14252802646E+03  0.30766354011E+03  0.36489761523E+03  0.10100000352E+00 0.  1.
       -3    1    3    3    0  502  0.13483014189E+03  0.14252802646E+03 -0.66492256125E+03  0.69326432777E+03  0.10100000352E+00 0. -1.
</event>
<event>
 5   0  0.1293575E-03  0.1001789E+04  0.7818609E-02  0.9306585E-01
       -1   -1    0    0    0  501  0.00000000000E+00  0.00000000000E+00  0.25437371403E+03  0.25437371408E+03  0.50400001928E-02 0.  1.
        1   -1    0    0  501    0  0.00000000000E+00  0.00000000000E+00 -0.98632600909E+03  0.98632600910E+03  0.50400001928E-02 0. -1.
    10030    2    1    2    0    0  0.00000000000E+00  0.00000000000E+00 -0.73195229506E+03  0.12406997232E+04  0.10017892198E+04 0.  0.
        4    1    3    3  502    0  0.21409797732E+03 -0.11198694033E+03 -0.90937956891E+03  0.94093136410E+03  0.12699999809E+01 0. -1.
       -4    1    3    3    0  502 -0.21409797732E+03  0.11198694033E+03  0.17742727385E+03  0.29976835908E+03  0.12699999809E+01 0.  1.
</event>
<event>
 5   0  0.1249195E-03  0.1005887E+04  0.7818609E-02  0.9302112E-01
        1   -1    0    0  501    0  0.00000000000E+00  0.00000000000E+00  0.58654885585E+03  0.58654885587E+03  0.50400001928E-02 0.  1.
       -1   -1    0    0    0  501  0.00000000000E+00  0.00000000000E+00 -0.43125501680E+03  0.43125501683E+03  0.50400001928E-02 0. -1.
    10030    2    1    2    0    0  0.00000000000E+00  0.00000000000E+00  0.15529383905E+03  0.10178038727E+04  0.10058869454E+04 0.  0.
        2    1    3    3  502    0  0.28836401410E+03 -0.19887972438E+03 -0.28752365058E+03  0.45318517081E+03  0.25500000920E-02 0. -1.
       -2    1    3    3    0  502 -0.28836401410E+03  0.19887972438E+03  0.44281748963E+03  0.56461870189E+03  0.25500000920E-02 0.  1.
</event>
<event>
 5   0  0.2204862E-03  0.1000207E+04  0.7818609E-02  0.9308318E-01
       -2   -1    0    0    0  501  0.00000000000E+00  0.00000000000E+00  0.13486420879E+03  0.13486420881E+03  0.25500000920E-02 0. -1.
        2   -1    0    0  501    0  0.00000000000E+00  0.00000000000E+00 -0.18544842360E+04  0.18544842360E+04  0.25500000920E-02 0.  1.
    10030    2    1    2    0    0  0.00000000000E+00  0.00000000000E+00 -0.17196200273E+04  0.19893484449E+04  0.10002070770E+04 0.  0.
        1    1    3    3  502    0 -0.33751123591E+03 -0.13816294051E+03 -0.17919627364E+03  0.40634238889E+03  0.50400001928E-02 0. -1.
       -1    1    3    3    0  502  0.33751123591E+03  0.13816294051E+03 -0.15404237536E+04  0.15830060560E+04  0.50400001928E-02 0.  1.
</event>
<event>
 5   0  0.2284843E-03  0.9917836E+03  0.7818609E-02  0.9317603E-01
        2   -1    0    0  501    0  0.00000000000E+00  0.00000000000E+00  0.11783315845E+04  0.11783315845E+04  0.25500000920E-02 0. -1.
       -2   -1    0    0    0  501  0.00000000000E+00  0.00000000000E+00 -0.20869224370E+03  0.20869224371E+03  0.25500000920E-02 0.  1.
    10030    2    1    2    0    0  0.00000000000E+00  0.00000000000E+00  0.96963934080E+03  0.13870238282E+04  0.99178356953E+03 0.  0.
        2    1    3    3  502    0 -0.15982829328E+03 -0.19076863537E+03  0.10846681841E+04  0.11128534608E+04  0.25500000920E-02 0. -1.
       -2    1    3    3    0  502  0.15982829328E+03  0.19076863537E+03 -0.11502884330E+03  0.27417036742E+03  0.25500000920E-02 0.  1.
</event>
<event>
 5   0  0.2277570E-03  0.9809316E+03  0.7818609E-02  0.9329710E-01
        2   -1    0    0  501    0  0.00000000000E+00  0.00000000000E+00  0.24231702149E+03  0.24231702151E+03  0.25500000920E-02 0.  1.
       -2   -1    0    0    0  501  0.00000000000E+00  0.00000000000E+00 -0.99273536759E+03  0.99273536759E+03  0.25500000920E-02 0. -1.
    10030    2    1    2    0    0  0.00000000000E+00  0.00000000000E+00 -0.75041834609E+03  0.12350523891E+04  0.98093155198E+03 0.  0.
        3    1    3    3  502    0  0.28540389787E+03  0.15657134389E+03 -0.83710893974E+03  0.89817668520E+03  0.10100000352E+00 0. -1.
       -3    1    3    3    0  502 -0.28540389787E+03 -0.15657134389E+03  0.86690593643E+02  0.33687570390E+03  0.10100000352E+00 0.  1.
</event>
<event>
 5   0  0.2264577E-03  0.1006700E+04  0.7818609E-02  0.9301227E-01
       -2   -1    0    0    0  501  0.00000000000E+00  0.00000000000E+00  0.12029947082E+04  0.12029947082E+04  0.25500000920E-02 0.  1.
        2   -1    0    0  501    0  0.00000000000E+00  0.00000000000E+00 -0.21060871737E+03  0.21060871739E+03  0.25500000920E-02 0. -1.
    10030    2    1    2    0    0  0.00000000000E+00  0.00000000000E+00  0.99238599086E+03  0.14136034256E+04  0.10066999007E+04 0.  0.
        5    1    3    3  502    0 -0.87521077895E+02 -0.39103474788E+03  0.68498549500E+02  0.40654920294E+03  0.46999998093E+01 0. -1.
       -5    1    3    3    0  502  0.87521077895E+02  0.39103474788E+03  0.92388744136E+03  0.10070542227E+04  0.46999998093E+01 0.  1.
</event>
<event>
 5   0  0.1285769E-03  0.9984661E+03  0.7818609E-02  0.9310229E-01
       -1   -1    0    0    0  501  0.00000000000E+00  0.00000000000E+00  0.53762432676E+03  0.53762432678E+03  0.50400001928E-02 0.  1.
        1   -1    0    0  501    0  0.00000000000E+00  0.00000000000E+00 -0.46358327938E+03  0.46358327941E+03  0.50400001928E-02 0. -1.
    10030    2    1    2    0    0  0.00000000000E+00  0.00000000000E+00  0.74041047378E+02  0.10012076062E+04  0.99846612060E+03 0.  0.
        5    1    3    3  502    0 -0.27372170733E+03 -0.18617700369E+03  0.41171226816E+03  0.52831291061E+03  0.46999998093E+01 0.  1.
       -5    1    3    3    0  502  0.27372170733E+03  0.18617700369E+03 -0.33767122078E+03  0.47289469558E+03  0.46999998093E+01 0. -1.
</event>
<event>
 5   0  0.1249195E-03  0.1002986E+04  0.7818609E-02  0.9305275E-01
        1   -1    0    0  501    0  0.00000000000E+00  0.00000000000E+00  0.82752554001E+03  0.82752554002E+03  0.50400001928E-02 0. -1.
       -1   -1    0    0    0  501  0.00000000000E+00  0.00000000000E+00 -0.30391264635E+03  0.30391264639E+03  0.50400001928E-02 0.  1.
    10030    2    1    2    0    0  0.00000000000E+00  0.00000000000E+00  0.52361289366E+03  0.11314381864E+04  0.10029864941E+04 0.  0.
        2    1    3    3  502    0 -0.82175160855E+02  0.99067009784E+02 -0.28496213509E+03  0.31268266330E+03  0.25500000920E-02 0.  1.
       -2    1    3    3    0  502  0.82175160855E+02 -0.99067009784E+02  0.80857502875E+03  0.81875552311E+03  0.25500000920E-02 0. -1.
</event>
<event>
 5   0  0.1285769E-03  0.9861000E+03  0.7818609E-02  0.9323923E-01
       -1   -1    0    0    0  501  0.00000000000E+00  0.00000000000E+00  0.18017426814E+03  0.18017426821E+03  0.50400001928E-02 0. -1.
        1   -1    0    0  501    0  0.00000000000E+00  0.00000000000E+00 -0.13492398304E+04  0.13492398304E+04  0.50400001928E-02 0.  1.
    10030    2    1    2    0    0  0.00000000000E+00  0.00000000000E+00 -0.11690655623E+04  0.15294140986E+04  0.98609999301E+03 0.  0.
        5    1    3    3  502    0 -0.44220440713E+03  0.88286992656E+02 -0.89370538721E+03  0.10010348345E+04  0.46999998093E+01 0.  1.
       -5    1    3    3    0  502  0.44220440713E+03 -0.88286992656E+02 -0.27536017507E+03  0.52837926414E+03  0.46999998093E+01 0. -1.
</event>
<event>
 5   0  0.2284843E-03  0.1003556E+04  0.7818609E-02  0.9304653E-01
        2   -1    0    0  501    0  0.00000000000E+00  0.00000000000E+00  0.17303760453E+04  0.17303760453E+04  0.25500000920E-02 0. -1.
       -2   -1    0    0    0  501  0.00000000000E+00  0.00000000000E+00 -0.14550665558E+03  0.14550665560E+03  0.25500000920E-02 0.  1.
    10030    2    1    2    0    0  0.00000000000E+00  0.00000000000E+00  0.15848693897E+04  0.18758827009E+04  0.10035561395E+04 0.  0.
        2    1    3    3  502    0  0.16645789128E+02 -0.20275480569E+03  0.16498304710E+04  0.16623258335E+04  0.25500000920E-02 0. -1.
       -2    1    3    3    0  502 -0.16645789128E+02  0.20275480569E+03 -0.64961081315E+02  0.21355686741E+03  0.25500000920E-02 0.  1.
</event>
<event>
 5   0  0.2204862E-03  0.1005977E+04  0.7818609E-02  0.9302014E-01
        2   -1    0    0  501    0  0.00000000000E+00  0.00000000000E+00  0.81792011798E+03  0.81792011798E+03  0.25500000920E-02 0.  1.
       -2   -1    0    0    0  501  0.00000000000E+00  0.00000000000E+00 -0.30931786555E+03  0.30931786556E+03  0.25500000920E-02 0. -1.
    10030    2    1    2    0    0  0.00000000000E+00  0.00000000000E+00  0.50860225242E+03  0.11272379835E+04  0.10059767494E+04 0.  0.
        1    1    3    3  502    0 -0.30689076683E+02 -0.50144394212E+03  0.22663809566E+03  0.55113761707E+03  0.50400001928E-02 0. -1.
       -1    1    3    3    0  502  0.30689076683E+02  0.50144394212E+03  0.28196415677E+03  0.57610036647E+03  0.50400001928E-02 0.  1.
</event>
<event>
 5   0  0.2204862E-03  0.1004679E+04  0.7818609E-02  0.9303428E-01
       -2   -1    0    0    0  501  0.00000000000E+00  0.00000000000E+00  0.36716390779E+03  0.36716390780E+03  0.25500000920E-02 0. -1.
        2   -1    0    0  501    0  0.00000000000E+00  0.00000000000E+00 -0.68728152436E+03  0.68728152437E+03  0.25500000920E-02 0.  1.
    10030    2    1    2    0    0  0.00000000000E+00  0.00000000000E+00 -0.32011761657E+03  0.10544454322E+04  0.10046789940E+04 0.  0.
        1    1    3    3  502    0 -0.23496297908E+03  0.38024246193E+03  0.80541236929E+02  0.45417928428E+03  0.50400001928E-02 0. -1.
       -1    1    3    3    0  502  0.23496297908E+03 -0.38024246193E+03 -0.40065885350E+03  0.60026614789E+03  0.50400001928E-02 0.  1.
</event>
<event>
 5   0  0.2277570E-03  0.1004559E+04  0.7818609E-02  0.9303559E-01
       -2   -1    0    0    0  501  0.00000000000E+00  0.00000000000E+00  0.23693584866E+03  0.23693584867E+03  0.25500000920E-02 0. -1.
        2   -1    0    0  501    0  0.00000000000E+00  0.00000000000E+00 -0.10647801466E+04  0.10647801466E+04  0.25500000920E-02 0.  1.
    10030    2    1    2    0    0  0.00000000000E+00  0.00000000000E+00 -0.82784429796E+03  0.13017159953E+04  0.10045587841E+04 0.  0.
        3    1    3    3  502    0  0.47235757294E+03  0.14125175655E+03 -0.28955933135E+03  0.57176774307E+03  0.10100000352E+00 0. -1.
       -3    1    3    3    0  502 -0.47235757294E+03 -0.14125175655E+03 -0.53828496661E+03  0.72994825222E+03  0.10100000352E+00 0.  1.
</event>
<event>
 5   0  0.1293575E-03  0.9997772E+03  0.7818609E-02  0.9308789E-01
        1   -1    0    0  501    0  0.00000000000E+00  0.00000000000E+00  0.62877580504E+03  0.62877580506E+03  0.50400001928E-02 0.  1.
       -1   -1    0    0    0  501  0.00000000000E+00  0.00000000000E+00 -0.39742086536E+03  0.39742086539E+03  0.50400001928E-02 0. -1.
    10030    2    1    2    0    0  0.00000000000E+00  0.00000000000E+00  0.23135493968E+03  0.10261966705E+04  0.99977722435E+03 0.  0.
        4    1    3    3  502    0  0.26916590313E+03 -0.27971848090E+03  0.43895142755E+03  0.58598010257E+03  0.12699999809E+01 0.  1.
       -4    1    3    3    0  502 -0.26916590313E+03  0.27971848090E+03 -0.20759648787E+03  0.44021656788E+03  0.12699999809E+01 0. -1.
</event>
<event>
 5   0  0.2277570E-03  0.1000251E+04  0.7818609E-02  0.9308269E-01
        2   -1    0    0  501    0  0.00000000000E+00  0.00000000000E+00  0.13133977149E+04  0.13133977149E+04  0.25500000920E-02 0.  1.
       -2   -1    0    0    0  501  0.00000000000E+00  0.00000000000E+00 -0.19044173896E+03  0.19044173897E+03  0.25500000920E-02 0. -1.
    10030    2    1    2    0    0  0.00000000000E+00  0.00000000000E+00  0.11229559760E+04  0.15038394539E+04  0.10002514580E+04 0.  0.
        3    1    3    3  502    0 -0.31169003831E+03  0.39109023552E+03  0.55419243616E+03  0.74647941619E+03  0.10100000352E+00 0. -1.
       -3    1    3    3    0  502  0.31169003831E+03 -0.39109023552E+03  0.56876353981E+03  0.75736003771E+03  0.10100000352E+00 0.  1.
</event>
<event>
 5   0  0.1249195E-03  0.1001622E+04  0.7818609E-02  0.9306767E-01
       -1   -1    0    0    0  501  0.00000000000E+00  0.00000000000E+00  0.50974934827E+03  0.50974934830E+03  0.50400001928E-02 0.  1.
        1   -1    0    0  501    0  0.00000000000E+00  0.00000000000E+00 -0.49202964484E+03  0.49202964486E+03  0.50400001928E-02 0. -1.
    10030    2    1    2    0    0  0.00000000000E+00  0.00000000000E+00  0.17719703435E+02  0.10017789932E+04  0.10016222657E+04 0.  0.
        2    1    3    3  502    0  0.36005266582E+03 -0.24305766323E+03  0.25809122121E+03  0.50529795991E+03  0.25500000920E-02 0.  1.
       -2    1    3    3    0  502 -0.36005266582E+03  0.24305766323E+03 -0.24037151777E+03  0.49648103325E+03  0.25500000920E-02 0. -1.
</event>
<event>
 5   0  0.8680125E-04  0.1002671E+04  0.7818609E-02  0.9305621E-01
       -4   -1    0    0    0  501  0.00000000000E+00  0.00000000000E+00  0.67726896193E+03  0.67727015267E+03  0.12699999809E+01 0. -1.
        4   -1    0    0  501    0  0.00000000000E+00  0.00000000000E+00 -0.37110122018E+03  0.37110339330E+03  0.12699999809E+01 0.  1.
    10030    2    1    2    0    0  0.00000000000E+00  0.00000000000E+00  0.30616774175E+03  0.10483735460E+04  0.10026706367E+04 0.  0.
        2    1    3    3  502    0 -0.44225320049E+03 -0.18012353712E+03  0.31270107402E+03  0.57080149235E+03  0.25500000920E-02 0. -1.
       -2    1    3    3    0  502  0.44225320049E+03  0.18012353712E+03 -0.65333322657E+01  0.47757205362E+03  0.25500000920E-02 0.  1.
</event>
<event>
 5   0  0.2277570E-03  0.9988248E+03  0.7818609E-02  0.9309835E-01
       -2   -1    0    0    0  501  0.00000000000E+00  0.00000000000E+00  0.46954930197E+03  0.46954930197E+03  0.25500000920E-02 0.  1.
        2   -1    0    0  501    0  0.00000000000E+00  0.00000000000E+00 -0.53117477893E+03  0.53117477894E+03  0.25500000920E-02 0. -1.
    10030    2    1    2    0    0  0.00000000000E+00  0.00000000000E+00 -0.61625476965E+02  0.10007240809E+04  0.99882480281E+03 0.  0.
        3    1    3    3  502    0 -0.32082433750E+03 -0.13154642642E+03  0.32928691526E+03  0.47818678422E+03  0.10100000352E+00 0.  1.
       -3    1    3    3    0  502  0.32082433750E+03  0.13154642642E+03 -0.39091239223E+03  0.52253729669E+03  0.10100000352E+00 0. -1.
</event>
<event>
 5   0  0.1249195E-03  0.9974360E+03  0.7818609E-02  0.9311361E-01
        1   -1    0    0  501    0  0.00000000000E+00  0.00000000000E+00  0.17337372254E+04  0.17337372254E+04  0.50400001928E-02 0.  1.
       -1   -1    0    0    0  501  0.00000000000E+00  0.00000000000E+00 -0.14345867040E+03  0.14345867048E+03  0.50400001928E-02 0. -1.
    10030    2    1    2    0    0  0.00000000000E+00  0.00000000000E+00  0.15902785550E+04  0.18771958959E+04  0.99743598745E+03 0.  0.
        2    1    3    3  502    0  0.43450518925E+03 -0.10463328027E+03  0.37863490635E+03  0.58575359592E+03  0.25500000920E-02 0.  1.
       -2    1    3    3    0  502 -0.43450518925E+03  0.10463328027E+03  0.12116436487E+04  0.12914423000E+04  0.25500000920E-02 0. -1.
</event>
<event>
 5   0  0.1249195E-03  0.9987441E+03  0.7818609E-02  0.9309923E-01
        1   -1    0    0  501    0  0.00000000000E+00  0.00000000000E+00  0.66881775978E+03  0.66881775980E+03  0.50400001928E-02 0.  1.
       -1   -1    0    0    0  501  0.00000000000E+00  0.00000000000E+00 -0.37285560539E+03  0.37285560542E+03  0.50400001928E-02 0. -1.
    10030    2    1    2    0    0  0.00000000000E+00  0.00000000000E+00  0.29596215440E+03  0.10416733652E+04  0.99874411286E+03 0.  0.
        2    1    3    3  502    0  0.24756741981E+03  0.29847807493E+03 -0.18017543170E+03  0.42760025112E+03  0.25500000920E-02 0. -1.
       -2    1    3    3    0  502 -0.24756741981E+03 -0.29847807493E+03  0.47613758610E+03  0.61407311410E+03  0.25500000920E-02 0.  1.
</event>
<event>
 5   0  0.8680125E-04  0.9988878E+03  0.7818609E-02  0.9309766E-01
        3   -1    0    0  501    0  0.00000000000E+00  0.00000000000E+00  0.32882475257E+03  0.32882476808E+03  0.10100000352E+00 0.  1.
       -3   -1    0    0    0  501  0.00000000000E+00  0.00000000000E+00 -0.75859306226E+03  0.75859306898E+03  0.10100000352E+00 0. -1.
    10030    2    1    2    0    0  0.00000000000E+00  0.00000000000E+00 -0.42976830969E+03  0.10874178371E+04  0.99888775763E+03 0.  0.
        5    1    3    3  502    0 -0.15362066145E+03  0.19837317448E+03  0.25521044833E+03  0.35791854788E+03  0.46999998093E+01 0.  1.
       -5    1    3    3    0  502  0.15362066145E+03 -0.19837317448E+03 -0.68497875802E+03  0.72949928918E+03  0.46999998093E+01 0. -1.
</event>
<event>
 5   0  0.1285769E-03  0.9968045E+03  0.7818609E-02  0.9312057E-01
       -1   -1    0    0    0  501  0.00000000000E+00  0.00000000000E+00  0.92923281246E+03  0.92923281248E+03  0.50400001928E-02 0.  1.
        1   -1    0    0  501    0  0.00000000000E+00  0.00000000000E+00 -0.26732243487E+03  0.26732243492E+03  0.50400001928E-02 0. -1.
    10030    2    1    2    0    0  0.00000000000E+00  0.00000000000E+00  0.66191037759E+03  0.11965552474E+04  0.99680445028E+03 0.  0.
        5    1    3    3  502    0  0.40727266942E+03  0.84518179377E+02  0.14082687978E+01  0.41597887341E+03  0.46999998093E+01 0. -1.
       -5    1    3    3    0  502 -0.40727266942E+03 -0.84518179377E+02  0.66050210880E+03  0.78057637399E+03  0.46999998093E+01 0.  1.
</event>
<event>
 5   0  0.2284843E-03  0.9978098E+03  0.7818609E-02  0.9310950E-01
        2   -1    0    0  501    0  0.00000000000E+00  0.00000000000E+00  0.96998610896E+03  0.96998610896E+03  0.25500000920E-02 0. -1.
       -2   -1    0    0    0  501  0.00000000000E+00  0.00000000000E+00 -0.25660791995E+03  0.25660791996E+03  0.25500000920E-02 0.  1.
    10030    2    1    2    0    0  0.00000000000E+00  0.00000000000E+00  0.71337818901E+03  0.12265940289E+04  0.99780983721E+03 0.  0.
        2    1    3    3  502    0 -0.76793302878E+02  0.44704643858E+03  0.61206838345E+03  0.76182375628E+03  0.25500000920E-02 0. -1.
       -2    1    3    3    0  502  0.76793302878E+02 -0.44704643858E+03  0.10130980556E+03  0.46477027264E+03  0.25500000920E-02 0.  1.
</event>
<event>
 5   0  0.2284843E-03  0.1000782E+04  0.7818609E-02  0.9307687E-01
       -2   -1    0    0    0  501  0.00000000000E+00  0.00000000000E+00  0.32035885140E+03  0.32035885141E+03  0.25500000920E-02 0. -1.
        2   -1    0    0  501    0  0.00000000000E+00  0.00000000000E+00 -0.78159627956E+03  0.78159627956E+03  0.25500000920E-02 0.  1.
    10030    2    1    2    0    0  0.00000000000E+00  0.00000000000E+00 -0.46123742815E+03  0.11019551310E+04  0.10007822668E+04 0.  0.
        2    1    3    3  502    0 -0.63209362375E+02 -0.23685744707E+02 -0.77656011935E+03  0.77948833023E+03  0.25500000920E-02 0.  1.
       -2    1    3    3    0  502  0.63209362375E+02  0.23685744707E+02  0.31532269119E+03  0.32246680074E+03  0.25500000920E-02 0. -1.
</event>
<event>
 5   0  0.1293716E-03  0.1007886E+04  0.7818609E-02  0.9299938E-01
       -1   -1    0    0    0  501  0.00000000000E+00  0.00000000000E+00  0.36964161576E+03  0.36964161579E+03  0.50400001928E-02 0.  1.
        1   -1    0    0  501    0  0.00000000000E+00  0.00000000000E+00 -0.68703962946E+03  0.68703962948E+03  0.50400001928E-02 0. -1.
    10030    2    1    2    0    0  0.00000000000E+00  0.00000000000E+00 -0.31739801371E+03  0.10566812453E+04  0.10078857847E+04 0.  0.
        3    1    3    3  502    0  0.37625752115E+03 -0.21043472448E+03 -0.43230471458E+03  0.61052425991E+03  0.10100000352E+00 0. -1.
       -3    1    3    3    0  502 -0.37625752115E+03  0.21043472448E+03  0.11490670088E+03  0.44615698537E+03  0.10100000352E+00 0.  1.
</event>
<event>
 5   0  0.2255142E-03  0.9974159E+03  0.7818609E-02  0.9311384E-01
       -2   -1    0    0    0  501  0.00000000000E+00  0.00000000000E+00  0.11785458356E+03  0.11785458359E+03  0.25500000920E-02 0.  1.
        2   -1    0    0  501    0  0.00000000000E+00  0.00000000000E+00 -0.21103093737E+04  0.21103093737E+04  0.25500000920E-02 0. -1.
    10030    2    1    2    0    0  0.00000000000E+00  0.00000000000E+00 -0.19924547902E+04  0.22281639573E+04  0.99741592620E+03 0.  0.
        4    1    3    3  502    0 -0.14306516091E+02 -0.13880519578E+03 -0.20658059671E+04  0.20705138167E+04  0.12699999809E+01 0. -1.
       -4    1    3    3    0  502  0.14306516091E+02  0.13880519578E+03  0.73351176898E+02  0.15765014060E+03  0.12699999809E+01 0.  1.
</event>
<event>
 5   0  0.1353789E-03  0.1005424E+04  0.7818609E-02  0.9302616E-01
        1   -1    0    0  501    0  0.00000000000E+00  0.00000000000E+00  0.54595956488E+03  0.54595956491E+03  0.50400001928E-02 0.  1.
       -1   -1    0    0    0  501  0.00000000000E+00  0.00000000000E+00 -0.46289023989E+03  0.46289023992E+03  0.50400001928E-02 0. -1.
    10030    2    1    2    0    0  0.00000000000E+00  0.00000000000E+00  0.83069324995E+02  0.10088498048E+04  0.10054239981E+04 0.  0.
        1    1    3    3  502    0  0.25119815219E+03 -0.30906673813E+03 -0.26626222111E+03  0.47908071417E+03  0.50400001928E-02 0. -1.
       -1    1    3    3    0  502 -0.25119815219E+03  0.30906673813E+03  0.34933154610E+03  0.52976909065E+03  0.50400001928E-02 0.  1.
</event>
<event>
 5   0  0.2284843E-03  0.1000865E+04  0.7818609E-02  0.9307597E-01
       -2   -1    0    0    0  501  0.00000000000E+00  0.00000000000E+00  0.11179813040E+03  0.11179813043E+03  0.25500000920E-02 0.  1.
        2   -1    0    0  501    0  0.00000000000E+00  0.00000000000E+00 -0.22400433610E+04  0.22400433610E+04  0.25500000920E-02 0. -1.
    10030    2    1    2    0    0  0.00000000000E+00  0.00000000000E+00 -0.21282452306E+04  0.23518414914E+04  0.10008649456E+04 0.  0.
        2    1    3    3  502    0 -0.24465565075E+03  0.57168694426E+02 -0.20810987169E+04  0.20962100363E+04  0.25500000920E-02 0. -1.
       -2    1    3    3    0  502  0.24465565075E+03 -0.57168694426E+02 -0.47146513716E+02  0.25563145509E+03  0.25500000920E-02 0.  1.
</event>
<event>
 5   0  0.1293716E-03  0.1002759E+04  0.7818609E-02  0.9305524E-01
        1   -1    0    0  501    0  0.00000000000E+00  0.00000000000E+00  0.59686679287E+03  0.59686679289E+03  0.50400001928E-02 0.  1.
       -1   -1    0    0    0  501  0.00000000000E+00  0.00000000000E+00 -0.42116838408E+03  0.42116838411E+03  0.50400001928E-02 0. -1.
    10030    2    1    2    0    0  0.00000000000E+00  0.00000000000E+00  0.17569840879E+03  0.10180351770E+04  0.10027590392E+04 0.  0.
        3    1    3    3  502    0  0.40032041318E+03 -0.82150760106E+02 -0.20705180735E+03  0.45812186340E+03  0.10100000352E+00 0. -1.
       -3    1    3    3    0  502 -0.40032041318E+03  0.82150760106E+02  0.38275021615E+03  0.55991331361E+03  0.10100000352E+00 0.  1.
</event>
<event>
 5   0  0.2204862E-03  0.9897329E+03  0.7818609E-02  0.9319878E-01
        2   -1    0    0  501    0  0.00000000000E+00  0.00000000000E+00  0.38100254105E+03  0.38100254106E+03  0.25500000920E-02 0. -1.
       -2   -1    0    0    0  501  0.00000000000E+00  0.00000000000E+00 -0.64275903820E+03  0.64275903820E+03  0.25500000920E-02 0.  1.
    10030    2    1    2    0    0  0.00000000000E+00  0.00000000000E+00 -0.26175649715E+03  0.10237615793E+04  0.98973294750E+03 0.  0.
        1    1    3    3  502    0 -0.10588015563E+03  0.42187578444E+03 -0.37500774508E+03  0.57430009033E+03  0.50400001928E-02 0.  1.
       -1    1    3    3    0  502  0.10588015563E+03 -0.42187578444E+03  0.11325124793E+03  0.44946148894E+03  0.50400001928E-02 0. -1.
</event>
<event>
 5   0  0.8680125E-04  0.1003265E+04  0.7818609E-02  0.9304971E-01
        4   -1    0    0  501    0  0.00000000000E+00  0.00000000000E+00  0.30849715881E+03  0.30849977293E+03  0.12699999809E+01 0.  1.
       -4   -1    0    0    0  501  0.00000000000E+00  0.00000000000E+00 -0.81567434137E+03  0.81567533006E+03  0.12699999809E+01 0. -1.
    10030    2    1    2    0    0  0.00000000000E+00  0.00000000000E+00 -0.50717718255E+03  0.11241751030E+04  0.10032651532E+04 0.  0.
        4    1    3    3  502    0 -0.29421340133E+03 -0.13675814117E+03  0.17510131106E+03  0.36868197235E+03  0.12699999809E+01 0.  1.
       -4    1    3    3    0  502  0.29421340133E+03  0.13675814117E+03 -0.68227849361E+03  0.75549313064E+03  0.12699999809E+01 0. -1.
</event>
<event>
 5   0  0.1353789E-03  0.1000012E+04  0.7818609E-02  0.9308531E-01
        1   -1    0    0  501    0  0.00000000000E+00  0.00000000000E+00  0.24625531794E+03  0.24625531799E+03  0.50400001928E-02 0.  1.
       -1   -1    0    0    0  501  0.00000000000E+00  0.00000000000E+00 -0.10152312985E+04  0.10152312985E+04  0.50400001928E-02 0. -1.
    10030    2    1    2    0    0  0.00000000000E+00  0.00000000000E+00 -0.76897598054E+03  0.12614866165E+04  0.10000122124E+04 0.  0.
        1    1    3    3  502    0 -0.38670776746E+03 -0.10058616865E+03 -0.53206497639E+01  0.39961079074E+03  0.50400001928E-02 0.  1.
       -1    1    3    3    0  502  0.38670776746E+03  0.10058616865E+03 -0.76365533077E+03  0.86187582573E+03  0.50400001928E-02 0. -1.
</event>
<event>
 5   0  0.1293575E-03  0.9664917E+03  0.7818609E-02  0.9346079E-01
        1   -1    0    0  501    0  0.00000000000E+00  0.00000000000E+00  0.31017290369E+03  0.31017290373E+03  0.50400001928E-02 0. -1.
       -1   -1    0    0    0  501  0.00000000000E+00  0.00000000000E+00 -0.75289155091E+03  0.75289155092E+03  0.50400001928E-02 0.  1.
    10030    2    1    2    0    0  0.00000000000E+00  0.00000000000E+00 -0.44271864721E+03  0.10630644547E+04  0.96649171448E+03 0.  0.
        4    1    3    3  502    0  0.16456433487E+03  0.15976811616E+03 -0.68920428869E+03  0.72636866376E+03  0.12699999809E+01 0.  1.
       -4    1    3    3    0  502 -0.16456433487E+03 -0.15976811616E+03  0.24648564147E+03  0.33669579089E+03  0.12699999809E+01 0. -1.
</event>
<event>
 5   0  0.1293575E-03  0.1002311E+04  0.7818609E-02  0.9306013E-01
       -1   -1    0    0    0  501  0.00000000000E+00  0.00000000000E+00  0.11651864571E+03  0.11651864582E+03  0.50400001928E-02 0. -1.
        1   -1    0    0  501    0  0.00000000000E+00  0.00000000000E+00 -0.21555094868E+04  0.21555094868E+04  0.50400001928E-02 0.  1.
    10030    2    1    2    0    0  0.00000000000E+00  0.00000000000E+00 -0.20389908411E+04  0.22720281327E+04  0.10023114214E+04 0.  0.
        4    1    3    3  502    0 -0.41379662664E+03 -0.17632582537E+03 -0.51855570668E+03  0.68645471718E+03  0.12699999809E+01 0. -1.
       -4    1    3    3    0  502  0.41379662664E+03  0.17632582537E+03 -0.15204351344E+04  0.15855734155E+04  0.12699999809E+01 0.  1.
</event>
<event>
 5   0  0.2284843E-03  0.1000238E+04  0.7818609E-02  0.9308284E-01
       -2   -1    0    0    0  501  0.00000000000E+00  0.00000000000E+00  0.91782745907E+02  0.91782745943E+02  0.25500000920E-02 0. -1.
        2   -1    0    0  501    0  0.00000000000E+00  0.00000000000E+00 -0.27251184229E+04  0.27251184229E+04  0.25500000920E-02 0.  1.
    10030    2    1    2    0    0  0.00000000000E+00  0.00000000000E+00 -0.26333356770E+04  0.28169011688E+04  0.10002376754E+04 0.  0.
        2    1    3    3  502    0 -0.47664314908E+03 -0.50027794651E+01 -0.17428888004E+04  0.18068965355E+04  0.25500000920E-02 0.  1.
       -2    1    3    3    0  502  0.47664314908E+03  0.50027794651E+01 -0.89044687654E+03  0.10100046333E+04  0.25500000920E-02 0. -1.
</event>
<event>
 5   0  0.2284843E-03  0.1000074E+04  0.7818609E-02  0.9308463E-01
       -2   -1    0    0    0  501  0.00000000000E+00  0.00000000000E+00  0.38633266041E+03  0.38633266042E+03  0.25500000920E-02 0. -1.
        2   -1    0    0  501    0  0.00000000000E+00  0.00000000000E+00 -0.64720692924E+03  0.64720692925E+03  0.25500000920E-02 0.  1.
    10030    2    1    2    0    0  0.00000000000E+00  0.00000000000E+00 -0.26087426884E+03  0.10335395897E+04  0.10000743469E+04 0.  0.
        2    1    3    3  502    0  0.11004666944E+02  0.32580944929E+03  0.26141328752E+03  0.41786338298E+03  0.25500000920E-02 0. -1.
       -2    1    3    3    0  502 -0.11004666944E+02 -0.32580944929E+03 -0.52228755636E+03  0.61567620668E+03  0.25500000920E-02 0.  1.
</event>
<event>
 5   0  0.2255142E-03  0.9953377E+03  0.7818609E-02  0.9313673E-01
       -2   -1    0    0    0  501  0.00000000000E+00  0.00000000000E+00  0.26132403389E+03  0.26132403391E+03  0.25500000920E-02 0. -1.
        2   -1    0    0  501    0  0.00000000000E+00  0.00000000000E+00 -0.94776688340E+03  0.94776688340E+03  0.25500000920E-02 0.  1.
    10030    2    1    2    0    0  0.00000000000E+00  0.00000000000E+00 -0.68644284950E+03  0.12090909173E+04  0.99533766164E+03 0.  0.
        4    1    3    3  502    0  0.39581313736E+03 -0.88538442780E+02 -0.69353766491E+03  0.80343213846E+03  0.12699999809E+01 0.  1.
       -4    1    3    3    0  502 -0.39581313736E+03  0.88538442780E+02  0.70948154077E+01  0.40565877885E+03  0.12699999809E+01 0. -1.
</event>
<event>
 5   0  0.2264577E-03  0.9944448E+03  0.7818609E-02  0.9314659E-01
       -2   -1    0    0    0  501  0.00000000000E+00  0.00000000000E+00  0.50701406404E+03  0.50701406404E+03  0.25500000920E-02 0.  1.
        2   -1    0    0  501    0  0.00000000000E+00  0.00000000000E+00 -0.48761984560E+03  0.48761984561E+03  0.25500000920E-02 0. -1.
    10030    2    1    2    0    0  0.00000000000E+00  0.00000000000E+00  0.19394218435E+02  0.99463390965E+03  0.99444480919E+03 0.  0.
        5    1    3    3  502    0 -0.42344608551E+02 -0.90126336559E+02  0.49691621933E+03  0.50681716767E+03  0.46999998093E+01 0.  1.
       -5    1    3    3    0  502  0.42344608551E+02  0.90126336559E+02 -0.47752200090E+03  0.48781674198E+03  0.46999998093E+01 0. -1.
</event>
<event>
 5   0  0.2284843E-03  0.9937053E+03  0.7818609E-02  0.9315476E-01
       -2   -1    0    0    0  501  0.00000000000E+00  0.00000000000E+00  0.22499206527E+03  0.22499206528E+03  0.25500000920E-02 0. -1.
        2   -1    0    0  501    0  0.00000000000E+00  0.00000000000E+00 -0.10972056312E+04  0.10972056312E+04  0.25500000920E-02 0.  1.
    10030    2    1    2    0    0  0.00000000000E+00  0.00000000000E+00 -0.87221356597E+03  0.13221976965E+04  0.99370531045E+03 0.  0.
        2    1    3    3  502    0 -0.10212550630E+03 -0.28075430685E+02 -0.10820102784E+04  0.10871817196E+04  0.25500000920E-02 0.  1.
       -2    1    3    3    0  502  0.10212550630E+03  0.28075430685E+02  0.20979671244E+03  0.23501597691E+03  0.25500000920E-02 0. -1.
</event>
<event>
 5   0  0.2204862E-03  0.9964314E+03  0.7818609E-02  0.9312467E-01
       -2   -1    0    0    0  501  0.00000000000E+00  0.00000000000E+00  0.90426668788E+03  0.90426668789E+03  0.25500000920E-02 0. -1.
        2   -1    0    0  501    0  0.00000000000E+00  0.00000000000E+00 -0.27449744855E+03  0.27449744856E+03  0.25500000920E-02 0.  1.
    10030    2    1    2    0    0  0.00000000000E+00  0.00000000000E+00  0.62976923933E+03  0.11787641365E+04  0.99643142994E+03 0.  0.
        1    1    3    3  502    0 -0.21943602823E+03 -0.44132680367E+03  0.40098599337E+03  0.63538278622E+03  0.50400001928E-02 0. -1.
       -1    1    3    3    0  502  0.21943602823E+03  0.44132680367E+03  0.22878324596E+03  0.54338135023E+03  0.50400001928E-02 0.  1.
</event>
<event>
 5   0  0.2255142E-03  0.1009315E+04  0.7818609E-02  0.9298387E-01
       -2   -1    0    0    0  501  0.00000000000E+00  0.00000000000E+00  0.32313570748E+03  0.32313570749E+03  0.25500000920E-02 0. -1.
        2   -1    0    0  501    0  0.00000000000E+00  0.00000000000E+00 -0.78814856700E+03  0.78814856701E+03  0.25500000920E-02 0.  1.
    10030    2    1    2    0    0  0.00000000000E+00  0.00000000000E+00 -0.46501285952E+03  0.11112842745E+04  0.10093145096E+04 0.  0.
        4    1    3    3  502    0 -0.40299767961E+03 -0.12633776051E+03  0.71642613644E+02  0.42837207716E+03  0.12699999809E+01 0. -1.
       -4    1    3    3    0  502  0.40299767961E+03  0.12633776051E+03 -0.53665547317E+03  0.68291219734E+03  0.12699999809E+01 0.  1.
</event>
<event>
 5   0  0.2255142E-03  0.1008884E+04  0.7818609E-02  0.9298854E-01
        2   -1    0    0  501    0  0.00000000000E+00  0.00000000000E+00  0.77214848789E+03  0.77214848789E+03  0.25500000920E-02 0. -1.
       -2   -1    0    0    0  501  0.00000000000E+00  0.00000000000E+00 -0.32955041261E+03  0.32955041262E+03  0.25500000920E-02 0.  1.
    10030    2    1    2    0    0  0.00000000000E+00  0.00000000000E+00  0.44259807528E+03  0.11016989005E+04  0.10088842407E+04 0.  0.
        4    1    3    3  502    0 -0.23445032195E+03 -0.37794104782E+03  0.48121700083E+03  0.65526926059E+03  0.12699999809E+01 0. -1.
       -4    1    3    3    0  502  0.23445032195E+03  0.37794104782E+03 -0.38618925553E+02  0.44642963992E+03  0.12699999809E+01 0.  1.
</event>
<event>
 5   0  0.2264577E-03  0.1015174E+04  0.7818609E-02  0.9292057E-01
       -2   -1    0    0    0  501  0.00000000000E+00  0.00000000000E+00  0.69669783094E+03  0.69669783094E+03  0.25500000920E-02 0.  1.
        2   -1    0    0  501    0  0.00000000000E+00  0.00000000000E+00 -0.36980795665E+03  0.36980795666E+03  0.25500000920E-02 0. -1.
    10030    2    1    2    0    0  0.00000000000E+00  0.00000000000E+00  0.32688987428E+03  0.10665057876E+04  0.10151736822E+04 0.  0.
        5    1    3    3  502    0 -0.13590777291E+03 -0.10915351430E+03  0.66424259955E+03  0.68675012449E+03  0.46999998093E+01 0.  1.
       -5    1    3    3    0  502  0.13590777291E+03  0.10915351430E+03 -0.33735272527E+03  0.37975566312E+03  0.46999998093E+01 0. -1.
</event>
<event>
 5   0  0.1249195E-03  0.1012085E+04  0.7818609E-02  0.9295388E-01
       -1   -1    0    0    0  501  0.00000000000E+00  0.00000000000E+00  0.84599901980E+03  0.84599901981E+03  0.50400001928E-02 0. -1.
        1   -1    0    0  501    0  0.00000000000E+00  0.00000000000E+00 -0.30269446353E+03  0.30269446357E+03  0.50400001928E-02 0.  1.
    10030    2    1    2    0    0  0.00000000000E+00  0.00000000000E+00  0.54330455627E+03  0.11486934834E+04  0.10120854104E+04 0.  0.
        2    1    3    3  502    0  0.28060775117E+03  0.45241388308E+02 -0.20353816958E+03  0.34959302011E+03  0.25500000920E-02 0.  1.
       -2    1    3    3    0  502 -0.28060775117E+03 -0.45241388308E+02  0.74684272585E+03  0.79910046327E+03  0.25500000920E-02 0. -1.
</event>
<event>
 5   0  0.2264577E-03  0.1000802E+04  0.7818609E-02  0.9307666E-01
        2   -1    0    0  501    0  0.00000000000E+00  0.00000000000E+00  0.69413091861E+03  0.69413091861E+03  0.25500000920E-02 0.  1.
       -2   -1    0    0    0  501  0.00000000000E+00  0.00000000000E+00 -0.36074023923E+03  0.36074023924E+03  0.25500000920E-02 0. -1.
    10030    2    1    2    0    0  0.00000000000E+00  0.00000000000E+00  0.33339067938E+03  0.10548711578E+04  0.10008015860E+04 0.  0.
        5    1    3    3  502    0  0.57988564572E+02  0.70897025824E+02 -0.35180609811E+03  0.36356386311E+03  0.46999998093E+01 0. -1.
       -5    1    3    3    0  502 -0.57988564572E+02 -0.70897025824E+02  0.68519677748E+03  0.69130729474E+03  0.46999998093E+01 0.  1.
</event>
<event>
 5   0  0.2277570E-03  0.9986689E+03  0.7818609E-02  0.9310006E-01
        2   -1    0    0  501    0  0.00000000000E+00  0.00000000000E+00  0.15610795725E+03  0.15610795727E+03  0.25500000920E-02 0.  1.
       -2   -1    0    0    0  501  0.00000000000E+00  0.00000000000E+00 -0.15971954297E+04  0.15971954297E+04  0.25500000920E-02 0. -1.
    10030    2    1    2    0    0  0.00000000000E+00  0.00000000000E+00 -0.14410874725E+04  0.17533033870E+04  0.99866894590E+03 0.  0.
        3    1    3    3  502    0  0.31342035972E+03  0.14413729559E+03 -0.86742962374E+02  0.35571369609E+03  0.10100000352E+00 0.  1.
       -3    1    3    3    0  502 -0.31342035972E+03 -0.14413729559E+03 -0.13543445101E+04  0.13975896909E+04  0.10100000352E+00 0. -1.
</event>
<event>
 5   0  0.8680125E-04  0.9944567E+03  0.7818609E-02  0.9314646E-01
        4   -1    0    0  501    0  0.00000000000E+00  0.00000000000E+00  0.77266004173E+03  0.77266108546E+03  0.12699999809E+01 0. -1.
       -4   -1    0    0    0  501  0.00000000000E+00  0.00000000000E+00 -0.31997781586E+03  0.31998033618E+03  0.12699999809E+01 0.  1.
    10030    2    1    2    0    0  0.00000000000E+00  0.00000000000E+00  0.45268222587E+03  0.10926414216E+04  0.99445667511E+03 0.  0.
        1    1    3    3  502    0  0.29036558268E+03 -0.50649059845E+02 -0.21364382951E+03  0.36403459284E+03  0.50400001928E-02 0.  1.
       -1    1    3    3    0  502 -0.29036558268E+03  0.50649059845E+02  0.66632605538E+03  0.72860682880E+03  0.50400001928E-02 0. -1.
</event>
<event>
 5   0  0.1353789E-03  0.9989663E+03  0.7818609E-02  0.9309679E-01
       -1   -1    0    0    0  501  0.00000000000E+00  0.00000000000E+00  0.15292955246E+03  0.15292955254E+03  0.50400001928E-02 0. -1.
        1   -1    0    0  501    0  0.00000000000E+00  0.00000000000E+00 -0.16313617359E+04  0.16313617359E+04  0.50400001928E-02 0.  1.
    10030    2    1    2    0    0  0.00000000000E+00  0.00000000000E+00 -0.14784321835E+04  0.17842912885E+04  0.99896630625E+03 0.  0.
        1    1    3    3  502    0  0.24744153930E+03  0.32327750382E+03 -0.12561101211E+04  0.13204348891E+04  0.50400001928E-02 0.  1.
       -1    1    3    3    0  502 -0.24744153930E+03 -0.32327750382E+03 -0.22232206234E+03  0.46385639941E+03  0.50400001928E-02 0. -1.
</event>
<event>
 5   0  0.1285769E-03  0.9977206E+03  0.7818609E-02  0.9311048E-01
       -1   -1    0    0    0  501  0.00000000000E+00  0.00000000000E+00  0.52808094416E+03  0.52808094418E+03  0.50400001928E-02 0.  1.
        1   -1    0    0  501    0  0.00000000000E+00  0.00000000000E+00 -0.47125655142E+03  0.47125655145E+03  0.50400001928E-02 0. -1.
    10030    2    1    2    0    0  0.00000000000E+00  0.00000000000E+00  0.56824392736E+02  0.99933749563E+03  0.99772061148E+03 0.  0.
        5    1    3    3  502    0 -0.18451447879E+03  0.24236747862E+03  0.42408646337E+03  0.52216760335E+03  0.46999998093E+01 0.  1.
       -5    1    3    3    0  502  0.18451447879E+03 -0.24236747862E+03 -0.36726207063E+03  0.47716989228E+03  0.46999998093E+01 0. -1.
</event>
<event>
 5   0  0.1285769E-03  0.1006695E+04  0.7818609E-02  0.9301233E-01
       -1   -1    0    0    0  501  0.00000000000E+00  0.00000000000E+00  0.16744706503E+03  0.16744706510E+03  0.50400001928E-02 0. -1.
        1   -1    0    0  501    0  0.00000000000E+00  0.00000000000E+00 -0.15130662501E+04  0.15130662501E+04  0.50400001928E-02 0.  1.
    10030    2    1    2    0    0  0.00000000000E+00  0.00000000000E+00 -0.13456191851E+04  0.16805133152E+04  0.10066945969E+04 0.  0.
        5    1    3    3  502    0  0.13139826898E+03 -0.11166334775E+03 -0.14621825801E+04  0.14723227214E+04  0.46999998093E+01 0.  1.
       -5    1    3    3    0  502 -0.13139826898E+03  0.11166334775E+03  0.11656339500E+03  0.20819059386E+03  0.46999998093E+01 0. -1.
</event>
<event>
 5   0  0.8680125E-04  0.9858618E+03  0.7818609E-02  0.9324189E-01
        3   -1    0    0  501    0  0.00000000000E+00  0.00000000000E+00  0.19563761515E+03  0.19563764122E+03  0.10100000352E+00 0.  1.
       -3   -1    0    0    0  501  0.00000000000E+00  0.00000000000E+00 -0.12419946421E+04  0.12419946462E+04  0.10100000352E+00 0. -1.
    10030    2    1    2    0    0  0.00000000000E+00  0.00000000000E+00 -0.10463570270E+04  0.14376322875E+04  0.98586183922E+03 0.  0.
        3    1    3    3  502    0 -0.35848991617E+02 -0.17460451161E+03 -0.11933531190E+04  0.12065917132E+04  0.10100000352E+00 0. -1.
       -3    1    3    3    0  502  0.35848991617E+02  0.17460451161E+03  0.14699609200E+03  0.23104057422E+03  0.10100000352E+00 0.  1.
</event>
<event>
 5   0  0.2204862E-03  0.9947536E+03  0.7818609E-02  0.9314318E-01
       -2   -1    0    0    0  501  0.00000000000E+00  0.00000000000E+00  0.13957304421E+03  0.13957304424E+03  0.25500000920E-02 0. -1.
        2   -1    0    0  501    0  0.00000000000E+00  0.00000000000E+00 -0.17724317650E+04  0.17724317650E+04  0.25500000920E-02 0.  1.
    10030    2    1    2    0    0  0.00000000000E+00  0.00000000000E+00 -0.16328587208E+04  0.19120048092E+04  0.99475363206E+03 0.  0.
        1    1    3    3  502    0  0.25104640198E+03  0.42821590338E+03 -0.75593571885E+03  0.90434062549E+03  0.50400001928E-02 0.  1.
       -1    1    3    3    0  502 -0.25104640198E+03 -0.42821590338E+03 -0.87692300192E+03  0.10076641837E+04  0.50400001928E-02 0. -1.
</event>
<event>
 5   0  0.2204862E-03  0.1000392E+04  0.7818609E-02  0.9308115E-01
        2   -1    0    0  501    0  0.00000000000E+00  0.00000000000E+00  0.11620859339E+04  0.11620859339E+04  0.25500000920E-02 0. -1.
       -2   -1    0    0    0  501  0.00000000000E+00  0.00000000000E+00 -0.21529911563E+03  0.21529911565E+03  0.25500000920E-02 0.  1.
    10030    2    1    2    0    0  0.00000000000E+00  0.00000000000E+00  0.94678681830E+03  0.13773850496E+04  0.10003920709E+04 0.  0.
        1    1    3    3  502    0  0.38143162614E+02 -0.18883481668E+03  0.11089571349E+04  0.11255662646E+04  0.50400001928E-02 0. -1.
       -1    1    3    3    0  502 -0.38143162614E+02  0.18883481668E+03 -0.16217031664E+03  0.25181878498E+03  0.50400001928E-02 0.  1.
</event>
<event>
 5   0  0.1293575E-03  0.9946808E+03  0.7818609E-02  0.9314398E-01
        1   -1    0    0  501    0  0.00000000000E+00  0.00000000000E+00  0.37523212380E+03  0.37523212383E+03  0.50400001928E-02 0. -1.
       -1   -1    0    0    0  501  0.00000000000E+00  0.00000000000E+00 -0.65918522579E+03  0.65918522581E+03  0.50400001928E-02 0.  1.
    10030    2    1    2    0    0  0.00000000000E+00  0.00000000000E+00 -0.28395310199E+03  0.10344173496E+04  0.99468079759E+03 0.  0.
        4    1    3    3  502    0 -0.61843989644E+02  0.48997015714E+03 -0.20306349305E+03  0.53397736755E+03  0.12699999809E+01 0. -1.
       -4    1    3    3    0  502  0.61843989644E+02 -0.48997015714E+03 -0.80889608941E+02  0.50043998209E+03  0.12699999809E+01 0.  1.
</event>
<event>
 5   0  0.2284843E-03  0.9989975E+03  0.7818609E-02  0.9309645E-01
        2   -1    0    0  501    0  0.00000000000E+00  0.00000000000E+00  0.34423793854E+03  0.34423793855E+03  0.25500000920E-02 0. -1.
       -2   -1    0    0    0  501  0.00000000000E+00  0.00000000000E+00 -0.72478647283E+03  0.72478647284E+03  0.25500000920E-02 0.  1.
    10030    2    1    2    0    0  0.00000000000E+00  0.00000000000E+00 -0.38054853429E+03  0.10690244114E+04  0.99899750009E+03 0.  0.
        2    1    3    3  502    0 -0.15696567102E+03  0.10535959091E+02  0.31703506563E+03  0.35392154661E+03  0.25500000920E-02 0. -1.
       -2    1    3    3    0  502  0.15696567102E+03 -0.10535959091E+02 -0.69758359992E+03  0.71510286477E+03  0.25500000920E-02 0.  1.
</event>
<event>
 5   0  0.8680125E-04  0.1004534E+04  0.7818609E-02  0.9303586E-01
        3   -1    0    0  501    0  0.00000000000E+00  0.00000000000E+00  0.22228180094E+03  0.22228182389E+03  0.10100000352E+00 0. -1.
       -3   -1    0    0    0  501  0.00000000000E+00  0.00000000000E+00 -0.11349201941E+04  0.11349201986E+04  0.10100000352E+00 0.  1.
    10030    2    1    2    0    0  0.00000000000E+00  0.00000000000E+00 -0.91263839316E+03  0.13572020225E+04  0.10045339681E+04 0.  0.
        2    1    3    3  502    0  0.39976364352E+03  0.14268817731E+03 -0.81910578873E+03  0.92255361891E+03  0.25500000920E-02 0.  1.
       -2    1    3    3    0  502 -0.39976364352E+03 -0.14268817731E+03 -0.93532604436E+02  0.43464840357E+03  0.25500000920E-02 0. -1.
</event>
<event>
 5   0  0.2264577E-03  0.9946983E+03  0.7818609E-02  0.9314379E-01
       -2   -1    0    0    0  501  0.00000000000E+00  0.00000000000E+00  0.17848246742E+03  0.17848246744E+03  0.25500000920E-02 0.  1.
        2   -1    0    0  501    0  0.00000000000E+00  0.00000000000E+00 -0.13858848778E+04  0.13858848778E+04  0.25500000920E-02 0. -1.
    10030    2    1    2    0    0  0.00000000000E+00  0.00000000000E+00 -0.12074024104E+04  0.15643673452E+04  0.99469825084E+03 0.  0.
        5    1    3    3  502    0 -0.12426025040E+03  0.53481931978E+02  0.14895482784E+03  0.20127234687E+03  0.46999998093E+01 0.  1.
       -5    1    3    3    0  502  0.12426025040E+03 -0.53481931978E+02 -0.13563572382E+04  0.13630949983E+04  0.46999998093E+01 0. -1.
</event>
<event>
 5   0  0.2264577E-03  0.9998148E+03  0.7818609E-02  0.9308748E-01
       -2   -1    0    0    0  501  0.00000000000E+00  0.00000000000E+00  0.19355880601E+04  0.19355880601E+04  0.25500000920E-02 0. -1.
        2   -1    0    0  501    0  0.00000000000E+00  0.00000000000E+00 -0.12911188415E+03  0.12911188417E+03  0.25500000920E-02 0.  1.
    10030    2    1    2    0    0  0.00000000000E+00  0.00000000000E+00  0.18064761760E+04  0.20646999443E+04  0.99981482566E+03 0.  0.
        5    1    3    3  502    0  0.27915241896E+03  0.12521522986E+03  0.86863200028E+02  0.31807582794E+03  0.46999998093E+01 0.  1.
       -5    1    3    3    0  502 -0.27915241896E+03 -0.12521522986E+03  0.17196129760E+04  0.17466241164E+04  0.46999998093E+01 0. -1.
</event>
<event>
 5   0  0.1353789E-03  0.1001619E+04  0.7818609E-02  0.9306771E-01
       -1   -1    0    0    0  501  0.00000000000E+00  0.00000000000E+00  0.36528115334E+03  0.36528115337E+03  0.50400001928E-02 0.  1.
        1   -1    0    0  501    0  0.00000000000E+00  0.00000000000E+00 -0.68662211497E+03  0.68662211499E+03  0.50400001928E-02 0. -1.
    10030    2    1    2    0    0  0.00000000000E+00  0.00000000000E+00 -0.32134096163E+03  0.10519032684E+04  0.10016189257E+04 0.  0.
        1    1    3    3  502    0 -0.36231892952E+03  0.33169069466E+03 -0.58221061740E+02  0.49465484499E+03  0.50400001928E-02 0.  1.
       -1    1    3    3    0  502  0.36231892952E+03 -0.33169069466E+03 -0.26311989989E+03  0.55724842338E+03  0.50400001928E-02 0. -1.
</event>
<event>
 5   0  0.1293575E-03  0.9931724E+03  0.7818609E-02  0.9316065E-01
       -1   -1    0    0    0  501  0.00000000000E+00  0.00000000000E+00  0.65214864736E+03  0.65214864738E+03  0.50400001928E-02 0. -1.
        1   -1    0    0  501    0  0.00000000000E+00  0.00000000000E+00 -0.37813132909E+03  0.37813132912E+03  0.50400001928E-02 0.  1.
    10030    2    1    2    0    0  0.00000000000E+00  0.00000000000E+00  0.27401731827E+03  0.10302799765E+04  0.99317236131E+03 0.  0.
        4    1    3    3  502    0  0.29743897826E+03 -0.15244642457E+03 -0.24398228925E+03  0.41381013584E+03  0.12699999809E+01 0.  1.
       -4    1    3    3    0  502 -0.29743897826E+03  0.15244642457E+03  0.51799960753E+03  0.61646984067E+03  0.12699999809E+01 0. -1.
</event>
<event>
 5   0  0.2277570E-03  0.1001386E+04  0.7818609E-02  0.9307026E-01
        2   -1    0    0  501    0  0.00000000000E+00  0.00000000000E+00  0.12744841961E+04  0.12744841961E+04  0.25500000920E-02 0.  1.
       -2   -1    0    0    0  501  0.00000000000E+00  0.00000000000E+00 -0.19670206111E+03  0.19670206113E+03  0.25500000920E-02 0. -1.
    10030    2    1    2    0    0  0.00000000000E+00  0.00000000000E+00  0.10777821350E+04  0.14711862572E+04  0.10013863755E+04 0.  0.
        3    1    3    3  502    0  0.22686607883E+03 -0.42415982862E+03  0.33471692201E+03  0.58601638716E+03  0.10100000352E+00 0. -1.
       -3    1    3    3    0  502 -0.22686607883E+03  0.42415982862E+03  0.74306521294E+03  0.88516987004E+03  0.10100000352E+00 0.  1.
</event>
<event>
 5   0  0.2204862E-03  0.1002507E+04  0.7818609E-02  0.9305799E-01
        2   -1    0    0  501    0  0.00000000000E+00  0.00000000000E+00  0.64508689963E+03  0.64508689964E+03  0.25500000920E-02 0.  1.
       -2   -1    0    0    0  501  0.00000000000E+00  0.00000000000E+00 -0.38949053077E+03  0.38949053078E+03  0.25500000920E-02 0. -1.
    10030    2    1    2    0    0  0.00000000000E+00  0.00000000000E+00  0.25559636886E+03  0.10345774304E+04  0.10025073345E+04 0.  0.
        1    1    3    3  502    0  0.15954402373E+03 -0.30740083908E+03  0.50175131838E+03  0.60967528808E+03  0.50400001928E-02 0.  1.
       -1    1    3    3    0  502 -0.15954402373E+03  0.30740083908E+03 -0.24615494952E+03  0.42490214235E+03  0.50400001928E-02 0. -1.
</event>
<event>
 5   0  0.2264577E-03  0.1001010E+04  0.7818609E-02  0.9307438E-01
       -2   -1    0    0    0  501  0.00000000000E+00  0.00000000000E+00  0.52274512512E+03  0.52274512512E+03  0.25500000920E-02 0.  1.
        2   -1    0    0  501    0  0.00000000000E+00  0.00000000000E+00 -0.47921092767E+03  0.47921092768E+03  0.25500000920E-02 0. -1.
    10030    2    1    2    0    0  0.00000000000E+00  0.00000000000E+00  0.43534197443E+02  0.10019560528E+04  0.10010098428E+04 0.  0.
        5    1    3    3  502    0 -0.21214713639E+03 -0.37937123939E+02  0.47389912682E+03  0.52062280516E+03  0.46999998093E+01 0.  1.
       -5    1    3    3    0  502  0.21214713639E+03  0.37937123939E+02 -0.43036492938E+03  0.48133324765E+03  0.46999998093E+01 0. -1.
</event>
<event>
 5   0  0.8680125E-04  0.1000955E+04  0.7818609E-02  0.9307498E-01
        4   -1    0    0  501    0  0.00000000000E+00  0.00000000000E+00  0.47686302911E+03  0.47686472027E+03  0.12699999809E+01 0. -1.
       -4   -1    0    0    0  501  0.00000000000E+00  0.00000000000E+00 -0.52525840155E+03  0.52525993689E+03  0.12699999809E+01 0.  1.
    10030    2    1    2    0    0  0.00000000000E+00  0.00000000000E+00 -0.48395372437E+02  0.10021246572E+04  0.10009554018E+04 0.  0.
        1    1    3    3  502    0 -0.18626515614E+02  0.49079378332E+03 -0.12049967561E+03  0.50571301810E+03  0.50400001928E-02 0.  1.
       -1    1    3    3    0  502  0.18626515614E+02 -0.49079378332E+03  0.72104303176E+02  0.49641163906E+03  0.50400001928E-02 0. -1.
</event>
<event>
 5   0  0.2277570E-03  0.1000943E+04  0.7818609E-02  0.9307511E-01
        2   -1    0    0  501    0  0.00000000000E+00  0.00000000000E+00  0.49723185962E+03  0.49723185963E+03  0.25500000920E-02 0. -1.
       -2   -1    0    0    0  501  0.00000000000E+00  0.00000000000E+00 -0.50373230891E+03  0.50373230892E+03  0.25500000920E-02 0.  1.
    10030    2    1    2    0    0  0.00000000000E+00  0.00000000000E+00 -0.65004492924E+01  0.10009641685E+04  0.10009430608E+04 0.  0.
        3    1    3    3  502    0  0.24535932896E+03  0.12070095420E+03  0.41592662622E+03  0.49775987108E+03  0.10100000352E+00 0. -1.
       -3    1    3    3    0  502 -0.24535932896E+03 -0.12070095420E+03 -0.42242707552E+03  0.50320429746E+03  0.10100000352E+00 0.  1.
</event>
<event>
 5   0  0.2255142E-03  0.9975595E+03  0.7818609E-02  0.9311226E-01
        2   -1    0    0  501    0  0.00000000000E+00  0.00000000000E+00  0.73707559018E+03  0.73707559018E+03  0.25500000920E-02 0.  1.
       -2   -1    0    0    0  501  0.00000000000E+00  0.00000000000E+00 -0.33752469963E+03  0.33752469964E+03  0.25500000920E-02 0. -1.
    10030    2    1    2    0    0  0.00000000000E+00  0.00000000000E+00  0.39955089055E+03  0.10746002898E+04  0.99755945625E+03 0.  0.
        4    1    3    3  502    0  0.10711184241E+03  0.45727042048E+03  0.18844463413E+02  0.47002756401E+03  0.12699999809E+01 0. -1.
       -4    1    3    3    0  502 -0.10711184241E+03 -0.45727042048E+03  0.38070642714E+03  0.60457272581E+03  0.12699999809E+01 0.  1.
</event>
<event>
 5   0  0.1285769E-03  0.1000084E+04  0.7818609E-02  0.9308453E-01
       -1   -1    0    0    0  501  0.00000000000E+00  0.00000000000E+00  0.20795706889E+03  0.20795706895E+03  0.50400001928E-02 0. -1.
        1   -1    0    0  501    0  0.00000000000E+00  0.00000000000E+00 -0.12023726938E+04  0.12023726938E+04  0.50400001928E-02 0.  1.
    10030    2    1    2    0    0  0.00000000000E+00  0.00000000000E+00 -0.99441562491E+03  0.14103297628E+04  0.10000837988E+04 0.  0.
        5    1    3    3  502    0 -0.21350163696E+03 -0.23309963753E+03 -0.10435650259E+04  0.10903982957E+04  0.46999998093E+01 0.  1.
       -5    1    3    3    0  502  0.21350163696E+03  0.23309963753E+03  0.49149400980E+02  0.31993146707E+03  0.46999998093E+01 0. -1.
</event>
<event>
 5   0  0.2277570E-03  0.9977257E+03  0.7818609E-02  0.9311043E-01
       -2   -1    0    0    0  501  0.00000000000E+00  0.00000000000E+00  0.38907327826E+03  0.38907327827E+03  0.25500000920E-02 0.  1.
        2   -1    0    0  501    0  0.00000000000E+00  0.00000000000E+00 -0.63963306953E+03  0.63963306953E+03  0.25500000920E-02 0. -1.
    10030    2    1    2    0    0  0.00000000000E+00  0.00000000000E+00 -0.25055979126E+03  0.10287063478E+04  0.99772568425E+03 0.  0.
        3    1    3    3  502    0  0.36453065878E+03  0.29366216893E+03 -0.30309979117E+03  0.55766438317E+03  0.10100000352E+00 0. -1.
       -3    1    3    3    0  502 -0.36453065878E+03 -0.29366216893E+03  0.52539999910E+02  0.47104196463E+03  0.10100000352E+00 0.  1.
</event>
<event>
 5   0  0.2255142E-03  0.1004097E+04  0.7818609E-02  0.9304063E-01
        2   -1    0    0  501    0  0.00000000000E+00  0.00000000000E+00  0.13188589310E+04  0.13188589310E+04  0.25500000920E-02 0.  1.
       -2   -1    0    0    0  501  0.00000000000E+00  0.00000000000E+00 -0.19111420719E+03  0.19111420721E+03  0.25500000920E-02 0. -1.
    10030    2    1    2    0    0  0.00000000000E+00  0.00000000000E+00  0.11277447239E+04  0.15099731383E+04  0.10040969655E+04 0.  0.
        4    1    3    3  502    0  0.15195917822E+03 -0.46020182631E+02 -0.15236163939E+03  0.22005710875E+03  0.12699999809E+01 0. -1.
       -4    1    3    3    0  502 -0.15195917822E+03  0.46020182631E+02  0.12801063632E+04  0.12899160295E+04  0.12699999809E+01 0.  1.
</event>
<event>
 5   0  0.2204862E-03  0.1003802E+04  0.7818609E-02  0.9304384E-01
       -2   -1    0    0    0  501  0.00000000000E+00  0.00000000000E+00  0.25244454645E+03  0.25244454647E+03  0.25500000920E-02 0. -1.
        2   -1    0    0  501    0  0.00000000000E+00  0.00000000000E+00 -0.99786183319E+03  0.99786183319E+03  0.25500000920E-02 0.  1.
    10030    2    1    2    0    0  0.00000000000E+00  0.00000000000E+00 -0.74541728674E+03  0.12503063797E+04  0.10038023270E+04 0.  0.
        1    1    3    3  502    0  0.52146276141E+02  0.45965498646E+03 -0.61520438083E+03  0.76972616618E+03  0.50400001928E-02 0.  1.
       -1    1    3    3    0  502 -0.52146276141E+02 -0.45965498646E+03 -0.13021290591E+03  0.48058021347E+03  0.50400001928E-02 0. -1.
</event>
<event>
 5   0  0.1293575E-03  0.1002105E+04  0.7818609E-02  0.9306239E-01
       -1   -1    0    0    0  501  0.00000000000E+00  0.00000000000E+00  0.29339793090E+03  0.29339793095E+03  0.50400001928E-02 0.  1.
        1   -1    0    0  501    0  0.00000000000E+00  0.00000000000E+00 -0.85567576523E+03  0.85567576524E+03  0.50400001928E-02 0. -1.
    10030    2    1    2    0    0  0.00000000000E+00  0.00000000000E+00 -0.56227783432E+03  0.11490736962E+04  0.10021047831E+04 0.  0.
        4    1    3    3  502    0  0.37234167588E+03 -0.98343569032E+00  0.10331318125E+03  0.38641236660E+03  0.12699999809E+01 0.  1.
       -4    1    3    3    0  502 -0.37234167588E+03  0.98343569032E+00 -0.66559101557E+03  0.76266132959E+03  0.12699999809E+01 0. -1.
</event>
<event>
 5   0  0.2277570E-03  0.1010047E+04  0.7818609E-02  0.9297593E-01
        2   -1    0    0  501    0  0.00000000000E+00  0.00000000000E+00  0.12538290037E+04  0.12538290037E+04  0.25500000920E-02 0.  1.
       -2   -1    0    0    0  501  0.00000000000E+00  0.00000000000E+00 -0.20341603255E+03  0.20341603257E+03  0.25500000920E-02 0. -1.
    10030    2    1    2    0    0  0.00000000000E+00  0.00000000000E+00  0.10504129712E+04  0.14572450363E+04  0.10100473681E+04 0.  0.
        3    1    3    3  502    0  0.33053456711E+03  0.24448388091E+03  0.94836126861E+03  0.10336414147E+04  0.10100000352E+00 0.  1.
       -3    1    3    3    0  502 -0.33053456711E+03 -0.24448388091E+03  0.10205170257E+03  0.42360362165E+03  0.10100000352E+00 0. -1.
</event>
<event>
 5   0  0.2264577E-03  0.9965518E+03  0.7818609E-02  0.9312335E-01
       -2   -1    0    0    0  501  0.00000000000E+00  0.00000000000E+00  0.17538758486E+03  0.17538758488E+03  0.25500000920E-02 0. -1.
        2   -1    0    0  501    0  0.00000000000E+00  0.00000000000E+00 -0.14156012871E+04  0.14156012871E+04  0.25500000920E-02 0.  1.
    10030    2    1    2    0    0  0.00000000000E+00  0.00000000000E+00 -0.12402137022E+04  0.15909888720E+04  0.99655183686E+03 0.  0.
        5    1    3    3  502    0 -0.36377523321E+03 -0.66846424575E+02 -0.87117109910E+02  0.38001624388E+03  0.46999998093E+01 0. -1.
       -5    1    3    3    0  502  0.36377523321E+03  0.66846424575E+02 -0.11530965923E+04  0.12109726281E+04  0.46999998093E+01 0.  1.
</event>
<event>
 5   0  0.1293716E-03  0.1001606E+04  0.7818609E-02  0.9306786E-01
        1   -1    0    0  501    0  0.00000000000E+00  0.00000000000E+00  0.93245356089E+03  0.93245356090E+03  0.50400001928E-02 0. -1.
       -1   -1    0    0    0  501  0.00000000000E+00  0.00000000000E+00 -0.26897147073E+03  0.26897147078E+03  0.50400001928E-02 0.  1.
    10030    2    1    2    0    0  0.00000000000E+00  0.00000000000E+00  0.66348209016E+03  0.12014250317E+04  0.10016055225E+04 0.  0.
        3    1    3    3  502    0  0.27426180306E+03  0.36341489777E+03  0.58195517394E+03  0.73889225143E+03  0.10100000352E+00 0. -1.
       -3    1    3    3    0  502 -0.27426180306E+03 -0.36341489777E+03  0.81526916211E+02  0.46253278025E+03  0.10100000352E+00 0.  1.
</event>
<event>
 5   0  0.8680125E-04  0.9990055E+03  0.7818609E-02  0.9309636E-01
        3   -1    0    0  501    0  0.00000000000E+00  0.00000000000E+00  0.39987335264E+03  0.39987336540E+03  0.10100000352E+00 0.  1.
       -3   -1    0    0    0  501  0.00000000000E+00  0.00000000000E+00 -0.62395497173E+03  0.62395497990E+03  0.10100000352E+00 0. -1.
    10030    2    1    2    0    0  0.00000000000E+00  0.00000000000E+00 -0.22408161909E+03  0.10238283453E+04  0.99900545976E+03 0.  0.
        1    1    3    3  502    0 -0.17972451006E+03  0.44940198091E+03 -0.23855838935E+03  0.53960461925E+03  0.50400001928E-02 0.  1.
       -1    1    3    3    0  502  0.17972451006E+03 -0.44940198091E+03  0.14476770260E+02  0.48422372605E+03  0.50400001928E-02 0. -1.
</event>
<event>
 5   0  0.1293575E-03  0.9992977E+03  0.7818609E-02  0.9309315E-01
       -1   -1    0    0    0  501  0.00000000000E+00  0.00000000000E+00  0.37151908520E+03  0.37151908524E+03  0.50400001928E-02 0.  1.
        1   -1    0    0  501    0  0.00000000000E+00  0.00000000000E+00 -0.67196808780E+03  0.67196808782E+03  0.50400001928E-02 0. -1.
    10030    2    1    2    0    0  0.00000000000E+00  0.00000000000E+00 -0.30044900260E+03  0.10434871731E+04  0.99929769197E+03 0.  0.
        4    1    3    3  502    0  0.38161562159E+03  0.26655576676E+02  0.18540161510E+03  0.42510748546E+03  0.12699999809E+01 0.  1.
       -4    1    3    3    0  502 -0.38161562159E+03 -0.26655576676E+02 -0.48585061770E+03  0.61837968760E+03  0.12699999809E+01 0. -1.
</event>
<event>
 5   0  0.2255142E-03  0.1001033E+04  0.7818609E-02  0.9307412E-01
       -2   -1    0    0    0  501  0.00000000000E+00  0.00000000000E+00  0.52314432763E+03  0.52314432763E+03  0.25500000920E-02 0.  1.
        2   -1    0    0  501    0  0.00000000000E+00  0.00000000000E+00 -0.47886765119E+03  0.47886765120E+03  0.25500000920E-02 0. -1.
    10030    2    1    2    0    0  0.00000000000E+00  0.00000000000E+00  0.44276676433E+02  0.10020119788E+04  0.10010332570E+04 0.  0.
        4    1    3    3  502    0  0.33537237723E+03  0.34215621531E+03 -0.12281268888E+03  0.49460092654E+03  0.12699999809E+01 0. -1.
       -4    1    3    3    0  502 -0.33537237723E+03 -0.34215621531E+03  0.16708936532E+03  0.50741105229E+03  0.12699999809E+01 0.  1.
</event>
<event>
 5   0  0.1293716E-03  0.9981270E+03  0.7818609E-02  0.9310601E-01
       -1   -1    0    0    0  501  0.00000000000E+00  0.00000000000E+00  0.26261489350E+03  0.26261489354E+03  0.50400001928E-02 0. -1.
        1   -1    0    0  501    0  0.00000000000E+00  0.00000000000E+00 -0.94840151949E+03  0.94840151951E+03  0.50400001928E-02 0.  1.
    10030    2    1    2    0    0  0.00000000000E+00  0.00000000000E+00 -0.68578662600E+03  0.12110164131E+04  0.99812697403E+03 0.  0.
        3    1    3    3  502    0 -0.33141306131E+02  0.74532644251E+01 -0.94699724071E+03  0.94760629031E+03  0.10100000352E+00 0.  1.
       -3    1    3    3    0  502  0.33141306131E+02 -0.74532644251E+01  0.26121061471E+03  0.26341012274E+03  0.10100000352E+00 0. -1.
</event>
<event>
 5   0  0.2264577E-03  0.9922720E+03  0.7818609E-02  0.9317062E-01
       -2   -1    0    0    0  501  0.00000000000E+00  0.00000000000E+00  0.12931600251E+03  0.12931600254E+03  0.25500000920E-02 0.  1.
        2   -1    0    0  501    0  0.00000000000E+00  0.00000000000E+00 -0.19034840600E+04  0.19034840600E+04  0.25500000920E-02 0. -1.
    10030    2    1    2    0    0  0.00000000000E+00  0.00000000000E+00 -0.17741680575E+04  0.20328000626E+04  0.99227203833E+03 0.  0.
        5    1    3    3  502    0 -0.39562581128E+03  0.24656951954E+03 -0.12348241112E+04  0.13198973392E+04  0.46999998093E+01 0.  1.
       -5    1    3    3    0  502  0.39562581128E+03 -0.24656951954E+03 -0.53934394636E+03  0.71290272337E+03  0.46999998093E+01 0. -1.
</event>
<event>
 5   0  0.2284843E-03  0.9998843E+03  0.7818609E-02  0.9308672E-01
        2   -1    0    0  501    0  0.00000000000E+00  0.00000000000E+00  0.10535798919E+04  0.10535798919E+04  0.25500000920E-02 0.  1.
       -2   -1    0    0    0  501  0.00000000000E+00  0.00000000000E+00 -0.23723130597E+03  0.23723130598E+03  0.25500000920E-02 0. -1.
    10030    2    1    2    0    0  0.00000000000E+00  0.00000000000E+00  0.81634858594E+03  0.12908111979E+04  0.99988426072E+03 0.  0.
        2    1    3    3  502    0  0.39798525368E+03 -0.27265706144E+03  0.57752155155E+03  0.75250599853E+03  0.25500000920E-02 0. -1.
       -2    1    3    3    0  502 -0.39798525368E+03  0.27265706144E+03  0.23882703438E+03  0.53830519936E+03  0.25500000920E-02 0.  1.
</event>
<event>
 5   0  0.2264577E-03  0.9976292E+03  0.7818609E-02  0.9311149E-01
        2   -1    0    0  501    0  0.00000000000E+00  0.00000000000E+00  0.93172951991E+03  0.93172951991E+03  0.25500000920E-02 0. -1.
       -2   -1    0    0    0  501  0.00000000000E+00  0.00000000000E+00 -0.26704745891E+03  0.26704745892E+03  0.25500000920E-02 0.  1.
    10030    2    1    2    0    0  0.00000000000E+00  0.00000000000E+00  0.66468206099E+03  0.11987769788E+04  0.99762919102E+03 0.  0.
        5    1    3    3  502    0 -0.29987882430E+03 -0.10623486452E+02 -0.14643371347E+03  0.33392377898E+03  0.46999998093E+01 0. -1.
       -5    1    3    3    0  502  0.29987882430E+03  0.10623486452E+02  0.81111577446E+03  0.86485319986E+03  0.46999998093E+01 0.  1.
</event>
<event>
 5   0  0.1285769E-03  0.1005151E+04  0.7818609E-02  0.9302913E-01
        1   -1    0    0  501    0  0.00000000000E+00  0.00000000000E+00  0.26197571218E+03  0.26197571223E+03  0.50400001928E-02 0.  1.
       -1   -1    0    0    0  501  0.00000000000E+00  0.00000000000E+00 -0.96414385769E+03  0.96414385770E+03  0.50400001928E-02 0. -1.
    10030    2    1    2    0    0  0.00000000000E+00  0.00000000000E+00 -0.70216814551E+03  0.12261195699E+04  0.10051512798E+04 0.  0.
        5    1    3    3  502    0 -0.32197509132E+02  0.40640186474E+03 -0.70956024804E+03  0.81835016397E+03  0.46999998093E+01 0. -1.
       -5    1    3    3    0  502  0.32197509132E+02 -0.40640186474E+03  0.73921025353E+01  0.40776940596E+03  0.46999998093E+01 0.  1.
</event>
<event>
 5   0  0.1293575E-03  0.9995925E+03  0.7818609E-02  0.9308992E-01
       -1   -1    0    0    0  501  0.00000000000E+00  0.00000000000E+00  0.48058111695E+03  0.48058111698E+03  0.50400001928E-02 0. -1.
        1   -1    0    0  501    0  0.00000000000E+00  0.00000000000E+00 -0.51977966123E+03  0.51977966126E+03  0.50400001928E-02 0.  1.
    10030    2    1    2    0    0  0.00000000000E+00  0.00000000000E+00 -0.39198544279E+02  0.10003607782E+04  0.99959249735E+03 0.  0.
        4    1    3    3  502    0 -0.21619430422E+03  0.23271853897E+03  0.36656876390E+03  0.48504862347E+03  0.12699999809E+01 0. -1.
       -4    1    3    3    0  502  0.21619430422E+03 -0.23271853897E+03 -0.40576730818E+03  0.51531215477E+03  0.12699999809E+01 0.  1.
</event>
<event>
 5   0  0.2277570E-03  0.1002666E+04  0.7818609E-02  0.9305625E-01
        2   -1    0    0  501    0  0.00000000000E+00  0.00000000000E+00  0.11761460949E+04  0.11761460949E+04  0.25500000920E-02 0. -1.
       -2   -1    0    0    0  501  0.00000000000E+00  0.00000000000E+00 -0.21369362534E+03  0.21369362536E+03  0.25500000920E-02 0.  1.
    10030    2    1    2    0    0  0.00000000000E+00  0.00000000000E+00  0.96245246957E+03  0.13898397203E+04  0.10026662914E+04 0.  0.
        3    1    3    3  502    0 -0.30057245201E+03  0.23394720103E+03  0.93307473444E+03  0.10078211955E+04  0.10100000352E+00 0. -1.
       -3    1    3    3    0  502  0.30057245201E+03 -0.23394720103E+03  0.29377735132E+02  0.38201852481E+03  0.10100000352E+00 0.  1.
</event>
<event>
 5   0  0.1249195E-03  0.9995919E+03  0.7818609E-02  0.9308993E-01
        1   -1    0    0  501    0  0.00000000000E+00  0.00000000000E+00  0.72502495700E+03  0.72502495702E+03  0.50400001928E-02 0.  1.
       -1   -1    0    0    0  501  0.00000000000E+00  0.00000000000E+00 -0.34453430165E+03  0.34453430169E+03  0.50400001928E-02 0. -1.
    10030    2    1    2    0    0  0.00000000000E+00  0.00000000000E+00  0.38049065535E+03  0.10695592587E+04  0.99959185125E+03 0.  0.
        2    1    3    3  502    0  0.11986712439E+03  0.23587678976E+03 -0.26345060545E+03  0.37337944370E+03  0.25500000920E-02 0. -1.
       -2    1    3    3    0  502 -0.11986712439E+03 -0.23587678976E+03  0.64394126080E+03  0.69617981501E+03  0.25500000920E-02 0.  1.
</event>
<event>
 5   0  0.2255142E-03  0.1010081E+04  0.7818609E-02  0.9297556E-01
        2   -1    0    0  501    0  0.00000000000E+00  0.00000000000E+00  0.14723483357E+04  0.14723483357E+04  0.25500000920E-02 0.  1.
       -2   -1    0    0    0  501  0.00000000000E+00  0.00000000000E+00 -0.17323764076E+03  0.17323764078E+03  0.25500000920E-02 0. -1.
    10030    2    1    2    0    0  0.00000000000E+00  0.00000000000E+00  0.12991106949E+04  0.16455859765E+04  0.10100814860E+04 0.  0.
        4    1    3    3  502    0  0.11415171008E+03  0.48986585169E+03  0.57551584746E+03  0.76434237691E+03  0.12699999809E+01 0. -1.
       -4    1    3    3    0  502 -0.11415171008E+03 -0.48986585169E+03  0.72359484749E+03  0.88124359957E+03  0.12699999809E+01 0.  1.
</event>
<event>
 5   0  0.1293575E-03  0.9802842E+03  0.7818609E-02  0.9330437E-01
       -1   -1    0    0    0  501  0.00000000000E+00  0.00000000000E+00  0.37094803547E+03  0.37094803550E+03  0.50400001928E-02 0.  1.
        1   -1    0    0  501    0  0.00000000000E+00  0.00000000000E+00 -0.64763588111E+03  0.64763588113E+03  0.50400001928E-02 0. -1.
    10030    2    1    2    0    0  0.00000000000E+00  0.00000000000E+00 -0.27668784564E+03  0.10185839166E+04  0.98028415845E+03 0.  0.
        4    1    3    3  502    0  0.40839673890E+03  0.16529510112E+03 -0.36150772096E+03  0.56991210902E+03  0.12699999809E+01 0. -1.
       -4    1    3    3    0  502 -0.40839673890E+03 -0.16529510112E+03  0.84819875318E+02  0.44867180761E+03  0.12699999809E+01 0.  1.
</event>
<event>
 5   0  0.1353789E-03  0.1002715E+04  0.7818609E-02  0.9305572E-01
       -1   -1    0    0    0  501  0.00000000000E+00  0.00000000000E+00  0.23170971027E+03  0.23170971033E+03  0.50400001928E-02 0. -1.
        1   -1    0    0  501    0  0.00000000000E+00  0.00000000000E+00 -0.10848033706E+04  0.10848033706E+04  0.50400001928E-02 0.  1.
    10030    2    1    2    0    0  0.00000000000E+00  0.00000000000E+00 -0.85309366029E+03  0.13165130809E+04  0.10027152632E+04 0.  0.
        1    1    3    3  502    0  0.13607467384E+03  0.29599238340E+03  0.73808135018E+02  0.33402911357E+03  0.50400001928E-02 0. -1.
       -1    1    3    3    0  502 -0.13607467384E+03 -0.29599238340E+03 -0.92690179531E+03  0.98248396733E+03  0.50400001928E-02 0.  1.
</event>
<event>
 5   0  0.1285769E-03  0.1004896E+04  0.7818609E-02  0.9303192E-01
        1   -1    0    0  501    0  0.00000000000E+00  0.00000000000E+00  0.80923273073E+03  0.80923273074E+03  0.50400001928E-02 0. -1.
       -1   -1    0    0    0  501  0.00000000000E+00  0.00000000000E+00 -0.31196683414E+03  0.31196683418E+03  0.50400001928E-02 0.  1.
    10030    2    1    2    0    0  0.00000000000E+00  0.00000000000E+00  0.49726589659E+03  0.11211995649E+04  0.10048955630E+04 0.  0.
        5    1    3    3  502    0  0.41637087695E+03  0.66833123794E+02 -0.56109046882E+02  0.42544293242E+03  0.46999998093E+01 0.  1.
       -5    1    3    3    0  502 -0.41637087695E+03 -0.66833123794E+02  0.55337494347E+03  0.69575663250E+03  0.46999998093E+01 0. -1.
</event>
<event>
 5   0  0.1293716E-03  0.1000058E+04  0.7818609E-02  0.9308482E-01
        1   -1    0    0  501    0  0.00000000000E+00  0.00000000000E+00  0.92054017026E+03  0.92054017028E+03  0.50400001928E-02 0.  1.
       -1   -1    0    0    0  501  0.00000000000E+00  0.00000000000E+00 -0.27161097852E+03  0.27161097856E+03  0.50400001928E-02 0. -1.
    10030    2    1    2    0    0  0.00000000000E+00  0.00000000000E+00  0.64892919175E+03  0.11921511488E+04  0.10000576312E+04 0.  0.
        3    1    3    3  502    0 -0.37769071717E+03  0.28114084155E+03  0.52513975520E+03  0.70531001929E+03  0.10100000352E+00 0.  1.
       -3    1    3    3    0  502  0.37769071717E+03 -0.28114084155E+03  0.12378943655E+03  0.48684112955E+03  0.10100000352E+00 0. -1.
</event>
<event>
 5   0  0.2284843E-03  0.1000379E+04  0.7818609E-02  0.9308130E-01
       -2   -1    0    0    0  501  0.00000000000E+00  0.00000000000E+00  0.29068925373E+03  0.29068925375E+03  0.25500000920E-02 0. -1.
        2   -1    0    0  501    0  0.00000000000E+00  0.00000000000E+00 -0.86067625901E+03  0.86067625901E+03  0.25500000920E-02 0.  1.
    10030    2    1    2    0    0  0.00000000000E+00  0.00000000000E+00 -0.56998700527E+03  0.11513655128E+04  0.10003786072E+04 0.  0.
        2    1    3    3  502    0  0.48298139607E+02 -0.21236387387E+03 -0.80324199769E+03  0.83224325294E+03  0.25500000920E-02 0.  1.
       -2    1    3    3    0  502 -0.48298139607E+02  0.21236387387E+03  0.23325499241E+03  0.31912225981E+03  0.25500000920E-02 0. -1.
</event>
<event>
 5   0  0.1293575E-03  0.9992509E+03  0.7818609E-02  0.9309367E-01
       -1   -1    0    0    0  501  0.00000000000E+00  0.00000000000E+00  0.16518643830E+04  0.16518643830E+04  0.50400001928E-02 0. -1.
        1   -1    0    0  501    0  0.00000000000E+00  0.00000000000E+00 -0.15111749821E+03  0.15111749829E+03  0.50400001928E-02 0.  1.
    10030    2    1    2    0    0  0.00000000000E+00  0.00000000000E+00  0.15007468848E+04  0.18029818813E+04  0.99925094550E+03 0.  0.
        4    1    3    3  502    0  0.98582674122E+02  0.17805542934E+03  0.15736750276E+04  0.15867819588E+04  0.12699999809E+01 0. -1.
       -4    1    3    3    0  502 -0.98582674122E+02 -0.17805542934E+03 -0.72928142805E+02  0.21619992245E+03  0.12699999809E+01 0.  1.
</event>
<event>
 5   0  0.2264577E-03  0.1002455E+04  0.7818609E-02  0.9305856E-01
       -2   -1    0    0    0  501  0.00000000000E+00  0.00000000000E+00  0.20760990640E+03  0.20760990641E+03  0.25500000920E-02 0.  1.
        2   -1    0    0  501    0  0.00000000000E+00  0.00000000000E+00 -0.12101008844E+04  0.12101008844E+04  0.25500000920E-02 0. -1.
    10030    2    1    2    0    0  0.00000000000E+00  0.00000000000E+00 -0.10024909780E+04  0.14177107908E+04  0.10024548496E+04 0.  0.
        5    1    3    3  502    0  0.28502745720E+03  0.25799263037E+03 -0.46471436336E+02  0.38727578426E+03  0.46999998093E+01 0.  1.
       -5    1    3    3    0  502 -0.28502745720E+03 -0.25799263037E+03 -0.95601954162E+03  0.10304350065E+04  0.46999998093E+01 0. -1.
</event>
<event>
 5   0  0.8680125E-04  0.9977353E+03  0.7818609E-02  0.9311032E-01
        3   -1    0    0  501    0  0.00000000000E+00  0.00000000000E+00  0.47854095659E+03  0.47854096725E+03  0.10100000352E+00 0. -1.
       -3   -1    0    0    0  501  0.00000000000E+00  0.00000000000E+00 -0.52005770046E+03  0.52005771026E+03  0.10100000352E+00 0.  1.
    10030    2    1    2    0    0  0.00000000000E+00  0.00000000000E+00 -0.41516743866E+02  0.99859867751E+03  0.99773527486E+03 0.  0.
        1    1    3    3  502    0 -0.37054975993E+03  0.17016463515E+03 -0.30841932127E+03  0.51125884383E+03  0.50400001928E-02 0.  1.
       -1    1    3    3    0  502  0.37054975993E+03 -0.17016463515E+03  0.26690257741E+03  0.48733983368E+03  0.50400001928E-02 0. -1.
</event>
<event>
 5   0  0.2255142E-03  0.9994606E+03  0.7818609E-02  0.9309137E-01
        2   -1    0    0  501    0  0.00000000000E+00  0.00000000000E+00  0.56956530311E+03  0.56956530311E+03  0.25500000920E-02 0.  1.
       -2   -1    0    0    0  501  0.00000000000E+00  0.00000000000E+00 -0.43845779670E+03  0.43845779671E+03  0.25500000920E-02 0. -1.
    10030    2    1    2    0    0  0.00000000000E+00  0.00000000000E+00  0.13110750640E+03  0.10080230998E+04  0.99946055027E+03 0.  0.
        4    1    3    3  502    0 -0.29755879220E+03  0.72310836502E+02  0.46385306109E+03  0.55581594712E+03  0.12699999809E+01 0.  1.
       -4    1    3    3    0  502  0.29755879220E+03 -0.72310836502E+02 -0.33274555469E+03  0.45220715270E+03  0.12699999809E+01 0. -1.
</event>
<event>
 5   0  0.1353789E-03  0.1001558E+04  0.7818609E-02  0.9306837E-01
       -1   -1    0    0    0  501  0.00000000000E+00  0.00000000000E+00  0.60047342742E+03  0.60047342744E+03  0.50400001928E-02 0. -1.
        1   -1    0    0  501    0  0.00000000000E+00  0.00000000000E+00 -0.41763683221E+03  0.41763683224E+03  0.50400001928E-02 0.  1.
    10030    2    1    2    0    0  0.00000000000E+00  0.00000000000E+00  0.18283659520E+03  0.10181102597E+04  0.10015584258E+04 0.  0.
        1    1    3    3  502    0  0.19265154712E+03  0.44675559738E+03  0.21201547317E+03  0.53071248646E+03  0.50400001928E-02 0.  1.
       -1    1    3    3    0  502 -0.19265154712E+03 -0.44675559738E+03 -0.29178877969E+02  0.48739777322E+03  0.50400001928E-02 0. -1.
</event>
<event>
 5   0  0.2264577E-03  0.1002332E+04  0.7818609E-02  0.9305991E-01
        2   -1    0    0  501    0  0.00000000000E+00  0.00000000000E+00  0.15857973068E+04  0.15857973068E+04  0.25500000920E-02 0. -1.
       -2   -1    0    0    0  501  0.00000000000E+00  0.00000000000E+00 -0.15838547888E+03  0.15838547890E+03  0.25500000920E-02 0.  1.
    10030    2    1    2    0    0  0.00000000000E+00  0.00000000000E+00  0.14274118279E+04  0.17441827857E+04  0.10023318130E+04 0.  0.
        5    1    3    3  502    0  0.10335248389E+03  0.48994140167E+03  0.74940448081E+03  0.90130653989E+03  0.46999998093E+01 0. -1.
       -5    1    3    3    0  502 -0.10335248389E+03 -0.48994140167E+03  0.67800734707E+03  0.84287624577E+03  0.46999998093E+01 0.  1.
</event>
<event>
 5   0  0.8680125E-04  0.9997984E+03  0.7818609E-02  0.9308766E-01
       -3   -1    0    0    0  501  0.00000000000E+00  0.00000000000E+00  0.11639230535E+04  0.11639230579E+04  0.10100000352E+00 0. -1.
        3   -1    0    0  501    0  0.00000000000E+00  0.00000000000E+00 -0.21470424066E+03  0.21470426441E+03  0.10100000352E+00 0.  1.
    10030    2    1    2    0    0  0.00000000000E+00  0.00000000000E+00  0.94921881285E+03  0.13786273223E+04  0.99979844925E+03 0.  0.
        4    1    3    3  502    0  0.24221721354E+03 -0.49564900392E+01 -0.12834263383E+03  0.27416635440E+03  0.12699999809E+01 0.  1.
       -4    1    3    3    0  502 -0.24221721354E+03  0.49564900392E+01  0.10775614467E+04  0.11044609679E+04  0.12699999809E+01 0. -1.
</event>
<event>
 5   0  0.2204862E-03  0.1009233E+04  0.7818609E-02  0.9298476E-01
       -2   -1    0    0    0  501  0.00000000000E+00  0.00000000000E+00  0.78434243052E+03  0.78434243053E+03  0.25500000920E-02 0. -1.
        2   -1    0    0  501    0  0.00000000000E+00  0.00000000000E+00 -0.32465137985E+03  0.32465137986E+03  0.25500000920E-02 0.  1.
    10030    2    1    2    0    0  0.00000000000E+00  0.00000000000E+00  0.45969105068E+03  0.11089938104E+04  0.10092330798E+04 0.  0.
        1    1    3    3  502    0  0.15620748417E+03 -0.89579291731E+02 -0.28814523106E+03  0.33978361030E+03  0.50400001928E-02 0.  1.
       -1    1    3    3    0  502 -0.15620748417E+03  0.89579291731E+02  0.74783628174E+03  0.76921020009E+03  0.50400001928E-02 0. -1.
</event>
<event>
 5   0  0.2277570E-03  0.1003923E+04  0.7818609E-02  0.9304252E-01
        2   -1    0    0  501    0  0.00000000000E+00  0.00000000000E+00  0.18593451846E+04  0.18593451846E+04  0.25500000920E-02 0. -1.
       -2   -1    0    0    0  501  0.00000000000E+00  0.00000000000E+00 -0.13551305239E+03  0.13551305242E+03  0.25500000920E-02 0.  1.
    10030    2    1    2    0    0  0.00000000000E+00  0.00000000000E+00  0.17238321323E+04  0.19948582371E+04  0.10039233864E+04 0.  0.
        3    1    3    3  502    0  0.96991076145E+02 -0.49227797130E+03  0.89143322932E+03  0.10229360109E+04  0.10100000352E+00 0. -1.
       -3    1    3    3    0  502 -0.96991076145E+02  0.49227797130E+03  0.83239890294E+03  0.97192222615E+03  0.10100000352E+00 0.  1.
</event>
<event>
 5   0  0.1353789E-03  0.9955424E+03  0.7818609E-02  0.9313447E-01
        1   -1    0    0  501    0  0.00000000000E+00  0.00000000000E+00  0.25506559059E+04  0.25506559060E+04  0.50400001928E-02 0. -1.
       -1   -1    0    0    0  501  0.00000000000E+00  0.00000000000E+00 -0.97142130610E+02  0.97142130740E+02  0.50400001928E-02 0.  1.
    10030    2    1    2    0    0  0.00000000000E+00  0.00000000000E+00  0.24535137753E+04  0.26477980367E+04  0.99554236341E+03 0.  0.
        1    1    3    3  502    0  0.13709290481E+03  0.12323830212E+03 -0.30102193074E+01  0.18436703909E+03  0.50400001928E-02 0.  1.
       -1    1    3    3    0  502 -0.13709290481E+03 -0.12323830212E+03  0.24565239946E+04  0.24634309976E+04  0.50400001928E-02 0. -1.
</event>
<event>
 5   0  0.1249195E-03  0.9977204E+03  0.7818609E-02  0.9311049E-01
       -1   -1    0    0    0  501  0.00000000000E+00  0.00000000000E+00  0.42971225992E+03  0.42971225995E+03  0.50400001928E-02 0.  1.
        1   -1    0    0  501    0  0.00000000000E+00  0.00000000000E+00 -0.57913516401E+03  0.57913516403E+03  0.50400001928E-02 0. -1.
    10030    2    1    2    0    0  0.00000000000E+00  0.00000000000E+00 -0.14942290409E+03  0.10088474240E+04  0.99772036192E+03 0.  0.
        2    1    3    3  502    0 -0.41158842563E+03  0.22088063351E+03 -0.25178788018E+03  0.53065094270E+03  0.25500000920E-02 0. -1.
       -2    1    3    3    0  502  0.41158842563E+03 -0.22088063351E+03  0.10236497609E+03  0.47819648128E+03  0.25500000920E-02 0.  1.
</event>
<event>
 5   0  0.2204862E-03  0.9964620E+03  0.7818609E-02  0.9312434E-01
       -2   -1    0    0    0  501  0.00000000000E+00  0.00000000000E+00  0.27791228169E+03  0.27791228170E+03  0.25500000920E-02 0. -1.
        2   -1    0    0  501    0  0.00000000000E+00  0.00000000000E+00 -0.89321034135E+03  0.89321034136E+03  0.25500000920E-02 0.  1.
    10030    2    1    2    0    0  0.00000000000E+00  0.00000000000E+00 -0.61529805967E+03  0.11711226231E+04  0.99646198924E+03 0.  0.
        1    1    3    3  502    0 -0.75962124278E+02  0.35883367456E+03 -0.70395097886E+03  0.79377505062E+03  0.50400001928E-02 0.  1.
       -1    1    3    3    0  502  0.75962124278E+02 -0.35883367456E+03  0.88652919190E+02  0.37734757244E+03  0.50400001928E-02 0. -1.
</event>
<event>
 5   0  0.2277570E-03  0.9978322E+03  0.7818609E-02  0.9310926E-01
       -2   -1    0    0    0  501  0.00000000000E+00  0.00000000000E+00  0.26896889607E+03  0.26896889609E+03  0.25500000920E-02 0.  1.
        2   -1    0    0  501    0  0.00000000000E+00  0.00000000000E+00 -0.92544994835E+03  0.92544994835E+03  0.25500000920E-02 0. -1.
    10030    2    1    2    0    0  0.00000000000E+00  0.00000000000E+00 -0.65648105227E+03  0.11944188444E+04  0.99783215219E+03 0.  0.
        3    1    3    3  502    0  0.23112131368E+03  0.29837035561E+03  0.62351712846E+02  0.38253062235E+03  0.10100000352E+00 0.  1.
       -3    1    3    3    0  502 -0.23112131368E+03 -0.29837035561E+03 -0.71883276512E+03  0.81188822208E+03  0.10100000352E+00 0. -1.
</event>
<event>
 5   0  0.1285769E-03  0.1003610E+04  0.7818609E-02  0.9304595E-01
        1   -1    0    0  501    0  0.00000000000E+00  0.00000000000E+00  0.67776860282E+03  0.67776860284E+03  0.50400001928E-02 0.  1.
       -1   -1    0    0    0  501  0.00000000000E+00  0.00000000000E+00 -0.37152510575E+03  0.37152510579E+03  0.50400001928E-02 0. -1.
    10030    2    1    2    0    0  0.00000000000E+00  0.00000000000E+00  0.30624349706E+03  0.10492937086E+04  0.10036095892E+04 0.  0.
        5    1    3    3  502    0  0.22202810958E+03 -0.33789225578E+03 -0.15758996553E+03  0.43396352979E+03  0.46999998093E+01 0. -1.
       -5    1    3    3    0  502 -0.22202810958E+03  0.33789225578E+03  0.46383346259E+03  0.61533017883E+03  0.46999998093E+01 0.  1.
</event>
<event>
 5   0  0.2277570E-03  0.1001273E+04  0.7818609E-02  0.9307150E-01
       -2   -1    0    0    0  501  0.00000000000E+00  0.00000000000E+00  0.28392196424E+03  0.28392196425E+03  0.25500000920E-02 0. -1.
        2   -1    0    0  501    0  0.00000000000E+00  0.00000000000E+00 -0.88276605509E+03  0.88276605510E+03  0.25500000920E-02 0.  1.
    10030    2    1    2    0    0  0.00000000000E+00  0.00000000000E+00 -0.59884409086E+03  0.11666880193E+04  0.10012725350E+04 0.  0.
        3    1    3    3  502    0 -0.12790048400E+03 -0.14155840333E+03  0.23990481752E+03  0.30651532920E+03  0.10100000352E+00 0. -1.
       -3    1    3    3    0  502  0.12790048400E+03  0.14155840333E+03 -0.83874890838E+03  0.86017269014E+03  0.10100000352E+00 0.  1.
</event>
<event>
 5   0  0.1249195E-03  0.9974802E+03  0.7818609E-02  0.9311313E-01
        1   -1    0    0  501    0  0.00000000000E+00  0.00000000000E+00  0.79893221690E+03  0.79893221692E+03  0.50400001928E-02 0. -1.
       -1   -1    0    0    0  501  0.00000000000E+00  0.00000000000E+00 -0.31134269085E+03  0.31134269089E+03  0.50400001928E-02 0.  1.
    10030    2    1    2    0    0  0.00000000000E+00  0.00000000000E+00  0.48758952605E+03  0.11102749078E+04  0.99748023790E+03 0.  0.
        2    1    3    3  502    0 -0.43329820526E+03 -0.30794235011E+02  0.51654716195E+03  0.67491969161E+03  0.25500000920E-02 0. -1.
       -2    1    3    3    0  502  0.43329820526E+03  0.30794235011E+02 -0.28957635898E+02  0.43535521620E+03  0.25500000920E-02 0.  1.
</event>
<event>
 5   0  0.1293575E-03  0.9952869E+03  0.7818609E-02  0.9313729E-01
       -1   -1    0    0    0  501  0.00000000000E+00  0.00000000000E+00  0.51088995175E+03  0.51088995178E+03  0.50400001928E-02 0.  1.
        1   -1    0    0  501    0  0.00000000000E+00  0.00000000000E+00 -0.48474040781E+03  0.48474040784E+03  0.50400001928E-02 0. -1.
    10030    2    1    2    0    0  0.00000000000E+00  0.00000000000E+00  0.26149543938E+02  0.99563035962E+03  0.99528690052E+03 0.  0.
        4    1    3    3  502    0  0.12410246440E+03 -0.97329101174E+02  0.48522601161E+03  0.51021590611E+03  0.12699999809E+01 0.  1.
       -4    1    3    3    0  502 -0.12410246440E+03  0.97329101174E+02 -0.45907646767E+03  0.48541445351E+03  0.12699999809E+01 0. -1.
</event>
<event>
 5   0  0.2277570E-03  0.1012241E+04  0.7818609E-02  0.9295220E-01
        2   -1    0    0  501    0  0.00000000000E+00  0.00000000000E+00  0.11684037979E+04  0.11684037979E+04  0.25500000920E-02 0. -1.
       -2   -1    0    0    0  501  0.00000000000E+00  0.00000000000E+00 -0.21923744505E+03  0.21923744507E+03  0.25500000920E-02 0.  1.
    10030    2    1    2    0    0  0.00000000000E+00  0.00000000000E+00  0.94916635288E+03  0.13876412430E+04  0.10122408082E+04 0.  0.
        3    1    3    3  502    0 -0.45255883880E+03  0.18332441653E+03  0.29199342582E+03  0.56892663429E+03  0.10100000352E+00 0.  1.
       -3    1    3    3    0  502  0.45255883880E+03 -0.18332441653E+03  0.65717292705E+03  0.81871460872E+03  0.10100000352E+00 0. -1.
</event>
<event>
 5   0  0.1293716E-03  0.1007528E+04  0.7818609E-02  0.9300327E-01
        1   -1    0    0  501    0  0.00000000000E+00  0.00000000000E+00  0.43659304385E+03  0.43659304388E+03  0.50400001928E-02 0.  1.
       -1   -1    0    0    0  501  0.00000000000E+00  0.00000000000E+00 -0.58126881635E+03  0.58126881637E+03  0.50400001928E-02 0. -1.
    10030    2    1    2    0    0  0.00000000000E+00  0.00000000000E+00 -0.14467577250E+03  0.10178618603E+04  0.10075275120E+04 0.  0.
        3    1    3    3  502    0  0.30094501441E+03  0.17482329241E+03 -0.44028072894E+03  0.56122920073E+03  0.10100000352E+00 0. -1.
       -3    1    3    3    0  502 -0.30094501441E+03 -0.17482329241E+03  0.29560495644E+03  0.45663265952E+03  0.10100000352E+00 0.  1.
</event>
<event>
 5   0  0.1353789E-03  0.9956411E+03  0.7818609E-02  0.9313338E-01
        1   -1    0    0  501    0  0.00000000000E+00  0.00000000000E+00  0.25618125592E+04  0.25618125592E+04  0.50400001928E-02 0.  1.
       -1   -1    0    0    0  501  0.00000000000E+00  0.00000000000E+00 -0.96738268866E+02  0.96738268997E+02  0.50400001928E-02 0. -1.
    10030    2    1    2    0    0  0.00000000000E+00  0.00000000000E+00  0.24650742904E+04  0.26585508282E+04  0.99564112474E+03 0.  0.
        1    1    3    3  502    0  0.10757359255E+03  0.14176965760E+03  0.24739732759E+04  0.24803657963E+04  0.50400001928E-02 0.  1.
       -1    1    3    3    0  502 -0.10757359255E+03 -0.14176965760E+03 -0.88989855424E+01  0.17818503191E+03  0.50400001928E-02 0. -1.
</event>
<event>
 5   0  0.1293575E-03  0.1004297E+04  0.7818609E-02  0.9303845E-01
        1   -1    0    0  501    0  0.00000000000E+00  0.00000000000E+00  0.13059385215E+04  0.13059385215E+04  0.50400001928E-02 0. -1.
       -1   -1    0    0    0  501  0.00000000000E+00  0.00000000000E+00 -0.19308183724E+03  0.19308183731E+03  0.50400001928E-02 0.  1.
    10030    2    1    2    0    0  0.00000000000E+00  0.00000000000E+00  0.11128566843E+04  0.14990203588E+04  0.10042967870E+04 0.  0.
        4    1    3    3  502    0 -0.54036716319E+02  0.33140842350E+03  0.11137124620E+04  0.11632319506E+04  0.12699999809E+01 0. -1.
       -4    1    3    3    0  502  0.54036716319E+02 -0.33140842350E+03 -0.85577772355E+00  0.33578840828E+03  0.12699999809E+01 0.  1.
</event>
<event>
 5   0  0.2284843E-03  0.1003399E+04  0.7818609E-02  0.9304825E-01
       -2   -1    0    0    0  501  0.00000000000E+00  0.00000000000E+00  0.28134487778E+03  0.28134487779E+03  0.25500000920E-02 0.  1.
        2   -1    0    0  501    0  0.00000000000E+00  0.00000000000E+00 -0.89463954122E+03  0.89463954122E+03  0.25500000920E-02 0. -1.
    10030    2    1    2    0    0  0.00000000000E+00  0.00000000000E+00 -0.61329466344E+03  0.11759844190E+04  0.10033987291E+04 0.  0.
        2    1    3    3  502    0  0.27724414127E+03 -0.65941598195E+02  0.17727651441E+03  0.33561819201E+03  0.25500000920E-02 0.  1.
       -2    1    3    3    0  502 -0.27724414127E+03  0.65941598195E+02 -0.79057117784E+03  0.84036622700E+03  0.25500000920E-02 0. -1.
</event>
<event>
 5   0  0.2284843E-03  0.1000132E+04  0.7818609E-02  0.9308400E-01
       -2   -1    0    0    0  501  0.00000000000E+00  0.00000000000E+00  0.12391899001E+03  0.12391899004E+03  0.25500000920E-02 0. -1.
        2   -1    0    0  501    0  0.00000000000E+00  0.00000000000E+00 -0.20179807328E+04  0.20179807328E+04  0.25500000920E-02 0.  1.
    10030    2    1    2    0    0  0.00000000000E+00  0.00000000000E+00 -0.18940617428E+04  0.21418997228E+04  0.10001322599E+04 0.  0.
        2    1    3    3  502    0  0.49849930681E+03  0.37178526818E+02 -0.91811250252E+03  0.10453776203E+04  0.25500000920E-02 0. -1.
       -2    1    3    3    0  502 -0.49849930681E+03 -0.37178526818E+02 -0.97594924023E+03  0.10965221025E+04  0.25500000920E-02 0.  1.
</event>
<event>
 5   0  0.2284843E-03  0.1004898E+04  0.7818609E-02  0.9303189E-01
        2   -1    0    0  501    0  0.00000000000E+00  0.00000000000E+00  0.19076796707E+04  0.19076796707E+04  0.25500000920E-02 0.  1.
       -2   -1    0    0    0  501  0.00000000000E+00  0.00000000000E+00 -0.13233608743E+03  0.13233608745E+03  0.25500000920E-02 0. -1.
    10030    2    1    2    0    0  0.00000000000E+00  0.00000000000E+00  0.17753435832E+04  0.20400157581E+04  0.10048977335E+04 0.  0.
        2    1    3    3  502    0 -0.44652535494E+03  0.11934491874E+03  0.48765590535E+03  0.67189015788E+03  0.25500000920E-02 0.  1.
       -2    1    3    3    0  502  0.44652535494E+03 -0.11934491874E+03  0.12876876779E+04  0.13681256002E+04  0.25500000920E-02 0. -1.
</event>
<event>
 5   0  0.1249195E-03  0.1001682E+04  0.7818609E-02  0.9306702E-01
        1   -1    0    0  501    0  0.00000000000E+00  0.00000000000E+00  0.13125397203E+04  0.13125397203E+04  0.50400001928E-02 0. -1.
       -1   -1    0    0    0  501  0.00000000000E+00  0.00000000000E+00 -0.19111155907E+03  0.19111155913E+03  0.50400001928E-02 0.  1.
    10030    2    1    2    0    0  0.00000000000E+00  0.00000000000E+00  0.11214281612E+04  0.15036512794E+04  0.10016816108E+04 0.  0.
        2    1    3    3  502    0  0.45779942214E+03  0.38589118988E+02  0.86008291511E+03  0.97509591933E+03  0.25500000920E-02 0. -1.
       -2    1    3    3    0  502 -0.45779942214E+03 -0.38589118988E+02  0.26134524610E+03  0.52855536010E+03  0.25500000920E-02 0.  1.
</event>
<event>
 5   0  0.1293575E-03  0.9966816E+03  0.7818609E-02  0.9312192E-01
       -1   -1    0    0    0  501  0.00000000000E+00  0.00000000000E+00  0.30526726333E+03  0.30526726338E+03  0.50400001928E-02 0.  1.
        1   -1    0    0  501    0  0.00000000000E+00  0.00000000000E+00 -0.81352822575E+03  0.81352822577E+03  0.50400001928E-02 0. -1.
    10030    2    1    2    0    0  0.00000000000E+00  0.00000000000E+00 -0.50826096242E+03  0.11187954891E+04  0.99668156430E+03 0.  0.
        4    1    3    3  502    0  0.42222207804E+03 -0.31374297724E+02 -0.54917638966E+03  0.69343503632E+03  0.12699999809E+01 0. -1.
       -4    1    3    3    0  502 -0.42222207804E+03  0.31374297724E+02  0.40915427243E+02  0.42536045282E+03  0.12699999809E+01 0.  1.
</event>
<event>
 5   0  0.1293716E-03  0.9999527E+03  0.7818609E-02  0.9308597E-01
        1   -1    0    0  501    0  0.00000000000E+00  0.00000000000E+00  0.37819317713E+03  0.37819317717E+03  0.50400001928E-02 0. -1.
       -1   -1    0    0    0  501  0.00000000000E+00  0.00000000000E+00 -0.66097529041E+03  0.66097529043E+03  0.50400001928E-02 0.  1.
    10030    2    1    2    0    0  0.00000000000E+00  0.00000000000E+00 -0.28278211328E+03  0.10391684676E+04  0.99995268911E+03 0.  0.
        3    1    3    3  502    0  0.34962801308E+02  0.98289409636E+02  0.36675675032E+03  0.38130529714E+03  0.10100000352E+00 0. -1.
       -3    1    3    3    0  502 -0.34962801308E+02 -0.98289409636E+02 -0.64953886360E+03  0.65786317046E+03  0.10100000352E+00 0.  1.
</event>
<event>
 5   0  0.2264577E-03  0.9988537E+03  0.7818609E-02  0.9309803E-01
        2   -1    0    0  501    0  0.00000000000E+00  0.00000000000E+00  0.42115732845E+03  0.42115732846E+03  0.25500000920E-02 0. -1.
       -2   -1    0    0    0  501  0.00000000000E+00  0.00000000000E+00 -0.59224230064E+03  0.59224230065E+03  0.25500000920E-02 0.  1.
    10030    2    1    2    0    0  0.00000000000E+00  0.00000000000E+00 -0.17108497219E+03  0.10133996291E+04  0.99885371330E+03 0.  0.
        5    1    3    3  502    0  0.19522192432E+03 -0.54431303917E+01 -0.55187045702E+03  0.58542661260E+03  0.46999998093E+01 0.  1.
       -5    1    3    3    0  502 -0.19522192432E+03  0.54431303917E+01  0.38078548483E+03  0.42797301651E+03  0.46999998093E+01 0. -1.
</event>
<event>
 5   0  0.1293575E-03  0.1020065E+04  0.7818609E-02  0.9286808E-01
        1   -1    0    0  501    0  0.00000000000E+00  0.00000000000E+00  0.28388357612E+03  0.28388357616E+03  0.50400001928E-02 0. -1.
       -1   -1    0    0    0  501  0.00000000000E+00  0.00000000000E+00 -0.91633702974E+03  0.91633702975E+03  0.50400001928E-02 0.  1.
    10030    2    1    2    0    0  0.00000000000E+00  0.00000000000E+00 -0.63245345362E+03  0.12002206059E+04  0.10200647685E+04 0.  0.
        4    1    3    3  502    0  0.25521146107E+03 -0.42154133439E+03 -0.16146114811E+03  0.51855694162E+03  0.12699999809E+01 0. -1.
       -4    1    3    3    0  502 -0.25521146107E+03  0.42154133439E+03 -0.47099230552E+03  0.68166366429E+03  0.12699999809E+01 0.  1.
</event>
<event>
 5   0  0.2264577E-03  0.1000793E+04  0.7818609E-02  0.9307675E-01
       -2   -1    0    0    0  501  0.00000000000E+00  0.00000000000E+00  0.31122195867E+03  0.31122195868E+03  0.25500000920E-02 0. -1.
        2   -1    0    0  501    0  0.00000000000E+00  0.00000000000E+00 -0.80456043161E+03  0.80456043161E+03  0.25500000920E-02 0.  1.
    10030    2    1    2    0    0  0.00000000000E+00  0.00000000000E+00 -0.49333847294E+03  0.11157823903E+04  0.10007934320E+04 0.  0.
        5    1    3    3  502    0  0.13487174912E+03 -0.19695357130E+03 -0.73696281049E+03  0.77467242884E+03  0.46999998093E+01 0.  1.
       -5    1    3    3    0  502 -0.13487174912E+03  0.19695357130E+03  0.24362433755E+03  0.34110996146E+03  0.46999998093E+01 0. -1.
</event>
<event>
 5   0  0.1293575E-03  0.9919463E+03  0.7818609E-02  0.9317422E-01
        1   -1    0    0  501    0  0.00000000000E+00  0.00000000000E+00  0.49887104481E+03  0.49887104484E+03  0.50400001928E-02 0.  1.
       -1   -1    0    0    0  501  0.00000000000E+00  0.00000000000E+00 -0.49309209054E+03  0.49309209057E+03  0.50400001928E-02 0. -1.
    10030    2    1    2    0    0  0.00000000000E+00  0.00000000000E+00  0.57789542715E+01  0.99196313540E+03  0.99194630182E+03 0.  0.
        4    1    3    3  502    0 -0.92626217878E+02  0.69255106347E+02 -0.47941723292E+03  0.49317175721E+03  0.12699999809E+01 0. -1.
       -4    1    3    3    0  502  0.92626217878E+02 -0.69255106347E+02  0.48519618719E+03  0.49879137819E+03  0.12699999809E+01 0.  1.
</event>
<event>
 5   0  0.1285769E-03  0.1008494E+04  0.7818609E-02  0.9299277E-01
       -1   -1    0    0    0  501  0.00000000000E+00  0.00000000000E+00  0.32792575768E+03  0.32792575772E+03  0.50400001928E-02 0.  1.
        1   -1    0    0  501    0  0.00000000000E+00  0.00000000000E+00 -0.77537397001E+03  0.77537397003E+03  0.50400001928E-02 0. -1.
    10030    2    1    2    0    0  0.00000000000E+00  0.00000000000E+00 -0.44744821233E+03  0.11032997278E+04  0.10084941182E+04 0.  0.
        5    1    3    3  502    0 -0.97366148414E+02 -0.29624395682E+03  0.20976005001E+03  0.37584839681E+03  0.46999998093E+01 0.  1.
       -5    1    3    3    0  502  0.97366148414E+02  0.29624395682E+03 -0.65720826234E+03  0.72745133094E+03  0.46999998093E+01 0. -1.
</event>
<event>
 5   0  0.1293716E-03  0.9998569E+03  0.7818609E-02  0.9308702E-01
       -1   -1    0    0    0  501  0.00000000000E+00  0.00000000000E+00  0.12222460713E+03  0.12222460723E+03  0.50400001928E-02 0. -1.
        1   -1    0    0  501    0  0.00000000000E+00  0.00000000000E+00 -0.20448294178E+04  0.20448294178E+04  0.50400001928E-02 0.  1.
    10030    2    1    2    0    0  0.00000000000E+00  0.00000000000E+00 -0.19226048106E+04  0.21670540250E+04  0.99985693447E+03 0.  0.
        3    1    3    3  502    0  0.37330822563E+03  0.74007717123E+02 -0.16639172164E+04  0.17068850831E+04  0.10100000352E+00 0.  1.
       -3    1    3    3    0  502 -0.37330822563E+03 -0.74007717123E+02 -0.25868759422E+03  0.46016894194E+03  0.10100000352E+00 0. -1.
</event>
<event>
 5   0  0.1353789E-03  0.1028415E+04  0.7818609E-02  0.9277917E-01
        1   -1    0    0  501    0  0.00000000000E+00  0.00000000000E+00  0.16040590966E+04  0.16040590966E+04  0.50400001928E-02 0.  1.
       -1   -1    0    0    0  501  0.00000000000E+00  0.00000000000E+00 -0.16483772062E+03  0.16483772070E+03  0.50400001928E-02 0. -1.
    10030    2    1    2    0    0  0.00000000000E+00  0.00000000000E+00  0.14392213760E+04  0.17688968173E+04  0.10284151794E+04 0.  0.
        1    1    3    3  502    0  0.85982380429E+02  0.39024771095E+03  0.12762264159E+04  0.13373257308E+04  0.50400001928E-02 0.  1.
       -1    1    3    3    0  502 -0.85982380429E+02 -0.39024771095E+03  0.16299496008E+03  0.43157108648E+03  0.50400001928E-02 0. -1.
</event>
<event>
 5   0  0.2255142E-03  0.9968232E+03  0.7818609E-02  0.9312036E-01
        2   -1    0    0  501    0  0.00000000000E+00  0.00000000000E+00  0.70617922426E+03  0.70617922426E+03  0.25500000920E-02 0. -1.
       -2   -1    0    0    0  501  0.00000000000E+00  0.00000000000E+00 -0.35177206979E+03  0.35177206979E+03  0.25500000920E-02 0.  1.
    10030    2    1    2    0    0  0.00000000000E+00  0.00000000000E+00  0.35440715447E+03  0.10579512941E+04  0.99682320872E+03 0.  0.
        4    1    3    3  502    0  0.21184282741E+03  0.43967870829E+03  0.28448523496E+03  0.56491434029E+03  0.12699999809E+01 0. -1.
       -4    1    3    3    0  502 -0.21184282741E+03 -0.43967870829E+03  0.69921919509E+02  0.49303695377E+03  0.12699999809E+01 0.  1.
</event>
<event>
 5   0  0.2284843E-03  0.1003191E+04  0.7818609E-02  0.9305052E-01
       -2   -1    0    0    0  501  0.00000000000E+00  0.00000000000E+00  0.44799766764E+03  0.44799766764E+03  0.25500000920E-02 0.  1.
        2   -1    0    0  501    0  0.00000000000E+00  0.00000000000E+00 -0.56160600194E+03  0.56160600195E+03  0.25500000920E-02 0. -1.
    10030    2    1    2    0    0  0.00000000000E+00  0.00000000000E+00 -0.11360833431E+03  0.10096036696E+04  0.10031912659E+04 0.  0.
        2    1    3    3  502    0 -0.44776356215E+02 -0.42221130318E+03 -0.32558973486E+03  0.53504764466E+03  0.25500000920E-02 0. -1.
       -2    1    3    3    0  502  0.44776356215E+02  0.42221130318E+03  0.21198140056E+03  0.47455602493E+03  0.25500000920E-02 0.  1.
</event>
<event>
 5   0  0.1293716E-03  0.9996863E+03  0.7818609E-02  0.9308889E-01
       -1   -1    0    0    0  501  0.00000000000E+00  0.00000000000E+00  0.11934555375E+04  0.11934555376E+04  0.50400001928E-02 0.  1.
        1   -1    0    0  501    0  0.00000000000E+00  0.00000000000E+00 -0.20934435254E+03  0.20934435260E+03  0.50400001928E-02 0. -1.
    10030    2    1    2    0    0  0.00000000000E+00  0.00000000000E+00  0.98411118501E+03  0.14027998902E+04  0.99968630447E+03 0.  0.
        3    1    3    3  502    0 -0.44810017176E+03  0.19201964739E+03  0.64690780992E+03  0.81003397068E+03  0.10100000352E+00 0.  1.
       -3    1    3    3    0  502  0.44810017176E+03 -0.19201964739E+03  0.33720337509E+03  0.59276591948E+03  0.10100000352E+00 0. -1.
</event>
<event>
 5   0  0.2277570E-03  0.1006138E+04  0.7818609E-02  0.9301838E-01
       -2   -1    0    0    0  501  0.00000000000E+00  0.00000000000E+00  0.52755868664E+03  0.52755868665E+03  0.25500000920E-02 0.  1.
        2   -1    0    0  501    0  0.00000000000E+00  0.00000000000E+00 -0.47971645049E+03  0.47971645050E+03  0.25500000920E-02 0. -1.
    10030    2    1    2    0    0  0.00000000000E+00  0.00000000000E+00  0.47842236152E+02  0.10072751372E+04  0.10061383217E+04 0.  0.
        3    1    3    3  502    0  0.77947046643E+02  0.40392677346E+03  0.31381000857E+03  0.51740633169E+03  0.10100000352E+00 0.  1.
       -3    1    3    3    0  502 -0.77947046643E+02 -0.40392677346E+03 -0.26596777242E+03  0.48986880546E+03  0.10100000352E+00 0. -1.
</event>
<event>
 5   0  0.1353789E-03  0.1001065E+04  0.7818609E-02  0.9307378E-01
       -1   -1    0    0    0  501  0.00000000000E+00  0.00000000000E+00  0.18129242800E+03  0.18129242807E+03  0.50400001928E-02 0. -1.
        1   -1    0    0  501    0  0.00000000000E+00  0.00000000000E+00 -0.13819260800E+04  0.13819260800E+04  0.50400001928E-02 0.  1.
    10030    2    1    2    0    0  0.00000000000E+00  0.00000000000E+00 -0.12006336520E+04  0.15632185081E+04  0.10010649018E+04 0.  0.
        1    1    3    3  502    0 -0.34186720890E+03  0.18658979064E+03 -0.10912610570E+04  0.11586801254E+04  0.50400001928E-02 0.  1.
       -1    1    3    3    0  502  0.34186720890E+03 -0.18658979064E+03 -0.10937259500E+03  0.40453838267E+03  0.50400001928E-02 0. -1.
</event>
<event>
 5   0  0.1293575E-03  0.1005232E+04  0.7818609E-02  0.9302825E-01
       -1   -1    0    0    0  501  0.00000000000E+00  0.00000000000E+00  0.21220127355E+03  0.21220127361E+03  0.50400001928E-02 0. -1.
        1   -1    0    0  501    0  0.00000000000E+00  0.00000000000E+00 -0.11904878086E+04  0.11904878086E+04  0.50400001928E-02 0.  1.
    10030    2    1    2    0    0  0.00000000000E+00  0.00000000000E+00 -0.97828653502E+03  0.14026890822E+04  0.10052323695E+04 0.  0.
        4    1    3    3  502    0 -0.18525722672E+03  0.13259829598E+03 -0.11143001999E+04  0.11373517910E+04  0.12699999809E+01 0.  1.
       -4    1    3    3    0  502  0.18525722672E+03 -0.13259829598E+03  0.13601366488E+03  0.26533729116E+03  0.12699999809E+01 0. -1.
</event>
<event>
 5   0  0.1285769E-03  0.1001895E+04  0.7818609E-02  0.9306469E-01
        1   -1    0    0  501    0  0.00000000000E+00  0.00000000000E+00  0.19968203307E+04  0.19968203307E+04  0.50400001928E-02 0.  1.
       -1   -1    0    0    0  501  0.00000000000E+00  0.00000000000E+00 -0.12567389560E+03  0.12567389570E+03  0.50400001928E-02 0. -1.
    10030    2    1    2    0    0  0.00000000000E+00  0.00000000000E+00  0.18711464351E+04  0.21224942264E+04  0.10018945850E+04 0.  0.
        5    1    3    3  502    0 -0.43766976380E+03  0.14006422840E+03  0.13579606859E+04  0.14336150545E+04  0.46999998093E+01 0.  1.
       -5    1    3    3    0  502  0.43766976380E+03 -0.14006422840E+03  0.51318574922E+03  0.68887917186E+03  0.46999998093E+01 0. -1.
</event>
<event>
 5   0  0.2277570E-03  0.9967074E+03  0.7818609E-02  0.9312163E-01
       -2   -1    0    0    0  501  0.00000000000E+00  0.00000000000E+00  0.27456714917E+03  0.27456714918E+03  0.25500000920E-02 0. -1.
        2   -1    0    0  501    0  0.00000000000E+00  0.00000000000E+00 -0.90453792390E+03  0.90453792391E+03  0.25500000920E-02 0.  1.
    10030    2    1    2    0    0  0.00000000000E+00  0.00000000000E+00 -0.62997077473E+03  0.11791050731E+04  0.99670737750E+03 0.  0.
        3    1    3    3  502    0  0.12103491318E+03  0.44283034115E+03 -0.54440274242E+03  0.71212535232E+03  0.10100000352E+00 0.  1.
       -3    1    3    3    0  502 -0.12103491318E+03 -0.44283034115E+03 -0.85568032312E+02  0.46697972077E+03  0.10100000352E+00 0. -1.
</event>
<event>
 5   0  0.1353789E-03  0.9922847E+03  0.7818609E-02  0.9317047E-01
        1   -1    0    0  501    0  0.00000000000E+00  0.00000000000E+00  0.61122045389E+03  0.61122045391E+03  0.50400001928E-02 0. -1.
       -1   -1    0    0    0  501  0.00000000000E+00  0.00000000000E+00 -0.40273070491E+03  0.40273070494E+03  0.50400001928E-02 0.  1.
    10030    2    1    2    0    0  0.00000000000E+00  0.00000000000E+00  0.20848974898E+03  0.10139511588E+04  0.99228472582E+03 0.  0.
        1    1    3    3  502    0  0.14735285449E+03  0.15918259719E+03 -0.35171026930E+03  0.41322158285E+03  0.50400001928E-02 0.  1.
       -1    1    3    3    0  502 -0.14735285449E+03 -0.15918259719E+03  0.56020001828E+03  0.60072957600E+03  0.50400001928E-02 0. -1.
</event>
<event>
 5   0  0.2204862E-03  0.1002981E+04  0.7818609E-02  0.9305281E-01
       -2   -1    0    0    0  501  0.00000000000E+00  0.00000000000E+00  0.18942674973E+03  0.18942674975E+03  0.25500000920E-02 0. -1.
        2   -1    0    0  501    0  0.00000000000E+00  0.00000000000E+00 -0.13276522094E+04  0.13276522094E+04  0.25500000920E-02 0.  1.
    10030    2    1    2    0    0  0.00000000000E+00  0.00000000000E+00 -0.11382254596E+04  0.15170789591E+04  0.10029812417E+04 0.  0.
        1    1    3    3  502    0 -0.15057670231E+03 -0.29926756017E+03 -0.11335635610E+04  0.11820324710E+04  0.50400001928E-02 0.  1.
       -1    1    3    3    0  502  0.15057670231E+03  0.29926756017E+03 -0.46618986926E+01  0.33504648808E+03  0.50400001928E-02 0. -1.
</event>
<event>
 5   0  0.1293575E-03  0.9971201E+03  0.7818609E-02  0.9311709E-01
        1   -1    0    0  501    0  0.00000000000E+00  0.00000000000E+00  0.66858835121E+03  0.66858835123E+03  0.50400001928E-02 0. -1.
       -1   -1    0    0    0  501  0.00000000000E+00  0.00000000000E+00 -0.37177152016E+03  0.37177152020E+03  0.50400001928E-02 0.  1.
    10030    2    1    2    0    0  0.00000000000E+00  0.00000000000E+00  0.29681683104E+03  0.10403598714E+04  0.99712006844E+03 0.  0.
        4    1    3    3  502    0  0.37888981608E+03 -0.34143248013E+02 -0.18780319319E+03  0.42425806579E+03  0.12699999809E+01 0.  1.
       -4    1    3    3    0  502 -0.37888981608E+03  0.34143248013E+02  0.48462002423E+03  0.61610180563E+03  0.12699999809E+01 0. -1.
</event>
<event>
 5   0  0.1285769E-03  0.1002998E+04  0.7818609E-02  0.9305262E-01
       -1   -1    0    0    0  501  0.00000000000E+00  0.00000000000E+00  0.26596497353E+03  0.26596497358E+03  0.50400001928E-02 0. -1.
        1   -1    0    0  501    0  0.00000000000E+00  0.00000000000E+00 -0.94561859069E+03  0.94561859071E+03  0.50400001928E-02 0.  1.
    10030    2    1    2    0    0  0.00000000000E+00  0.00000000000E+00 -0.67965361716E+03  0.12115835643E+04  0.10029983519E+04 0.  0.
        5    1    3    3  502    0  0.25591872693E+03 -0.84581576435E+02 -0.85065449743E+03  0.89234724287E+03  0.46999998093E+01 0.  1.
       -5    1    3    3    0  502 -0.25591872693E+03  0.84581576435E+02  0.17100088026E+03  0.31923632142E+03  0.46999998093E+01 0. -1.
</event>
<event>
 5   0  0.1249195E-03  0.1000860E+04  0.7818609E-02  0.9307602E-01
       -1   -1    0    0    0  501  0.00000000000E+00  0.00000000000E+00  0.20947898396E+03  0.20947898402E+03  0.50400001928E-02 0. -1.
        1   -1    0    0  501    0  0.00000000000E+00  0.00000000000E+00 -0.11954904434E+04  0.11954904434E+04  0.50400001928E-02 0.  1.
    10030    2    1    2    0    0  0.00000000000E+00  0.00000000000E+00 -0.98601145943E+03  0.14049694274E+04  0.10008598772E+04 0.  0.
        2    1    3    3  502    0 -0.27950460579E+03 -0.35393550263E+02  0.87572795033E+02  0.29503308712E+03  0.25500000920E-02 0. -1.
       -2    1    3    3    0  502  0.27950460579E+03  0.35393550263E+02 -0.10735842545E+04  0.11099363403E+04  0.25500000920E-02 0.  1.
</event>
<event>
 5   0  0.1249195E-03  0.1012899E+04  0.7818609E-02  0.9294509E-01
       -1   -1    0    0    0  501  0.00000000000E+00  0.00000000000E+00  0.77064797267E+03  0.77064797269E+03  0.50400001928E-02 0. -1.
        1   -1    0    0  501    0  0.00000000000E+00  0.00000000000E+00 -0.33282535633E+03  0.33282535637E+03  0.50400001928E-02 0.  1.
    10030    2    1    2    0    0  0.00000000000E+00  0.00000000000E+00  0.43782261634E+03  0.11034733291E+04  0.10128991779E+04 0.  0.
        2    1    3    3  502    0 -0.27720790713E+03 -0.42004631241E+03  0.28061579056E+03  0.57621901241E+03  0.25500000920E-02 0. -1.
       -2    1    3    3    0  502  0.27720790713E+03  0.42004631241E+03  0.15720682579E+03  0.52725431665E+03  0.25500000920E-02 0.  1.
</event>
<event>
 5   0  0.1285769E-03  0.9759121E+03  0.7818609E-02  0.9335366E-01
        1   -1    0    0  501    0  0.00000000000E+00  0.00000000000E+00  0.41174564621E+03  0.41174564624E+03  0.50400001928E-02 0. -1.
       -1   -1    0    0    0  501  0.00000000000E+00  0.00000000000E+00 -0.57827232797E+03  0.57827232799E+03  0.50400001928E-02 0.  1.
    10030    2    1    2    0    0  0.00000000000E+00  0.00000000000E+00 -0.16652668176E+03  0.99001797424E+03  0.97591211365E+03 0.  0.
        5    1    3    3  502    0  0.23456078171E+03  0.26379464979E+03  0.25846261059E+03  0.43752872893E+03  0.46999998093E+01 0. -1.
       -5    1    3    3    0  502 -0.23456078171E+03 -0.26379464979E+03 -0.42498929235E+03  0.55248924531E+03  0.46999998093E+01 0.  1.
</event>
<event>
 5   0  0.2284843E-03  0.9929954E+03  0.7818609E-02  0.9316261E-01
        2   -1    0    0  501    0  0.00000000000E+00  0.00000000000E+00  0.13308632881E+04  0.13308632881E+04  0.25500000920E-02 0.  1.
       -2   -1    0    0    0  501  0.00000000000E+00  0.00000000000E+00 -0.18522560185E+03  0.18522560186E+03  0.25500000920E-02 0. -1.
    10030    2    1    2    0    0  0.00000000000E+00  0.00000000000E+00  0.11456376862E+04  0.15160888899E+04  0.99299537466E+03 0.  0.
        2    1    3    3  502    0 -0.15825046594E+01  0.42559763210E+03  0.18244535352E+03  0.46305740012E+03  0.25500000920E-02 0. -1.
       -2    1    3    3    0  502  0.15825046594E+01 -0.42559763210E+03  0.96319233269E+03  0.10530314898E+04  0.25500000920E-02 0.  1.
</event>
<event>
 5   0  0.1293575E-03  0.9975913E+03  0.7818609E-02  0.9311191E-01
        1   -1    0    0  501    0  0.00000000000E+00  0.00000000000E+00  0.11881798753E+04  0.11881798753E+04  0.50400001928E-02 0.  1.
       -1   -1    0    0    0  501  0.00000000000E+00  0.00000000000E+00 -0.20939346462E+03  0.20939346468E+03  0.50400001928E-02 0. -1.
    10030    2    1    2    0    0  0.00000000000E+00  0.00000000000E+00  0.97878641070E+03  0.13975733400E+04  0.99759130056E+03 0.  0.
        4    1    3    3  502    0  0.32374645729E+03  0.36243220135E+03  0.64681522735E+03  0.80903672377E+03  0.12699999809E+01 0.  1.
       -4    1    3    3    0  502 -0.32374645729E+03 -0.36243220135E+03  0.33197118335E+03  0.58853661624E+03  0.12699999809E+01 0. -1.
</event>
<event>
 5   0  0.1353789E-03  0.1001723E+04  0.7818609E-02  0.9306657E-01
       -1   -1    0    0    0  501  0.00000000000E+00  0.00000000000E+00  0.41537627900E+03  0.41537627903E+03  0.50400001928E-02 0.  1.
        1   -1    0    0  501    0  0.00000000000E+00  0.00000000000E+00 -0.60394015188E+03  0.60394015190E+03  0.50400001928E-02 0. -1.
    10030    2    1    2    0    0  0.00000000000E+00  0.00000000000E+00 -0.18856387288E+03  0.10193164309E+04  0.10017233412E+04 0.  0.
        1    1    3    3  502    0 -0.47837407010E+03 -0.13233655661E+03 -0.25963387851E+02  0.49701993188E+03  0.50400001928E-02 0.  1.
       -1    1    3    3    0  502  0.47837407010E+03  0.13233655661E+03 -0.16260048503E+03  0.52229649905E+03  0.50400001928E-02 0. -1.
</event>
<event>
 5   0  0.1353789E-03  0.9987574E+03  0.7818609E-02  0.9309909E-01
       -1   -1    0    0    0  501  0.00000000000E+00  0.00000000000E+00  0.34864189268E+03  0.34864189271E+03  0.50400001928E-02 0.  1.
        1   -1    0    0  501    0  0.00000000000E+00  0.00000000000E+00 -0.71528721308E+03  0.71528721310E+03  0.50400001928E-02 0. -1.
    10030    2    1    2    0    0  0.00000000000E+00  0.00000000000E+00 -0.36664532040E+03  0.10639291058E+04  0.99875740359E+03 0.  0.
        1    1    3    3  502    0  0.20755805263E+03 -0.91264447520E+02  0.29064844753E+03  0.36862727065E+03  0.50400001928E-02 0.  1.
       -1    1    3    3    0  502 -0.20755805263E+03  0.91264447520E+02 -0.65729376793E+03  0.69530183516E+03  0.50400001928E-02 0. -1.
</event>
<event>
 5   0  0.8680125E-04  0.1037248E+04  0.7818609E-02  0.9268610E-01
        3   -1    0    0  501    0  0.00000000000E+00  0.00000000000E+00  0.14777132440E+04  0.14777132474E+04  0.10100000352E+00 0. -1.
       -3   -1    0    0    0  501  0.00000000000E+00  0.00000000000E+00 -0.18201829920E+03  0.18201832722E+03  0.10100000352E+00 0.  1.
    10030    2    1    2    0    0  0.00000000000E+00  0.00000000000E+00  0.12956949448E+04  0.16597315747E+04  0.10372480465E+04 0.  0.
        3    1    3    3  502    0  0.39332464835E+02 -0.10016409905E+03 -0.16395784251E+03  0.19611750011E+03  0.10100000352E+00 0.  1.
       -3    1    3    3    0  502 -0.39332464835E+02  0.10016409905E+03  0.14596527873E+04  0.14636140745E+04  0.10100000352E+00 0. -1.
</event>
<event>
 5   0  0.2255142E-03  0.1034448E+04  0.7818609E-02  0.9271549E-01
       -2   -1    0    0    0  501  0.00000000000E+00  0.00000000000E+00  0.24472261568E+03  0.24472261569E+03  0.25500000920E-02 0. -1.
        2   -1    0    0  501    0  0.00000000000E+00  0.00000000000E+00 -0.10931595670E+04  0.10931595670E+04  0.25500000920E-02 0.  1.
    10030    2    1    2    0    0  0.00000000000E+00  0.00000000000E+00 -0.84843695136E+03  0.13378821827E+04  0.10344483914E+04 0.  0.
        4    1    3    3  502    0  0.33353242675E+02 -0.47047722266E+03 -0.69875175398E+03  0.84304026145E+03  0.12699999809E+01 0.  1.
       -4    1    3    3    0  502 -0.33353242675E+02  0.47047722266E+03 -0.14968519737E+03  0.49484192127E+03  0.12699999809E+01 0. -1.
</event>
<event>
 5   0  0.1293716E-03  0.1001092E+04  0.7818609E-02  0.9307348E-01
        1   -1    0    0  501    0  0.00000000000E+00  0.00000000000E+00  0.10246863102E+04  0.10246863102E+04  0.50400001928E-02 0.  1.
       -1   -1    0    0    0  501  0.00000000000E+00  0.00000000000E+00 -0.24451037431E+03  0.24451037436E+03  0.50400001928E-02 0. -1.
    10030    2    1    2    0    0  0.00000000000E+00  0.00000000000E+00  0.78017593589E+03  0.12691966846E+04  0.10010922701E+04 0.  0.
        3    1    3    3  502    0 -0.46566950014E+03 -0.16806895719E+03  0.48369306528E+03  0.69213744974E+03  0.10100000352E+00 0. -1.
       -3    1    3    3    0  502  0.46566950014E+03  0.16806895719E+03  0.29648287061E+03  0.57705923482E+03  0.10100000352E+00 0.  1.
</event>
<event>
 5   0  0.2255142E-03  0.9984831E+03  0.7818609E-02  0.9310210E-01
        2   -1    0    0  501    0  0.00000000000E+00  0.00000000000E+00  0.12570221380E+04  0.12570221381E+04  0.25500000920E-02 0. -1.
       -2   -1    0    0    0  501  0.00000000000E+00  0.00000000000E+00 -0.19827983999E+03  0.19827984000E+03  0.25500000920E-02 0.  1.
    10030    2    1    2    0    0  0.00000000000E+00  0.00000000000E+00  0.10587422981E+04  0.14553019781E+04  0.99848314639E+03 0.  0.
        4    1    3    3  502    0  0.64957451607E+00 -0.26506941363E+03 -0.87241733494E+02  0.27906083379E+03  0.12699999809E+01 0.  1.
       -4    1    3    3    0  502 -0.64957451607E+00  0.26506941363E+03  0.11459840316E+04  0.11762411443E+04  0.12699999809E+01 0. -1.
</event>
<event>
 5   0  0.2277570E-03  0.1000759E+04  0.7818609E-02  0.9307713E-01
        2   -1    0    0  501    0  0.00000000000E+00  0.00000000000E+00  0.10749980547E+04  0.10749980547E+04  0.25500000920E-02 0. -1.
       -2   -1    0    0    0  501  0.00000000000E+00  0.00000000000E+00 -0.23291167460E+03  0.23291167462E+03  0.25500000920E-02 0.  1.
    10030    2    1    2    0    0  0.00000000000E+00  0.00000000000E+00  0.84208638013E+03  0.13079097294E+04  0.10007589063E+04 0.  0.
        3    1    3    3  502    0 -0.71450679260E+02 -0.44297491481E+03  0.71048231823E+03  0.84030774686E+03  0.10100000352E+00 0.  1.
       -3    1    3    3    0  502  0.71450679260E+02  0.44297491481E+03  0.13160406190E+03  0.46760198249E+03  0.10100000352E+00 0. -1.
</event>
<event>
 5   0  0.2204862E-03  0.1005938E+04  0.7818609E-02  0.9302056E-01
       -2   -1    0    0    0  501  0.00000000000E+00  0.00000000000E+00  0.29091712687E+03  0.29091712688E+03  0.25500000920E-02 0.  1.
        2   -1    0    0  501    0  0.00000000000E+00  0.00000000000E+00 -0.86958766692E+03  0.86958766692E+03  0.25500000920E-02 0. -1.
    10030    2    1    2    0    0  0.00000000000E+00  0.00000000000E+00 -0.57867054005E+03  0.11605047938E+04  0.10059382598E+04 0.  0.
        1    1    3    3  502    0  0.13947254605E+03  0.93371489282E+02 -0.83632685215E+03  0.85300259658E+03  0.50400001928E-02 0. -1.
       -1    1    3    3    0  502 -0.13947254605E+03 -0.93371489282E+02  0.25765631210E+03  0.30750219723E+03  0.50400001928E-02 0.  1.
</event>
<event>
 5   0  0.2255142E-03  0.9984764E+03  0.7818609E-02  0.9310217E-01
        2   -1    0    0  501    0  0.00000000000E+00  0.00000000000E+00  0.19553465405E+04  0.19553465405E+04  0.25500000920E-02 0. -1.
       -2   -1    0    0    0  501  0.00000000000E+00  0.00000000000E+00 -0.12746527615E+03  0.12746527618E+03  0.25500000920E-02 0.  1.
    10030    2    1    2    0    0  0.00000000000E+00  0.00000000000E+00  0.18278812643E+04  0.20828118167E+04  0.99847641292E+03 0.  0.
        4    1    3    3  502    0  0.12017513803E+03 -0.26269350679E+03  0.64588536422E+02  0.29601221976E+03  0.12699999809E+01 0.  1.
       -4    1    3    3    0  502 -0.12017513803E+03  0.26269350679E+03  0.17632927279E+04  0.17867995969E+04  0.12699999809E+01 0. -1.
</event>
<event>
 5   0  0.1293716E-03  0.9958661E+03  0.7818609E-02  0.9313090E-01
       -1   -1    0    0    0  501  0.00000000000E+00  0.00000000000E+00  0.60971590901E+03  0.60971590903E+03  0.50400001928E-02 0. -1.
        1   -1    0    0  501    0  0.00000000000E+00  0.00000000000E+00 -0.40664401909E+03  0.40664401912E+03  0.50400001928E-02 0.  1.
    10030    2    1    2    0    0  0.00000000000E+00  0.00000000000E+00  0.20307188993E+03  0.10163599282E+04  0.99586611102E+03 0.  0.
        3    1    3    3  502    0 -0.26039214429E+03  0.79775123128E+02 -0.32389879859E+03  0.42317677276E+03  0.10100000352E+00 0.  1.
       -3    1    3    3    0  502  0.26039214429E+03 -0.79775123128E+02  0.52697068852E+03  0.59318315539E+03  0.10100000352E+00 0. -1.
</event>
<event>
 5   0  0.2277570E-03  0.1001930E+04  0.7818609E-02  0.9306431E-01
       -2   -1    0    0    0  501  0.00000000000E+00  0.00000000000E+00  0.45099541627E+03  0.45099541628E+03  0.25500000920E-02 0. -1.
        2   -1    0    0  501    0  0.00000000000E+00  0.00000000000E+00 -0.55647080088E+03  0.55647080088E+03  0.25500000920E-02 0.  1.
    10030    2    1    2    0    0  0.00000000000E+00  0.00000000000E+00 -0.10547538460E+03  0.10074662172E+04  0.10019296991E+04 0.  0.
        3    1    3    3  502    0 -0.44753774289E+02 -0.15504574004E+03 -0.52961959364E+03  0.55365964815E+03  0.10100000352E+00 0.  1.
       -3    1    3    3    0  502  0.44753774289E+02  0.15504574004E+03  0.42414420904E+03  0.45380656901E+03  0.10100000352E+00 0. -1.
</event>
<event>
 5   0  0.1353789E-03  0.9984800E+03  0.7818609E-02  0.9310213E-01
       -1   -1    0    0    0  501  0.00000000000E+00  0.00000000000E+00  0.14866725022E+03  0.14866725030E+03  0.50400001928E-02 0.  1.
        1   -1    0    0  501    0  0.00000000000E+00  0.00000000000E+00 -0.16764996756E+04  0.16764996756E+04  0.50400001928E-02 0. -1.
    10030    2    1    2    0    0  0.00000000000E+00  0.00000000000E+00 -0.15278324253E+04  0.18251669259E+04  0.99848003853E+03 0.  0.
        1    1    3    3  502    0 -0.38033667922E+03  0.20996458372E+03 -0.12135293860E+04  0.12889510024E+04  0.50400001928E-02 0.  1.
       -1    1    3    3    0  502  0.38033667922E+03 -0.20996458372E+03 -0.31430303935E+03  0.53621592344E+03  0.50400001928E-02 0. -1.
</event>
<event>
 5   0  0.2255142E-03  0.1000299E+04  0.7818609E-02  0.9308217E-01
        2   -1    0    0  501    0  0.00000000000E+00  0.00000000000E+00  0.35862289315E+03  0.35862289316E+03  0.25500000920E-02 0.  1.
       -2   -1    0    0    0  501  0.00000000000E+00  0.00000000000E+00 -0.69752831238E+03  0.69752831239E+03  0.25500000920E-02 0. -1.
    10030    2    1    2    0    0  0.00000000000E+00  0.00000000000E+00 -0.33890541923E+03  0.10561512055E+04  0.10002991981E+04 0.  0.
        4    1    3    3  502    0 -0.46459018905E+03 -0.31352507615E+01 -0.36497942510E+03  0.59081762601E+03  0.12699999809E+01 0. -1.
       -4    1    3    3    0  502  0.46459018905E+03  0.31352507615E+01  0.26074005873E+02  0.46533357954E+03  0.12699999809E+01 0.  1.
</event>
<event>
 5   0  0.2284843E-03  0.9954678E+03  0.7818609E-02  0.9313530E-01
        2   -1    0    0  501    0  0.00000000000E+00  0.00000000000E+00  0.38121140846E+03  0.38121140847E+03  0.25500000920E-02 0.  1.
       -2   -1    0    0    0  501  0.00000000000E+00  0.00000000000E+00 -0.64987309836E+03  0.64987309836E+03  0.25500000920E-02 0. -1.
    10030    2    1    2    0    0  0.00000000000E+00  0.00000000000E+00 -0.26866168990E+03  0.10310845068E+04  0.99546780793E+03 0.  0.
        2    1    3    3  502    0 -0.29925950854E+03  0.27348321792E+03 -0.43343557869E+03  0.59347765318E+03  0.25500000920E-02 0. -1.
       -2    1    3    3    0  502  0.29925950854E+03 -0.27348321792E+03  0.16477388880E+03  0.43760685366E+03  0.25500000920E-02 0.  1.
</event>
<event>
 5   0  0.2204862E-03  0.1005576E+04  0.7818609E-02  0.9302450E-01
       -2   -1    0    0    0  501  0.00000000000E+00  0.00000000000E+00  0.74605348467E+03  0.74605348468E+03  0.25500000920E-02 0. -1.
        2   -1    0    0  501    0  0.00000000000E+00  0.00000000000E+00 -0.33884407537E+03  0.33884407538E+03  0.25500000920E-02 0.  1.
    10030    2    1    2    0    0  0.00000000000E+00  0.00000000000E+00  0.40720940930E+03  0.10848975601E+04  0.10055760602E+04 0.  0.
        1    1    3    3  502    0  0.65532531531E+02  0.23024154432E+03  0.68062429543E+03  0.72149505402E+03  0.50400001928E-02 0. -1.
       -1    1    3    3    0  502 -0.65532531531E+02 -0.23024154432E+03 -0.27341488613E+03  0.36340250604E+03  0.50400001928E-02 0.  1.
</event>
<event>
 5   0  0.2277570E-03  0.9976344E+03  0.7818609E-02  0.9311143E-01
        2   -1    0    0  501    0  0.00000000000E+00  0.00000000000E+00  0.27915563189E+03  0.27915563190E+03  0.25500000920E-02 0. -1.
       -2   -1    0    0    0  501  0.00000000000E+00  0.00000000000E+00 -0.89132565659E+03  0.89132565659E+03  0.25500000920E-02 0.  1.
    10030    2    1    2    0    0  0.00000000000E+00  0.00000000000E+00 -0.61217002470E+03  0.11704812885E+04  0.99763435565E+03 0.  0.
        3    1    3    3  502    0 -0.18983653890E+03  0.24873665451E+02  0.23432928970E+03  0.30260012715E+03  0.10100000352E+00 0. -1.
       -3    1    3    3    0  502  0.18983653890E+03 -0.24873665451E+02 -0.84649931440E+03  0.86788116135E+03  0.10100000352E+00 0.  1.
</event>
<event>
 5   0  0.8680125E-04  0.9934863E+03  0.7818609E-02  0.9315718E-01
        3   -1    0    0  501    0  0.00000000000E+00  0.00000000000E+00  0.11715553668E+04  0.11715553711E+04  0.10100000352E+00 0. -1.
       -3   -1    0    0    0  501  0.00000000000E+00  0.00000000000E+00 -0.21062063717E+03  0.21062066139E+03  0.10100000352E+00 0.  1.
    10030    2    1    2    0    0  0.00000000000E+00  0.00000000000E+00  0.96093472962E+03  0.13821760325E+04  0.99348630103E+03 0.  0.
        3    1    3    3  502    0 -0.16602716804E+02  0.30709376026E+03  0.10231777891E+04  0.10683983462E+04  0.10100000352E+00 0. -1.
       -3    1    3    3    0  502  0.16602716804E+02 -0.30709376026E+03 -0.62243059498E+02  0.31377768635E+03  0.10100000352E+00 0.  1.
</event>
<event>
 5   0  0.2284843E-03  0.9953193E+03  0.7818609E-02  0.9313694E-01
        2   -1    0    0  501    0  0.00000000000E+00  0.00000000000E+00  0.17881194095E+04  0.17881194095E+04  0.25500000920E-02 0. -1.
       -2   -1    0    0    0  501  0.00000000000E+00  0.00000000000E+00 -0.13850590890E+03  0.13850590892E+03  0.25500000920E-02 0.  1.
    10030    2    1    2    0    0  0.00000000000E+00  0.00000000000E+00  0.16496135006E+04  0.19266253184E+04  0.99531925343E+03 0.  0.
        2    1    3    3  502    0 -0.13935683336E+03 -0.47769841861E+03  0.81125723917E+03  0.95171130825E+03  0.25500000920E-02 0. -1.
       -2    1    3    3    0  502  0.13935683336E+03  0.47769841861E+03  0.83835626144E+03  0.97491401018E+03  0.25500000920E-02 0.  1.
</event>
<event>
 5   0  0.1249195E-03  0.1002108E+04  0.7818609E-02  0.9306236E-01
       -1   -1    0    0    0  501  0.00000000000E+00  0.00000000000E+00  0.11396480587E+03  0.11396480598E+03  0.50400001928E-02 0. -1.
        1   -1    0    0  501    0  0.00000000000E+00  0.00000000000E+00 -0.22029186812E+04  0.22029186812E+04  0.50400001928E-02 0.  1.
    10030    2    1    2    0    0  0.00000000000E+00  0.00000000000E+00 -0.20889538754E+04  0.23168834872E+04  0.10021081778E+04 0.  0.
        2    1    3    3  502    0 -0.15037086749E+03  0.23360358508E+03 -0.20085409485E+04  0.20276633780E+04  0.25500000920E-02 0.  1.
       -2    1    3    3    0  502  0.15037086749E+03 -0.23360358508E+03 -0.80412926861E+02  0.28922010920E+03  0.25500000920E-02 0. -1.
</event>
<event>
 5   0  0.1249195E-03  0.1012639E+04  0.7818609E-02  0.9294791E-01
        1   -1    0    0  501    0  0.00000000000E+00  0.00000000000E+00  0.34476290765E+03  0.34476290769E+03  0.50400001928E-02 0. -1.
       -1   -1    0    0    0  501  0.00000000000E+00  0.00000000000E+00 -0.74358116388E+03  0.74358116390E+03  0.50400001928E-02 0.  1.
    10030    2    1    2    0    0  0.00000000000E+00  0.00000000000E+00 -0.39881825623E+03  0.10883440716E+04  0.10126385420E+04 0.  0.
        2    1    3    3  502    0  0.10936709714E+03 -0.43110552229E+03 -0.45946139266E+03  0.63946689096E+03  0.25500000920E-02 0.  1.
       -2    1    3    3    0  502 -0.10936709714E+03  0.43110552229E+03  0.60643136435E+02  0.44887718062E+03  0.25500000920E-02 0. -1.
</event>
<event>
 5   0  0.1293575E-03  0.9994440E+03  0.7818609E-02  0.9309155E-01
       -1   -1    0    0    0  501  0.00000000000E+00  0.00000000000E+00  0.63948031730E+03  0.63948031732E+03  0.50400001928E-02 0.  1.
        1   -1    0    0  501    0  0.00000000000E+00  0.00000000000E+00 -0.39050784193E+03  0.39050784196E+03  0.50400001928E-02 0. -1.
    10030    2    1    2    0    0  0.00000000000E+00  0.00000000000E+00  0.24897247537E+03  0.10299881593E+04  0.99944400281E+03 0.  0.
        4    1    3    3  502    0  0.13546558724E+03  0.44716440992E+03 -0.58169005471E+02  0.47084199146E+03  0.12699999809E+01 0. -1.
       -4    1    3    3    0  502 -0.13546558724E+03 -0.44716440992E+03  0.30714148085E+03  0.55914616782E+03  0.12699999809E+01 0.  1.
</event>
<event>
 5   0  0.1285769E-03  0.9954932E+03  0.7818609E-02  0.9313502E-01
       -1   -1    0    0    0  501  0.00000000000E+00  0.00000000000E+00  0.14145417158E+04  0.14145417158E+04  0.50400001928E-02 0. -1.
        1   -1    0    0  501    0  0.00000000000E+00  0.00000000000E+00 -0.17514624776E+03  0.17514624784E+03  0.50400001928E-02 0.  1.
    10030    2    1    2    0    0  0.00000000000E+00  0.00000000000E+00  0.12393954680E+04  0.15896879636E+04  0.99549319212E+03 0.  0.
        5    1    3    3  502    0 -0.49644869159E+03 -0.31964846726E+02  0.64477081326E+03  0.81439213309E+03  0.46999998093E+01 0.  1.
       -5    1    3    3    0  502  0.49644869159E+03  0.31964846726E+02  0.59462465474E+03  0.77529583053E+03  0.46999998093E+01 0. -1.
</event>
<event>
 5   0  0.1285769E-03  0.9966021E+03  0.7818609E-02  0.9312279E-01
       -1   -1    0    0    0  501  0.00000000000E+00  0.00000000000E+00  0.23380159914E+03  0.23380159919E+03  0.50400001928E-02 0. -1.
        1   -1    0    0  501    0  0.00000000000E+00  0.00000000000E+00 -0.10620283401E+04  0.10620283401E+04  0.50400001928E-02 0.  1.
    10030    2    1    2    0    0  0.00000000000E+00  0.00000000000E+00 -0.82822674095E+03  0.12958299393E+04  0.99660207562E+03 0.  0.
        5    1    3    3  502    0  0.41870995533E+03  0.27010812592E+03 -0.41713708556E+03  0.64984757023E+03  0.46999998093E+01 0. -1.
       -5    1    3    3    0  502 -0.41870995533E+03 -0.27010812592E+03 -0.41108965538E+03  0.64598236906E+03  0.46999998093E+01 0.  1.
</event>
<event>
 5   0  0.2277570E-03  0.1011212E+04  0.7818609E-02  0.9296332E-01
       -2   -1    0    0    0  501  0.00000000000E+00  0.00000000000E+00  0.13284833944E+03  0.13284833946E+03  0.25500000920E-02 0.  1.
        2   -1    0    0  501    0  0.00000000000E+00  0.00000000000E+00 -0.19242804393E+04  0.19242804393E+04  0.25500000920E-02 0. -1.
    10030    2    1    2    0    0  0.00000000000E+00  0.00000000000E+00 -0.17914320998E+04  0.20571287787E+04  0.10112120668E+04 0.  0.
        3    1    3    3  502    0  0.12876981821E+03 -0.22440716597E+03 -0.12021911472E+02  0.25900729483E+03  0.10100000352E+00 0.  1.
       -3    1    3    3    0  502 -0.12876981821E+03  0.22440716597E+03 -0.17794101884E+04  0.17981214839E+04  0.10100000352E+00 0. -1.
</event>
<event>
 5   0  0.2277570E-03  0.9552863E+03  0.7818609E-02  0.9358993E-01
        2   -1    0    0  501    0  0.00000000000E+00  0.00000000000E+00  0.37118770922E+03  0.37118770923E+03  0.25500000920E-02 0. -1.
       -2   -1    0    0    0  501  0.00000000000E+00  0.00000000000E+00 -0.61462968660E+03  0.61462968661E+03  0.25500000920E-02 0.  1.
    10030    2    1    2    0    0  0.00000000000E+00  0.00000000000E+00 -0.24344197738E+03  0.98581739584E+03  0.95528631394E+03 0.  0.
        3    1    3    3  502    0 -0.47354205797E+03  0.59926274420E+02 -0.13988278846E+03  0.49739365068E+03  0.10100000352E+00 0. -1.
       -3    1    3    3    0  502  0.47354205797E+03 -0.59926274420E+02 -0.10355918892E+03  0.48842374516E+03  0.10100000352E+00 0.  1.
</event>
<event>
 5   0  0.1285769E-03  0.9992995E+03  0.7818609E-02  0.9309313E-01
       -1   -1    0    0    0  501  0.00000000000E+00  0.00000000000E+00  0.29483219401E+03  0.29483219406E+03  0.50400001928E-02 0.  1.
        1   -1    0    0  501    0  0.00000000000E+00  0.00000000000E+00 -0.84675249700E+03  0.84675249701E+03  0.50400001928E-02 0. -1.
    10030    2    1    2    0    0  0.00000000000E+00  0.00000000000E+00 -0.55192030298E+03  0.11415846911E+04  0.99929954770E+03 0.  0.
        5    1    3    3  502    0 -0.30039222935E+03 -0.29143609701E+03  0.35760901777E+02  0.42008501781E+03  0.46999998093E+01 0.  1.
       -5    1    3    3    0  502  0.30039222935E+03  0.29143609701E+03 -0.58768120476E+03  0.72149967326E+03  0.46999998093E+01 0. -1.
</event>
<event>
 5   0  0.2204862E-03  0.1004133E+04  0.7818609E-02  0.9304023E-01
       -2   -1    0    0    0  501  0.00000000000E+00  0.00000000000E+00  0.16400295735E+03  0.16400295737E+03  0.25500000920E-02 0. -1.
        2   -1    0    0  501    0  0.00000000000E+00  0.00000000000E+00 -0.15369905071E+04  0.15369905071E+04  0.25500000920E-02 0.  1.
    10030    2    1    2    0    0  0.00000000000E+00  0.00000000000E+00 -0.13729875497E+04  0.17009934644E+04  0.10041334346E+04 0.  0.
        1    1    3    3  502    0  0.31921153767E+03 -0.23239908510E+03 -0.12118104638E+04  0.12745155710E+04  0.50400001928E-02 0.  1.
       -1    1    3    3    0  502 -0.31921153767E+03  0.23239908510E+03 -0.16117708592E+03  0.42647789344E+03  0.50400001928E-02 0. -1.
</event>
<event>
 5   0  0.1249195E-03  0.9856041E+03  0.7818609E-02  0.9324476E-01
        1   -1    0    0  501    0  0.00000000000E+00  0.00000000000E+00  0.76434603799E+03  0.76434603801E+03  0.50400001928E-02 0. -1.
       -1   -1    0    0    0  501  0.00000000000E+00  0.00000000000E+00 -0.31772761045E+03  0.31772761049E+03  0.50400001928E-02 0.  1.
    10030    2    1    2    0    0  0.00000000000E+00  0.00000000000E+00  0.44661842754E+03  0.10820736485E+04  0.98560405892E+03 0.  0.
        2    1    3    3  502    0  0.19020046130E+03 -0.34170851933E+03 -0.10589498872E+03  0.40516006257E+03  0.25500000920E-02 0.  1.
       -2    1    3    3    0  502 -0.19020046130E+03  0.34170851933E+03  0.55251341626E+03  0.67691358593E+03  0.25500000920E-02 0. -1.
</event>
<event>
 5   0  0.2277570E-03  0.1002445E+04  0.7818609E-02  0.9305867E-01
       -2   -1    0    0    0  501  0.00000000000E+00  0.00000000000E+00  0.20628381054E+03  0.20628381056E+03  0.25500000920E-02 0. -1.
        2   -1    0    0  501    0  0.00000000000E+00  0.00000000000E+00 -0.12178566041E+04  0.12178566041E+04  0.25500000920E-02 0.  1.
    10030    2    1    2    0    0  0.00000000000E+00  0.00000000000E+00 -0.10115727935E+04  0.14241404146E+04  0.10024452124E+04 0.  0.
        3    1    3    3  502    0  0.34431637664E+03 -0.89213823522E+02 -0.10074873477E+04  0.10684304561E+04  0.10100000352E+00 0. -1.
       -3    1    3    3    0  502 -0.34431637664E+03  0.89213823522E+02 -0.40854458296E+01  0.35570995853E+03  0.10100000352E+00 0.  1.
</event>
<event>
 5   0  0.2255142E-03  0.1012664E+04  0.7818609E-02  0.9294763E-01
       -2   -1    0    0    0  501  0.00000000000E+00  0.00000000000E+00  0.81626011892E+03  0.81626011893E+03  0.25500000920E-02 0. -1.
        2   -1    0    0  501    0  0.00000000000E+00  0.00000000000E+00 -0.31408148911E+03  0.31408148912E+03  0.25500000920E-02 0.  1.
    10030    2    1    2    0    0  0.00000000000E+00  0.00000000000E+00  0.50217862982E+03  0.11303416080E+04  0.10126641964E+04 0.  0.
        4    1    3    3  502    0 -0.32778415977E+03 -0.55337508261E+01  0.68180230122E+03  0.75652433447E+03  0.12699999809E+01 0. -1.
       -4    1    3    3    0  502  0.32778415977E+03  0.55337508261E+01 -0.17962367140E+03  0.37381727357E+03  0.12699999809E+01 0.  1.
</event>
<event>
 5   0  0.2264577E-03  0.1002597E+04  0.7818609E-02  0.9305701E-01
        2   -1    0    0  501    0  0.00000000000E+00  0.00000000000E+00  0.12813207996E+04  0.12813207996E+04  0.25500000920E-02 0.  1.
       -2   -1    0    0    0  501  0.00000000000E+00  0.00000000000E+00 -0.19612599313E+03  0.19612599314E+03  0.25500000920E-02 0. -1.
    10030    2    1    2    0    0  0.00000000000E+00  0.00000000000E+00  0.10851948065E+04  0.14774467928E+04  0.10025972558E+04 0.  0.
        5    1    3    3  502    0 -0.28165621332E+03  0.62675974029E+02 -0.61442280719E+02  0.29505210401E+03  0.46999998093E+01 0. -1.
       -5    1    3    3    0  502  0.28165621332E+03 -0.62675974029E+02  0.11466370872E+04  0.11823946888E+04  0.46999998093E+01 0.  1.
</event>
<event>
 5   0  0.1353789E-03  0.1000950E+04  0.7818609E-02  0.9307504E-01
       -1   -1    0    0    0  501  0.00000000000E+00  0.00000000000E+00  0.88330053035E+03  0.88330053036E+03  0.50400001928E-02 0. -1.
        1   -1    0    0  501    0  0.00000000000E+00  0.00000000000E+00 -0.28356729174E+03  0.28356729179E+03  0.50400001928E-02 0.  1.
    10030    2    1    2    0    0  0.00000000000E+00  0.00000000000E+00  0.59973323860E+03  0.11668678221E+04  0.10009498274E+04 0.  0.
        1    1    3    3  502    0  0.33170049731E+03  0.28601978972E+03  0.17563315812E+02  0.43833892152E+03  0.50400001928E-02 0.  1.
       -1    1    3    3    0  502 -0.33170049731E+03 -0.28601978972E+03  0.58216992279E+03  0.72852890063E+03  0.50400001928E-02 0. -1.
</event>
<event>
 5   0  0.1293716E-03  0.1002115E+04  0.7818609E-02  0.9306229E-01
        1   -1    0    0  501    0  0.00000000000E+00  0.00000000000E+00  0.15541315166E+04  0.15541315166E+04  0.50400001928E-02 0. -1.
       -1   -1    0    0    0  501  0.00000000000E+00  0.00000000000E+00 -0.16154260377E+03  0.16154260385E+03  0.50400001928E-02 0.  1.
    10030    2    1    2    0    0  0.00000000000E+00  0.00000000000E+00  0.13925889128E+04  0.17156741205E+04  0.10021146678E+04 0.  0.
        3    1    3    3  502    0 -0.31588551630E+03  0.35846950751E+03  0.43792522073E+03  0.64812233133E+03  0.10100000352E+00 0.  1.
       -3    1    3    3    0  502  0.31588551630E+03 -0.35846950751E+03  0.95466369210E+03  0.10675517891E+04  0.10100000352E+00 0. -1.
</event>
<event>
 5   0  0.1293575E-03  0.1002860E+04  0.7818609E-02  0.9305413E-01
       -1   -1    0    0    0  501  0.00000000000E+00  0.00000000000E+00  0.22477877250E+03  0.22477877255E+03  0.50400001928E-02 0. -1.
        1   -1    0    0  501    0  0.00000000000E+00  0.00000000000E+00 -0.11185764821E+04  0.11185764821E+04  0.50400001928E-02 0.  1.
    10030    2    1    2    0    0  0.00000000000E+00  0.00000000000E+00 -0.89379770964E+03  0.13433552547E+04  0.10028604063E+04 0.  0.
        4    1    3    3  502    0 -0.49127265675E+03  0.13762019322E+02 -0.31366897043E+03  0.58303349162E+03  0.12699999809E+01 0. -1.
       -4    1    3    3    0  502  0.49127265675E+03 -0.13762019322E+02 -0.58012873921E+03  0.76032176307E+03  0.12699999809E+01 0.  1.
</event>
<event>
 5   0  0.1285769E-03  0.1008094E+04  0.7818609E-02  0.9299712E-01
       -1   -1    0    0    0  501  0.00000000000E+00  0.00000000000E+00  0.87456505934E+03  0.87456505936E+03  0.50400001928E-02 0.  1.
        1   -1    0    0  501    0  0.00000000000E+00  0.00000000000E+00 -0.29050227519E+03  0.29050227524E+03  0.50400001928E-02 0. -1.
    10030    2    1    2    0    0  0.00000000000E+00  0.00000000000E+00  0.58406278415E+03  0.11650673346E+04  0.10080935266E+04 0.  0.
        5    1    3    3  502    0 -0.27959642241E+01  0.32645408185E+03 -0.15177007675E+03  0.36005045642E+03  0.46999998093E+01 0. -1.
       -5    1    3    3    0  502  0.27959642241E+01 -0.32645408185E+03  0.73583286089E+03  0.80501687817E+03  0.46999998093E+01 0.  1.
</event>
<event>
 5   0  0.2277570E-03  0.1000957E+04  0.7818609E-02  0.9307496E-01
        2   -1    0    0  501    0  0.00000000000E+00  0.00000000000E+00  0.13808224701E+04  0.13808224701E+04  0.25500000920E-02 0.  1.
       -2   -1    0    0    0  501  0.00000000000E+00  0.00000000000E+00 -0.18139824827E+03  0.18139824829E+03  0.25500000920E-02 0. -1.
    10030    2    1    2    0    0  0.00000000000E+00  0.00000000000E+00  0.11994242219E+04  0.15622207184E+04  0.10009570965E+04 0.  0.
        3    1    3    3  502    0  0.38490122388E+03 -0.27255918999E+03  0.33835999267E+03  0.58045237448E+03  0.10100000352E+00 0.  1.
       -3    1    3    3    0  502 -0.38490122388E+03  0.27255918999E+03  0.86106422919E+03  0.98176834395E+03  0.10100000352E+00 0. -1.
</event>
<event>
 5   0  0.1249195E-03  0.9754259E+03  0.7818609E-02  0.9335916E-01
       -1   -1    0    0    0  501  0.00000000000E+00  0.00000000000E+00  0.18124318228E+03  0.18124318235E+03  0.50400001928E-02 0. -1.
        1   -1    0    0  501    0  0.00000000000E+00  0.00000000000E+00 -0.13124019362E+04  0.13124019362E+04  0.50400001928E-02 0.  1.
    10030    2    1    2    0    0  0.00000000000E+00  0.00000000000E+00 -0.11311587539E+04  0.14936451186E+04  0.97542586271E+03 0.  0.
        2    1    3    3  502    0  0.84480372805E+02 -0.27803339805E+03  0.34212215351E+02  0.29259183089E+03  0.25500000920E-02 0. -1.
       -2    1    3    3    0  502 -0.84480372805E+02  0.27803339805E+03 -0.11653709693E+04  0.12010532877E+04  0.25500000920E-02 0.  1.
</event>
<event>
 5   0  0.1293575E-03  0.1003093E+04  0.7818609E-02  0.9305159E-01
        1   -1    0    0  501    0  0.00000000000E+00  0.00000000000E+00  0.89346507004E+03  0.89346507005E+03  0.50400001928E-02 0.  1.
       -1   -1    0    0    0  501  0.00000000000E+00  0.00000000000E+00 -0.28154295290E+03  0.28154295294E+03  0.50400001928E-02 0. -1.
    10030    2    1    2    0    0  0.00000000000E+00  0.00000000000E+00  0.61192211714E+03  0.11750080230E+04  0.10030928056E+04 0.  0.
        4    1    3    3  502    0  0.35254244490E+03 -0.14994252553E+03  0.68513220010E+03  0.78496922292E+03  0.12699999809E+01 0.  1.
       -4    1    3    3    0  502 -0.35254244490E+03  0.14994252553E+03 -0.73210082958E+02  0.39003880007E+03  0.12699999809E+01 0. -1.
</event>
<event>
 5   0  0.1293716E-03  0.1000862E+04  0.7818609E-02  0.9307600E-01
        1   -1    0    0  501    0  0.00000000000E+00  0.00000000000E+00  0.63199703303E+03  0.63199703305E+03  0.50400001928E-02 0.  1.
       -1   -1    0    0    0  501  0.00000000000E+00  0.00000000000E+00 -0.39625375305E+03  0.39625375308E+03  0.50400001928E-02 0. -1.
    10030    2    1    2    0    0  0.00000000000E+00  0.00000000000E+00  0.23574327998E+03  0.10282507861E+04  0.10008620210E+04 0.  0.
        3    1    3    3  502    0  0.17848224745E+03  0.22131279373E+02 -0.36190402509E+03  0.40412898901E+03  0.10100000352E+00 0. -1.
       -3    1    3    3    0  502 -0.17848224745E+03 -0.22131279373E+02  0.59764730507E+03  0.62412179712E+03  0.10100000352E+00 0.  1.
</event>
<event>
 5   0  0.1293575E-03  0.9951181E+03  0.7818609E-02  0.9313915E-01
       -1   -1    0    0    0  501  0.00000000000E+00  0.00000000000E+00  0.25035800679E+03  0.25035800684E+03  0.50400001928E-02 0. -1.
        1   -1    0    0  501    0  0.00000000000E+00  0.00000000000E+00 -0.98884397525E+03  0.98884397527E+03  0.50400001928E-02 0.  1.
    10030    2    1    2    0    0  0.00000000000E+00  0.00000000000E+00 -0.73848596846E+03  0.12392019821E+04  0.99511809694E+03 0.  0.
        4    1    3    3  502    0  0.74026343454E+02  0.38609785671E+03  0.10541156269E+02  0.39327367489E+03  0.12699999809E+01 0.  1.
       -4    1    3    3    0  502 -0.74026343454E+02 -0.38609785671E+03 -0.74902712473E+03  0.84592830722E+03  0.12699999809E+01 0. -1.
</event>
<event>
 5   0  0.2284843E-03  0.1003668E+04  0.7818609E-02  0.9304531E-01
        2   -1    0    0  501    0  0.00000000000E+00  0.00000000000E+00  0.23718349173E+04  0.23718349173E+04  0.25500000920E-02 0.  1.
       -2   -1    0    0    0  501  0.00000000000E+00  0.00000000000E+00 -0.10617819153E+03  0.10617819156E+03  0.25500000920E-02 0. -1.
    10030    2    1    2    0    0  0.00000000000E+00  0.00000000000E+00  0.22656567258E+04  0.24780131089E+04  0.10036675588E+04 0.  0.
        2    1    3    3  502    0  0.27288352501E+03  0.42066227395E+03  0.10825333651E+04  0.11930216484E+04  0.25500000920E-02 0.  1.
       -2    1    3    3    0  502 -0.27288352501E+03 -0.42066227395E+03  0.11831233607E+04  0.12849914605E+04  0.25500000920E-02 0. -1.
</event>
<event>
 5   0  0.2264577E-03  0.1001697E+04  0.7818609E-02  0.9306686E-01
        2   -1    0    0  501    0  0.00000000000E+00  0.00000000000E+00  0.25171517743E+04  0.25171517743E+04  0.25500000920E-02 0. -1.
       -2   -1    0    0    0  501  0.00000000000E+00  0.00000000000E+00 -0.99655902755E+02  0.99655902787E+02  0.25500000920E-02 0.  1.
    10030    2    1    2    0    0  0.00000000000E+00  0.00000000000E+00  0.24174958716E+04  0.26168076771E+04  0.10016966257E+04 0.  0.
        5    1    3    3  502    0  0.44332794181E+03  0.53492761153E+02  0.18011630571E+04  0.18556970625E+04  0.46999998093E+01 0. -1.
       -5    1    3    3    0  502 -0.44332794181E+03 -0.53492761153E+02  0.61633281442E+03  0.76111061457E+03  0.46999998093E+01 0.  1.
</event>
<event>
 5   0  0.2277570E-03  0.9983711E+03  0.7818609E-02  0.9310333E-01
        2   -1    0    0  501    0  0.00000000000E+00  0.00000000000E+00  0.13851722523E+04  0.13851722523E+04  0.25500000920E-02 0.  1.
       -2   -1    0    0    0  501  0.00000000000E+00  0.00000000000E+00 -0.17989548520E+03  0.17989548521E+03  0.25500000920E-02 0. -1.
    10030    2    1    2    0    0  0.00000000000E+00  0.00000000000E+00  0.12052767671E+04  0.15650677375E+04  0.99837114227E+03 0.  0.
        3    1    3    3  502    0  0.15642352367E+03  0.46644928917E+03  0.47014920295E+03  0.68050241834E+03  0.10100000352E+00 0. -1.
       -3    1    3    3    0  502 -0.15642352367E+03 -0.46644928917E+03  0.73512756418E+03  0.88456531921E+03  0.10100000352E+00 0.  1.
</event>
<event>
 5   0  0.2264577E-03  0.9728260E+03  0.7818609E-02  0.9338861E-01
       -2   -1    0    0    0  501  0.00000000000E+00  0.00000000000E+00  0.24689442205E+03  0.24689442207E+03  0.25500000920E-02 0. -1.
        2   -1    0    0  501    0  0.00000000000E+00  0.00000000000E+00 -0.95829474394E+03  0.95829474395E+03  0.25500000920E-02 0.  1.
    10030    2    1    2    0    0  0.00000000000E+00  0.00000000000E+00 -0.71140032189E+03  0.12051891660E+04  0.97282604195E+03 0.  0.
        5    1    3    3  502    0  0.21406245764E+03 -0.97047337303E+02 -0.88324622720E+03  0.91399502696E+03  0.46999998093E+01 0.  1.
       -5    1    3    3    0  502 -0.21406245764E+03  0.97047337303E+02  0.17184590531E+03  0.29119413905E+03  0.46999998093E+01 0. -1.
</event>
<event>
 5   0  0.1293575E-03  0.1001222E+04  0.7818609E-02  0.9307205E-01
       -1   -1    0    0    0  501  0.00000000000E+00  0.00000000000E+00  0.55059857392E+03  0.55059857394E+03  0.50400001928E-02 0. -1.
        1   -1    0    0  501    0  0.00000000000E+00  0.00000000000E+00 -0.45516179988E+03  0.45516179991E+03  0.50400001928E-02 0.  1.
    10030    2    1    2    0    0  0.00000000000E+00  0.00000000000E+00  0.95436774040E+02  0.10057603738E+04  0.10012221291E+04 0.  0.
        4    1    3    3  502    0 -0.11627386363E+03 -0.24802061465E+03 -0.37319878306E+03  0.46293928460E+03  0.12699999809E+01 0.  1.
       -4    1    3    3    0  502  0.11627386363E+03  0.24802061465E+03  0.46863555710E+03  0.54282108925E+03  0.12699999809E+01 0. -1.
</event>
<event>
 5   0  0.1293716E-03  0.1008407E+04  0.7818609E-02  0.9299372E-01
       -1   -1    0    0    0  501  0.00000000000E+00  0.00000000000E+00  0.46266427385E+03  0.46266427387E+03  0.50400001928E-02 0.  1.
        1   -1    0    0  501    0  0.00000000000E+00  0.00000000000E+00 -0.54947238730E+03  0.54947238732E+03  0.50400001928E-02 0. -1.
    10030    2    1    2    0    0  0.00000000000E+00  0.00000000000E+00 -0.86808113450E+02  0.10121366612E+04  0.10084071461E+04 0.  0.
        3    1    3    3  502    0  0.21984497168E+03  0.33195474138E+03  0.26708688420E+03  0.47943839626E+03  0.10100000352E+00 0.  1.
       -3    1    3    3    0  502 -0.21984497168E+03 -0.33195474138E+03 -0.35389499765E+03  0.53269826493E+03  0.10100000352E+00 0. -1.
</event>
<event>
 5   0  0.1293716E-03  0.1000292E+04  0.7818609E-02  0.9308225E-01
        1   -1    0    0  501    0  0.00000000000E+00  0.00000000000E+00  0.49125651118E+03  0.49125651120E+03  0.50400001928E-02 0. -1.
       -1   -1    0    0    0  501  0.00000000000E+00  0.00000000000E+00 -0.50919584744E+03  0.50919584747E+03  0.50400001928E-02 0.  1.
    10030    2    1    2    0    0  0.00000000000E+00  0.00000000000E+00 -0.17939336266E+02  0.10004523587E+04  0.10002915086E+04 0.  0.
        3    1    3    3  502    0 -0.35369869808E+03  0.34490174447E+03 -0.86993641192E+02  0.50162524475E+03  0.10100000352E+00 0.  1.
       -3    1    3    3    0  502  0.35369869808E+03 -0.34490174447E+03  0.69054304926E+02  0.49882711393E+03  0.10100000352E+00 0. -1.
</event>
<event>
 5   0  0.1285769E-03  0.1059818E+04  0.7818609E-02  0.9245266E-01
        1   -1    0    0  501    0  0.00000000000E+00  0.00000000000E+00  0.95630888940E+03  0.95630888942E+03  0.50400001928E-02 0. -1.
       -1   -1    0    0    0  501  0.00000000000E+00  0.00000000000E+00 -0.29363269326E+03  0.29363269331E+03  0.50400001928E-02 0.  1.
    10030    2    1    2    0    0  0.00000000000E+00  0.00000000000E+00  0.66267619614E+03  0.12499415827E+04  0.10598180123E+04 0.  0.
        5    1    3    3  502    0 -0.31350025812E+03 -0.41172419432E+03  0.19695852717E+03  0.55372734758E+03  0.46999998093E+01 0.  1.
       -5    1    3    3    0  502  0.31350025812E+03  0.41172419432E+03  0.46571766897E+03  0.69621423514E+03  0.46999998093E+01 0. -1.
</event>
<event>
 5   0  0.2284843E-03  0.1003526E+04  0.7818609E-02  0.9304686E-01
        2   -1    0    0  501    0  0.00000000000E+00  0.00000000000E+00  0.94867938937E+03  0.94867938937E+03  0.25500000920E-02 0. -1.
       -2   -1    0    0    0  501  0.00000000000E+00  0.00000000000E+00 -0.26538607363E+03  0.26538607364E+03  0.25500000920E-02 0.  1.
    10030    2    1    2    0    0  0.00000000000E+00  0.00000000000E+00  0.68329331574E+03  0.12140654630E+04  0.10035263789E+04 0.  0.
        2    1    3    3  502    0  0.47729336436E+03 -0.12306285719E+03  0.45521888353E+03  0.67095279596E+03  0.25500000920E-02 0. -1.
       -2    1    3    3    0  502 -0.47729336436E+03  0.12306285719E+03  0.22807443221E+03  0.54311266705E+03  0.25500000920E-02 0.  1.
</event>
<event>
 5   0  0.2277570E-03  0.1001028E+04  0.7818609E-02  0.9307418E-01
       -2   -1    0    0    0  501  0.00000000000E+00  0.00000000000E+00  0.11600183693E+04  0.11600183693E+04  0.25500000920E-02 0. -1.
        2   -1    0    0  501    0  0.00000000000E+00  0.00000000000E+00 -0.21595700402E+03  0.21595700403E+03  0.25500000920E-02 0.  1.
    10030    2    1    2    0    0  0.00000000000E+00  0.00000000000E+00  0.94406136530E+03  0.13759753734E+04  0.10010276553E+04 0.  0.
        3    1    3    3  502    0 -0.47720626979E+03 -0.87421087558E+02  0.64119581447E+03  0.80405245673E+03  0.10100000352E+00 0. -1.
       -3    1    3    3    0  502  0.47720626979E+03  0.87421087558E+02  0.30286555084E+03  0.57192291663E+03  0.10100000352E+00 0.  1.
</event>
<event>
 5   0  0.2277570E-03  0.1028632E+04  0.7818609E-02  0.9277687E-01
        2   -1    0    0  501    0  0.00000000000E+00  0.00000000000E+00  0.11528025770E+04  0.11528025770E+04  0.25500000920E-02 0. -1.
       -2   -1    0    0    0  501  0.00000000000E+00  0.00000000000E+00 -0.22945901557E+03  0.22945901558E+03  0.25500000920E-02 0.  1.
    10030    2    1    2    0    0  0.00000000000E+00  0.00000000000E+00  0.92334356145E+03  0.13822615926E+04  0.10286319934E+04 0.  0.
        3    1    3    3  502    0 -0.20885805241E+03 -0.27506110116E+02  0.10921677578E+04  0.11122988329E+04  0.10100000352E+00 0. -1.
       -3    1    3    3    0  502  0.20885805241E+03  0.27506110116E+02 -0.16882419639E+03  0.26996275972E+03  0.10100000352E+00 0.  1.
</event>
<event>
 5   0  0.1249195E-03  0.1000918E+04  0.7818609E-02  0.9307539E-01
       -1   -1    0    0    0  501  0.00000000000E+00  0.00000000000E+00  0.14288704042E+03  0.14288704051E+03  0.50400001928E-02 0. -1.
        1   -1    0    0  501    0  0.00000000000E+00  0.00000000000E+00 -0.17528468540E+04  0.17528468540E+04  0.50400001928E-02 0.  1.
    10030    2    1    2    0    0  0.00000000000E+00  0.00000000000E+00 -0.16099598136E+04  0.18957338945E+04  0.10009177776E+04 0.  0.
        2    1    3    3  502    0 -0.17082632073E+03  0.29563852962E+03 -0.14979735405E+04  0.15363946434E+04  0.25500000920E-02 0.  1.
       -2    1    3    3    0  502  0.17082632073E+03 -0.29563852962E+03 -0.11198627303E+03  0.35933925113E+03  0.25500000920E-02 0. -1.
</event>
<event>
 5   0  0.2255142E-03  0.9984811E+03  0.7818609E-02  0.9310212E-01
       -2   -1    0    0    0  501  0.00000000000E+00  0.00000000000E+00  0.34076196289E+03  0.34076196290E+03  0.25500000920E-02 0.  1.
        2   -1    0    0  501    0  0.00000000000E+00  0.00000000000E+00 -0.73142302843E+03  0.73142302844E+03  0.25500000920E-02 0. -1.
    10030    2    1    2    0    0  0.00000000000E+00  0.00000000000E+00 -0.39066106555E+03  0.10721849913E+04  0.99848114028E+03 0.  0.
        4    1    3    3  502    0  0.33451356280E+03  0.10202887574E+03  0.18724090477E+03  0.39669885870E+03  0.12699999809E+01 0.  1.
       -4    1    3    3    0  502 -0.33451356280E+03 -0.10202887574E+03 -0.57790197031E+03  0.67548613263E+03  0.12699999809E+01 0. -1.
</event>
<event>
 5   0  0.2277570E-03  0.1003958E+04  0.7818609E-02  0.9304215E-01
        2   -1    0    0  501    0  0.00000000000E+00  0.00000000000E+00  0.74701910329E+03  0.74701910330E+03  0.25500000920E-02 0.  1.
       -2   -1    0    0    0  501  0.00000000000E+00  0.00000000000E+00 -0.33731775149E+03  0.33731775150E+03  0.25500000920E-02 0. -1.
    10030    2    1    2    0    0  0.00000000000E+00  0.00000000000E+00  0.40970135180E+03  0.10843368548E+04  0.10039577765E+04 0.  0.
        3    1    3    3  502    0  0.29922649213E+03 -0.36373010905E+03  0.17321554150E+02  0.47131319976E+03  0.10100000352E+00 0. -1.
       -3    1    3    3    0  502 -0.29922649213E+03  0.36373010905E+03  0.39237979765E+03  0.61302365504E+03  0.10100000352E+00 0.  1.
</event>
<event>
 5   0  0.2277570E-03  0.9999809E+03  0.7818609E-02  0.9308566E-01
       -2   -1    0    0    0  501  0.00000000000E+00  0.00000000000E+00  0.22573000330E+03  0.22573000332E+03  0.25500000920E-02 0. -1.
        2   -1    0    0  501    0  0.00000000000E+00  0.00000000000E+00 -0.11074755314E+04  0.11074755315E+04  0.25500000920E-02 0.  1.
    10030    2    1    2    0    0  0.00000000000E+00  0.00000000000E+00 -0.88174552815E+03  0.13332055348E+04  0.99998091058E+03 0.  0.
        3    1    3    3  502    0  0.68806760756E+02 -0.39362212290E+02 -0.10990443435E+04  0.11018993753E+04  0.10100000352E+00 0.  1.
       -3    1    3    3    0  502 -0.68806760756E+02  0.39362212290E+02  0.21729881533E+03  0.23130615951E+03  0.10100000352E+00 0. -1.
</event>
<event>
 5   0  0.8680125E-04  0.1001545E+04  0.7818609E-02  0.9306852E-01
        3   -1    0    0  501    0  0.00000000000E+00  0.00000000000E+00  0.72915261148E+03  0.72915261847E+03  0.10100000352E+00 0.  1.
       -3   -1    0    0    0  501  0.00000000000E+00  0.00000000000E+00 -0.34392403324E+03  0.34392404807E+03  0.10100000352E+00 0. -1.
    10030    2    1    2    0    0  0.00000000000E+00  0.00000000000E+00  0.38522857824E+03  0.10730766665E+04  0.10015450438E+04 0.  0.
        3    1    3    3  502    0  0.77879263872E+02 -0.40231356266E+03  0.50101192884E+03  0.64725137735E+03  0.10100000352E+00 0.  1.
       -3    1    3    3    0  502 -0.77879263872E+02  0.40231356266E+03 -0.11578335061E+03  0.42582528920E+03  0.10100000352E+00 0. -1.
</event>
<event>
 5   0  0.2277570E-03  0.9929511E+03  0.7818609E-02  0.9316310E-01
        2   -1    0    0  501    0  0.00000000000E+00  0.00000000000E+00  0.16844977618E+04  0.16844977618E+04  0.25500000920E-02 0. -1.
       -2   -1    0    0    0  501  0.00000000000E+00  0.00000000000E+00 -0.14632727886E+03  0.14632727888E+03  0.25500000920E-02 0.  1.
    10030    2    1    2    0    0  0.00000000000E+00  0.00000000000E+00  0.15381704829E+04  0.18308250407E+04  0.99295110402E+03 0.  0.
        3    1    3    3  502    0  0.15671726538E+03  0.46407410779E+02 -0.95299618374E+02  0.18919824657E+03  0.10100000352E+00 0.  1.
       -3    1    3    3    0  502 -0.15671726538E+03 -0.46407410779E+02  0.16334701013E+04  0.16416267941E+04  0.10100000352E+00 0. -1.
</event>
<event>
 5   0  0.2264577E-03  0.1000123E+04  0.7818609E-02  0.9308410E-01
        2   -1    0    0  501    0  0.00000000000E+00  0.00000000000E+00  0.68207160971E+03  0.68207160971E+03  0.25500000920E-02 0.  1.
       -2   -1    0    0    0  501  0.00000000000E+00  0.00000000000E+00 -0.36662080350E+03  0.36662080351E+03  0.25500000920E-02 0. -1.
    10030    2    1    2    0    0  0.00000000000E+00  0.00000000000E+00  0.31545080621E+03  0.10486924132E+04  0.10001232756E+04 0.  0.
        5    1    3    3  502    0 -0.14141944922E+03 -0.10864568570E+03 -0.33211882256E+03  0.37699913520E+03  0.46999998093E+01 0. -1.
       -5    1    3    3    0  502  0.14141944922E+03  0.10864568570E+03  0.64756962877E+03  0.67169327803E+03  0.46999998093E+01 0.  1.
</event>
<event>
 5   0  0.1293716E-03  0.1001620E+04  0.7818609E-02  0.9306769E-01
       -1   -1    0    0    0  501  0.00000000000E+00  0.00000000000E+00  0.88884447896E+03  0.88884447898E+03  0.50400001928E-02 0.  1.
        1   -1    0    0  501    0  0.00000000000E+00  0.00000000000E+00 -0.28217627543E+03  0.28217627547E+03  0.50400001928E-02 0. -1.
    10030    2    1    2    0    0  0.00000000000E+00  0.00000000000E+00  0.60666820354E+03  0.11710207545E+04  0.10016203363E+04 0.  0.
        3    1    3    3  502    0  0.17977251971E+03  0.16524962887E+03  0.81453147237E+03  0.85034529949E+03  0.10100000352E+00 0.  1.
       -3    1    3    3    0  502 -0.17977251971E+03 -0.16524962887E+03 -0.20786326883E+03  0.32067545496E+03  0.10100000352E+00 0. -1.
</event>
<event>
 5   0  0.8680125E-04  0.1002343E+04  0.7818609E-02  0.9305979E-01
       -3   -1    0    0    0  501  0.00000000000E+00  0.00000000000E+00  0.15642405223E+03  0.15642408484E+03  0.10100000352E+00 0.  1.
        3   -1    0    0  501    0  0.00000000000E+00  0.00000000000E+00 -0.16057182121E+04  0.16057182153E+04  0.10100000352E+00 0. -1.
    10030    2    1    2    0    0  0.00000000000E+00  0.00000000000E+00 -0.14492941599E+04  0.17621423001E+04  0.10023432167E+04 0.  0.
        3    1    3    3  502    0  0.54691989900E+02  0.49741604494E+03 -0.67621250380E+03  0.84123557701E+03  0.10100000352E+00 0.  1.
       -3    1    3    3    0  502 -0.54691989900E+02 -0.49741604494E+03 -0.77308165609E+03  0.92090672313E+03  0.10100000352E+00 0. -1.
</event>
<event>
 5   0  0.1249195E-03  0.9995382E+03  0.7818609E-02  0.9309051E-01
       -1   -1    0    0    0  501  0.00000000000E+00  0.00000000000E+00  0.69976095608E+03  0.69976095610E+03  0.50400001928E-02 0.  1.
        1   -1    0    0  501    0  0.00000000000E+00  0.00000000000E+00 -0.35693493070E+03  0.35693493074E+03  0.50400001928E-02 0. -1.
    10030    2    1    2    0    0  0.00000000000E+00  0.00000000000E+00  0.34282602537E+03  0.10566958868E+04  0.99953815014E+03 0.  0.
        2    1    3    3  502    0  0.57921526983E+02 -0.12827133435E+03  0.67837738950E+03  0.69282344150E+03  0.25500000920E-02 0.  1.
       -2    1    3    3    0  502 -0.57921526983E+02  0.12827133435E+03 -0.33555136412E+03  0.36387244534E+03  0.25500000920E-02 0. -1.
</event>
<event>
 5   0  0.1293575E-03  0.1003287E+04  0.7818609E-02  0.9304947E-01
        1   -1    0    0  501    0  0.00000000000E+00  0.00000000000E+00  0.15350300723E+04  0.15350300723E+04  0.50400001928E-02 0.  1.
       -1   -1    0    0    0  501  0.00000000000E+00  0.00000000000E+00 -0.16393578518E+03  0.16393578525E+03  0.50400001928E-02 0. -1.
    10030    2    1    2    0    0  0.00000000000E+00  0.00000000000E+00  0.13710942871E+04  0.16989658576E+04  0.10032873173E+04 0.  0.
        4    1    3    3  502    0  0.14157366171E+03  0.47535694626E+03  0.81269220556E+03  0.95209115211E+03  0.12699999809E+01 0.  1.
       -4    1    3    3    0  502 -0.14157366171E+03 -0.47535694626E+03  0.55840208158E+03  0.74687470546E+03  0.12699999809E+01 0. -1.
</event>
<event>
 5   0  0.2277570E-03  0.1000771E+04  0.7818609E-02  0.9307700E-01
       -2   -1    0    0    0  501  0.00000000000E+00  0.00000000000E+00  0.56489382311E+03  0.56489382312E+03  0.25500000920E-02 0.  1.
        2   -1    0    0  501    0  0.00000000000E+00  0.00000000000E+00 -0.44324342462E+03  0.44324342463E+03  0.25500000920E-02 0. -1.
    10030    2    1    2    0    0  0.00000000000E+00  0.00000000000E+00  0.12165039849E+03  0.10081372477E+04  0.10007706485E+04 0.  0.
        3    1    3    3  502    0  0.76665301019E+01  0.31969187229E+03  0.44852672901E+03  0.55085198169E+03  0.10100000352E+00 0.  1.
       -3    1    3    3    0  502 -0.76665301019E+01 -0.31969187229E+03 -0.32687633052E+03  0.45728526606E+03  0.10100000352E+00 0. -1.
</event>
<event>
 5   0  0.2277570E-03  0.9995996E+03  0.7818609E-02  0.9308984E-01
       -2   -1    0    0    0  501  0.00000000000E+00  0.00000000000E+00  0.14148871154E+03  0.14148871156E+03  0.25500000920E-02 0. -1.
        2   -1    0    0  501    0  0.00000000000E+00  0.00000000000E+00 -0.17655106767E+04  0.17655106767E+04  0.25500000920E-02 0.  1.
    10030    2    1    2    0    0  0.00000000000E+00  0.00000000000E+00 -0.16240219652E+04  0.19069993883E+04  0.99959958159E+03 0.  0.
        3    1    3    3  502    0 -0.43301678134E+03 -0.78101180064E+02 -0.35976043996E+03  0.56835808397E+03  0.10100000352E+00 0. -1.
       -3    1    3    3    0  502  0.43301678134E+03  0.78101180064E+02 -0.12642615252E+04  0.13386413043E+04  0.10100000352E+00 0.  1.
</event>
<event>
 5   0  0.2204862E-03  0.1004472E+04  0.7818609E-02  0.9303653E-01
        2   -1    0    0  501    0  0.00000000000E+00  0.00000000000E+00  0.12218134999E+04  0.12218134999E+04  0.25500000920E-02 0.  1.
       -2   -1    0    0    0  501  0.00000000000E+00  0.00000000000E+00 -0.20644824250E+03  0.20644824252E+03  0.25500000920E-02 0. -1.
    10030    2    1    2    0    0  0.00000000000E+00  0.00000000000E+00  0.10153652574E+04  0.14282617424E+04  0.10044724978E+04 0.  0.
        1    1    3    3  502    0 -0.21231278876E+03 -0.23467945150E+03  0.10622064450E+04  0.11083472818E+04  0.50400001928E-02 0.  1.
       -1    1    3    3    0  502  0.21231278876E+03  0.23467945150E+03 -0.46841187615E+02  0.31991446062E+03  0.50400001928E-02 0. -1.
</event>
<event>
 5   0  0.1353789E-03  0.1000854E+04  0.7818609E-02  0.9307609E-01
        1   -1    0    0  501    0  0.00000000000E+00  0.00000000000E+00  0.98391849416E+03  0.98391849417E+03  0.50400001928E-02 0.  1.
       -1   -1    0    0    0  501  0.00000000000E+00  0.00000000000E+00 -0.25452027344E+03  0.25452027349E+03  0.50400001928E-02 0. -1.
    10030    2    1    2    0    0  0.00000000000E+00  0.00000000000E+00  0.72939822071E+03  0.12384387677E+04  0.10008540437E+04 0.  0.
        1    1    3    3  502    0  0.14323562272E+03 -0.31160566002E+03  0.81564408288E+03  0.88481060173E+03  0.50400001928E-02 0.  1.
       -1    1    3    3    0  502 -0.14323562272E+03  0.31160566002E+03 -0.86245862170E+02  0.35362816593E+03  0.50400001928E-02 0. -1.
</event>
<event>
 5   0  0.2284843E-03  0.1048802E+04  0.7818609E-02  0.9256582E-01
        2   -1    0    0  501    0  0.00000000000E+00  0.00000000000E+00  0.14596199828E+04  0.14596199828E+04  0.25500000920E-02 0. -1.
       -2   -1    0    0    0  501  0.00000000000E+00  0.00000000000E+00 -0.18840278907E+03  0.18840278908E+03  0.25500000920E-02 0.  1.
    10030    2    1    2    0    0  0.00000000000E+00  0.00000000000E+00  0.12712171937E+04  0.16480227718E+04  0.10488021277E+04 0.  0.
        2    1    3    3  502    0 -0.39901443982E+03  0.55659047873E+02  0.11630869898E+04  0.12308865905E+04  0.25500000920E-02 0. -1.
       -2    1    3    3    0  502  0.39901443982E+03 -0.55659047873E+02  0.10813020389E+03  0.41713618136E+03  0.25500000920E-02 0.  1.
</event>
<event>
 5   0  0.2277570E-03  0.9824291E+03  0.7818609E-02  0.9328029E-01
        2   -1    0    0  501    0  0.00000000000E+00  0.00000000000E+00  0.12775926239E+04  0.12775926239E+04  0.25500000920E-02 0. -1.
       -2   -1    0    0    0  501  0.00000000000E+00  0.00000000000E+00 -0.18886436743E+03  0.18886436745E+03  0.25500000920E-02 0.  1.
    10030    2    1    2    0    0  0.00000000000E+00  0.00000000000E+00  0.10887282565E+04  0.14664569913E+04  0.98242907685E+03 0.  0.
        3    1    3    3  502    0 -0.28177252264E+03  0.32680354651E+03  0.19399503192E+03  0.47310717088E+03  0.10100000352E+00 0.  1.
       -3    1    3    3    0  502  0.28177252264E+03 -0.32680354651E+03  0.89473322454E+03  0.99334982046E+03  0.10100000352E+00 0. -1.
</event>
<event>
 5   0  0.1353789E-03  0.9886743E+03  0.7818609E-02  0.9321055E-01
       -1   -1    0    0    0  501  0.00000000000E+00  0.00000000000E+00  0.16539246336E+03  0.16539246343E+03  0.50400001928E-02 0.  1.
        1   -1    0    0  501    0  0.00000000000E+00  0.00000000000E+00 -0.14775112046E+04  0.14775112046E+04  0.50400001928E-02 0. -1.
    10030    2    1    2    0    0  0.00000000000E+00  0.00000000000E+00 -0.13121187412E+04  0.16429036680E+04  0.98867429993E+03 0.  0.
        1    1    3    3  502    0  0.38119912959E+03 -0.16651102443E+03 -0.21224991624E+03  0.46699970517E+03  0.50400001928E-02 0.  1.
       -1    1    3    3    0  502 -0.38119912959E+03  0.16651102443E+03 -0.10998688250E+04  0.11759039629E+04  0.50400001928E-02 0. -1.
</event>
<event>
 5   0  0.2255142E-03  0.1005385E+04  0.7818609E-02  0.9302658E-01
        2   -1    0    0  501    0  0.00000000000E+00  0.00000000000E+00  0.10290550668E+04  0.10290550669E+04  0.25500000920E-02 0.  1.
       -2   -1    0    0    0  501  0.00000000000E+00  0.00000000000E+00 -0.24556478798E+03  0.24556478799E+03  0.25500000920E-02 0. -1.
    10030    2    1    2    0    0  0.00000000000E+00  0.00000000000E+00  0.78349027887E+03  0.12746198548E+04  0.10053848802E+04 0.  0.
        4    1    3    3  502    0  0.39288903622E+03  0.23565234577E+03  0.65404121553E+03  0.79853950895E+03  0.12699999809E+01 0.  1.
       -4    1    3    3    0  502 -0.39288903622E+03 -0.23565234577E+03  0.12944906334E+03  0.47608034589E+03  0.12699999809E+01 0. -1.
</event>
<event>
 5   0  0.1285769E-03  0.9980728E+03  0.7818609E-02  0.9310661E-01
        1   -1    0    0  501    0  0.00000000000E+00  0.00000000000E+00  0.56268634646E+03  0.56268634648E+03  0.50400001928E-02 0. -1.
       -1   -1    0    0    0  501  0.00000000000E+00  0.00000000000E+00 -0.44258642310E+03  0.44258642313E+03  0.50400001928E-02 0.  1.
    10030    2    1    2    0    0  0.00000000000E+00  0.00000000000E+00  0.12009992336E+03  0.10052727696E+04  0.99807281785E+03 0.  0.
        5    1    3    3  502    0 -0.32864259611E+03  0.35085181481E+03 -0.74752341814E+02  0.48653155554E+03  0.46999998093E+01 0.  1.
       -5    1    3    3    0  502  0.32864259611E+03 -0.35085181481E+03  0.19485226517E+03  0.51874121407E+03  0.46999998093E+01 0. -1.
</event>
<event>
 5   0  0.2264577E-03  0.9953835E+03  0.7818609E-02  0.9313623E-01
        2   -1    0    0  501    0  0.00000000000E+00  0.00000000000E+00  0.21553730696E+04  0.21553730696E+04  0.25500000920E-02 0. -1.
       -2   -1    0    0    0  501  0.00000000000E+00  0.00000000000E+00 -0.11492074238E+03  0.11492074241E+03  0.25500000920E-02 0.  1.
    10030    2    1    2    0    0  0.00000000000E+00  0.00000000000E+00  0.20404523272E+04  0.22702938120E+04  0.99538349053E+03 0.  0.
        5    1    3    3  502    0 -0.27434507829E+03  0.23635199936E+03  0.17988776223E+04  0.18349687408E+04  0.46999998093E+01 0. -1.
       -5    1    3    3    0  502  0.27434507829E+03 -0.23635199936E+03  0.24157470486E+03  0.43532507119E+03  0.46999998093E+01 0.  1.
</event>
<event>
 5   0  0.2255142E-03  0.1001508E+04  0.7818609E-02  0.9306892E-01
       -2   -1    0    0    0  501  0.00000000000E+00  0.00000000000E+00  0.12891010495E+03  0.12891010497E+03  0.25500000920E-02 0.  1.
        2   -1    0    0  501    0  0.00000000000E+00  0.00000000000E+00 -0.19451897242E+04  0.19451897242E+04  0.25500000920E-02 0. -1.
    10030    2    1    2    0    0  0.00000000000E+00  0.00000000000E+00 -0.18162796192E+04  0.20740998292E+04  0.10015080859E+04 0.  0.
        4    1    3    3  502    0  0.13787830395E+03  0.89252000306E+02  0.71536445625E+02  0.17915195285E+03  0.12699999809E+01 0.  1.
       -4    1    3    3    0  502 -0.13787830395E+03 -0.89252000306E+02 -0.18878160649E+04  0.18949478763E+04  0.12699999809E+01 0. -1.
</event>
<event>
 5   0  0.2277570E-03  0.9979849E+03  0.7818609E-02  0.9310758E-01
        2   -1    0    0  501    0  0.00000000000E+00  0.00000000000E+00  0.84491775316E+03  0.84491775317E+03  0.25500000920E-02 0.  1.
       -2   -1    0    0    0  501  0.00000000000E+00  0.00000000000E+00 -0.29469553460E+03  0.29469553461E+03  0.25500000920E-02 0. -1.
    10030    2    1    2    0    0  0.00000000000E+00  0.00000000000E+00  0.55022221857E+03  0.11396132878E+04  0.99798494771E+03 0.  0.
        3    1    3    3  502    0 -0.42484706158E+02 -0.24660677665E+03 -0.21786485030E+03  0.33179052992E+03  0.10100000352E+00 0. -1.
       -3    1    3    3    0  502  0.42484706158E+02  0.24660677665E+03  0.76808706887E+03  0.80782275786E+03  0.10100000352E+00 0.  1.
</event>
<event>
 5   0  0.2277570E-03  0.1001557E+04  0.7818609E-02  0.9306839E-01
       -2   -1    0    0    0  501  0.00000000000E+00  0.00000000000E+00  0.70628198468E+03  0.70628198468E+03  0.25500000920E-02 0. -1.
        2   -1    0    0  501    0  0.00000000000E+00  0.00000000000E+00 -0.35506934393E+03  0.35506934394E+03  0.25500000920E-02 0.  1.
    10030    2    1    2    0    0  0.00000000000E+00  0.00000000000E+00  0.35121264075E+03  0.10613513286E+04  0.10015569498E+04 0.  0.
        3    1    3    3  502    0  0.99373183189E+02  0.45002189479E+03 -0.32009542074E+02  0.46197332857E+03  0.10100000352E+00 0. -1.
       -3    1    3    3    0  502 -0.99373183189E+02 -0.45002189479E+03  0.38322218283E+03  0.59937800005E+03  0.10100000352E+00 0.  1.
</event>
<event>
 5   0  0.2255142E-03  0.1010142E+04  0.7818609E-02  0.9297490E-01
        2   -1    0    0  501    0  0.00000000000E+00  0.00000000000E+00  0.63164797623E+03  0.63164797624E+03  0.25500000920E-02 0.  1.
       -2   -1    0    0    0  501  0.00000000000E+00  0.00000000000E+00 -0.40385914647E+03  0.40385914648E+03  0.25500000920E-02 0. -1.
    10030    2    1    2    0    0  0.00000000000E+00  0.00000000000E+00  0.22778882976E+03  0.10355071227E+04  0.10101421931E+04 0.  0.
        4    1    3    3  502    0  0.34042770735E+03  0.78328633003E+02 -0.26005142030E+03  0.43549368857E+03  0.12699999809E+01 0. -1.
       -4    1    3    3    0  502 -0.34042770735E+03 -0.78328633003E+02  0.48784025006E+03  0.60001343415E+03  0.12699999809E+01 0.  1.
</event>
<event>
 5   0  0.2277570E-03  0.9972527E+03  0.7818609E-02  0.9311563E-01
       -2   -1    0    0    0  501  0.00000000000E+00  0.00000000000E+00  0.20760591039E+03  0.20760591041E+03  0.25500000920E-02 0.  1.
        2   -1    0    0  501    0  0.00000000000E+00  0.00000000000E+00 -0.11975971202E+04  0.11975971202E+04  0.25500000920E-02 0. -1.
    10030    2    1    2    0    0  0.00000000000E+00  0.00000000000E+00 -0.98999120980E+03  0.14052030306E+04  0.99725270706E+03 0.  0.
        3    1    3    3  502    0 -0.13349435057E+03 -0.39837566576E+03 -0.87336368315E+03  0.96916873967E+03  0.10100000352E+00 0.  1.
       -3    1    3    3    0  502  0.13349435057E+03  0.39837566576E+03 -0.11662752665E+03  0.43603429094E+03  0.10100000352E+00 0. -1.
</event>
<event>
 5   0  0.8680125E-04  0.1000075E+04  0.7818609E-02  0.9308463E-01
       -3   -1    0    0    0  501  0.00000000000E+00  0.00000000000E+00  0.56298082303E+03  0.56298083209E+03  0.10100000352E+00 0. -1.
        3   -1    0    0  501    0  0.00000000000E+00  0.00000000000E+00 -0.44413118302E+03  0.44413119450E+03  0.10100000352E+00 0.  1.
    10030    2    1    2    0    0  0.00000000000E+00  0.00000000000E+00  0.11884964002E+03  0.10071120266E+04  0.10000746958E+04 0.  0.
        3    1    3    3  502    0 -0.45344910019E+03 -0.11856282502E+03  0.23490400774E+03  0.52426437318E+03  0.10100000352E+00 0.  1.
       -3    1    3    3    0  502  0.45344910019E+03  0.11856282502E+03 -0.11605436772E+03  0.48284765341E+03  0.10100000352E+00 0. -1.
</event>
<event>
 5   0  0.1285769E-03  0.1004403E+04  0.7818609E-02  0.9303728E-01
        1   -1    0    0  501    0  0.00000000000E+00  0.00000000000E+00  0.99807982836E+03  0.99807982837E+03  0.50400001928E-02 0.  1.
       -1   -1    0    0    0  501  0.00000000000E+00  0.00000000000E+00 -0.25269180442E+03  0.25269180447E+03  0.50400001928E-02 0. -1.
    10030    2    1    2    0    0  0.00000000000E+00  0.00000000000E+00  0.74538802394E+03  0.12507716328E+04  0.10044034903E+04 0.  0.
        5    1    3    3  502    0  0.43476255080E+03  0.10048815223E+03  0.65956512514E+03  0.79634451628E+03  0.46999998093E+01 0.  1.
       -5    1    3    3    0  502 -0.43476255080E+03 -0.10048815223E+03  0.85822898799E+02  0.45442711657E+03  0.46999998093E+01 0. -1.
</event>
<event>
 5   0  0.2204862E-03  0.1000187E+04  0.7818609E-02  0.9308340E-01
       -2   -1    0    0    0  501  0.00000000000E+00  0.00000000000E+00  0.18480139507E+03  0.18480139508E+03  0.25500000920E-02 0.  1.
        2   -1    0    0  501    0  0.00000000000E+00  0.00000000000E+00 -0.13533099771E+04  0.13533099771E+04  0.25500000920E-02 0. -1.
    10030    2    1    2    0    0  0.00000000000E+00  0.00000000000E+00 -0.11685085821E+04  0.15381113722E+04  0.10001871260E+04 0.  0.
        1    1    3    3  502    0 -0.35997433080E+03 -0.69917169740E+02 -0.11071677812E+04  0.11663148911E+04  0.50400001928E-02 0. -1.
       -1    1    3    3    0  502  0.35997433080E+03  0.69917169740E+02 -0.61340800813E+02  0.37179648106E+03  0.50400001928E-02 0.  1.
</event>
<event>
 5   0  0.1353789E-03  0.1006953E+04  0.7818609E-02  0.9300952E-01
       -1   -1    0    0    0  501  0.00000000000E+00  0.00000000000E+00  0.28419889285E+04  0.28419889285E+04  0.50400001928E-02 0.  1.
        1   -1    0    0  501    0  0.00000000000E+00  0.00000000000E+00 -0.89194083433E+02  0.89194083575E+02  0.50400001928E-02 0. -1.
    10030    2    1    2    0    0  0.00000000000E+00  0.00000000000E+00  0.27527948451E+04  0.29311830121E+04  0.10069530234E+04 0.  0.
        1    1    3    3  502    0  0.14367849733E+03 -0.39440514362E+03  0.21856693042E+04  0.22256121035E+04  0.50400001928E-02 0.  1.
       -1    1    3    3    0  502 -0.14367849733E+03  0.39440514362E+03  0.56712554089E+03  0.70557090860E+03  0.50400001928E-02 0. -1.
</event>
<event>
 5   0  0.2255142E-03  0.1000470E+04  0.7818609E-02  0.9308029E-01
        2   -1    0    0  501    0  0.00000000000E+00  0.00000000000E+00  0.12186062759E+04  0.12186062759E+04  0.25500000920E-02 0. -1.
       -2   -1    0    0    0  501  0.00000000000E+00  0.00000000000E+00 -0.20534533113E+03  0.20534533115E+03  0.25500000920E-02 0.  1.
    10030    2    1    2    0    0  0.00000000000E+00  0.00000000000E+00  0.10132609448E+04  0.14239516071E+04  0.10004701080E+04 0.  0.
        4    1    3    3  502    0 -0.31176200812E+03  0.74182898792E+02  0.10533170535E+04  0.11009891372E+04  0.12699999809E+01 0.  1.
       -4    1    3    3    0  502  0.31176200812E+03 -0.74182898792E+02 -0.40056108722E+02  0.32296246985E+03  0.12699999809E+01 0. -1.
</event>
<event>
 5   0  0.2255142E-03  0.9987918E+03  0.7818609E-02  0.9309871E-01
        2   -1    0    0  501    0  0.00000000000E+00  0.00000000000E+00  0.13282189157E+04  0.13282189157E+04  0.25500000920E-02 0.  1.
       -2   -1    0    0    0  501  0.00000000000E+00  0.00000000000E+00 -0.18776743214E+03  0.18776743215E+03  0.25500000920E-02 0. -1.
    10030    2    1    2    0    0  0.00000000000E+00  0.00000000000E+00  0.11404514836E+04  0.15159863479E+04  0.99879178036E+03 0.  0.
        4    1    3    3  502    0 -0.11375039207E+03 -0.38639808578E+03  0.12214215699E+03  0.42090729597E+03  0.12699999809E+01 0. -1.
       -4    1    3    3    0  502  0.11375039207E+03  0.38639808578E+03  0.10183093266E+04  0.10950790519E+04  0.12699999809E+01 0.  1.
</event>
<event>
 5   0  0.8680125E-04  0.1034395E+04  0.7818609E-02  0.9271605E-01
        3   -1    0    0  501    0  0.00000000000E+00  0.00000000000E+00  0.83041156309E+03  0.83041156923E+03  0.10100000352E+00 0. -1.
       -3   -1    0    0    0  501  0.00000000000E+00  0.00000000000E+00 -0.32212158916E+03  0.32212160499E+03  0.10100000352E+00 0.  1.
    10030    2    1    2    0    0  0.00000000000E+00  0.00000000000E+00  0.50828997393E+03  0.11525331742E+04  0.10343954853E+04 0.  0.
        2    1    3    3  502    0 -0.24364483658E+03 -0.45393312672E+03  0.20338525693E+03  0.55388054007E+03  0.25500000920E-02 0. -1.
       -2    1    3    3    0  502  0.24364483658E+03  0.45393312672E+03  0.30490471700E+03  0.59865263416E+03  0.25500000920E-02 0.  1.
</event>
<event>
 5   0  0.2255142E-03  0.1004499E+04  0.7818609E-02  0.9303624E-01
        2   -1    0    0  501    0  0.00000000000E+00  0.00000000000E+00  0.11714388331E+04  0.11714388331E+04  0.25500000920E-02 0.  1.
       -2   -1    0    0    0  501  0.00000000000E+00  0.00000000000E+00 -0.21533747122E+03  0.21533747124E+03  0.25500000920E-02 0. -1.
    10030    2    1    2    0    0  0.00000000000E+00  0.00000000000E+00  0.95610136190E+03  0.13867763044E+04  0.10044992305E+04 0.  0.
        4    1    3    3  502    0  0.42334528088E+03 -0.78200104921E+02  0.12092286987E+03  0.44716936010E+03  0.12699999809E+01 0. -1.
       -4    1    3    3    0  502 -0.42334528088E+03  0.78200104921E+02  0.83517849203E+03  0.93960694426E+03  0.12699999809E+01 0.  1.
</event>
<event>
 5   0  0.2204862E-03  0.9983094E+03  0.7818609E-02  0.9310401E-01
       -2   -1    0    0    0  501  0.00000000000E+00  0.00000000000E+00  0.53876619763E+03  0.53876619764E+03  0.25500000920E-02 0.  1.
        2   -1    0    0  501    0  0.00000000000E+00  0.00000000000E+00 -0.46245557847E+03  0.46245557847E+03  0.25500000920E-02 0. -1.
    10030    2    1    2    0    0  0.00000000000E+00  0.00000000000E+00  0.76310619167E+02  0.10012217761E+04  0.99830943819E+03 0.  0.
        1    1    3    3  502    0 -0.65122079521E+02  0.29635880334E+03 -0.35934169594E+03  0.47031466066E+03  0.50400001928E-02 0. -1.
       -1    1    3    3    0  502  0.65122079521E+02 -0.29635880334E+03  0.43565231511E+03  0.53090711546E+03  0.50400001928E-02 0.  1.
</event>
<event>
 5   0  0.1293575E-03  0.1002935E+04  0.7818609E-02  0.9305332E-01
        1   -1    0    0  501    0  0.00000000000E+00  0.00000000000E+00  0.33273577151E+04  0.33273577151E+04  0.50400001928E-02 0. -1.
       -1   -1    0    0    0  501  0.00000000000E+00  0.00000000000E+00 -0.75576353937E+02  0.75576354105E+02  0.50400001928E-02 0.  1.
    10030    2    1    2    0    0  0.00000000000E+00  0.00000000000E+00  0.32517813612E+04  0.34029340692E+04  0.10029348227E+04 0.  0.
        4    1    3    3  502    0 -0.12107310646E+03  0.32408267649E+03  0.39419040746E+03  0.52447685224E+03  0.12699999809E+01 0.  1.
       -4    1    3    3    0  502  0.12107310646E+03 -0.32408267649E+03  0.28575909537E+04  0.28784572170E+04  0.12699999809E+01 0. -1.
</event>
<event>
 5   0  0.8680125E-04  0.1000634E+04  0.7818609E-02  0.9307850E-01
        3   -1    0    0  501    0  0.00000000000E+00  0.00000000000E+00  0.50359847725E+03  0.50359848738E+03  0.10100000352E+00 0. -1.
       -3   -1    0    0    0  501  0.00000000000E+00  0.00000000000E+00 -0.49705641447E+03  0.49705642474E+03  0.10100000352E+00 0.  1.
    10030    2    1    2    0    0  0.00000000000E+00  0.00000000000E+00  0.65420627791E+01  0.10006549121E+04  0.10006335266E+04 0.  0.
        4    1    3    3  502    0  0.21722570432E+03  0.17729663030E+03 -0.41109775119E+03  0.49761840366E+03  0.12699999809E+01 0.  1.
       -4    1    3    3    0  502 -0.21722570432E+03 -0.17729663030E+03  0.41763981396E+03  0.50303650846E+03  0.12699999809E+01 0. -1.
</event>
<event>
 5   0  0.1285769E-03  0.9965785E+03  0.7818609E-02  0.9312305E-01
       -1   -1    0    0    0  501  0.00000000000E+00  0.00000000000E+00  0.15189958894E+03  0.15189958902E+03  0.50400001928E-02 0. -1.
        1   -1    0    0  501    0  0.00000000000E+00  0.00000000000E+00 -0.16345808650E+04  0.16345808650E+04  0.50400001928E-02 0.  1.
    10030    2    1    2    0    0  0.00000000000E+00  0.00000000000E+00 -0.14826812760E+04  0.17864804540E+04  0.99657846967E+03 0.  0.
        5    1    3    3  502    0 -0.31080676498E+03 -0.21818827789E+01 -0.14394584011E+04  0.14726398692E+04  0.46999998093E+01 0.  1.
       -5    1    3    3    0  502  0.31080676498E+03  0.21818827789E+01 -0.43222874928E+02  0.31384058482E+03  0.46999998093E+01 0. -1.
</event>
<event>
 5   0  0.2255142E-03  0.1022986E+04  0.7818609E-02  0.9283687E-01
        2   -1    0    0  501    0  0.00000000000E+00  0.00000000000E+00  0.14015209123E+04  0.14015209123E+04  0.25500000920E-02 0.  1.
       -2   -1    0    0    0  501  0.00000000000E+00  0.00000000000E+00 -0.18667223203E+03  0.18667223204E+03  0.25500000920E-02 0. -1.
    10030    2    1    2    0    0  0.00000000000E+00  0.00000000000E+00  0.12148486803E+04  0.15881931444E+04  0.10229858981E+04 0.  0.
        4    1    3    3  502    0  0.20627001601E+03  0.23006082252E+03 -0.25397397628E+02  0.31003538874E+03  0.12699999809E+01 0. -1.
       -4    1    3    3    0  502 -0.20627001601E+03 -0.23006082252E+03  0.12402460779E+04  0.12781577556E+04  0.12699999809E+01 0.  1.
</event>
<event>
 5   0  0.2204862E-03  0.1004795E+04  0.7818609E-02  0.9303301E-01
        2   -1    0    0  501    0  0.00000000000E+00  0.00000000000E+00  0.22428925647E+03  0.22428925648E+03  0.25500000920E-02 0. -1.
       -2   -1    0    0    0  501  0.00000000000E+00  0.00000000000E+00 -0.11253468756E+04  0.11253468756E+04  0.25500000920E-02 0.  1.
    10030    2    1    2    0    0  0.00000000000E+00  0.00000000000E+00 -0.90105761915E+03  0.13496361321E+04  0.10047949323E+04 0.  0.
        1    1    3    3  502    0 -0.29535656354E+03  0.11034627968E+02 -0.99621341038E+03  0.10391334956E+04  0.50400001928E-02 0.  1.
       -1    1    3    3    0  502  0.29535656354E+03 -0.11034627968E+02  0.95155791229E+02  0.31050263650E+03  0.50400001928E-02 0. -1.
</event>
<event>
 5   0  0.2284843E-03  0.1000837E+04  0.7818609E-02  0.9307627E-01
        2   -1    0    0  501    0  0.00000000000E+00  0.00000000000E+00  0.99213699949E+03  0.99213699950E+03  0.25500000920E-02 0.  1.
       -2   -1    0    0    0  501  0.00000000000E+00  0.00000000000E+00 -0.25240333490E+03  0.25240333492E+03  0.25500000920E-02 0. -1.
    10030    2    1    2    0    0  0.00000000000E+00  0.00000000000E+00  0.73973366459E+03  0.12445403344E+04  0.10008370244E+04 0.  0.
        2    1    3    3  502    0 -0.48009357655E+03  0.54171004739E+02  0.20776129177E+03  0.52591738359E+03  0.25500000920E-02 0. -1.
       -2    1    3    3    0  502  0.48009357655E+03 -0.54171004739E+02  0.53197237282E+03  0.71862295082E+03  0.25500000920E-02 0.  1.
</event>
<event>
 5   0  0.2264577E-03  0.9994494E+03  0.7818609E-02  0.9309149E-01
       -2   -1    0    0    0  501  0.00000000000E+00  0.00000000000E+00  0.25971313677E+03  0.25971313679E+03  0.25500000920E-02 0.  1.
        2   -1    0    0  501    0  0.00000000000E+00  0.00000000000E+00 -0.96154073878E+03  0.96154073878E+03  0.25500000920E-02 0. -1.
    10030    2    1    2    0    0  0.00000000000E+00  0.00000000000E+00 -0.70182760201E+03  0.12212538756E+04  0.99944937123E+03 0.  0.
        5    1    3    3  502    0 -0.65240926582E+02 -0.44650329957E+03 -0.61321879406E+03  0.76136781808E+03  0.46999998093E+01 0. -1.
       -5    1    3    3    0  502  0.65240926582E+02  0.44650329957E+03 -0.88608807947E+02  0.45988605749E+03  0.46999998093E+01 0.  1.
</event>
<event>
 5   0  0.2284843E-03  0.1001140E+04  0.7818609E-02  0.9307296E-01
        2   -1    0    0  501    0  0.00000000000E+00  0.00000000000E+00  0.32044606812E+03  0.32044606813E+03  0.25500000920E-02 0. -1.
       -2   -1    0    0    0  501  0.00000000000E+00  0.00000000000E+00 -0.78194177520E+03  0.78194177520E+03  0.25500000920E-02 0.  1.
    10030    2    1    2    0    0  0.00000000000E+00  0.00000000000E+00 -0.46149570708E+03  0.11023878433E+04  0.10011396853E+04 0.  0.
        2    1    3    3  502    0 -0.23485550183E+02 -0.44992486969E+03 -0.47095188224E+03  0.65175120623E+03  0.25500000920E-02 0.  1.
       -2    1    3    3    0  502  0.23485550183E+02  0.44992486969E+03  0.94561751572E+01  0.45063663709E+03  0.25500000920E-02 0. -1.
</event>
<event>
 5   0  0.1293716E-03  0.1000057E+04  0.7818609E-02  0.9308482E-01
        1   -1    0    0  501    0  0.00000000000E+00  0.00000000000E+00  0.31283656859E+03  0.31283656863E+03  0.50400001928E-02 0.  1.
       -1   -1    0    0    0  501  0.00000000000E+00  0.00000000000E+00 -0.79923034376E+03  0.79923034378E+03  0.50400001928E-02 0. -1.
    10030    2    1    2    0    0  0.00000000000E+00  0.00000000000E+00 -0.48639377517E+03  0.11120669124E+04  0.10000569550E+04 0.  0.
        3    1    3    3  502    0 -0.13939824757E+02 -0.16989635584E+03 -0.76592063548E+03  0.78466140501E+03  0.10100000352E+00 0. -1.
       -3    1    3    3    0  502  0.13939824757E+02  0.16989635584E+03  0.27952686031E+03  0.32740550741E+03  0.10100000352E+00 0.  1.
</event>
<event>
 5   0  0.2204862E-03  0.9970925E+03  0.7818609E-02  0.9311739E-01
       -2   -1    0    0    0  501  0.00000000000E+00  0.00000000000E+00  0.18449829196E+03  0.18449829198E+03  0.25500000920E-02 0.  1.
        2   -1    0    0  501    0  0.00000000000E+00  0.00000000000E+00 -0.13471580124E+04  0.13471580124E+04  0.25500000920E-02 0. -1.
    10030    2    1    2    0    0  0.00000000000E+00  0.00000000000E+00 -0.11626597205E+04  0.15316563044E+04  0.99709247778E+03 0.  0.
        1    1    3    3  502    0 -0.14118708086E+03 -0.44402968582E+03 -0.30890208263E+03  0.55903188672E+03  0.50400001928E-02 0.  1.
       -1    1    3    3    0  502  0.14118708086E+03  0.44402968582E+03 -0.85375763785E+03  0.97262441770E+03  0.50400001928E-02 0. -1.
</event>
<event>
 5   0  0.1249195E-03  0.1036412E+04  0.7818609E-02  0.9269486E-01
        1   -1    0    0  501    0  0.00000000000E+00  0.00000000000E+00  0.40912472230E+03  0.40912472233E+03  0.50400001928E-02 0.  1.
       -1   -1    0    0    0  501  0.00000000000E+00  0.00000000000E+00 -0.65637120199E+03  0.65637120201E+03  0.50400001928E-02 0. -1.
    10030    2    1    2    0    0  0.00000000000E+00  0.00000000000E+00 -0.24724647969E+03  0.10654959243E+04  0.10364124387E+04 0.  0.
        2    1    3    3  502    0  0.27602010851E+03 -0.42161773361E+03  0.55142956310E+00  0.50393344568E+03  0.25500000920E-02 0.  1.
       -2    1    3    3    0  502 -0.27602010851E+03  0.42161773361E+03 -0.24779790926E+03  0.56156247866E+03  0.25500000920E-02 0. -1.
</event>
<event>
 5   0  0.1293575E-03  0.1008202E+04  0.7818609E-02  0.9299594E-01
        1   -1    0    0  501    0  0.00000000000E+00  0.00000000000E+00  0.96249202006E+03  0.96249202007E+03  0.50400001928E-02 0. -1.
       -1   -1    0    0    0  501  0.00000000000E+00  0.00000000000E+00 -0.26402095556E+03  0.26402095561E+03  0.50400001928E-02 0.  1.
    10030    2    1    2    0    0  0.00000000000E+00  0.00000000000E+00  0.69847106450E+03  0.12265129757E+04  0.10082024854E+04 0.  0.
        4    1    3    3  502    0  0.26209481753E+03 -0.24182853968E+03  0.78267311175E+03  0.86008926789E+03  0.12699999809E+01 0. -1.
       -4    1    3    3    0  502 -0.26209481753E+03  0.24182853968E+03 -0.84202047252E+02  0.36642370780E+03  0.12699999809E+01 0.  1.
</event>
<event>
 5   0  0.2277570E-03  0.9991900E+03  0.7818609E-02  0.9309434E-01
       -2   -1    0    0    0  501  0.00000000000E+00  0.00000000000E+00  0.13246440846E+03  0.13246440849E+03  0.25500000920E-02 0.  1.
        2   -1    0    0  501    0  0.00000000000E+00  0.00000000000E+00 -0.18842433677E+04  0.18842433677E+04  0.25500000920E-02 0. -1.
    10030    2    1    2    0    0  0.00000000000E+00  0.00000000000E+00 -0.17517789593E+04  0.20167077762E+04  0.99919003825E+03 0.  0.
        3    1    3    3  502    0 -0.26252335210E+03 -0.37973803842E+03 -0.49041413632E+03  0.67351727782E+03  0.10100000352E+00 0.  1.
       -3    1    3    3    0  502  0.26252335210E+03  0.37973803842E+03 -0.12613648229E+04  0.13431904984E+04  0.10100000352E+00 0. -1.
</event>
<event>
 5   0  0.2264577E-03  0.9989842E+03  0.7818609E-02  0.9309660E-01
        2   -1    0    0  501    0  0.00000000000E+00  0.00000000000E+00  0.12774357274E+04  0.12774357274E+04  0.25500000920E-02 0. -1.
       -2   -1    0    0    0  501  0.00000000000E+00  0.00000000000E+00 -0.19530718654E+03  0.19530718655E+03  0.25500000920E-02 0.  1.
    10030    2    1    2    0    0  0.00000000000E+00  0.00000000000E+00  0.10821285408E+04  0.14727429139E+04  0.99898423992E+03 0.  0.
        5    1    3    3  502    0 -0.47392752869E+03  0.13165328160E+03  0.41313282813E+03  0.64237116427E+03  0.46999998093E+01 0.  1.
       -5    1    3    3    0  502  0.47392752869E+03 -0.13165328160E+03  0.66899571269E+03  0.83037174964E+03  0.46999998093E+01 0. -1.
</event>
<event>
 5   0  0.8680125E-04  0.9911417E+03  0.7818609E-02  0.9318314E-01
       -3   -1    0    0    0  501  0.00000000000E+00  0.00000000000E+00  0.38048993887E+03  0.38048995227E+03  0.10100000352E+00 0.  1.
        3   -1    0    0  501    0  0.00000000000E+00  0.00000000000E+00 -0.64545846327E+03  0.64545847117E+03  0.10100000352E+00 0. -1.
    10030    2    1    2    0    0  0.00000000000E+00  0.00000000000E+00 -0.26496852440E+03  0.10259484234E+04  0.99114168949E+03 0.  0.
        3    1    3    3  502    0  0.27761963316E+02  0.82156332421E+02 -0.63754333542E+03  0.64341425559E+03  0.10100000352E+00 0. -1.
       -3    1    3    3    0  502 -0.27761963316E+02 -0.82156332421E+02  0.37257481102E+03  0.38253416785E+03  0.10100000352E+00 0.  1.
</event>
<event>
 5   0  0.8680125E-04  0.9956608E+03  0.7818609E-02  0.9313317E-01
       -3   -1    0    0    0  501  0.00000000000E+00  0.00000000000E+00  0.17950233669E+03  0.17950236511E+03  0.10100000352E+00 0.  1.
        3   -1    0    0  501    0  0.00000000000E+00  0.00000000000E+00 -0.13806789653E+04  0.13806789690E+04  0.10100000352E+00 0. -1.
    10030    2    1    2    0    0  0.00000000000E+00  0.00000000000E+00 -0.12011766286E+04  0.15601813341E+04  0.99566083690E+03 0.  0.
        4    1    3    3  502    0  0.53997886267E+02  0.47094390403E+03 -0.83890120119E+03  0.96356669240E+03  0.12699999809E+01 0. -1.
       -4    1    3    3    0  502 -0.53997886267E+02 -0.47094390403E+03 -0.36227542739E+03  0.59661464167E+03  0.12699999809E+01 0.  1.
</event>
<event>
 5   0  0.2264577E-03  0.1024231E+04  0.7818609E-02  0.9282361E-01
        2   -1    0    0  501    0  0.00000000000E+00  0.00000000000E+00  0.54877100686E+03  0.54877100687E+03  0.25500000920E-02 0.  1.
       -2   -1    0    0    0  501  0.00000000000E+00  0.00000000000E+00 -0.47790848185E+03  0.47790848186E+03  0.25500000920E-02 0. -1.
    10030    2    1    2    0    0  0.00000000000E+00  0.00000000000E+00  0.70862525009E+02  0.10266794887E+04  0.10242310653E+04 0.  0.
        5    1    3    3  502    0  0.49664835775E+03  0.39728292510E+02 -0.83182924199E+02  0.50515286534E+03  0.46999998093E+01 0.  1.
       -5    1    3    3    0  502 -0.49664835775E+03 -0.39728292510E+02  0.15404544921E+03  0.52152662339E+03  0.46999998093E+01 0. -1.
</event>
<event>
 5   0  0.2204862E-03  0.1004519E+04  0.7818609E-02  0.9303602E-01
       -2   -1    0    0    0  501  0.00000000000E+00  0.00000000000E+00  0.12207709713E+03  0.12207709715E+03  0.25500000920E-02 0.  1.
        2   -1    0    0  501    0  0.00000000000E+00  0.00000000000E+00 -0.20664379370E+04  0.20664379370E+04  0.25500000920E-02 0. -1.
    10030    2    1    2    0    0  0.00000000000E+00  0.00000000000E+00 -0.19443608399E+04  0.21885150342E+04  0.10045192776E+04 0.  0.
        1    1    3    3  502    0 -0.95285842774E+02  0.16863679213E+03  0.37432260506E+02  0.19727882209E+03  0.50400001928E-02 0.  1.
       -1    1    3    3    0  502  0.95285842774E+02 -0.16863679213E+03 -0.19817931004E+04  0.19912362121E+04  0.50400001928E-02 0. -1.
</event>
<event>
 5   0  0.1293575E-03  0.1016068E+04  0.7818609E-02  0.9291095E-01
       -1   -1    0    0    0  501  0.00000000000E+00  0.00000000000E+00  0.18806785675E+03  0.18806785682E+03  0.50400001928E-02 0. -1.
        1   -1    0    0  501    0  0.00000000000E+00  0.00000000000E+00 -0.13723686151E+04  0.13723686151E+04  0.50400001928E-02 0.  1.
    10030    2    1    2    0    0  0.00000000000E+00  0.00000000000E+00 -0.11843007584E+04  0.15604364720E+04  0.10160677619E+04 0.  0.
        4    1    3    3  502    0 -0.27062292938E+03 -0.28038990223E+03 -0.91573706364E+02  0.40030316483E+03  0.12699999809E+01 0. -1.
       -4    1    3    3    0  502  0.27062292938E+03  0.28038990223E+03 -0.10927270520E+04  0.11601333071E+04  0.12699999809E+01 0.  1.
</event>
<event>
 5   0  0.1285769E-03  0.1003510E+04  0.7818609E-02  0.9304704E-01
       -1   -1    0    0    0  501  0.00000000000E+00  0.00000000000E+00  0.14806382885E+04  0.14806382885E+04  0.50400001928E-02 0. -1.
        1   -1    0    0  501    0  0.00000000000E+00  0.00000000000E+00 -0.17003343147E+03  0.17003343154E+03  0.50400001928E-02 0.  1.
    10030    2    1    2    0    0  0.00000000000E+00  0.00000000000E+00  0.13106048571E+04  0.16506717201E+04  0.10035098585E+04 0.  0.
        5    1    3    3  502    0 -0.22003784873E+03  0.11053294375E+03  0.13743727755E+04  0.13962653052E+04  0.46999998093E+01 0. -1.
       -5    1    3    3    0  502  0.22003784873E+03 -0.11053294375E+03 -0.63767918396E+02  0.25440641490E+03  0.46999998093E+01 0.  1.
</event>
<event>
 5   0  0.2264577E-03  0.1001017E+04  0.7818609E-02  0.9307430E-01
        2   -1    0    0  501    0  0.00000000000E+00  0.00000000000E+00  0.72123696509E+03  0.72123696510E+03  0.25500000920E-02 0. -1.
       -2   -1    0    0    0  501  0.00000000000E+00  0.00000000000E+00 -0.34733244456E+03  0.34733244457E+03  0.25500000920E-02 0.  1.
    10030    2    1    2    0    0  0.00000000000E+00  0.00000000000E+00  0.37390452053E+03  0.10685694097E+04  0.10010174788E+04 0.  0.
        5    1    3    3  502    0 -0.14021532473E+03  0.47800812765E+03  0.23853281331E+03  0.55233332365E+03  0.46999998093E+01 0.  1.
       -5    1    3    3    0  502  0.14021532473E+03 -0.47800812765E+03  0.13537170722E+03  0.51623608602E+03  0.46999998093E+01 0. -1.
</event>
<event>
 5   0  0.2284843E-03  0.9982402E+03  0.7818609E-02  0.9310477E-01
        2   -1    0    0  501    0  0.00000000000E+00  0.00000000000E+00  0.14003673623E+04  0.14003673623E+04  0.25500000920E-02 0.  1.
       -2   -1    0    0    0  501  0.00000000000E+00  0.00000000000E+00 -0.17789678552E+03  0.17789678554E+03  0.25500000920E-02 0. -1.
    10030    2    1    2    0    0  0.00000000000E+00  0.00000000000E+00  0.12224705768E+04  0.15782641479E+04  0.99824015612E+03 0.  0.
        2    1    3    3  502    0 -0.42528712254E+03 -0.95856417437E+02  0.99547599551E+03  0.10867520633E+04  0.25500000920E-02 0.  1.
       -2    1    3    3    0  502  0.42528712254E+03  0.95856417437E+02  0.22699458128E+03  0.49151208460E+03  0.25500000920E-02 0. -1.
</event>
<event>
 5   0  0.2277570E-03  0.9957642E+03  0.7818609E-02  0.9313203E-01
        2   -1    0    0  501    0  0.00000000000E+00  0.00000000000E+00  0.12479959788E+04  0.12479959788E+04  0.25500000920E-02 0. -1.
       -2   -1    0    0    0  501  0.00000000000E+00  0.00000000000E+00 -0.19862773071E+03  0.19862773073E+03  0.25500000920E-02 0.  1.
    10030    2    1    2    0    0  0.00000000000E+00  0.00000000000E+00  0.10493682481E+04  0.14466237095E+04  0.99576424763E+03 0.  0.
        3    1    3    3  502    0 -0.32060257208E+03  0.25839597195E+03  0.11808263361E+03  0.42836667249E+03  0.10100000352E+00 0.  1.
       -3    1    3    3    0  502  0.32060257208E+03 -0.25839597195E+03  0.93128561446E+03  0.10182570370E+04  0.10100000352E+00 0. -1.
</event>
<event>
 5   0  0.1353789E-03  0.1000850E+04  0.7818609E-02  0.9307613E-01
        1   -1    0    0  501    0  0.00000000000E+00  0.00000000000E+00  0.11871506871E+04  0.11871506871E+04  0.50400001928E-02 0. -1.
       -1   -1    0    0    0  501  0.00000000000E+00  0.00000000000E+00 -0.21094630596E+03  0.21094630602E+03  0.50400001928E-02 0.  1.
    10030    2    1    2    0    0  0.00000000000E+00  0.00000000000E+00  0.97620438117E+03  0.13980969931E+04  0.10008497432E+04 0.  0.
        1    1    3    3  502    0  0.69552678172E+02  0.16717880055E+03  0.11397853628E+04  0.11540784201E+04  0.50400001928E-02 0. -1.
       -1    1    3    3    0  502 -0.69552678172E+02 -0.16717880055E+03 -0.16358098168E+03  0.24401857303E+03  0.50400001928E-02 0.  1.
</event>
<event>
 5   0  0.2277570E-03  0.9849389E+03  0.7818609E-02  0.9325219E-01
       -2   -1    0    0    0  501  0.00000000000E+00  0.00000000000E+00  0.17765526739E+03  0.17765526741E+03  0.25500000920E-02 0. -1.
        2   -1    0    0  501    0  0.00000000000E+00  0.00000000000E+00 -0.13651505342E+04  0.13651505342E+04  0.25500000920E-02 0.  1.
    10030    2    1    2    0    0  0.00000000000E+00  0.00000000000E+00 -0.11874952668E+04  0.15428058016E+04  0.98493894876E+03 0.  0.
        3    1    3    3  502    0 -0.88315025160E+02 -0.42719980921E+03 -0.23577543942E+03  0.49587225038E+03  0.10100000352E+00 0. -1.
       -3    1    3    3    0  502  0.88315025160E+02  0.42719980921E+03 -0.95171982737E+03  0.10469335512E+04  0.10100000352E+00 0.  1.
</event>
<event>
 5   0  0.2264577E-03  0.1002051E+04  0.7818609E-02  0.9306299E-01
       -2   -1    0    0    0  501  0.00000000000E+00  0.00000000000E+00  0.85503598706E+02  0.85503598744E+02  0.25500000920E-02 0. -1.
        2   -1    0    0  501    0  0.00000000000E+00  0.00000000000E+00 -0.29358571828E+04  0.29358571828E+04  0.25500000920E-02 0.  1.
    10030    2    1    2    0    0  0.00000000000E+00  0.00000000000E+00 -0.28503535841E+04  0.30213607815E+04  0.10020506064E+04 0.  0.
        5    1    3    3  502    0 -0.59373010660E+02 -0.19519593832E+03 -0.28048559347E+04  0.28122705263E+04  0.46999998093E+01 0.  1.
       -5    1    3    3    0  502  0.59373010660E+02  0.19519593832E+03 -0.45497649377E+02  0.20909025522E+03  0.46999998093E+01 0. -1.
</event>
<event>
 5   0  0.1353789E-03  0.1001225E+04  0.7818609E-02  0.9307202E-01
        1   -1    0    0  501    0  0.00000000000E+00  0.00000000000E+00  0.10552838225E+04  0.10552838225E+04  0.50400001928E-02 0. -1.
       -1   -1    0    0    0  501  0.00000000000E+00  0.00000000000E+00 -0.23748376497E+03  0.23748376503E+03  0.50400001928E-02 0.  1.
    10030    2    1    2    0    0  0.00000000000E+00  0.00000000000E+00  0.81780005753E+03  0.12927675875E+04  0.10012248006E+04 0.  0.
        1    1    3    3  502    0 -0.79530779287E+02 -0.22170454153E+03 -0.16146926704E+03  0.28557025898E+03  0.50400001928E-02 0.  1.
       -1    1    3    3    0  502  0.79530779287E+02  0.22170454153E+03  0.97926932457E+03  0.10071973286E+04  0.50400001928E-02 0. -1.
</event>
<event>
 5   0  0.1249195E-03  0.1000881E+04  0.7818609E-02  0.9307579E-01
       -1   -1    0    0    0  501  0.00000000000E+00  0.00000000000E+00  0.25465107462E+03  0.25465107467E+03  0.50400001928E-02 0.  1.
        1   -1    0    0  501    0  0.00000000000E+00  0.00000000000E+00 -0.98346559499E+03  0.98346559501E+03  0.50400001928E-02 0. -1.
    10030    2    1    2    0    0  0.00000000000E+00  0.00000000000E+00 -0.72881452037E+03  0.12381166697E+04  0.10008807535E+04 0.  0.
        2    1    3    3  502    0 -0.34781614304E+03 -0.17562284033E+03  0.24068742545E+02  0.39038283233E+03  0.25500000920E-02 0.  1.
       -2    1    3    3    0  502  0.34781614304E+03  0.17562284033E+03 -0.75288326292E+03  0.84773383735E+03  0.25500000920E-02 0. -1.
</event>
<event>
 5   0  0.2255142E-03  0.9980151E+03  0.7818609E-02  0.9310724E-01
       -2   -1    0    0    0  501  0.00000000000E+00  0.00000000000E+00  0.41864342748E+03  0.41864342749E+03  0.25500000920E-02 0. -1.
        2   -1    0    0  501    0  0.00000000000E+00  0.00000000000E+00 -0.59479866677E+03  0.59479866678E+03  0.25500000920E-02 0.  1.
    10030    2    1    2    0    0  0.00000000000E+00  0.00000000000E+00 -0.17615523929E+03  0.10134420943E+04  0.99801513521E+03 0.  0.
        4    1    3    3  502    0  0.27828356586E+03 -0.37713683898E+03  0.85838590183E+02  0.47649114872E+03  0.12699999809E+01 0. -1.
       -4    1    3    3    0  502 -0.27828356586E+03  0.37713683898E+03 -0.26199382947E+03  0.53695094555E+03  0.12699999809E+01 0.  1.
</event>
<event>
 5   0  0.2255142E-03  0.1006171E+04  0.7818609E-02  0.9301802E-01
        2   -1    0    0  501    0  0.00000000000E+00  0.00000000000E+00  0.49694090190E+03  0.49694090191E+03  0.25500000920E-02 0.  1.
       -2   -1    0    0    0  501  0.00000000000E+00  0.00000000000E+00 -0.50930640562E+03  0.50930640563E+03  0.25500000920E-02 0. -1.
    10030    2    1    2    0    0  0.00000000000E+00  0.00000000000E+00 -0.12365503717E+02  0.10062473075E+04  0.10061713265E+04 0.  0.
        4    1    3    3  502    0 -0.50087695392E+03  0.25468268299E+00  0.40892915903E+02  0.50254515349E+03  0.12699999809E+01 0. -1.
       -4    1    3    3    0  502  0.50087695392E+03 -0.25468268299E+00 -0.53258419620E+02  0.50370215404E+03  0.12699999809E+01 0.  1.
</event>
<event>
 5   0  0.2284843E-03  0.1006190E+04  0.7818609E-02  0.9301781E-01
        2   -1    0    0  501    0  0.00000000000E+00  0.00000000000E+00  0.11064384046E+04  0.11064384046E+04  0.25500000920E-02 0.  1.
       -2   -1    0    0    0  501  0.00000000000E+00  0.00000000000E+00 -0.22875625481E+03  0.22875625483E+03  0.25500000920E-02 0. -1.
    10030    2    1    2    0    0  0.00000000000E+00  0.00000000000E+00  0.87768214980E+03  0.13351946594E+04  0.10061902517E+04 0.  0.
        2    1    3    3  502    0 -0.22008611069E+03 -0.26190557633E+03  0.92833725815E+03  0.98936469106E+03  0.25500000920E-02 0.  1.
       -2    1    3    3    0  502  0.22008611069E+03  0.26190557633E+03 -0.50655108351E+02  0.34582996839E+03  0.25500000920E-02 0. -1.
</event>
<event>
 5   0  0.2204862E-03  0.9955938E+03  0.7818609E-02  0.9313391E-01
        2   -1    0    0  501    0  0.00000000000E+00  0.00000000000E+00  0.87722710587E+03  0.87722710588E+03  0.25500000920E-02 0. -1.
       -2   -1    0    0    0  501  0.00000000000E+00  0.00000000000E+00 -0.28248299896E+03  0.28248299897E+03  0.25500000920E-02 0.  1.
    10030    2    1    2    0    0  0.00000000000E+00  0.00000000000E+00  0.59474410691E+03  0.11597101049E+04  0.99559377991E+03 0.  0.
        1    1    3    3  502    0  0.37079594661E+03  0.18911972981E+02  0.68362665449E+03  0.77794132138E+03  0.50400001928E-02 0. -1.
       -1    1    3    3    0  502 -0.37079594661E+03 -0.18911972981E+02 -0.88882547584E+02  0.38176878348E+03  0.50400001928E-02 0.  1.
</event>
<event>
 5   0  0.2255142E-03  0.9909916E+03  0.7818609E-02  0.9318481E-01
        2   -1    0    0  501    0  0.00000000000E+00  0.00000000000E+00  0.18035099458E+04  0.18035099458E+04  0.25500000920E-02 0.  1.
       -2   -1    0    0    0  501  0.00000000000E+00  0.00000000000E+00 -0.13613238128E+03  0.13613238131E+03  0.25500000920E-02 0. -1.
    10030    2    1    2    0    0  0.00000000000E+00  0.00000000000E+00  0.16673775645E+04  0.19396423271E+04  0.99099163187E+03 0.  0.
        4    1    3    3  502    0 -0.48958146000E+03 -0.10333164411E+02  0.98168913305E+03  0.10970469211E+04  0.12699999809E+01 0. -1.
       -4    1    3    3    0  502  0.48958146000E+03  0.10333164411E+02  0.68568843144E+03  0.84259540597E+03  0.12699999809E+01 0.  1.
</event>
<event>
 5   0  0.2264577E-03  0.1001439E+04  0.7818609E-02  0.9306968E-01
        2   -1    0    0  501    0  0.00000000000E+00  0.00000000000E+00  0.13255190866E+04  0.13255190866E+04  0.25500000920E-02 0. -1.
       -2   -1    0    0    0  501  0.00000000000E+00  0.00000000000E+00 -0.18914863670E+03  0.18914863671E+03  0.25500000920E-02 0.  1.
    10030    2    1    2    0    0  0.00000000000E+00  0.00000000000E+00  0.11363704499E+04  0.15146677233E+04  0.10014392206E+04 0.  0.
        5    1    3    3  502    0  0.30713688744E+03 -0.72331090633E+02 -0.19808498884E+02  0.31619506784E+03  0.46999998093E+01 0.  1.
       -5    1    3    3    0  502 -0.30713688744E+03  0.72331090633E+02  0.11561789488E+04  0.11984726554E+04  0.46999998093E+01 0. -1.
</event>
<event>
 5   0  0.1353789E-03  0.9993306E+03  0.7818609E-02  0.9309279E-01
        1   -1    0    0  501    0  0.00000000000E+00  0.00000000000E+00  0.44421531915E+03  0.44421531917E+03  0.50400001928E-02 0.  1.
       -1   -1    0    0    0  501  0.00000000000E+00  0.00000000000E+00 -0.56203696327E+03  0.56203696330E+03  0.50400001928E-02 0. -1.
    10030    2    1    2    0    0  0.00000000000E+00  0.00000000000E+00 -0.11782164413E+03  0.10062522825E+04  0.99933063405E+03 0.  0.
        1    1    3    3  502    0  0.16187317790E+03 -0.17818619012E+03 -0.49979299266E+03  0.55474884372E+03  0.50400001928E-02 0. -1.
       -1    1    3    3    0  502 -0.16187317790E+03  0.17818619012E+03  0.38197134854E+03  0.45150343875E+03  0.50400001928E-02 0.  1.
</event>
<event>
 5   0  0.1293716E-03  0.1006406E+04  0.7818609E-02  0.9301547E-01
        1   -1    0    0  501    0  0.00000000000E+00  0.00000000000E+00  0.28532542841E+03  0.28532542845E+03  0.50400001928E-02 0. -1.
       -1   -1    0    0    0  501  0.00000000000E+00  0.00000000000E+00 -0.88745406890E+03  0.88745406891E+03  0.50400001928E-02 0.  1.
    10030    2    1    2    0    0  0.00000000000E+00  0.00000000000E+00 -0.60212864049E+03  0.11727794974E+04  0.10064059070E+04 0.  0.
        3    1    3    3  502    0  0.21738785744E+03 -0.11858059566E+03 -0.81153910842E+03  0.84847779754E+03  0.10100000352E+00 0.  1.
       -3    1    3    3    0  502 -0.21738785744E+03  0.11858059566E+03  0.20941046793E+03  0.32430169982E+03  0.10100000352E+00 0. -1.
</event>
<event>
 5   0  0.1293575E-03  0.1003889E+04  0.7818609E-02  0.9304290E-01
       -1   -1    0    0    0  501  0.00000000000E+00  0.00000000000E+00  0.13569343827E+03  0.13569343836E+03  0.50400001928E-02 0. -1.
        1   -1    0    0  501    0  0.00000000000E+00  0.00000000000E+00 -0.18567451952E+04  0.18567451953E+04  0.50400001928E-02 0.  1.
    10030    2    1    2    0    0  0.00000000000E+00  0.00000000000E+00 -0.17210517570E+04  0.19924386336E+04  0.10038887182E+04 0.  0.
        4    1    3    3  502    0  0.47556241275E+03  0.12475734440E+03 -0.10611940234E+04  0.11695547749E+04  0.12699999809E+01 0.  1.
       -4    1    3    3    0  502 -0.47556241275E+03 -0.12475734440E+03 -0.65985773359E+03  0.82288385868E+03  0.12699999809E+01 0. -1.
</event>
<event>
 5   0  0.1353789E-03  0.1003066E+04  0.7818609E-02  0.9305189E-01
       -1   -1    0    0    0  501  0.00000000000E+00  0.00000000000E+00  0.38544734602E+03  0.38544734605E+03  0.50400001928E-02 0. -1.
        1   -1    0    0  501    0  0.00000000000E+00  0.00000000000E+00 -0.65258005400E+03  0.65258005402E+03  0.50400001928E-02 0.  1.
    10030    2    1    2    0    0  0.00000000000E+00  0.00000000000E+00 -0.26713270798E+03  0.10380274001E+04  0.10030658002E+04 0.  0.
        1    1    3    3  502    0 -0.93091061361E+02  0.31425880662E+03 -0.52641704192E+03  0.62011244568E+03  0.50400001928E-02 0.  1.
       -1    1    3    3    0  502  0.93091061361E+02 -0.31425880662E+03  0.25928433394E+03  0.41791495438E+03  0.50400001928E-02 0. -1.
</event>
<event>
 5   0  0.2204862E-03  0.1004563E+04  0.7818609E-02  0.9303554E-01
        2   -1    0    0  501    0  0.00000000000E+00  0.00000000000E+00  0.18790925690E+04  0.18790925690E+04  0.25500000920E-02 0. -1.
       -2   -1    0    0    0  501  0.00000000000E+00  0.00000000000E+00 -0.13425985105E+03  0.13425985107E+03  0.25500000920E-02 0.  1.
    10030    2    1    2    0    0  0.00000000000E+00  0.00000000000E+00  0.17448327180E+04  0.20133524201E+04  0.10045629666E+04 0.  0.
        1    1    3    3  502    0 -0.41145096214E+03 -0.22534215663E+03  0.51268651598E+03  0.69492333785E+03  0.50400001928E-02 0. -1.
       -1    1    3    3    0  502  0.41145096214E+03  0.22534215663E+03  0.12321462020E+04  0.13184290823E+04  0.50400001928E-02 0.  1.
</event>
<event>
 5   0  0.2255142E-03  0.1004962E+04  0.7818609E-02  0.9303119E-01
       -2   -1    0    0    0  501  0.00000000000E+00  0.00000000000E+00  0.20239490537E+03  0.20239490539E+03  0.25500000920E-02 0. -1.
        2   -1    0    0  501    0  0.00000000000E+00  0.00000000000E+00 -0.12474986978E+04  0.12474986978E+04  0.25500000920E-02 0.  1.
    10030    2    1    2    0    0  0.00000000000E+00  0.00000000000E+00 -0.10451037924E+04  0.14498936032E+04  0.10049624488E+04 0.  0.
        4    1    3    3  502    0 -0.17295932310E+03 -0.23725059903E+03  0.65763504032E+02  0.30088074972E+03  0.12699999809E+01 0. -1.
       -4    1    3    3    0  502  0.17295932310E+03  0.23725059903E+03 -0.11108672964E+04  0.11490128534E+04  0.12699999809E+01 0.  1.
</event>
<event>
 5   0  0.2284843E-03  0.1001529E+04  0.7818609E-02  0.9306869E-01
        2   -1    0    0  501    0  0.00000000000E+00  0.00000000000E+00  0.51023640643E+03  0.51023640644E+03  0.25500000920E-02 0.  1.
       -2   -1    0    0    0  501  0.00000000000E+00  0.00000000000E+00 -0.49146880549E+03  0.49146880550E+03  0.25500000920E-02 0. -1.
    10030    2    1    2    0    0  0.00000000000E+00  0.00000000000E+00  0.18767600940E+02  0.10017052119E+04  0.10015293849E+04 0.  0.
        2    1    3    3  502    0 -0.11704263558E+03 -0.27922312037E+03 -0.38956057609E+03  0.49337812269E+03  0.25500000920E-02 0. -1.
       -2    1    3    3    0  502  0.11704263558E+03  0.27922312037E+03  0.40832817703E+03  0.50832708924E+03  0.25500000920E-02 0.  1.
</event>
<event>
 5   0  0.1285769E-03  0.1000437E+04  0.7818609E-02  0.9308065E-01
        1   -1    0    0  501    0  0.00000000000E+00  0.00000000000E+00  0.42811341164E+03  0.42811341167E+03  0.50400001928E-02 0. -1.
       -1   -1    0    0    0  501  0.00000000000E+00  0.00000000000E+00 -0.58446829703E+03  0.58446829706E+03  0.50400001928E-02 0.  1.
    10030    2    1    2    0    0  0.00000000000E+00  0.00000000000E+00 -0.15635488539E+03  0.10125817087E+04  0.10004373377E+04 0.  0.
        5    1    3    3  502    0  0.30776122241E+03 -0.21199770639E+02  0.32034095618E+03  0.44475478468E+03  0.46999998093E+01 0. -1.
       -5    1    3    3    0  502 -0.30776122241E+03  0.21199770639E+02 -0.47669584158E+03  0.56782692404E+03  0.46999998093E+01 0.  1.
</event>
<event>
 5   0  0.1293716E-03  0.9998607E+03  0.7818609E-02  0.9308698E-01
       -1   -1    0    0    0  501  0.00000000000E+00  0.00000000000E+00  0.78194519002E+03  0.78194519004E+03  0.50400001928E-02 0.  1.
        1   -1    0    0  501    0  0.00000000000E+00  0.00000000000E+00 -0.31962646591E+03  0.31962646595E+03  0.50400001928E-02 0. -1.
    10030    2    1    2    0    0  0.00000000000E+00  0.00000000000E+00  0.46231872411E+03  0.11015716560E+04  0.99986074560E+03 0.  0.
        3    1    3    3  502    0 -0.35815548838E+02 -0.43696612277E+03  0.49582166019E+03  0.66186197572E+03  0.10100000352E+00 0.  1.
       -3    1    3    3    0  502  0.35815548838E+02  0.43696612277E+03 -0.33502936075E+02  0.43970968026E+03  0.10100000352E+00 0. -1.
</event>
<event>
 5   0  0.2204862E-03  0.9850932E+03  0.7818609E-02  0.9325047E-01
        2   -1    0    0  501    0  0.00000000000E+00  0.00000000000E+00  0.55427781146E+03  0.55427781147E+03  0.25500000920E-02 0. -1.
       -2   -1    0    0    0  501  0.00000000000E+00  0.00000000000E+00 -0.43769049728E+03  0.43769049729E+03  0.25500000920E-02 0.  1.
    10030    2    1    2    0    0  0.00000000000E+00  0.00000000000E+00  0.11658731419E+03  0.99196830876E+03  0.98509315486E+03 0.  0.
        1    1    3    3  502    0  0.36044072678E+03 -0.33000303656E+03 -0.36385042381E+01  0.48870518761E+03  0.50400001928E-02 0.  1.
       -1    1    3    3    0  502 -0.36044072678E+03  0.33000303656E+03  0.12022581842E+03  0.50326312114E+03  0.50400001928E-02 0. -1.
</event>
<event>
 5   0  0.1293575E-03  0.1004716E+04  0.7818609E-02  0.9303387E-01
        1   -1    0    0  501    0  0.00000000000E+00  0.00000000000E+00  0.33086375558E+03  0.33086375562E+03  0.50400001928E-02 0. -1.
       -1   -1    0    0    0  501  0.00000000000E+00  0.00000000000E+00 -0.76274236544E+03  0.76274236546E+03  0.50400001928E-02 0.  1.
    10030    2    1    2    0    0  0.00000000000E+00  0.00000000000E+00 -0.43187860986E+03  0.10936061211E+04  0.10047164846E+04 0.  0.
        4    1    3    3  502    0 -0.47797939887E+03  0.48286874080E+02 -0.56092172209E+02  0.48367744690E+03  0.12699999809E+01 0. -1.
       -4    1    3    3    0  502  0.47797939887E+03 -0.48286874080E+02 -0.37578643765E+03  0.60992867417E+03  0.12699999809E+01 0.  1.
</event>
<event>
 5   0  0.1293716E-03  0.1001690E+04  0.7818609E-02  0.9306693E-01
        1   -1    0    0  501    0  0.00000000000E+00  0.00000000000E+00  0.46271692974E+03  0.46271692977E+03  0.50400001928E-02 0. -1.
       -1   -1    0    0    0  501  0.00000000000E+00  0.00000000000E+00 -0.54211456881E+03  0.54211456883E+03  0.50400001928E-02 0.  1.
    10030    2    1    2    0    0  0.00000000000E+00  0.00000000000E+00 -0.79397639069E+02  0.10048314986E+04  0.10016897501E+04 0.  0.
        3    1    3    3  502    0 -0.41037575111E+03  0.26601499627E+03 -0.14808093912E+03  0.51097965720E+03  0.10100000352E+00 0.  1.
       -3    1    3    3    0  502  0.41037575111E+03 -0.26601499627E+03  0.68683300049E+02  0.49385184140E+03  0.10100000352E+00 0. -1.
</event>
<event>
 5   0  0.1353789E-03  0.1003221E+04  0.7818609E-02  0.9305020E-01
        1   -1    0    0  501    0  0.00000000000E+00  0.00000000000E+00  0.19332869751E+04  0.19332869751E+04  0.50400001928E-02 0. -1.
       -1   -1    0    0    0  501  0.00000000000E+00  0.00000000000E+00 -0.13014773047E+03  0.13014773057E+03  0.50400001928E-02 0.  1.
    10030    2    1    2    0    0  0.00000000000E+00  0.00000000000E+00  0.18031392446E+04  0.20634347056E+04  0.10032206383E+04 0.  0.
        1    1    3    3  502    0  0.37318034463E+03 -0.61460341618E+02  0.22384520945E+03  0.43948563233E+03  0.50400001928E-02 0.  1.
       -1    1    3    3    0  502 -0.37318034463E+03  0.61460341618E+02  0.15792940352E+04  0.16239490733E+04  0.50400001928E-02 0. -1.
</event>
<event>
 5   0  0.8680125E-04  0.1001850E+04  0.7818609E-02  0.9306518E-01
        3   -1    0    0  501    0  0.00000000000E+00  0.00000000000E+00  0.52719608683E+03  0.52719609650E+03  0.10100000352E+00 0. -1.
       -3   -1    0    0    0  501  0.00000000000E+00  0.00000000000E+00 -0.47596282831E+03  0.47596283903E+03  0.10100000352E+00 0.  1.
    10030    2    1    2    0    0  0.00000000000E+00  0.00000000000E+00  0.51233258515E+02  0.10031589355E+04  0.10018497907E+04 0.  0.
        3    1    3    3  502    0  0.47809887667E+03  0.14707468027E+03 -0.11810614809E+01  0.50021085810E+03  0.10100000352E+00 0. -1.
       -3    1    3    3    0  502 -0.47809887667E+03 -0.14707468027E+03  0.52414319996E+02  0.50294807743E+03  0.10100000352E+00 0.  1.
</event>
<event>
 5   0  0.1285769E-03  0.9987403E+03  0.7818609E-02  0.9309927E-01
       -1   -1    0    0    0  501  0.00000000000E+00  0.00000000000E+00  0.77405444470E+03  0.77405444472E+03  0.50400001928E-02 0.  1.
        1   -1    0    0  501    0  0.00000000000E+00  0.00000000000E+00 -0.32216153328E+03  0.32216153332E+03  0.50400001928E-02 0. -1.
    10030    2    1    2    0    0  0.00000000000E+00  0.00000000000E+00  0.45189291142E+03  0.10962159780E+04  0.99874034018E+03 0.  0.
        5    1    3    3  502    0 -0.23593078066E+03  0.11264652339E+03  0.69290455200E+03  0.74060203935E+03  0.46999998093E+01 0.  1.
       -5    1    3    3    0  502  0.23593078066E+03 -0.11264652339E+03 -0.24101164058E+03  0.35561393869E+03  0.46999998093E+01 0. -1.
</event>
<event>
 5   0  0.1293716E-03  0.9963128E+03  0.7818609E-02  0.9312598E-01
       -1   -1    0    0    0  501  0.00000000000E+00  0.00000000000E+00  0.23995046174E+03  0.23995046179E+03  0.50400001928E-02 0.  1.
        1   -1    0    0  501    0  0.00000000000E+00  0.00000000000E+00 -0.10342126586E+04  0.10342126586E+04  0.50400001928E-02 0. -1.
    10030    2    1    2    0    0  0.00000000000E+00  0.00000000000E+00 -0.79426219683E+03  0.12741631204E+04  0.99631281233E+03 0.  0.
        3    1    3    3  502    0 -0.23387614167E+03 -0.17686728826E+03  0.11789302519E+03  0.31603617339E+03  0.10100000352E+00 0.  1.
       -3    1    3    3    0  502  0.23387614167E+03  0.17686728826E+03 -0.91215522201E+03  0.95812694699E+03  0.10100000352E+00 0. -1.
</event>
<event>
 5   0  0.2255142E-03  0.9970776E+03  0.7818609E-02  0.9311756E-01
       -2   -1    0    0    0  501  0.00000000000E+00  0.00000000000E+00  0.50001323677E+03  0.50001323678E+03  0.25500000920E-02 0. -1.
        2   -1    0    0  501    0  0.00000000000E+00  0.00000000000E+00 -0.49706875733E+03  0.49706875733E+03  0.25500000920E-02 0.  1.
    10030    2    1    2    0    0  0.00000000000E+00  0.00000000000E+00  0.29444794459E+01  0.99708199411E+03  0.99707764644E+03 0.  0.
        4    1    3    3  502    0 -0.13319581006E+03  0.36676921912E+03  0.31176146138E+03  0.49945731110E+03  0.12699999809E+01 0. -1.
       -4    1    3    3    0  502  0.13319581006E+03 -0.36676921912E+03 -0.30881698193E+03  0.49762468301E+03  0.12699999809E+01 0.  1.
</event>
<event>
 5   0  0.2204862E-03  0.1001921E+04  0.7818609E-02  0.9306441E-01
       -2   -1    0    0    0  501  0.00000000000E+00  0.00000000000E+00  0.50576742136E+03  0.50576742137E+03  0.25500000920E-02 0. -1.
        2   -1    0    0  501    0  0.00000000000E+00  0.00000000000E+00 -0.49619882531E+03  0.49619882531E+03  0.25500000920E-02 0.  1.
    10030    2    1    2    0    0  0.00000000000E+00  0.00000000000E+00  0.95685960584E+01  0.10019662467E+04  0.10019205565E+04 0.  0.
        1    1    3    3  502    0  0.30517174553E+03 -0.39668908595E+03 -0.16877141265E+02  0.50077626052E+03  0.50400001928E-02 0.  1.
       -1    1    3    3    0  502 -0.30517174553E+03  0.39668908595E+03  0.26445737324E+02  0.50118998616E+03  0.50400001928E-02 0. -1.
</event>
<event>
 5   0  0.1293575E-03  0.9974436E+03  0.7818609E-02  0.9311353E-01
        1   -1    0    0  501    0  0.00000000000E+00  0.00000000000E+00  0.11863397431E+04  0.11863397432E+04  0.50400001928E-02 0.  1.
       -1   -1    0    0    0  501  0.00000000000E+00  0.00000000000E+00 -0.20965616934E+03  0.20965616940E+03  0.50400001928E-02 0. -1.
    10030    2    1    2    0    0  0.00000000000E+00  0.00000000000E+00  0.97668357380E+03  0.13959959126E+04  0.99744362475E+03 0.  0.
        4    1    3    3  502    0  0.17513761378E+03 -0.41836435636E+03  0.19805279924E+03  0.49490245768E+03  0.12699999809E+01 0. -1.
       -4    1    3    3    0  502 -0.17513761378E+03  0.41836435636E+03  0.77863077456E+03  0.90109345488E+03  0.12699999809E+01 0.  1.
</event>
<event>
 5   0  0.2264577E-03  0.1001579E+04  0.7818609E-02  0.9306815E-01
        2   -1    0    0  501    0  0.00000000000E+00  0.00000000000E+00  0.15863606754E+04  0.15863606754E+04  0.25500000920E-02 0. -1.
       -2   -1    0    0    0  501  0.00000000000E+00  0.00000000000E+00 -0.15809149458E+03  0.15809149460E+03  0.25500000920E-02 0.  1.
    10030    2    1    2    0    0  0.00000000000E+00  0.00000000000E+00  0.14282691808E+04  0.17444521700E+04  0.10015790136E+04 0.  0.
        5    1    3    3  502    0  0.25189355575E+03 -0.36008082311E+03  0.29591034941E+03  0.52980523542E+03  0.46999998093E+01 0. -1.
       -5    1    3    3    0  502 -0.25189355575E+03  0.36008082311E+03  0.11323588314E+04  0.12146469345E+04  0.46999998093E+01 0.  1.
</event>
<event>
 5   0  0.1293575E-03  0.9635341E+03  0.7818609E-02  0.9349470E-01
        1   -1    0    0  501    0  0.00000000000E+00  0.00000000000E+00  0.14650557030E+03  0.14650557039E+03  0.50400001928E-02 0. -1.
       -1   -1    0    0    0  501  0.00000000000E+00  0.00000000000E+00 -0.15842365838E+04  0.15842365839E+04  0.50400001928E-02 0.  1.
    10030    2    1    2    0    0  0.00000000000E+00  0.00000000000E+00 -0.14377310135E+04  0.17307421542E+04  0.96353408717E+03 0.  0.
        4    1    3    3  502    0 -0.22845891900E+03 -0.16903315052E+03 -0.14176301844E+04  0.14458363104E+04  0.12699999809E+01 0.  1.
       -4    1    3    3    0  502  0.22845891900E+03  0.16903315052E+03 -0.20100829111E+02  0.28490584388E+03  0.12699999809E+01 0. -1.
</event>
<event>
 5   0  0.1353789E-03  0.1001929E+04  0.7818609E-02  0.9306432E-01
        1   -1    0    0  501    0  0.00000000000E+00  0.00000000000E+00  0.90280892474E+03  0.90280892475E+03  0.50400001928E-02 0. -1.
       -1   -1    0    0    0  501  0.00000000000E+00  0.00000000000E+00 -0.27798285600E+03  0.27798285604E+03  0.50400001928E-02 0.  1.
    10030    2    1    2    0    0  0.00000000000E+00  0.00000000000E+00  0.62482606874E+03  0.11807917808E+04  0.10019289463E+04 0.  0.
        1    1    3    3  502    0 -0.20647670646E+03 -0.44390982691E+03  0.18726325745E+03  0.52417181568E+03  0.50400001928E-02 0. -1.
       -1    1    3    3    0  502  0.20647670646E+03  0.44390982691E+03  0.43756281129E+03  0.65661996512E+03  0.50400001928E-02 0.  1.
</event>
<event>
 5   0  0.1353789E-03  0.9983111E+03  0.7818609E-02  0.9310399E-01
        1   -1    0    0  501    0  0.00000000000E+00  0.00000000000E+00  0.10792595829E+04  0.10792595829E+04  0.50400001928E-02 0.  1.
       -1   -1    0    0    0  501  0.00000000000E+00  0.00000000000E+00 -0.23085849260E+03  0.23085849266E+03  0.50400001928E-02 0. -1.
    10030    2    1    2    0    0  0.00000000000E+00  0.00000000000E+00  0.84840109028E+03  0.13101180756E+04  0.99831105468E+03 0.  0.
        1    1    3    3  502    0 -0.21637373617E+03 -0.97410095958E+02 -0.15210697919E+03  0.28185608676E+03  0.50400001928E-02 0. -1.
       -1    1    3    3    0  502  0.21637373617E+03  0.97410095958E+02  0.10005080695E+04  0.10282619888E+04  0.50400001928E-02 0.  1.
</event>
<event>
 5   0  0.1293716E-03  0.9788193E+03  0.7818609E-02  0.9332085E-01
       -1   -1    0    0    0  501  0.00000000000E+00  0.00000000000E+00  0.61858213536E+03  0.61858213538E+03  0.50400001928E-02 0.  1.
        1   -1    0    0  501    0  0.00000000000E+00  0.00000000000E+00 -0.38721097214E+03  0.38721097217E+03  0.50400001928E-02 0. -1.
    10030    2    1    2    0    0  0.00000000000E+00  0.00000000000E+00  0.23137116322E+03  0.10057931076E+04  0.97881926832E+03 0.  0.
        3    1    3    3  502    0 -0.13988933154E+03  0.38373502995E+03 -0.16137445855E+03  0.43916207072E+03  0.10100000352E+00 0. -1.
       -3    1    3    3    0  502  0.13988933154E+03 -0.38373502995E+03  0.39274562177E+03  0.56663103684E+03  0.10100000352E+00 0.  1.
</event>
<event>
 5   0  0.2264577E-03  0.9919784E+03  0.7818609E-02  0.9317387E-01
        2   -1    0    0  501    0  0.00000000000E+00  0.00000000000E+00  0.23106766761E+03  0.23106766762E+03  0.25500000920E-02 0. -1.
       -2   -1    0    0    0  501  0.00000000000E+00  0.00000000000E+00 -0.10646460374E+04  0.10646460374E+04  0.25500000920E-02 0.  1.
    10030    2    1    2    0    0  0.00000000000E+00  0.00000000000E+00 -0.83357836976E+03  0.12957137050E+04  0.99197838020E+03 0.  0.
        5    1    3    3  502    0  0.30883066647E+03 -0.94401500963E+02 -0.90847123939E+03  0.96417327630E+03  0.46999998093E+01 0.  1.
       -5    1    3    3    0  502 -0.30883066647E+03  0.94401500963E+02  0.74892869631E+02  0.33154042869E+03  0.46999998093E+01 0. -1.
</event>
<event>
 5   0  0.2204862E-03  0.1002234E+04  0.7818609E-02  0.9306098E-01
       -2   -1    0    0    0  501  0.00000000000E+00  0.00000000000E+00  0.23089649886E+03  0.23089649888E+03  0.25500000920E-02 0.  1.
        2   -1    0    0  501    0  0.00000000000E+00  0.00000000000E+00 -0.10875785323E+04  0.10875785323E+04  0.25500000920E-02 0. -1.
    10030    2    1    2    0    0  0.00000000000E+00  0.00000000000E+00 -0.85668203341E+03  0.13184750312E+04  0.10022336561E+04 0.  0.
        1    1    3    3  502    0  0.13945413887E+03  0.29627594286E+03 -0.92736339339E+03  0.98347839559E+03  0.50400001928E-02 0. -1.
       -1    1    3    3    0  502 -0.13945413887E+03 -0.29627594286E+03  0.70681359980E+02  0.33499663557E+03  0.50400001928E-02 0.  1.
</event>
<event>
 5   0  0.1293575E-03  0.9993610E+03  0.7818609E-02  0.9309246E-01
        1   -1    0    0  501    0  0.00000000000E+00  0.00000000000E+00  0.39924442959E+03  0.39924442962E+03  0.50400001928E-02 0. -1.
       -1   -1    0    0    0  501  0.00000000000E+00  0.00000000000E+00 -0.62538275596E+03  0.62538275598E+03  0.50400001928E-02 0.  1.
    10030    2    1    2    0    0  0.00000000000E+00  0.00000000000E+00 -0.22613832637E+03  0.10246271856E+04  0.99936095923E+03 0.  0.
        4    1    3    3  502    0  0.22005809570E+03  0.37912626318E+03  0.13282057212E+03  0.45804498272E+03  0.12699999809E+01 0. -1.
       -4    1    3    3    0  502 -0.22005809570E+03 -0.37912626318E+03 -0.35895889849E+03  0.56658220288E+03  0.12699999809E+01 0.  1.
</event>
<event>
 5   0  0.1293716E-03  0.9990137E+03  0.7818609E-02  0.9309627E-01
        1   -1    0    0  501    0  0.00000000000E+00  0.00000000000E+00  0.26273644176E+03  0.26273644181E+03  0.50400001928E-02 0.  1.
       -1   -1    0    0    0  501  0.00000000000E+00  0.00000000000E+00 -0.94964790013E+03  0.94964790014E+03  0.50400001928E-02 0. -1.
    10030    2    1    2    0    0  0.00000000000E+00  0.00000000000E+00 -0.68691145837E+03  0.12123843419E+04  0.99901373412E+03 0.  0.
        3    1    3    3  502    0 -0.92805709851E+02 -0.24024542141E+02  0.25146777378E+03  0.26912103198E+03  0.10100000352E+00 0.  1.
       -3    1    3    3    0  502  0.92805709851E+02  0.24024542141E+02 -0.93837923214E+03  0.94326330996E+03  0.10100000352E+00 0. -1.
</event>
<event>
 5   0  0.2264577E-03  0.9946877E+03  0.7818609E-02  0.9314390E-01
        2   -1    0    0  501    0  0.00000000000E+00  0.00000000000E+00  0.80536809257E+03  0.80536809257E+03  0.25500000920E-02 0. -1.
       -2   -1    0    0    0  501  0.00000000000E+00  0.00000000000E+00 -0.30712778682E+03  0.30712778683E+03  0.25500000920E-02 0.  1.
    10030    2    1    2    0    0  0.00000000000E+00  0.00000000000E+00  0.49824030575E+03  0.11124958794E+04  0.99468772960E+03 0.  0.
        5    1    3    3  502    0  0.29177723703E+03 -0.16237084832E+03 -0.16308216577E+03  0.37163978692E+03  0.46999998093E+01 0.  1.
       -5    1    3    3    0  502 -0.29177723703E+03  0.16237084832E+03  0.66132247151E+03  0.74085609248E+03  0.46999998093E+01 0. -1.
</event>
<event>
 5   0  0.1293716E-03  0.9950023E+03  0.7818609E-02  0.9314043E-01
       -1   -1    0    0    0  501  0.00000000000E+00  0.00000000000E+00  0.38024443627E+03  0.38024443631E+03  0.50400001928E-02 0.  1.
        1   -1    0    0  501    0  0.00000000000E+00  0.00000000000E+00 -0.65091656877E+03  0.65091656879E+03  0.50400001928E-02 0. -1.
    10030    2    1    2    0    0  0.00000000000E+00  0.00000000000E+00 -0.27067213250E+03  0.10311610051E+04  0.99500231915E+03 0.  0.
        3    1    3    3  502    0 -0.30655829022E+02  0.27135376075E+03  0.29563044457E+03  0.40245498292E+03  0.10100000352E+00 0.  1.
       -3    1    3    3    0  502  0.30655829022E+02 -0.27135376075E+03 -0.56630257706E+03  0.62870602217E+03  0.10100000352E+00 0. -1.
</event>
<event>
 5   0  0.1353789E-03  0.1000005E+04  0.7818609E-02  0.9308539E-01
        1   -1    0    0  501    0  0.00000000000E+00  0.00000000000E+00  0.59301809163E+03  0.59301809165E+03  0.50400001928E-02 0. -1.
       -1   -1    0    0    0  501  0.00000000000E+00  0.00000000000E+00 -0.42157674457E+03  0.42157674460E+03  0.50400001928E-02 0.  1.
    10030    2    1    2    0    0  0.00000000000E+00  0.00000000000E+00  0.17144134706E+03  0.10145948363E+04  0.10000052731E+04 0.  0.
        1    1    3    3  502    0 -0.16487322582E+03  0.22409616810E+02  0.56410501199E+03  0.58813249876E+03  0.50400001928E-02 0. -1.
       -1    1    3    3    0  502  0.16487322582E+03 -0.22409616810E+02 -0.39266366493E+03  0.42646233749E+03  0.50400001928E-02 0.  1.
</event>
<event>
 5   0  0.2255142E-03  0.9871570E+03  0.7818609E-02  0.9322744E-01
       -2   -1    0    0    0  501  0.00000000000E+00  0.00000000000E+00  0.38460906340E+03  0.38460906341E+03  0.25500000920E-02 0. -1.
        2   -1    0    0  501    0  0.00000000000E+00  0.00000000000E+00 -0.63342178587E+03  0.63342178587E+03  0.25500000920E-02 0.  1.
    10030    2    1    2    0    0  0.00000000000E+00  0.00000000000E+00 -0.24881272247E+03  0.10180308493E+04  0.98715704891E+03 0.  0.
        4    1    3    3  502    0 -0.40379875704E+03 -0.29342224768E+02  0.16674179911E+03  0.43785710319E+03  0.12699999809E+01 0. -1.
       -4    1    3    3    0  502  0.40379875704E+03  0.29342224768E+02 -0.41555452158E+03  0.58017374609E+03  0.12699999809E+01 0.  1.
</event>
<event>
 5   0  0.2284843E-03  0.9967017E+03  0.7818609E-02  0.9312170E-01
       -2   -1    0    0    0  501  0.00000000000E+00  0.00000000000E+00  0.19325557345E+03  0.19325557346E+03  0.25500000920E-02 0. -1.
        2   -1    0    0  501    0  0.00000000000E+00  0.00000000000E+00 -0.12851043071E+04  0.12851043071E+04  0.25500000920E-02 0.  1.
    10030    2    1    2    0    0  0.00000000000E+00  0.00000000000E+00 -0.10918487336E+04  0.14783598805E+04  0.99670170024E+03 0.  0.
        2    1    3    3  502    0 -0.22232956219E+03  0.10931320856E+03  0.95440694265E+02  0.26549715237E+03  0.25500000920E-02 0. -1.
       -2    1    3    3    0  502  0.22232956219E+03 -0.10931320856E+03 -0.11872894279E+04  0.12128627282E+04  0.25500000920E-02 0.  1.
</event>
<event>
 5   0  0.1249195E-03  0.1000231E+04  0.7818609E-02  0.9308292E-01
        1   -1    0    0  501    0  0.00000000000E+00  0.00000000000E+00  0.18387790297E+04  0.18387790297E+04  0.50400001928E-02 0. -1.
       -1   -1    0    0    0  501  0.00000000000E+00  0.00000000000E+00 -0.13602249405E+03  0.13602249414E+03  0.50400001928E-02 0.  1.
    10030    2    1    2    0    0  0.00000000000E+00  0.00000000000E+00  0.17027565356E+04  0.19748015238E+04  0.10002305929E+04 0.  0.
        2    1    3    3  502    0 -0.18757435990E+03 -0.97919685725E+02  0.17460488762E+04  0.17588232099E+04  0.25500000920E-02 0. -1.
       -2    1    3    3    0  502  0.18757435990E+03  0.97919685725E+02 -0.43292340600E+02  0.21597831397E+03  0.25500000920E-02 0.  1.
</event>
<event>
 5   0  0.2284843E-03  0.9983061E+03  0.7818609E-02  0.9310405E-01
       -2   -1    0    0    0  501  0.00000000000E+00  0.00000000000E+00  0.13598988453E+03  0.13598988455E+03  0.25500000920E-02 0.  1.
        2   -1    0    0  501    0  0.00000000000E+00  0.00000000000E+00 -0.18321491166E+04  0.18321491166E+04  0.25500000920E-02 0. -1.
    10030    2    1    2    0    0  0.00000000000E+00  0.00000000000E+00 -0.16961592321E+04  0.19681390011E+04  0.99830605895E+03 0.  0.
        2    1    3    3  502    0 -0.48380704410E+03 -0.63591605006E+02 -0.64092797766E+03  0.80554442503E+03  0.25500000920E-02 0.  1.
       -2    1    3    3    0  502  0.48380704410E+03  0.63591605006E+02 -0.10552312544E+04  0.11625945761E+04  0.25500000920E-02 0. -1.
</event>
<event>
 5   0  0.1249195E-03  0.1004067E+04  0.7818609E-02  0.9304095E-01
       -1   -1    0    0    0  501  0.00000000000E+00  0.00000000000E+00  0.30381782235E+03  0.30381782239E+03  0.50400001928E-02 0. -1.
        1   -1    0    0  501    0  0.00000000000E+00  0.00000000000E+00 -0.82956862395E+03  0.82956862397E+03  0.50400001928E-02 0.  1.
    10030    2    1    2    0    0  0.00000000000E+00  0.00000000000E+00 -0.52575080161E+03  0.11333864464E+04  0.10040671947E+04 0.  0.
        2    1    3    3  502    0  0.33323383136E+03 -0.16381137231E+03  0.11851512276E+03  0.38977530243E+03  0.25500000920E-02 0. -1.
       -2    1    3    3    0  502 -0.33323383136E+03  0.16381137231E+03 -0.64426592437E+03  0.74361114392E+03  0.25500000920E-02 0.  1.
</event>
<event>
 5   0  0.8680125E-04  0.9784161E+03  0.7818609E-02  0.9332540E-01
        3   -1    0    0  501    0  0.00000000000E+00  0.00000000000E+00  0.44404996178E+03  0.44404997327E+03  0.10100000352E+00 0.  1.
       -3   -1    0    0    0  501  0.00000000000E+00  0.00000000000E+00 -0.53895849779E+03  0.53895850726E+03  0.10100000352E+00 0. -1.
    10030    2    1    2    0    0  0.00000000000E+00  0.00000000000E+00 -0.94908536013E+02  0.98300848053E+03  0.97841608868E+03 0.  0.
        2    1    3    3  502    0 -0.30854611855E+03  0.25876493894E+02  0.33307698297E+03  0.45476430907E+03  0.25500000920E-02 0.  1.
       -2    1    3    3    0  502  0.30854611855E+03 -0.25876493894E+02 -0.42798551899E+03  0.52824417146E+03  0.25500000920E-02 0. -1.
</event>
<event>
 5   0  0.1353789E-03  0.1002009E+04  0.7818609E-02  0.9306344E-01
       -1   -1    0    0    0  501  0.00000000000E+00  0.00000000000E+00  0.77602206712E+03  0.77602206713E+03  0.50400001928E-02 0. -1.
        1   -1    0    0  501    0  0.00000000000E+00  0.00000000000E+00 -0.32345176394E+03  0.32345176398E+03  0.50400001928E-02 0.  1.
    10030    2    1    2    0    0  0.00000000000E+00  0.00000000000E+00  0.45257030317E+03  0.10994738311E+04  0.10020093942E+04 0.  0.
        1    1    3    3  502    0 -0.43101503717E+03 -0.18131192736E+03  0.28905616387E+02  0.46849067435E+03  0.50400001928E-02 0.  1.
       -1    1    3    3    0  502  0.43101503717E+03  0.18131192736E+03  0.42366468679E+03  0.63098315677E+03  0.50400001928E-02 0. -1.
</event>
<event>
 5   0  0.2284843E-03  0.9980223E+03  0.7818609E-02  0.9310717E-01
        2   -1    0    0  501    0  0.00000000000E+00  0.00000000000E+00  0.44746660892E+03  0.44746660893E+03  0.25500000920E-02 0.  1.
       -2   -1    0    0    0  501  0.00000000000E+00  0.00000000000E+00 -0.55649324113E+03  0.55649324113E+03  0.25500000920E-02 0. -1.
    10030    2    1    2    0    0  0.00000000000E+00  0.00000000000E+00 -0.10902663220E+03  0.10039598501E+04  0.99802233142E+03 0.  0.
        2    1    3    3  502    0 -0.88105452047E+02 -0.82811011109E+01 -0.54853683902E+03  0.55562920287E+03  0.25500000920E-02 0. -1.
       -2    1    3    3    0  502  0.88105452047E+02  0.82811011109E+01  0.43951020681E+03  0.44833064720E+03  0.25500000920E-02 0.  1.
</event>
<event>
 5   0  0.2255142E-03  0.1004686E+04  0.7818609E-02  0.9303420E-01
       -2   -1    0    0    0  501  0.00000000000E+00  0.00000000000E+00  0.30238644235E+03  0.30238644236E+03  0.25500000920E-02 0. -1.
        2   -1    0    0  501    0  0.00000000000E+00  0.00000000000E+00 -0.83452330376E+03  0.83452330377E+03  0.25500000920E-02 0.  1.
    10030    2    1    2    0    0  0.00000000000E+00  0.00000000000E+00 -0.53213686142E+03  0.11369097461E+04  0.10046860861E+04 0.  0.
        4    1    3    3  502    0  0.22815605736E+02  0.46401407634E+03 -0.48231287658E+03  0.66966927563E+03  0.12699999809E+01 0. -1.
       -4    1    3    3    0  502 -0.22815605736E+02 -0.46401407634E+03 -0.49823984831E+02  0.46724047049E+03  0.12699999809E+01 0.  1.
</event>
<event>
 5   0  0.2204862E-03  0.9970547E+03  0.7818609E-02  0.9311781E-01
       -2   -1    0    0    0  501  0.00000000000E+00  0.00000000000E+00  0.18452997168E+03  0.18452997169E+03  0.25500000920E-02 0.  1.
        2   -1    0    0  501    0  0.00000000000E+00  0.00000000000E+00 -0.13468246252E+04  0.13468246252E+04  0.25500000920E-02 0. -1.
    10030    2    1    2    0    0  0.00000000000E+00  0.00000000000E+00 -0.11622946535E+04  0.15313545969E+04  0.99705468247E+03 0.  0.
        1    1    3    3  502    0  0.46940010817E+03  0.16731743698E+03 -0.55953977082E+03  0.74927721267E+03  0.50400001928E-02 0. -1.
       -1    1    3    3    0  502 -0.46940010817E+03 -0.16731743698E+03 -0.60275488272E+03  0.78207738424E+03  0.50400001928E-02 0.  1.
</event>
<event>
 5   0  0.2204862E-03  0.1007391E+04  0.7818609E-02  0.9300476E-01
       -2   -1    0    0    0  501  0.00000000000E+00  0.00000000000E+00  0.77183398767E+03  0.77183398768E+03  0.25500000920E-02 0. -1.
        2   -1    0    0  501    0  0.00000000000E+00  0.00000000000E+00 -0.32870933787E+03  0.32870933788E+03  0.25500000920E-02 0.  1.
    10030    2    1    2    0    0  0.00000000000E+00  0.00000000000E+00  0.44312464980E+03  0.11005433256E+04  0.10073907664E+04 0.  0.
        1    1    3    3  502    0 -0.29162070390E+03  0.35276208898E+03 -0.81819164331E+01  0.45776704791E+03  0.50400001928E-02 0.  1.
       -1    1    3    3    0  502  0.29162070390E+03 -0.35276208898E+03  0.45130656623E+03  0.64277627765E+03  0.50400001928E-02 0. -1.
</event>
<event>
 5   0  0.1249195E-03  0.1007242E+04  0.7818609E-02  0.9300637E-01
       -1   -1    0    0    0  501  0.00000000000E+00  0.00000000000E+00  0.50200945051E+03  0.50200945054E+03  0.50400001928E-02 0. -1.
        1   -1    0    0  501    0  0.00000000000E+00  0.00000000000E+00 -0.50523817052E+03  0.50523817055E+03  0.50400001928E-02 0.  1.
    10030    2    1    2    0    0  0.00000000000E+00  0.00000000000E+00 -0.32287200102E+01  0.10072476211E+04  0.10072424463E+04 0.  0.
        2    1    3    3  502    0 -0.78062320652E+02 -0.12252147262E+02 -0.49900056545E+03  0.50521817598E+03  0.25500000920E-02 0.  1.
       -2    1    3    3    0  502  0.78062320652E+02  0.12252147262E+02  0.49577184544E+03  0.50202944511E+03  0.25500000920E-02 0. -1.
</event>
<event>
 5   0  0.8680125E-04  0.1001972E+04  0.7818609E-02  0.9306385E-01
        4   -1    0    0  501    0  0.00000000000E+00  0.00000000000E+00  0.83313914587E+03  0.83314011384E+03  0.12699999809E+01 0.  1.
       -4   -1    0    0    0  501  0.00000000000E+00  0.00000000000E+00 -0.30125210670E+03  0.30125478368E+03  0.12699999809E+01 0. -1.
    10030    2    1    2    0    0  0.00000000000E+00  0.00000000000E+00  0.53188703918E+03  0.11343948975E+04  0.10019720361E+04 0.  0.
        1    1    3    3  502    0  0.23633066530E+03 -0.38423636076E+02  0.76417007071E+03  0.80080238271E+03  0.50400001928E-02 0.  1.
       -1    1    3    3    0  502 -0.23633066530E+03  0.38423636076E+02 -0.23228303153E+03  0.33359251480E+03  0.50400001928E-02 0. -1.
</event>
<event>
 5   0  0.2204862E-03  0.1001834E+04  0.7818609E-02  0.9306536E-01
       -2   -1    0    0    0  501  0.00000000000E+00  0.00000000000E+00  0.40802310537E+03  0.40802310538E+03  0.25500000920E-02 0. -1.
        2   -1    0    0  501    0  0.00000000000E+00  0.00000000000E+00 -0.61495993407E+03  0.61495993408E+03  0.25500000920E-02 0.  1.
    10030    2    1    2    0    0  0.00000000000E+00  0.00000000000E+00 -0.20693682870E+03  0.10229830395E+04  0.10018340421E+04 0.  0.
        1    1    3    3  502    0 -0.81173176802E+01 -0.33675008940E+03  0.27510241881E+03  0.43491131788E+03  0.50400001928E-02 0. -1.
       -1    1    3    3    0  502  0.81173176802E+01  0.33675008940E+03 -0.48203924751E+03  0.58807172158E+03  0.50400001928E-02 0.  1.
</event>
<event>
 5   0  0.2264577E-03  0.9956614E+03  0.7818609E-02  0.9313316E-01
       -2   -1    0    0    0  501  0.00000000000E+00  0.00000000000E+00  0.17180470481E+04  0.17180470481E+04  0.25500000920E-02 0.  1.
        2   -1    0    0  501    0  0.00000000000E+00  0.00000000000E+00 -0.14425413316E+03  0.14425413319E+03  0.25500000920E-02 0. -1.
    10030    2    1    2    0    0  0.00000000000E+00  0.00000000000E+00  0.15737929149E+04  0.18623011813E+04  0.99566136348E+03 0.  0.
        5    1    3    3  502    0 -0.30100495843E+02 -0.48988606236E+03  0.63131533220E+03  0.79967214070E+03  0.46999998093E+01 0. -1.
       -5    1    3    3    0  502  0.30100495843E+02  0.48988606236E+03  0.94247758275E+03  0.10626290406E+04  0.46999998093E+01 0.  1.
</event>
<event>
 5   0  0.2255142E-03  0.9981397E+03  0.7818609E-02  0.9310587E-01
       -2   -1    0    0    0  501  0.00000000000E+00  0.00000000000E+00  0.16241755869E+03  0.16241755871E+03  0.25500000920E-02 0. -1.
        2   -1    0    0  501    0  0.00000000000E+00  0.00000000000E+00 -0.15335210062E+04  0.15335210062E+04  0.25500000920E-02 0.  1.
    10030    2    1    2    0    0  0.00000000000E+00  0.00000000000E+00 -0.13711034475E+04  0.16959385649E+04  0.99813974582E+03 0.  0.
        4    1    3    3  502    0  0.18468225084E+03  0.34800645134E+03 -0.12060785066E+04  0.12687958862E+04  0.12699999809E+01 0.  1.
       -4    1    3    3    0  502 -0.18468225084E+03 -0.34800645134E+03 -0.16502494097E+03  0.42714267873E+03  0.12699999809E+01 0. -1.
</event>
<event>
 5   0  0.1353789E-03  0.9968645E+03  0.7818609E-02  0.9311990E-01
       -1   -1    0    0    0  501  0.00000000000E+00  0.00000000000E+00  0.27382058111E+03  0.27382058116E+03  0.50400001928E-02 0. -1.
        1   -1    0    0  501    0  0.00000000000E+00  0.00000000000E+00 -0.90729013887E+03  0.90729013889E+03  0.50400001928E-02 0.  1.
    10030    2    1    2    0    0  0.00000000000E+00  0.00000000000E+00 -0.63346955776E+03  0.11811107200E+04  0.99686451055E+03 0.  0.
        1    1    3    3  502    0  0.31934373070E+03  0.13598224161E+03  0.10710029628E+03  0.36323829900E+03  0.50400001928E-02 0. -1.
       -1    1    3    3    0  502 -0.31934373070E+03 -0.13598224161E+03 -0.74056985404E+03  0.81787242105E+03  0.50400001928E-02 0.  1.
</event>
<event>
 5   0  0.2277570E-03  0.1002577E+04  0.7818609E-02  0.9305723E-01
        2   -1    0    0  501    0  0.00000000000E+00  0.00000000000E+00  0.30242721278E+03  0.30242721279E+03  0.25500000920E-02 0.  1.
       -2   -1    0    0    0  501  0.00000000000E+00  0.00000000000E+00 -0.83091045644E+03  0.83091045645E+03  0.25500000920E-02 0. -1.
    10030    2    1    2    0    0  0.00000000000E+00  0.00000000000E+00 -0.52848324366E+03  0.11333376692E+04  0.10025765475E+04 0.  0.
        3    1    3    3  502    0  0.34761703042E+02 -0.27834436250E+02  0.30018675144E+03  0.30347195551E+03  0.10100000352E+00 0.  1.
       -3    1    3    3    0  502 -0.34761703042E+02  0.27834436250E+02 -0.82866999510E+03  0.82986571373E+03  0.10100000352E+00 0. -1.
</event>
<event>
 5   0  0.2204862E-03  0.9992165E+03  0.7818609E-02  0.9309405E-01
       -2   -1    0    0    0  501  0.00000000000E+00  0.00000000000E+00  0.10548432742E+04  0.10548432742E+04  0.25500000920E-02 0. -1.
        2   -1    0    0  501    0  0.00000000000E+00  0.00000000000E+00 -0.23663078644E+03  0.23663078646E+03  0.25500000920E-02 0.  1.
    10030    2    1    2    0    0  0.00000000000E+00  0.00000000000E+00  0.81821248773E+03  0.12914740606E+04  0.99921648016E+03 0.  0.
        1    1    3    3  502    0 -0.25396600001E+03  0.14896697263E+03  0.93079479771E+03  0.97625244868E+03  0.50400001928E-02 0. -1.
       -1    1    3    3    0  502  0.25396600001E+03 -0.14896697263E+03 -0.11258230997E+03  0.31522161195E+03  0.50400001928E-02 0.  1.
</event>
<event>
 5   0  0.1293575E-03  0.9989731E+03  0.7818609E-02  0.9309672E-01
        1   -1    0    0  501    0  0.00000000000E+00  0.00000000000E+00  0.12282446728E+04  0.12282446728E+04  0.50400001928E-02 0. -1.
       -1   -1    0    0    0  501  0.00000000000E+00  0.00000000000E+00 -0.20312467922E+03  0.20312467928E+03  0.50400001928E-02 0.  1.
    10030    2    1    2    0    0  0.00000000000E+00  0.00000000000E+00  0.10251199936E+04  0.14313693521E+04  0.99897308316E+03 0.  0.
        4    1    3    3  502    0  0.36741211045E+03  0.20593870872E+03  0.89725247644E+03  0.99119424435E+03  0.12699999809E+01 0. -1.
       -4    1    3    3    0  502 -0.36741211045E+03 -0.20593870872E+03  0.12786751716E+03  0.44017510776E+03  0.12699999809E+01 0.  1.
</event>
<event>
 5   0  0.2277570E-03  0.1002556E+04  0.7818609E-02  0.9305746E-01
        2   -1    0    0  501    0  0.00000000000E+00  0.00000000000E+00  0.13513694789E+04  0.13513694789E+04  0.25500000920E-02 0.  1.
       -2   -1    0    0    0  501  0.00000000000E+00  0.00000000000E+00 -0.18594437130E+03  0.18594437132E+03  0.25500000920E-02 0. -1.
    10030    2    1    2    0    0  0.00000000000E+00  0.00000000000E+00  0.11654251076E+04  0.15373138502E+04  0.10025558302E+04 0.  0.
        3    1    3    3  502    0  0.89442327045E+02 -0.47593429395E+03  0.78126293424E+03  0.91917635122E+03  0.10100000352E+00 0.  1.
       -3    1    3    3    0  502 -0.89442327045E+02  0.47593429395E+03  0.38416217333E+03  0.61813749897E+03  0.10100000352E+00 0. -1.
</event>
<event>
 5   0  0.2204862E-03  0.1000393E+04  0.7818609E-02  0.9308114E-01
        2   -1    0    0  501    0  0.00000000000E+00  0.00000000000E+00  0.16422506199E+04  0.16422506199E+04  0.25500000920E-02 0.  1.
       -2   -1    0    0    0  501  0.00000000000E+00  0.00000000000E+00 -0.15234965097E+03  0.15234965099E+03  0.25500000920E-02 0. -1.
    10030    2    1    2    0    0  0.00000000000E+00  0.00000000000E+00  0.14899009689E+04  0.17946002709E+04  0.10003925405E+04 0.  0.
        1    1    3    3  502    0 -0.26059879711E+03  0.23968705671E+03  0.11113195902E+03  0.37109558142E+03  0.50400001928E-02 0. -1.
       -1    1    3    3    0  502  0.26059879711E+03 -0.23968705671E+03  0.13787690099E+04  0.14235046895E+04  0.50400001928E-02 0.  1.
</event>
<event>
 5   0  0.1249195E-03  0.1004902E+04  0.7818609E-02  0.9303185E-01
       -1   -1    0    0    0  501  0.00000000000E+00  0.00000000000E+00  0.23953864667E+03  0.23953864672E+03  0.50400001928E-02 0. -1.
        1   -1    0    0  501    0  0.00000000000E+00  0.00000000000E+00 -0.10539295618E+04  0.10539295618E+04  0.50400001928E-02 0.  1.
    10030    2    1    2    0    0  0.00000000000E+00  0.00000000000E+00 -0.81439091516E+03  0.12934682086E+04  0.10049017086E+04 0.  0.
        2    1    3    3  502    0  0.11738126836E+03  0.35040628858E+03  0.30994603316E+02  0.37084173805E+03  0.25500000920E-02 0. -1.
       -2    1    3    3    0  502 -0.11738126836E+03 -0.35040628858E+03 -0.84538551847E+03  0.92262647051E+03  0.25500000920E-02 0.  1.
</event>
<event>
 5   0  0.2264577E-03  0.9988184E+03  0.7818609E-02  0.9309842E-01
       -2   -1    0    0    0  501  0.00000000000E+00  0.00000000000E+00  0.30005721922E+03  0.30005721923E+03  0.25500000920E-02 0. -1.
        2   -1    0    0  501    0  0.00000000000E+00  0.00000000000E+00 -0.83120660230E+03  0.83120660230E+03  0.25500000920E-02 0.  1.
    10030    2    1    2    0    0  0.00000000000E+00  0.00000000000E+00 -0.53114938308E+03  0.11312638215E+04  0.99881838527E+03 0.  0.
        5    1    3    3  502    0  0.42832402837E+03  0.10914758716E+03 -0.52879878973E+03  0.68922051557E+03  0.46999998093E+01 0.  1.
       -5    1    3    3    0  502 -0.42832402837E+03 -0.10914758716E+03 -0.23505933466E+01  0.44204330596E+03  0.46999998093E+01 0. -1.
</event>
<event>
 5   0  0.1353789E-03  0.9997970E+03  0.7818609E-02  0.9308767E-01
        1   -1    0    0  501    0  0.00000000000E+00  0.00000000000E+00  0.66714891259E+03  0.66714891261E+03  0.50400001928E-02 0. -1.
       -1   -1    0    0    0  501  0.00000000000E+00  0.00000000000E+00 -0.37457681872E+03  0.37457681876E+03  0.50400001928E-02 0.  1.
    10030    2    1    2    0    0  0.00000000000E+00  0.00000000000E+00  0.29257209387E+03  0.10417257314E+04  0.99979701404E+03 0.  0.
        1    1    3    3  502    0 -0.21427426592E+01  0.21288158896E+03  0.61755433097E+03  0.65322011144E+03  0.50400001928E-02 0. -1.
       -1    1    3    3    0  502  0.21427426592E+01 -0.21288158896E+03 -0.32498223709E+03  0.38850561993E+03  0.50400001928E-02 0.  1.
</event>
<event>
 5   0  0.2204862E-03  0.1001348E+04  0.7818609E-02  0.9307068E-01
       -2   -1    0    0    0  501  0.00000000000E+00  0.00000000000E+00  0.35456367310E+03  0.35456367311E+03  0.25500000920E-02 0. -1.
        2   -1    0    0  501    0  0.00000000000E+00  0.00000000000E+00 -0.70699392093E+03  0.70699392094E+03  0.25500000920E-02 0.  1.
    10030    2    1    2    0    0  0.00000000000E+00  0.00000000000E+00 -0.35243024783E+03  0.10615575940E+04  0.10013478146E+04 0.  0.
        1    1    3    3  502    0  0.12619224153E+03  0.14382960959E+03  0.31427394471E+03  0.36793960206E+03  0.50400001928E-02 0. -1.
       -1    1    3    3    0  502 -0.12619224153E+03 -0.14382960959E+03 -0.66670419254E+03  0.69361799198E+03  0.50400001928E-02 0.  1.
</event>
<event>
 5   0  0.2284843E-03  0.1001311E+04  0.7818609E-02  0.9307109E-01
        2   -1    0    0  501    0  0.00000000000E+00  0.00000000000E+00  0.70344528609E+03  0.70344528610E+03  0.25500000920E-02 0. -1.
       -2   -1    0    0    0  501  0.00000000000E+00  0.00000000000E+00 -0.35632581360E+03  0.35632581360E+03  0.25500000920E-02 0.  1.
    10030    2    1    2    0    0  0.00000000000E+00  0.00000000000E+00  0.34711947250E+03  0.10597710997E+04  0.10013105690E+04 0.  0.
        2    1    3    3  502    0  0.33226059669E+02  0.45361488623E+03 -0.47906398870E+02  0.45734610429E+03  0.25500000920E-02 0.  1.
       -2    1    3    3    0  502 -0.33226059669E+02 -0.45361488623E+03  0.39502587137E+03  0.60242499542E+03  0.25500000920E-02 0. -1.
</event>
<event>
 5   0  0.1285769E-03  0.9989483E+03  0.7818609E-02  0.9309699E-01
       -1   -1    0    0    0  501  0.00000000000E+00  0.00000000000E+00  0.29815449080E+03  0.29815449084E+03  0.50400001928E-02 0. -1.
        1   -1    0    0  501    0  0.00000000000E+00  0.00000000000E+00 -0.83672874404E+03  0.83672874405E+03  0.50400001928E-02 0.  1.
    10030    2    1    2    0    0  0.00000000000E+00  0.00000000000E+00 -0.53857425323E+03  0.11348832349E+04  0.99894831228E+03 0.  0.
        5    1    3    3  502    0  0.16496908817E+03 -0.40079031433E+03  0.12690706281E+02  0.43362520699E+03  0.46999998093E+01 0.  1.
       -5    1    3    3    0  502 -0.16496908817E+03  0.40079031433E+03 -0.55126495951E+03  0.70125802790E+03  0.46999998093E+01 0. -1.
</event>
<event>
 5   0  0.1293716E-03  0.9991892E+03  0.7818609E-02  0.9309434E-01
       -1   -1    0    0    0  501  0.00000000000E+00  0.00000000000E+00  0.17674638216E+03  0.17674638223E+03  0.50400001928E-02 0.  1.
        1   -1    0    0  501    0  0.00000000000E+00  0.00000000000E+00 -0.14121634495E+04  0.14121634495E+04  0.50400001928E-02 0. -1.
    10030    2    1    2    0    0  0.00000000000E+00  0.00000000000E+00 -0.12354170673E+04  0.15889098317E+04  0.99918923289E+03 0.  0.
        3    1    3    3  502    0 -0.24448578360E+03  0.25212786990E+03 -0.52677402802E+02  0.35512910347E+03  0.10100000352E+00 0.  1.
       -3    1    3    3    0  502  0.24448578360E+03 -0.25212786990E+03 -0.11827396645E+04  0.12337807283E+04  0.10100000352E+00 0. -1.
</event>
<event>
 5   0  0.2277570E-03  0.1000217E+04  0.7818609E-02  0.9308307E-01
        2   -1    0    0  501    0  0.00000000000E+00  0.00000000000E+00  0.56554993879E+03  0.56554993880E+03  0.25500000920E-02 0.  1.
       -2   -1    0    0    0  501  0.00000000000E+00  0.00000000000E+00 -0.44223930456E+03  0.44223930457E+03  0.25500000920E-02 0. -1.
    10030    2    1    2    0    0  0.00000000000E+00  0.00000000000E+00  0.12331063423E+03  0.10077892434E+04  0.10002167998E+04 0.  0.
        3    1    3    3  502    0 -0.94544734984E+02 -0.34103126487E+03  0.41769635446E+03  0.54745893478E+03  0.10100000352E+00 0.  1.
       -3    1    3    3    0  502  0.94544734984E+02  0.34103126487E+03 -0.29438572023E+03  0.46033030859E+03  0.10100000352E+00 0. -1.
</event>
<event>
 5   0  0.2264577E-03  0.1003237E+04  0.7818609E-02  0.9305001E-01
        2   -1    0    0  501    0  0.00000000000E+00  0.00000000000E+00  0.59083415867E+03  0.59083415867E+03  0.25500000920E-02 0. -1.
       -2   -1    0    0    0  501  0.00000000000E+00  0.00000000000E+00 -0.42587457041E+03  0.42587457042E+03  0.25500000920E-02 0.  1.
    10030    2    1    2    0    0  0.00000000000E+00  0.00000000000E+00  0.16495958826E+03  0.10167087291E+04  0.10032372471E+04 0.  0.
        5    1    3    3  502    0 -0.52975563708E+02  0.31342748401E+03 -0.31074588764E+03  0.44455404032E+03  0.46999998093E+01 0.  1.
       -5    1    3    3    0  502  0.52975563708E+02 -0.31342748401E+03  0.47570547590E+03  0.57215468877E+03  0.46999998093E+01 0. -1.
</event>
<event>
 5   0  0.1285769E-03  0.9994092E+03  0.7818609E-02  0.9309193E-01
       -1   -1    0    0    0  501  0.00000000000E+00  0.00000000000E+00  0.27719333951E+03  0.27719333955E+03  0.50400001928E-02 0.  1.
        1   -1    0    0  501    0  0.00000000000E+00  0.00000000000E+00 -0.90083219761E+03  0.90083219762E+03  0.50400001928E-02 0. -1.
    10030    2    1    2    0    0  0.00000000000E+00  0.00000000000E+00 -0.62363885810E+03  0.11780255372E+04  0.99940919593E+03 0.  0.
        5    1    3    3  502    0 -0.27271398715E+03  0.71819635478E+02 -0.79803560523E+03  0.84641236760E+03  0.46999998093E+01 0. -1.
       -5    1    3    3    0  502  0.27271398715E+03 -0.71819635478E+02  0.17439674712E+03  0.33161316957E+03  0.46999998093E+01 0.  1.
</event>
<event>
 5   0  0.2204862E-03  0.1000996E+04  0.7818609E-02  0.9307453E-01
        2   -1    0    0  501    0  0.00000000000E+00  0.00000000000E+00  0.49591565444E+03  0.49591565445E+03  0.25500000920E-02 0. -1.
       -2   -1    0    0    0  501  0.00000000000E+00  0.00000000000E+00 -0.50512314079E+03  0.50512314080E+03  0.25500000920E-02 0.  1.
    10030    2    1    2    0    0  0.00000000000E+00  0.00000000000E+00 -0.92074863523E+01  0.10010387953E+04  0.10009964494E+04 0.  0.
        1    1    3    3  502    0  0.28526869776E+03  0.15611896247E+03  0.37586880443E+03  0.49701983716E+03  0.50400001928E-02 0. -1.
       -1    1    3    3    0  502 -0.28526869776E+03 -0.15611896247E+03 -0.38507629078E+03  0.50401895809E+03  0.50400001928E-02 0.  1.
</event>
<event>
 5   0  0.1293575E-03  0.9996078E+03  0.7818609E-02  0.9308975E-01
        1   -1    0    0  501    0  0.00000000000E+00  0.00000000000E+00  0.78831546112E+03  0.78831546113E+03  0.50400001928E-02 0. -1.
       -1   -1    0    0    0  501  0.00000000000E+00  0.00000000000E+00 -0.31688322521E+03  0.31688322525E+03  0.50400001928E-02 0.  1.
    10030    2    1    2    0    0  0.00000000000E+00  0.00000000000E+00  0.47143223591E+03  0.11051986864E+04  0.99960781475E+03 0.  0.
        4    1    3    3  502    0  0.15601709655E+03  0.46920300870E+03  0.15515249891E+03  0.51823422176E+03  0.12699999809E+01 0. -1.
       -4    1    3    3    0  502 -0.15601709655E+03 -0.46920300870E+03  0.31627973700E+03  0.58696446462E+03  0.12699999809E+01 0.  1.
</event>
<event>
 5   0  0.2277570E-03  0.9990172E+03  0.7818609E-02  0.9309623E-01
        2   -1    0    0  501    0  0.00000000000E+00  0.00000000000E+00  0.91144265697E+03  0.91144265697E+03  0.25500000920E-02 0. -1.
       -2   -1    0    0    0  501  0.00000000000E+00  0.00000000000E+00 -0.27375157845E+03  0.27375157846E+03  0.25500000920E-02 0.  1.
    10030    2    1    2    0    0  0.00000000000E+00  0.00000000000E+00  0.63769107852E+03  0.11851942354E+04  0.99901724915E+03 0.  0.
        3    1    3    3  502    0 -0.24414078775E+03  0.35236699071E+03  0.14661238832E+02  0.42893144267E+03  0.10100000352E+00 0.  1.
       -3    1    3    3    0  502  0.24414078775E+03 -0.35236699071E+03  0.62302983969E+03  0.75626279277E+03  0.10100000352E+00 0. -1.
</event>
<event>
 5   0  0.2255142E-03  0.9914848E+03  0.7818609E-02  0.9317934E-01
        2   -1    0    0  501    0  0.00000000000E+00  0.00000000000E+00  0.62209730844E+03  0.62209730844E+03  0.25500000920E-02 0. -1.
       -2   -1    0    0    0  501  0.00000000000E+00  0.00000000000E+00 -0.39505160782E+03  0.39505160783E+03  0.25500000920E-02 0.  1.
    10030    2    1    2    0    0  0.00000000000E+00  0.00000000000E+00  0.22704570061E+03  0.10171489163E+04  0.99148482979E+03 0.  0.
        4    1    3    3  502    0  0.12834197677E+03  0.20236051576E+03  0.55873484203E+03  0.60795368075E+03  0.12699999809E+01 0. -1.
       -4    1    3    3    0  502 -0.12834197677E+03 -0.20236051576E+03 -0.33168914142E+03  0.40919523552E+03  0.12699999809E+01 0.  1.
</event>
<event>
 5   0  0.2284843E-03  0.9884112E+03  0.7818609E-02  0.9321347E-01
        2   -1    0    0  501    0  0.00000000000E+00  0.00000000000E+00  0.36826806932E+03  0.36826806933E+03  0.25500000920E-02 0.  1.
       -2   -1    0    0    0  501  0.00000000000E+00  0.00000000000E+00 -0.66321029698E+03  0.66321029698E+03  0.25500000920E-02 0. -1.
    10030    2    1    2    0    0  0.00000000000E+00  0.00000000000E+00 -0.29494222765E+03  0.10314783663E+04  0.98841120113E+03 0.  0.
        2    1    3    3  502    0  0.76305664077E+02  0.43625751015E+03  0.81392616467E+02  0.45029759888E+03  0.25500000920E-02 0.  1.
       -2    1    3    3    0  502 -0.76305664077E+02 -0.43625751015E+03 -0.37633484412E+03  0.58118076744E+03  0.25500000920E-02 0. -1.
</event>
<event>
 5   0  0.2255142E-03  0.1003623E+04  0.7818609E-02  0.9304580E-01
        2   -1    0    0  501    0  0.00000000000E+00  0.00000000000E+00  0.65149621652E+03  0.65149621653E+03  0.25500000920E-02 0.  1.
       -2   -1    0    0    0  501  0.00000000000E+00  0.00000000000E+00 -0.38651739176E+03  0.38651739177E+03  0.25500000920E-02 0. -1.
    10030    2    1    2    0    0  0.00000000000E+00  0.00000000000E+00  0.26497882476E+03  0.10380136083E+04  0.10036226748E+04 0.  0.
        4    1    3    3  502    0  0.41638258012E+03 -0.24604685001E+03 -0.58841215659E+01  0.48368351348E+03  0.12699999809E+01 0. -1.
       -4    1    3    3    0  502 -0.41638258012E+03  0.24604685001E+03  0.27086294633E+03  0.55433009482E+03  0.12699999809E+01 0.  1.
</event>
<event>
 5   0  0.2204862E-03  0.9709040E+03  0.7818609E-02  0.9341045E-01
        2   -1    0    0  501    0  0.00000000000E+00  0.00000000000E+00  0.88986697077E+03  0.88986697078E+03  0.25500000920E-02 0.  1.
       -2   -1    0    0    0  501  0.00000000000E+00  0.00000000000E+00 -0.26483019043E+03  0.26483019044E+03  0.25500000920E-02 0. -1.
    10030    2    1    2    0    0  0.00000000000E+00  0.00000000000E+00  0.62503678035E+03  0.11546971612E+04  0.97090398976E+03 0.  0.
        1    1    3    3  502    0  0.10794976344E+03 -0.29880725200E+03 -0.12401296894E+03  0.34105445572E+03  0.50400001928E-02 0. -1.
       -1    1    3    3    0  502 -0.10794976344E+03  0.29880725200E+03  0.74904974928E+03  0.81364270549E+03  0.50400001928E-02 0.  1.
</event>
<event>
 5   0  0.1285769E-03  0.9993770E+03  0.7818609E-02  0.9309228E-01
       -1   -1    0    0    0  501  0.00000000000E+00  0.00000000000E+00  0.27523595690E+03  0.27523595695E+03  0.50400001928E-02 0. -1.
        1   -1    0    0  501    0  0.00000000000E+00  0.00000000000E+00 -0.90718008560E+03  0.90718008561E+03  0.50400001928E-02 0.  1.
    10030    2    1    2    0    0  0.00000000000E+00  0.00000000000E+00 -0.63194412870E+03  0.11824160426E+04  0.99937696386E+03 0.  0.
        5    1    3    3  502    0  0.33398414493E+03 -0.35415736511E+03 -0.44927327037E+03  0.66245106219E+03  0.46999998093E+01 0.  1.
       -5    1    3    3    0  502 -0.33398414493E+03  0.35415736511E+03 -0.18267085833E+03  0.51996498037E+03  0.46999998093E+01 0. -1.
</event>
<event>
 5   0  0.1353789E-03  0.9963413E+03  0.7818609E-02  0.9312567E-01
       -1   -1    0    0    0  501  0.00000000000E+00  0.00000000000E+00  0.35096527935E+03  0.35096527939E+03  0.50400001928E-02 0.  1.
        1   -1    0    0  501    0  0.00000000000E+00  0.00000000000E+00 -0.70711834467E+03  0.70711834469E+03  0.50400001928E-02 0. -1.
    10030    2    1    2    0    0  0.00000000000E+00  0.00000000000E+00 -0.35615306532E+03  0.10580836241E+04  0.99634128169E+03 0.  0.
        1    1    3    3  502    0  0.45196475944E+03  0.72901074930E+02  0.30532895953E+02  0.45882346089E+03  0.50400001928E-02 0. -1.
       -1    1    3    3    0  502 -0.45196475944E+03 -0.72901074930E+02 -0.38668596127E+03  0.59926016318E+03  0.50400001928E-02 0.  1.
</event>
<event>
 5   0  0.2204862E-03  0.9978022E+03  0.7818609E-02  0.9310959E-01
        2   -1    0    0  501    0  0.00000000000E+00  0.00000000000E+00  0.18680164912E+04  0.18680164912E+04  0.25500000920E-02 0.  1.
       -2   -1    0    0    0  501  0.00000000000E+00  0.00000000000E+00 -0.13324417566E+03  0.13324417569E+03  0.25500000920E-02 0. -1.
    10030    2    1    2    0    0  0.00000000000E+00  0.00000000000E+00  0.17347723155E+04  0.20012606668E+04  0.99780221992E+03 0.  0.
        1    1    3    3  502    0 -0.40900597410E+02  0.24801703327E+03  0.17317270005E+04  0.17498753418E+04  0.50400001928E-02 0.  1.
       -1    1    3    3    0  502  0.40900597410E+02 -0.24801703327E+03  0.30453149839E+01  0.25138532501E+03  0.50400001928E-02 0. -1.
</event>
<event>
 5   0  0.1249195E-03  0.1000829E+04  0.7818609E-02  0.9307636E-01
        1   -1    0    0  501    0  0.00000000000E+00  0.00000000000E+00  0.49289867879E+03  0.49289867882E+03  0.50400001928E-02 0. -1.
       -1   -1    0    0    0  501  0.00000000000E+00  0.00000000000E+00 -0.50804503462E+03  0.50804503464E+03  0.50400001928E-02 0.  1.
    10030    2    1    2    0    0  0.00000000000E+00  0.00000000000E+00 -0.15146355830E+02  0.10009437135E+04  0.10008291090E+04 0.  0.
        2    1    3    3  502    0 -0.25083339980E+02  0.32530642329E+03 -0.38703892753E+03  0.50621396110E+03  0.25500000920E-02 0.  1.
       -2    1    3    3    0  502  0.25083339980E+02 -0.32530642329E+03  0.37189257170E+03  0.49472975236E+03  0.25500000920E-02 0. -1.
</event>
<event>
 5   0  0.1293716E-03  0.9958940E+03  0.7818609E-02  0.9313060E-01
        1   -1    0    0  501    0  0.00000000000E+00  0.00000000000E+00  0.50838507932E+03  0.50838507934E+03  0.50400001928E-02 0. -1.
       -1   -1    0    0    0  501  0.00000000000E+00  0.00000000000E+00 -0.48772320329E+03  0.48772320331E+03  0.50400001928E-02 0.  1.
    10030    2    1    2    0    0  0.00000000000E+00  0.00000000000E+00  0.20661876030E+02  0.99610828265E+03  0.99589396908E+03 0.  0.
        3    1    3    3  502    0 -0.52115207996E+02 -0.49521183350E+03  0.96718038243E+01  0.49804046917E+03  0.10100000352E+00 0.  1.
       -3    1    3    3    0  502  0.52115207996E+02  0.49521183350E+03  0.10990072206E+02  0.49806781348E+03  0.10100000352E+00 0. -1.
</event>
<event>
 5   0  0.1293575E-03  0.9992705E+03  0.7818609E-02  0.9309345E-01
       -1   -1    0    0    0  501  0.00000000000E+00  0.00000000000E+00  0.17075771019E+03  0.17075771026E+03  0.50400001928E-02 0.  1.
        1   -1    0    0  501    0  0.00000000000E+00  0.00000000000E+00 -0.14619275538E+04  0.14619275538E+04  0.50400001928E-02 0. -1.
    10030    2    1    2    0    0  0.00000000000E+00  0.00000000000E+00 -0.12911698436E+04  0.16326852640E+04  0.99927053715E+03 0.  0.
        4    1    3    3  502    0 -0.10755078926E+03 -0.12204804666E+03 -0.14174442617E+04  0.14267490129E+04  0.12699999809E+01 0. -1.
       -4    1    3    3    0  502  0.10755078926E+03  0.12204804666E+03  0.12627441810E+03  0.20593625113E+03  0.12699999809E+01 0.  1.
</event>
<event>
 5   0  0.2204862E-03  0.1003519E+04  0.7818609E-02  0.9304693E-01
       -2   -1    0    0    0  501  0.00000000000E+00  0.00000000000E+00  0.22564973913E+03  0.22564973915E+03  0.25500000920E-02 0. -1.
        2   -1    0    0  501    0  0.00000000000E+00  0.00000000000E+00 -0.11157236040E+04  0.11157236040E+04  0.25500000920E-02 0.  1.
    10030    2    1    2    0    0  0.00000000000E+00  0.00000000000E+00 -0.89007386482E+03  0.13413733431E+04  0.10035192877E+04 0.  0.
        1    1    3    3  502    0  0.38947277266E+03  0.21117890629E+03 -0.75987054522E+03  0.87959582572E+03  0.50400001928E-02 0.  1.
       -1    1    3    3    0  502 -0.38947277266E+03 -0.21117890629E+03 -0.13020331960E+03  0.46177751739E+03  0.50400001928E-02 0. -1.
</event>
<event>
 5   0  0.1249195E-03  0.1054478E+04  0.7818609E-02  0.9250733E-01
       -1   -1    0    0    0  501  0.00000000000E+00  0.00000000000E+00  0.17098876622E+04  0.17098876622E+04  0.50400001928E-02 0. -1.
        1   -1    0    0  501    0  0.00000000000E+00  0.00000000000E+00 -0.16257271928E+03  0.16257271936E+03  0.50400001928E-02 0.  1.
    10030    2    1    2    0    0  0.00000000000E+00  0.00000000000E+00  0.15473149429E+04  0.18724603816E+04  0.10544782349E+04 0.  0.
        2    1    3    3  502    0 -0.39807310733E+03 -0.32467399095E+03  0.56275962209E+03  0.76195393000E+03  0.25500000920E-02 0.  1.
       -2    1    3    3    0  502  0.39807310733E+03  0.32467399095E+03  0.98455532082E+03  0.11105064516E+04  0.25500000920E-02 0. -1.
</event>
<event>
 5   0  0.1293716E-03  0.9995904E+03  0.7818609E-02  0.9308994E-01
       -1   -1    0    0    0  501  0.00000000000E+00  0.00000000000E+00  0.34085486457E+03  0.34085486461E+03  0.50400001928E-02 0.  1.
        1   -1    0    0  501    0  0.00000000000E+00  0.00000000000E+00 -0.73284931612E+03  0.73284931613E+03  0.50400001928E-02 0. -1.
    10030    2    1    2    0    0  0.00000000000E+00  0.00000000000E+00 -0.39199445154E+03  0.10737041807E+04  0.99959042498E+03 0.  0.
        3    1    3    3  502    0 -0.41634582473E+03  0.65450082661E+01  0.10091875157E+03  0.42845219981E+03  0.10100000352E+00 0.  1.
       -3    1    3    3    0  502  0.41634582473E+03 -0.65450082661E+01 -0.49291320311E+03  0.64525198094E+03  0.10100000352E+00 0. -1.
</event>
<event>
 5   0  0.1285769E-03  0.1002117E+04  0.7818609E-02  0.9306225E-01
       -1   -1    0    0    0  501  0.00000000000E+00  0.00000000000E+00  0.22721132469E+03  0.22721132475E+03  0.50400001928E-02 0.  1.
        1   -1    0    0  501    0  0.00000000000E+00  0.00000000000E+00 -0.11049618864E+04  0.11049618864E+04  0.50400001928E-02 0. -1.
    10030    2    1    2    0    0  0.00000000000E+00  0.00000000000E+00 -0.87775056173E+03  0.13321732112E+04  0.10021174662E+04 0.  0.
        5    1    3    3  502    0  0.47759205864E+03 -0.10786878140E+03 -0.29751306568E+03  0.57294499101E+03  0.46999998093E+01 0.  1.
       -5    1    3    3    0  502 -0.47759205864E+03  0.10786878140E+03 -0.58023749606E+03  0.75922822017E+03  0.46999998093E+01 0. -1.
</event>
<event>
 5   0  0.2204862E-03  0.9917973E+03  0.7818609E-02  0.9317587E-01
       -2   -1    0    0    0  501  0.00000000000E+00  0.00000000000E+00  0.32619333871E+03  0.32619333872E+03  0.25500000920E-02 0. -1.
        2   -1    0    0  501    0  0.00000000000E+00  0.00000000000E+00 -0.75389477122E+03  0.75389477122E+03  0.25500000920E-02 0.  1.
    10030    2    1    2    0    0  0.00000000000E+00  0.00000000000E+00 -0.42770143250E+03  0.10800881099E+04  0.99179726249E+03 0.  0.
        1    1    3    3  502    0  0.38915956216E+03 -0.84101429634E+02 -0.53579827170E+03  0.66753127512E+03  0.50400001928E-02 0.  1.
       -1    1    3    3    0  502 -0.38915956216E+03  0.84101429634E+02  0.10809683920E+03  0.41255683482E+03  0.50400001928E-02 0. -1.
</event>
<event>
 5   0  0.8680125E-04  0.9929502E+03  0.7818609E-02  0.9316311E-01
        3   -1    0    0  501    0  0.00000000000E+00  0.00000000000E+00  0.51474186931E+03  0.51474187922E+03  0.10100000352E+00 0. -1.
       -3   -1    0    0    0  501  0.00000000000E+00  0.00000000000E+00 -0.47885652267E+03  0.47885653332E+03  0.10100000352E+00 0.  1.
    10030    2    1    2    0    0  0.00000000000E+00  0.00000000000E+00  0.35885346639E+02  0.99359841254E+03  0.99295017363E+03 0.  0.
        1    1    3    3  502    0  0.83539829725E+02  0.43205721893E+03  0.24795175294E+03  0.50510634067E+03  0.50400001928E-02 0. -1.
       -1    1    3    3    0  502 -0.83539829725E+02 -0.43205721893E+03 -0.21206640630E+03  0.48849207187E+03  0.50400001928E-02 0.  1.
</event>
<event>
 5   0  0.1285769E-03  0.9495602E+03  0.7818609E-02  0.9365665E-01
       -1   -1    0    0    0  501  0.00000000000E+00  0.00000000000E+00  0.15772488941E+03  0.15772488949E+03  0.50400001928E-02 0.  1.
        1   -1    0    0  501    0  0.00000000000E+00  0.00000000000E+00 -0.14291729819E+04  0.14291729819E+04  0.50400001928E-02 0. -1.
    10030    2    1    2    0    0  0.00000000000E+00  0.00000000000E+00 -0.12714480925E+04  0.15868978714E+04  0.94956021523E+03 0.  0.
        5    1    3    3  502    0  0.15043315177E+03 -0.24867776733E+03 -0.12630855452E+04  0.12961010569E+04  0.46999998093E+01 0. -1.
       -5    1    3    3    0  502 -0.15043315177E+03  0.24867776733E+03 -0.83625472267E+01  0.29079681447E+03  0.46999998093E+01 0.  1.
</event>
<event>
 5   0  0.2284843E-03  0.1002812E+04  0.7818609E-02  0.9305466E-01
       -2   -1    0    0    0  501  0.00000000000E+00  0.00000000000E+00  0.27807777724E+03  0.27807777725E+03  0.25500000920E-02 0.  1.
        2   -1    0    0  501    0  0.00000000000E+00  0.00000000000E+00 -0.90409275439E+03  0.90409275440E+03  0.25500000920E-02 0. -1.
    10030    2    1    2    0    0  0.00000000000E+00  0.00000000000E+00 -0.62601497715E+03  0.11821705316E+04  0.10028122528E+04 0.  0.
        2    1    3    3  502    0  0.77607057741E+02  0.17587883164E+03 -0.85892299625E+03  0.88017323995E+03  0.25500000920E-02 0. -1.
       -2    1    3    3    0  502 -0.77607057741E+02 -0.17587883164E+03  0.23290801910E+03  0.30199729170E+03  0.25500000920E-02 0.  1.
</event>
<event>
 5   0  0.1249195E-03  0.9989871E+03  0.7818609E-02  0.9309656E-01
        1   -1    0    0  501    0  0.00000000000E+00  0.00000000000E+00  0.37881175986E+03  0.37881175989E+03  0.50400001928E-02 0. -1.
       -1   -1    0    0    0  501  0.00000000000E+00  0.00000000000E+00 -0.65862209863E+03  0.65862209865E+03  0.50400001928E-02 0.  1.
    10030    2    1    2    0    0  0.00000000000E+00  0.00000000000E+00 -0.27981033877E+03  0.10374338585E+04  0.99898707958E+03 0.  0.
        2    1    3    3  502    0  0.39195124486E+03  0.46730605137E+02 -0.45776370744E+03  0.60444779730E+03  0.25500000920E-02 0.  1.
       -2    1    3    3    0  502 -0.39195124486E+03 -0.46730605137E+02  0.17795336867E+03  0.43298606124E+03  0.25500000920E-02 0. -1.
</event>
<event>
 5   0  0.2264577E-03  0.9983026E+03  0.7818609E-02  0.9310408E-01
        2   -1    0    0  501    0  0.00000000000E+00  0.00000000000E+00  0.10205478969E+04  0.10205478969E+04  0.25500000920E-02 0. -1.
       -2   -1    0    0    0  501  0.00000000000E+00  0.00000000000E+00 -0.24413555135E+03  0.24413555137E+03  0.25500000920E-02 0.  1.
    10030    2    1    2    0    0  0.00000000000E+00  0.00000000000E+00  0.77641234553E+03  0.12646834482E+04  0.99830260642E+03 0.  0.
        5    1    3    3  502    0 -0.45436358963E+03 -0.75000580252E+02  0.14433302339E+03  0.48262352849E+03  0.46999998093E+01 0. -1.
       -5    1    3    3    0  502  0.45436358963E+03  0.75000580252E+02  0.63207932213E+03  0.78205991975E+03  0.46999998093E+01 0.  1.
</event>
<event>
 5   0  0.2255142E-03  0.9978946E+03  0.7818609E-02  0.9310857E-01
       -2   -1    0    0    0  501  0.00000000000E+00  0.00000000000E+00  0.14337961200E+03  0.14337961202E+03  0.25500000920E-02 0. -1.
        2   -1    0    0  501    0  0.00000000000E+00  0.00000000000E+00 -0.17362888686E+04  0.17362888686E+04  0.25500000920E-02 0.  1.
    10030    2    1    2    0    0  0.00000000000E+00  0.00000000000E+00 -0.15929092566E+04  0.18796684806E+04  0.99789463234E+03 0.  0.
        4    1    3    3  502    0  0.17948912983E+03  0.80534021502E+02 -0.16601471056E+04  0.16717631714E+04  0.12699999809E+01 0.  1.
       -4    1    3    3    0  502 -0.17948912983E+03 -0.80534021502E+02  0.67237848979E+02  0.20790530917E+03  0.12699999809E+01 0. -1.
</event>
<event>
 5   0  0.2255142E-03  0.1007607E+04  0.7818609E-02  0.9300241E-01
       -2   -1    0    0    0  501  0.00000000000E+00  0.00000000000E+00  0.11996634096E+03  0.11996634099E+03  0.25500000920E-02 0.  1.
        2   -1    0    0  501    0  0.00000000000E+00  0.00000000000E+00 -0.21157428382E+04  0.21157428382E+04  0.25500000920E-02 0. -1.
    10030    2    1    2    0    0  0.00000000000E+00  0.00000000000E+00 -0.19957764973E+04  0.22357091792E+04  0.10076069209E+04 0.  0.
        4    1    3    3  502    0  0.21937257215E+02  0.45404110696E+03 -0.51592806408E+03  0.68761759013E+03  0.12699999809E+01 0.  1.
       -4    1    3    3    0  502 -0.21937257215E+02 -0.45404110696E+03 -0.14798484332E+04  0.15480915891E+04  0.12699999809E+01 0. -1.
</event>
<event>
 5   0  0.1285769E-03  0.1007115E+04  0.7818609E-02  0.9300776E-01
       -1   -1    0    0    0  501  0.00000000000E+00  0.00000000000E+00  0.72362171246E+03  0.72362171248E+03  0.50400001928E-02 0. -1.
        1   -1    0    0  501    0  0.00000000000E+00  0.00000000000E+00 -0.35041798224E+03  0.35041798228E+03  0.50400001928E-02 0.  1.
    10030    2    1    2    0    0  0.00000000000E+00  0.00000000000E+00  0.37320373022E+03  0.10740396948E+04  0.10071148106E+04 0.  0.
        5    1    3    3  502    0  0.42010597110E+03 -0.27311470014E+03  0.23957463515E+03  0.55542664880E+03  0.46999998093E+01 0. -1.
       -5    1    3    3    0  502 -0.42010597110E+03  0.27311470014E+03  0.13362909507E+03  0.51861304596E+03  0.46999998093E+01 0.  1.
</event>
<event>
 5   0  0.1285769E-03  0.1001819E+04  0.7818609E-02  0.9306552E-01
        1   -1    0    0  501    0  0.00000000000E+00  0.00000000000E+00  0.27563502451E+03  0.27563502456E+03  0.50400001928E-02 0.  1.
       -1   -1    0    0    0  501  0.00000000000E+00  0.00000000000E+00 -0.91029929179E+03  0.91029929181E+03  0.50400001928E-02 0. -1.
    10030    2    1    2    0    0  0.00000000000E+00  0.00000000000E+00 -0.63466426728E+03  0.11859343164E+04  0.10018190808E+04 0.  0.
        5    1    3    3  502    0  0.22438787165E+03 -0.43367144891E+03 -0.44951035242E+03  0.66370361569E+03  0.46999998093E+01 0. -1.
       -5    1    3    3    0  502 -0.22438787165E+03  0.43367144891E+03 -0.18515391486E+03  0.52223070068E+03  0.46999998093E+01 0.  1.
</event>
<event>
 5   0  0.1285769E-03  0.1037864E+04  0.7818609E-02  0.9267964E-01
        1   -1    0    0  501    0  0.00000000000E+00  0.00000000000E+00  0.10604613665E+04  0.10604613665E+04  0.50400001928E-02 0.  1.
       -1   -1    0    0    0  501  0.00000000000E+00  0.00000000000E+00 -0.25393694440E+03  0.25393694445E+03  0.50400001928E-02 0. -1.
    10030    2    1    2    0    0  0.00000000000E+00  0.00000000000E+00  0.80652442213E+03  0.13143983110E+04  0.10378638044E+04 0.  0.
        5    1    3    3  502    0  0.34726680656E+03 -0.24750029976E+03  0.28818918637E+02  0.42743801116E+03  0.46999998093E+01 0. -1.
       -5    1    3    3    0  502 -0.34726680656E+03  0.24750029976E+03  0.77770550349E+03  0.88696029983E+03  0.46999998093E+01 0.  1.
</event>
<event>
 5   0  0.2204862E-03  0.1000196E+04  0.7818609E-02  0.9308329E-01
       -2   -1    0    0    0  501  0.00000000000E+00  0.00000000000E+00  0.16061588262E+03  0.16061588264E+03  0.25500000920E-02 0.  1.
        2   -1    0    0  501    0  0.00000000000E+00  0.00000000000E+00 -0.15571201627E+04  0.15571201627E+04  0.25500000920E-02 0. -1.
    10030    2    1    2    0    0  0.00000000000E+00  0.00000000000E+00 -0.13965042801E+04  0.17177360453E+04  0.10001964393E+04 0.  0.
        1    1    3    3  502    0 -0.25693389255E+03  0.42903154660E+03 -0.69157056515E+03  0.85343596112E+03  0.50400001928E-02 0. -1.
       -1    1    3    3    0  502  0.25693389255E+03 -0.42903154660E+03 -0.70493371493E+03  0.86430008423E+03  0.50400001928E-02 0.  1.
</event>
<event>
 5   0  0.2264577E-03  0.1000777E+04  0.7818609E-02  0.9307693E-01
        2   -1    0    0  501    0  0.00000000000E+00  0.00000000000E+00  0.60222129886E+03  0.60222129886E+03  0.25500000920E-02 0.  1.
       -2   -1    0    0    0  501  0.00000000000E+00  0.00000000000E+00 -0.41577484587E+03  0.41577484588E+03  0.25500000920E-02 0. -1.
    10030    2    1    2    0    0  0.00000000000E+00  0.00000000000E+00  0.18644645299E+03  0.10179961447E+04  0.10007766339E+04 0.  0.
        5    1    3    3  502    0 -0.81297401333E+02 -0.35805082298E+03 -0.25256211323E+03  0.44566733146E+03  0.46999998093E+01 0. -1.
       -5    1    3    3    0  502  0.81297401333E+02  0.35805082298E+03  0.43900856622E+03  0.57232881328E+03  0.46999998093E+01 0.  1.
</event>
<event>
 5   0  0.1293716E-03  0.9997532E+03  0.7818609E-02  0.9308815E-01
       -1   -1    0    0    0  501  0.00000000000E+00  0.00000000000E+00  0.19581137337E+03  0.19581137344E+03  0.50400001928E-02 0.  1.
        1   -1    0    0  501    0  0.00000000000E+00  0.00000000000E+00 -0.12761089131E+04  0.12761089131E+04  0.50400001928E-02 0. -1.
    10030    2    1    2    0    0  0.00000000000E+00  0.00000000000E+00 -0.10802975397E+04  0.14719202865E+04  0.99975324735E+03 0.  0.
        3    1    3    3  502    0 -0.15796031443E+03 -0.16384120737E+03  0.11511042784E+03  0.25504082608E+03  0.10100000352E+00 0.  1.
       -3    1    3    3    0  502  0.15796031443E+03  0.16384120737E+03 -0.11954079675E+04  0.12168794604E+04  0.10100000352E+00 0. -1.
</event>
<event>
 5   0  0.2255142E-03  0.9987034E+03  0.7818609E-02  0.9309968E-01
       -2   -1    0    0    0  501  0.00000000000E+00  0.00000000000E+00  0.16043774699E+03  0.16043774701E+03  0.25500000920E-02 0.  1.
        2   -1    0    0  501    0  0.00000000000E+00  0.00000000000E+00 -0.15541985931E+04  0.15541985931E+04  0.25500000920E-02 0. -1.
    10030    2    1    2    0    0  0.00000000000E+00  0.00000000000E+00 -0.13937608461E+04  0.17146363402E+04  0.99870340078E+03 0.  0.
        4    1    3    3  502    0  0.71264116162E+02 -0.17122448168E+03 -0.14928718171E+04  0.15043484545E+04  0.12699999809E+01 0. -1.
       -4    1    3    3    0  502 -0.71264116162E+02  0.17122448168E+03  0.99110970967E+02  0.21028788564E+03  0.12699999809E+01 0.  1.
</event>
<event>
 5   0  0.2204862E-03  0.9979404E+03  0.7818609E-02  0.9310807E-01
        2   -1    0    0  501    0  0.00000000000E+00  0.00000000000E+00  0.72133263762E+03  0.72133263763E+03  0.25500000920E-02 0. -1.
       -2   -1    0    0    0  501  0.00000000000E+00  0.00000000000E+00 -0.34515459701E+03  0.34515459702E+03  0.25500000920E-02 0.  1.
    10030    2    1    2    0    0  0.00000000000E+00  0.00000000000E+00  0.37617804061E+03  0.10664872347E+04  0.99794043081E+03 0.  0.
        1    1    3    3  502    0 -0.54394203280E+02 -0.68505974145E+02 -0.33689638732E+03  0.34806748434E+03  0.50400001928E-02 0.  1.
       -1    1    3    3    0  502  0.54394203280E+02  0.68505974145E+02  0.71307442793E+03  0.71841975031E+03  0.50400001928E-02 0. -1.
</event>
<event>
 5   0  0.1353789E-03  0.1000809E+04  0.7818609E-02  0.9307658E-01
        1   -1    0    0  501    0  0.00000000000E+00  0.00000000000E+00  0.34514272936E+03  0.34514272939E+03  0.50400001928E-02 0. -1.
       -1   -1    0    0    0  501  0.00000000000E+00  0.00000000000E+00 -0.72551015834E+03  0.72551015836E+03  0.50400001928E-02 0.  1.
    10030    2    1    2    0    0  0.00000000000E+00  0.00000000000E+00 -0.38036742898E+03  0.10706528878E+04  0.10008087854E+04 0.  0.
        1    1    3    3  502    0 -0.10163081249E+03 -0.40781403489E+03 -0.48073191210E+03  0.63854857327E+03  0.50400001928E-02 0.  1.
       -1    1    3    3    0  502  0.10163081249E+03  0.40781403489E+03  0.10036448311E+03  0.43210431448E+03  0.50400001928E-02 0. -1.
</event>
<event>
 5   0  0.2277570E-03  0.1000787E+04  0.7818609E-02  0.9307682E-01
       -2   -1    0    0    0  501  0.00000000000E+00  0.00000000000E+00  0.23029234544E+04  0.23029234544E+04  0.25500000920E-02 0. -1.
        2   -1    0    0  501    0  0.00000000000E+00  0.00000000000E+00 -0.10872864237E+03  0.10872864240E+03  0.25500000920E-02 0.  1.
    10030    2    1    2    0    0  0.00000000000E+00  0.00000000000E+00  0.21941948120E+04  0.24116520968E+04  0.10007871716E+04 0.  0.
        3    1    3    3  502    0 -0.27668849669E+03 -0.12835207787E+03  0.14117163063E+03  0.33609555128E+03  0.10100000352E+00 0.  1.
       -3    1    3    3    0  502  0.27668849669E+03  0.12835207787E+03  0.20530231814E+04  0.20755565455E+04  0.10100000352E+00 0. -1.
</event>
<event>
 5   0  0.1293716E-03  0.9937170E+03  0.7818609E-02  0.9315463E-01
        1   -1    0    0  501    0  0.00000000000E+00  0.00000000000E+00  0.77094463673E+03  0.77094463675E+03  0.50400001928E-02 0.  1.
       -1   -1    0    0    0  501  0.00000000000E+00  0.00000000000E+00 -0.32021545703E+03  0.32021545707E+03  0.50400001928E-02 0. -1.
    10030    2    1    2    0    0  0.00000000000E+00  0.00000000000E+00  0.45072917970E+03  0.10911600938E+04  0.99371704066E+03 0.  0.
        3    1    3    3  502    0  0.84108386651E+02 -0.34144622174E+03  0.61079529711E+03  0.70479120896E+03  0.10100000352E+00 0.  1.
       -3    1    3    3    0  502 -0.84108386651E+02  0.34144622174E+03 -0.16006611741E+03  0.38636888486E+03  0.10100000352E+00 0. -1.
</event>
<event>
 5   0  0.1285769E-03  0.1010290E+04  0.7818609E-02  0.9297330E-01
       -1   -1    0    0    0  501  0.00000000000E+00  0.00000000000E+00  0.44290552464E+03  0.44290552467E+03  0.50400001928E-02 0. -1.
        1   -1    0    0  501    0  0.00000000000E+00  0.00000000000E+00 -0.57613102721E+03  0.57613102723E+03  0.50400001928E-02 0.  1.
    10030    2    1    2    0    0  0.00000000000E+00  0.00000000000E+00 -0.13322550257E+03  0.10190365519E+04  0.10102902848E+04 0.  0.
        5    1    3    3  502    0 -0.29469938747E+03  0.71785577000E+02  0.34080063719E+03  0.45625438338E+03  0.46999998093E+01 0. -1.
       -5    1    3    3    0  502  0.29469938747E+03 -0.71785577000E+02 -0.47402613976E+03  0.56278216853E+03  0.46999998093E+01 0.  1.
</event>
<event>
 5   0  0.1353789E-03  0.1001893E+04  0.7818609E-02  0.9306471E-01
        1   -1    0    0  501    0  0.00000000000E+00  0.00000000000E+00  0.79154400487E+03  0.79154400488E+03  0.50400001928E-02 0.  1.
       -1   -1    0    0    0  501  0.00000000000E+00  0.00000000000E+00 -0.31703506891E+03  0.31703506895E+03  0.50400001928E-02 0. -1.
    10030    2    1    2    0    0  0.00000000000E+00  0.00000000000E+00  0.47450893596E+03  0.11085790738E+04  0.10018926253E+04 0.  0.
        1    1    3    3  502    0  0.46369398574E+03  0.97766964744E+02  0.57551247262E+02  0.47737054569E+03  0.50400001928E-02 0. -1.
       -1    1    3    3    0  502 -0.46369398574E+03 -0.97766964744E+02  0.41695768870E+03  0.63120852814E+03  0.50400001928E-02 0.  1.
</event>
<event>
 5   0  0.1353789E-03  0.1000598E+04  0.7818609E-02  0.9307889E-01
        1   -1    0    0  501    0  0.00000000000E+00  0.00000000000E+00  0.69496467217E+03  0.69496467219E+03  0.50400001928E-02 0.  1.
       -1   -1    0    0    0  501  0.00000000000E+00  0.00000000000E+00 -0.36016087221E+03  0.36016087225E+03  0.50400001928E-02 0. -1.
    10030    2    1    2    0    0  0.00000000000E+00  0.00000000000E+00  0.33480379996E+03  0.10551255444E+04  0.10005979862E+04 0.  0.
        1    1    3    3  502    0  0.47334914513E+02 -0.16906696201E+03  0.66141321242E+03  0.68431839765E+03  0.50400001928E-02 0.  1.
       -1    1    3    3    0  502 -0.47334914513E+02  0.16906696201E+03 -0.32660941246E+03  0.37080714679E+03  0.50400001928E-02 0. -1.
</event>
<event>
 5   0  0.2277570E-03  0.9949037E+03  0.7818609E-02  0.9314152E-01
       -2   -1    0    0    0  501  0.00000000000E+00  0.00000000000E+00  0.56373387451E+03  0.56373387452E+03  0.25500000920E-02 0. -1.
        2   -1    0    0  501    0  0.00000000000E+00  0.00000000000E+00 -0.43896306546E+03  0.43896306546E+03  0.25500000920E-02 0.  1.
    10030    2    1    2    0    0  0.00000000000E+00  0.00000000000E+00  0.12477080905E+03  0.10026969400E+04  0.99490371326E+03 0.  0.
        3    1    3    3  502    0  0.21045499367E+03  0.10942435692E+03 -0.37829630320E+03  0.44651214705E+03  0.10100000352E+00 0.  1.
       -3    1    3    3    0  502 -0.21045499367E+03 -0.10942435692E+03  0.50306711226E+03  0.55618479293E+03  0.10100000352E+00 0. -1.
</event>
<event>
 5   0  0.1353789E-03  0.1000144E+04  0.7818609E-02  0.9308386E-01
        1   -1    0    0  501    0  0.00000000000E+00  0.00000000000E+00  0.47863085712E+03  0.47863085715E+03  0.50400001928E-02 0.  1.
       -1   -1    0    0    0  501  0.00000000000E+00  0.00000000000E+00 -0.52247407202E+03  0.52247407205E+03  0.50400001928E-02 0. -1.
    10030    2    1    2    0    0  0.00000000000E+00  0.00000000000E+00 -0.43843214898E+02  0.10011049292E+04  0.10001444155E+04 0.  0.
        1    1    3    3  502    0 -0.31291550104E+03  0.38801617998E+02 -0.41043162991E+03  0.51756719293E+03  0.50400001928E-02 0. -1.
       -1    1    3    3    0  502  0.31291550104E+03 -0.38801617998E+02  0.36658841501E+03  0.48353773626E+03  0.50400001928E-02 0.  1.
</event>
<event>
 5   0  0.1249195E-03  0.9985093E+03  0.7818609E-02  0.9310181E-01
       -1   -1    0    0    0  501  0.00000000000E+00  0.00000000000E+00  0.31065111088E+03  0.31065111092E+03  0.50400001928E-02 0.  1.
        1   -1    0    0  501    0  0.00000000000E+00  0.00000000000E+00 -0.80236384765E+03  0.80236384767E+03  0.50400001928E-02 0. -1.
    10030    2    1    2    0    0  0.00000000000E+00  0.00000000000E+00 -0.49171273677E+03  0.11130149586E+04  0.99850933022E+03 0.  0.
        2    1    3    3  502    0  0.25548124917E+03  0.24035201320E+03 -0.64186545759E+03  0.73145814958E+03  0.25500000920E-02 0. -1.
       -2    1    3    3    0  502 -0.25548124917E+03 -0.24035201320E+03  0.15015272082E+03  0.38155680901E+03  0.25500000920E-02 0.  1.
</event>
<event>
 5   0  0.1285769E-03  0.9996532E+03  0.7818609E-02  0.9308925E-01
       -1   -1    0    0    0  501  0.00000000000E+00  0.00000000000E+00  0.11767115843E+03  0.11767115854E+03  0.50400001928E-02 0. -1.
        1   -1    0    0  501    0  0.00000000000E+00  0.00000000000E+00 -0.21230912968E+04  0.21230912968E+04  0.50400001928E-02 0.  1.
    10030    2    1    2    0    0  0.00000000000E+00  0.00000000000E+00 -0.20054201384E+04  0.22407624553E+04  0.99965316480E+03 0.  0.
        5    1    3    3  502    0  0.43966650837E+03 -0.63805168513E+02 -0.15159531276E+04  0.15797195046E+04  0.46999998093E+01 0.  1.
       -5    1    3    3    0  502 -0.43966650837E+03  0.63805168513E+02 -0.48946701077E+03  0.66104295076E+03  0.46999998093E+01 0. -1.
</event>
<event>
 5   0  0.2204862E-03  0.1002161E+04  0.7818609E-02  0.9306178E-01
       -2   -1    0    0    0  501  0.00000000000E+00  0.00000000000E+00  0.63175771097E+03  0.63175771098E+03  0.25500000920E-02 0.  1.
        2   -1    0    0  501    0  0.00000000000E+00  0.00000000000E+00 -0.39743319841E+03  0.39743319842E+03  0.25500000920E-02 0. -1.
    10030    2    1    2    0    0  0.00000000000E+00  0.00000000000E+00  0.23432451256E+03  0.10291909094E+04  0.10021606412E+04 0.  0.
        1    1    3    3  502    0  0.77220012644E+02 -0.18928960143E+03  0.58698146319E+03  0.62156312770E+03  0.50400001928E-02 0.  1.
       -1    1    3    3    0  502 -0.77220012644E+02  0.18928960143E+03 -0.35265695063E+03  0.40762778170E+03  0.50400001928E-02 0. -1.
</event>
<event>
 5   0  0.2277570E-03  0.9948324E+03  0.7818609E-02  0.9314231E-01
        2   -1    0    0  501    0  0.00000000000E+00  0.00000000000E+00  0.12762937057E+04  0.12762937057E+04  0.25500000920E-02 0.  1.
       -2   -1    0    0    0  501  0.00000000000E+00  0.00000000000E+00 -0.19386046840E+03  0.19386046842E+03  0.25500000920E-02 0. -1.
    10030    2    1    2    0    0  0.00000000000E+00  0.00000000000E+00  0.10824332373E+04  0.14701541741E+04  0.99483243939E+03 0.  0.
        3    1    3    3  502    0  0.45267117017E+03 -0.19684266288E+03  0.45054403174E+03  0.66831740735E+03  0.10100000352E+00 0. -1.
       -3    1    3    3    0  502 -0.45267117017E+03  0.19684266288E+03  0.63188920552E+03  0.80183676674E+03  0.10100000352E+00 0.  1.
</event>
<event>
 5   0  0.1293575E-03  0.9947499E+03  0.7818609E-02  0.9314322E-01
       -1   -1    0    0    0  501  0.00000000000E+00  0.00000000000E+00  0.20865245222E+03  0.20865245228E+03  0.50400001928E-02 0. -1.
        1   -1    0    0  501    0  0.00000000000E+00  0.00000000000E+00 -0.11856168161E+04  0.11856168161E+04  0.50400001928E-02 0.  1.
    10030    2    1    2    0    0  0.00000000000E+00  0.00000000000E+00 -0.97696436387E+03  0.13942692684E+04  0.99474993063E+03 0.  0.
        4    1    3    3  502    0 -0.15966703329E+03 -0.83069186228E+02  0.16140507462E+03  0.24175868595E+03  0.12699999809E+01 0. -1.
       -4    1    3    3    0  502  0.15966703329E+03  0.83069186228E+02 -0.11383694385E+04  0.11525105824E+04  0.12699999809E+01 0.  1.
</event>
<event>
 5   0  0.1249195E-03  0.9996814E+03  0.7818609E-02  0.9308894E-01
        1   -1    0    0  501    0  0.00000000000E+00  0.00000000000E+00  0.96134034481E+03  0.96134034482E+03  0.50400001928E-02 0.  1.
       -1   -1    0    0    0  501  0.00000000000E+00  0.00000000000E+00 -0.25988792569E+03  0.25988792574E+03  0.50400001928E-02 0. -1.
    10030    2    1    2    0    0  0.00000000000E+00  0.00000000000E+00  0.70145241911E+03  0.12212282706E+04  0.99968144554E+03 0.  0.
        2    1    3    3  502    0 -0.22951649894E+03 -0.98669567179E+02 -0.17814700766E+03  0.30683849680E+03  0.25500000920E-02 0. -1.
       -2    1    3    3    0  502  0.22951649894E+03  0.98669567179E+02  0.87959942677E+03  0.91438977376E+03  0.25500000920E-02 0.  1.
</event>
<event>
 5   0  0.1293575E-03  0.9933156E+03  0.7818609E-02  0.9315907E-01
       -1   -1    0    0    0  501  0.00000000000E+00  0.00000000000E+00  0.11287649774E+04  0.11287649774E+04  0.50400001928E-02 0. -1.
        1   -1    0    0  501    0  0.00000000000E+00  0.00000000000E+00 -0.21852997133E+03  0.21852997138E+03  0.50400001928E-02 0.  1.
    10030    2    1    2    0    0  0.00000000000E+00  0.00000000000E+00  0.91023500610E+03  0.13472949488E+04  0.99331561590E+03 0.  0.
        4    1    3    3  502    0 -0.45301600543E+03  0.18534982481E+03  0.34091455974E+03  0.59649175072E+03  0.12699999809E+01 0.  1.
       -4    1    3    3    0  502  0.45301600543E+03 -0.18534982481E+03  0.56932044636E+03  0.75080319810E+03  0.12699999809E+01 0. -1.
</event>
<event>
 5   0  0.1353789E-03  0.9966234E+03  0.7818609E-02  0.9312256E-01
        1   -1    0    0  501    0  0.00000000000E+00  0.00000000000E+00  0.85523825101E+03  0.85523825102E+03  0.50400001928E-02 0.  1.
       -1   -1    0    0    0  501  0.00000000000E+00  0.00000000000E+00 -0.29034546722E+03  0.29034546727E+03  0.50400001928E-02 0. -1.
    10030    2    1    2    0    0  0.00000000000E+00  0.00000000000E+00  0.56489278379E+03  0.11455837183E+04  0.99662339850E+03 0.  0.
        1    1    3    3  502    0  0.78078705647E+02  0.74621944112E+02  0.84162281596E+03  0.84852441520E+03  0.50400001928E-02 0.  1.
       -1    1    3    3    0  502 -0.78078705647E+02 -0.74621944112E+02 -0.27673003217E+03  0.29705930309E+03  0.50400001928E-02 0. -1.
</event>
<event>
 5   0  0.8680125E-04  0.1006590E+04  0.7818609E-02  0.9301347E-01
        3   -1    0    0  501    0  0.00000000000E+00  0.00000000000E+00  0.27984449091E+03  0.27984450913E+03  0.10100000352E+00 0. -1.
       -3   -1    0    0    0  501  0.00000000000E+00  0.00000000000E+00 -0.90516579812E+03  0.90516580375E+03  0.10100000352E+00 0.  1.
    10030    2    1    2    0    0  0.00000000000E+00  0.00000000000E+00 -0.62532130721E+03  0.11850103129E+04  0.10065896405E+04 0.  0.
        2    1    3    3  502    0  0.11794006963E+02 -0.47445742220E+03 -0.50985216485E+03  0.69656168004E+03  0.25500000920E-02 0.  1.
       -2    1    3    3    0  502 -0.11794006963E+02  0.47445742220E+03 -0.11546914236E+03  0.48844863285E+03  0.25500000920E-02 0. -1.
</event>
<event>
 5   0  0.1293575E-03  0.9986075E+03  0.7818609E-02  0.9310073E-01
       -1   -1    0    0    0  501  0.00000000000E+00  0.00000000000E+00  0.36937283210E+03  0.36937283214E+03  0.50400001928E-02 0.  1.
        1   -1    0    0  501    0  0.00000000000E+00  0.00000000000E+00 -0.67493929703E+03  0.67493929705E+03  0.50400001928E-02 0. -1.
    10030    2    1    2    0    0  0.00000000000E+00  0.00000000000E+00 -0.30556646493E+03  0.10443121292E+04  0.99860750982E+03 0.  0.
        4    1    3    3  502    0 -0.48514869439E+03 -0.11445461388E+03 -0.12259125609E+03  0.51332187103E+03  0.12699999809E+01 0.  1.
       -4    1    3    3    0  502  0.48514869439E+03  0.11445461388E+03 -0.18297520884E+03  0.53099025816E+03  0.12699999809E+01 0. -1.
</event>
<event>
 5   0  0.2255142E-03  0.9941787E+03  0.7818609E-02  0.9314953E-01
        2   -1    0    0  501    0  0.00000000000E+00  0.00000000000E+00  0.12744349198E+04  0.12744349198E+04  0.25500000920E-02 0.  1.
       -2   -1    0    0    0  501  0.00000000000E+00  0.00000000000E+00 -0.19388816377E+03  0.19388816379E+03  0.25500000920E-02 0. -1.
    10030    2    1    2    0    0  0.00000000000E+00  0.00000000000E+00  0.10805467561E+04  0.14683230836E+04  0.99417874945E+03 0.  0.
        4    1    3    3  502    0  0.36730714629E+03  0.21184649452E+03  0.92342756597E+03  0.10161267438E+04  0.12699999809E+01 0.  1.
       -4    1    3    3    0  502 -0.36730714629E+03 -0.21184649452E+03  0.15711919009E+03  0.45219633982E+03  0.12699999809E+01 0. -1.
</event>
<event>
 5   0  0.8680125E-04  0.9940668E+03  0.7818609E-02  0.9315076E-01
        3   -1    0    0  501    0  0.00000000000E+00  0.00000000000E+00  0.89570733828E+03  0.89570734397E+03  0.10100000352E+00 0. -1.
       -3   -1    0    0    0  501  0.00000000000E+00  0.00000000000E+00 -0.27580679332E+03  0.27580681181E+03  0.10100000352E+00 0.  1.
    10030    2    1    2    0    0  0.00000000000E+00  0.00000000000E+00  0.61990054496E+03  0.11715141558E+04  0.99406676413E+03 0.  0.
        3    1    3    3  502    0  0.40876120584E+03 -0.18674355314E+03  0.56018052267E+03  0.71816509677E+03  0.10100000352E+00 0. -1.
       -3    1    3    3    0  502 -0.40876120584E+03  0.18674355314E+03  0.59720022291E+02  0.45334905901E+03  0.10100000352E+00 0.  1.
</event>
<event>
 5   0  0.2255142E-03  0.9883402E+03  0.7818609E-02  0.9321426E-01
       -2   -1    0    0    0  501  0.00000000000E+00  0.00000000000E+00  0.17835555134E+03  0.17835555136E+03  0.25500000920E-02 0. -1.
        2   -1    0    0  501    0  0.00000000000E+00  0.00000000000E+00 -0.13691980443E+04  0.13691980443E+04  0.25500000920E-02 0.  1.
    10030    2    1    2    0    0  0.00000000000E+00  0.00000000000E+00 -0.11908424929E+04  0.15475535956E+04  0.98834016834E+03 0.  0.
        4    1    3    3  502    0 -0.32867359495E+03  0.68419709346E+02 -0.27623508311E+02  0.33685643790E+03  0.12699999809E+01 0. -1.
       -4    1    3    3    0  502  0.32867359495E+03 -0.68419709346E+02 -0.11632189846E+04  0.12106971577E+04  0.12699999809E+01 0.  1.
</event>
<event>
 5   0  0.1353789E-03  0.9694512E+03  0.7818609E-02  0.9342700E-01
       -1   -1    0    0    0  501  0.00000000000E+00  0.00000000000E+00  0.67462740993E+03  0.67462740995E+03  0.50400001928E-02 0.  1.
        1   -1    0    0  501    0  0.00000000000E+00  0.00000000000E+00 -0.34827953957E+03  0.34827953961E+03  0.50400001928E-02 0. -1.
    10030    2    1    2    0    0  0.00000000000E+00  0.00000000000E+00  0.32634787036E+03  0.10229069496E+04  0.96945123393E+03 0.  0.
        1    1    3    3  502    0 -0.93025824693E+02 -0.45738133413E+03  0.30118140975E+03  0.55548333052E+03  0.50400001928E-02 0.  1.
       -1    1    3    3    0  502  0.93025824693E+02  0.45738133413E+03  0.25166460602E+02  0.46742361904E+03  0.50400001928E-02 0. -1.
</event>
<event>
 5   0  0.1293575E-03  0.9983808E+03  0.7818609E-02  0.9310323E-01
        1   -1    0    0  501    0  0.00000000000E+00  0.00000000000E+00  0.54697791489E+03  0.54697791492E+03  0.50400001928E-02 0. -1.
       -1   -1    0    0    0  501  0.00000000000E+00  0.00000000000E+00 -0.45557787958E+03  0.45557787961E+03  0.50400001928E-02 0.  1.
    10030    2    1    2    0    0  0.00000000000E+00  0.00000000000E+00  0.91400035315E+02  0.10025557945E+04  0.99838076638E+03 0.  0.
        4    1    3    3  502    0 -0.28722092987E+02 -0.39393358931E+03 -0.26083179251E+03  0.47333230219E+03  0.12699999809E+01 0.  1.
       -4    1    3    3    0  502  0.28722092987E+02  0.39393358931E+03  0.35223182782E+03  0.52922349234E+03  0.12699999809E+01 0. -1.
</event>
<event>
 5   0  0.2255142E-03  0.9955435E+03  0.7818609E-02  0.9313446E-01
        2   -1    0    0  501    0  0.00000000000E+00  0.00000000000E+00  0.93130259969E+03  0.93130259969E+03  0.25500000920E-02 0. -1.
       -2   -1    0    0    0  501  0.00000000000E+00  0.00000000000E+00 -0.26605394358E+03  0.26605394359E+03  0.25500000920E-02 0.  1.
    10030    2    1    2    0    0  0.00000000000E+00  0.00000000000E+00  0.66524865610E+03  0.11973565433E+04  0.99554352858E+03 0.  0.
        4    1    3    3  502    0  0.45499947043E+02 -0.19180905709E+03 -0.21710280550E+03  0.29325108801E+03  0.12699999809E+01 0.  1.
       -4    1    3    3    0  502 -0.45499947043E+02  0.19180905709E+03  0.88235146160E+03  0.90410545528E+03  0.12699999809E+01 0. -1.
</event>
<event>
 5   0  0.2255142E-03  0.1003323E+04  0.7818609E-02  0.9304908E-01
       -2   -1    0    0    0  501  0.00000000000E+00  0.00000000000E+00  0.24330584869E+03  0.24330584870E+03  0.25500000920E-02 0. -1.
        2   -1    0    0  501    0  0.00000000000E+00  0.00000000000E+00 -0.10343527873E+04  0.10343527873E+04  0.25500000920E-02 0.  1.
    10030    2    1    2    0    0  0.00000000000E+00  0.00000000000E+00 -0.79104693866E+03  0.12776586361E+04  0.10033226456E+04 0.  0.
        4    1    3    3  502    0 -0.13848404552E+03 -0.36661405394E+03  0.32825782862E+01  0.39191336240E+03  0.12699999809E+01 0. -1.
       -4    1    3    3    0  502  0.13848404552E+03  0.36661405394E+03 -0.79432951694E+03  0.88574527365E+03  0.12699999809E+01 0.  1.
</event>
<event>
 5   0  0.2264577E-03  0.9945918E+03  0.7818609E-02  0.9314496E-01
       -2   -1    0    0    0  501  0.00000000000E+00  0.00000000000E+00  0.11184960693E+03  0.11184960696E+03  0.25500000920E-02 0. -1.
        2   -1    0    0  501    0  0.00000000000E+00  0.00000000000E+00 -0.22110332175E+04  0.22110332175E+04  0.25500000920E-02 0.  1.
    10030    2    1    2    0    0  0.00000000000E+00  0.00000000000E+00 -0.20991836106E+04  0.23228828245E+04  0.99459176817E+03 0.  0.
        5    1    3    3  502    0  0.42771568223E+03  0.24469385148E+03 -0.89352563881E+03  0.10204047937E+04  0.46999998093E+01 0. -1.
       -5    1    3    3    0  502 -0.42771568223E+03 -0.24469385148E+03 -0.12056579718E+04  0.13024780308E+04  0.46999998093E+01 0.  1.
</event>
<event>
 5   0  0.2204862E-03  0.1000864E+04  0.7818609E-02  0.9307598E-01
       -2   -1    0    0    0  501  0.00000000000E+00  0.00000000000E+00  0.22901603553E+03  0.22901603554E+03  0.25500000920E-02 0.  1.
        2   -1    0    0  501    0  0.00000000000E+00  0.00000000000E+00 -0.10935131107E+04  0.10935131107E+04  0.25500000920E-02 0. -1.
    10030    2    1    2    0    0  0.00000000000E+00  0.00000000000E+00 -0.86449707521E+03  0.13225291463E+04  0.10008637019E+04 0.  0.
        1    1    3    3  502    0 -0.17070194929E+03 -0.33389825904E+03 -0.87011435606E+03  0.94748413999E+03  0.50400001928E-02 0.  1.
       -1    1    3    3    0  502  0.17070194929E+03  0.33389825904E+03  0.56172808541E+01  0.37504500630E+03  0.50400001928E-02 0. -1.
</event>
<event>
 5   0  0.1285769E-03  0.9911796E+03  0.7818609E-02  0.9318272E-01
        1   -1    0    0  501    0  0.00000000000E+00  0.00000000000E+00  0.57254235419E+03  0.57254235421E+03  0.50400001928E-02 0. -1.
       -1   -1    0    0    0  501  0.00000000000E+00  0.00000000000E+00 -0.42898003786E+03  0.42898003788E+03  0.50400001928E-02 0.  1.
    10030    2    1    2    0    0  0.00000000000E+00  0.00000000000E+00  0.14356231633E+03  0.10015223921E+04  0.99117958171E+03 0.  0.
        5    1    3    3  502    0 -0.82762574428E+02 -0.22108277262E+03  0.51205710271E+03  0.56387215085E+03  0.46999998093E+01 0. -1.
       -5    1    3    3    0  502  0.82762574428E+02  0.22108277262E+03 -0.36849478637E+03  0.43765024124E+03  0.46999998093E+01 0.  1.
</event>
<event>
 5   0  0.2264577E-03  0.9994321E+03  0.7818609E-02  0.9309168E-01
        2   -1    0    0  501    0  0.00000000000E+00  0.00000000000E+00  0.91427654167E+03  0.91427654168E+03  0.25500000920E-02 0.  1.
       -2   -1    0    0    0  501  0.00000000000E+00  0.00000000000E+00 -0.27312973456E+03  0.27312973458E+03  0.25500000920E-02 0. -1.
    10030    2    1    2    0    0  0.00000000000E+00  0.00000000000E+00  0.64114680711E+03  0.11874062763E+04  0.99943205703E+03 0.  0.
        5    1    3    3  502    0  0.62507552702E+02 -0.45018236440E+03  0.73856528865E+02  0.46048695119E+03  0.46999998093E+01 0. -1.
       -5    1    3    3    0  502 -0.62507552702E+02  0.45018236440E+03  0.56729027825E+03  0.72691932506E+03  0.46999998093E+01 0.  1.
</event>
<event>
 5   0  0.1249195E-03  0.9989436E+03  0.7818609E-02  0.9309704E-01
        1   -1    0    0  501    0  0.00000000000E+00  0.00000000000E+00  0.54805511967E+03  0.54805511969E+03  0.50400001928E-02 0.  1.
       -1   -1    0    0    0  501  0.00000000000E+00  0.00000000000E+00 -0.45519522852E+03  0.45519522854E+03  0.50400001928E-02 0. -1.
    10030    2    1    2    0    0  0.00000000000E+00  0.00000000000E+00  0.92859891155E+02  0.10032503482E+04  0.99894359293E+03 0.  0.
        2    1    3    3  502    0  0.29706728815E+03  0.85012510557E+02  0.44054501242E+03  0.53810408716E+03  0.25500000920E-02 0.  1.
       -2    1    3    3    0  502 -0.29706728815E+03 -0.85012510557E+02 -0.34768512127E+03  0.46514626108E+03  0.25500000920E-02 0. -1.
</event>
<event>
 5   0  0.2264577E-03  0.1001912E+04  0.7818609E-02  0.9306450E-01
       -2   -1    0    0    0  501  0.00000000000E+00  0.00000000000E+00  0.26499016227E+03  0.26499016228E+03  0.25500000920E-02 0.  1.
        2   -1    0    0  501    0  0.00000000000E+00  0.00000000000E+00 -0.94704322430E+03  0.94704322430E+03  0.25500000920E-02 0. -1.
    10030    2    1    2    0    0  0.00000000000E+00  0.00000000000E+00 -0.68205306203E+03  0.12120333866E+04  0.10019124467E+04 0.  0.
        5    1    3    3  502    0  0.24472797866E+03  0.37941399140E+03 -0.78519307606E+02  0.45829480913E+03  0.46999998093E+01 0.  1.
       -5    1    3    3    0  502 -0.24472797866E+03 -0.37941399140E+03 -0.60353375442E+03  0.75373857745E+03  0.46999998093E+01 0. -1.
</event>
<event>
 5   0  0.1293716E-03  0.1037549E+04  0.7818609E-02  0.9268294E-01
       -1   -1    0    0    0  501  0.00000000000E+00  0.00000000000E+00  0.78886413965E+03  0.78886413967E+03  0.50400001928E-02 0. -1.
        1   -1    0    0  501    0  0.00000000000E+00  0.00000000000E+00 -0.34115753085E+03  0.34115753088E+03  0.50400001928E-02 0.  1.
    10030    2    1    2    0    0  0.00000000000E+00  0.00000000000E+00  0.44770660880E+03  0.11300216706E+04  0.10375489234E+04 0.  0.
        3    1    3    3  502    0 -0.20349123774E+03 -0.11610428160E+03 -0.28025805662E+03  0.36528547267E+03  0.10100000352E+00 0.  1.
       -3    1    3    3    0  502  0.20349123774E+03  0.11610428160E+03  0.72796466543E+03  0.76473619788E+03  0.10100000352E+00 0. -1.
</event>
<event>
 5   0  0.1293575E-03  0.1000459E+04  0.7818609E-02  0.9308042E-01
        1   -1    0    0  501    0  0.00000000000E+00  0.00000000000E+00  0.19670020854E+03  0.19670020860E+03  0.50400001928E-02 0.  1.
       -1   -1    0    0    0  501  0.00000000000E+00  0.00000000000E+00 -0.12721356694E+04  0.12721356694E+04  0.50400001928E-02 0. -1.
    10030    2    1    2    0    0  0.00000000000E+00  0.00000000000E+00 -0.10754354609E+04  0.14688358780E+04  0.10004585979E+04 0.  0.
        4    1    3    3  502    0 -0.55633119495E+01 -0.15996093116E+03 -0.12335234711E+04  0.12438650315E+04  0.12699999809E+01 0. -1.
       -4    1    3    3    0  502  0.55633119495E+01  0.15996093116E+03  0.15808801019E+03  0.22497084656E+03  0.12699999809E+01 0.  1.
</event>
<event>
 5   0  0.1293716E-03  0.1005675E+04  0.7818609E-02  0.9302342E-01
       -1   -1    0    0    0  501  0.00000000000E+00  0.00000000000E+00  0.23808876671E+03  0.23808876677E+03  0.50400001928E-02 0.  1.
        1   -1    0    0  501    0  0.00000000000E+00  0.00000000000E+00 -0.10619804346E+04  0.10619804346E+04  0.50400001928E-02 0. -1.
    10030    2    1    2    0    0  0.00000000000E+00  0.00000000000E+00 -0.82389166790E+03  0.13000692014E+04  0.10056751205E+04 0.  0.
        3    1    3    3  502    0 -0.85884033887E+02 -0.34047487300E+03  0.53341714350E+02  0.35516834757E+03  0.10100000352E+00 0.  1.
       -3    1    3    3    0  502  0.85884033887E+02  0.34047487300E+03 -0.87723338225E+03  0.94490085382E+03  0.10100000352E+00 0. -1.
</event>
<event>
 5   0  0.1293716E-03  0.9990497E+03  0.7818609E-02  0.9309588E-01
       -1   -1    0    0    0  501  0.00000000000E+00  0.00000000000E+00  0.12021090674E+03  0.12021090684E+03  0.50400001928E-02 0.  1.
        1   -1    0    0  501    0  0.00000000000E+00  0.00000000000E+00 -0.20757274592E+04  0.20757274592E+04  0.50400001928E-02 0. -1.
    10030    2    1    2    0    0  0.00000000000E+00  0.00000000000E+00 -0.19555165525E+04  0.21959383661E+04  0.99904970874E+03 0.  0.
        3    1    3    3  502    0 -0.11209555725E+03  0.83408631991E+02  0.76384591332E+02  0.15923890806E+03  0.10100000352E+00 0.  1.
       -3    1    3    3    0  502  0.11209555725E+03 -0.83408631991E+02 -0.20319011438E+04  0.20366994580E+04  0.10100000352E+00 0. -1.
</event>
<event>
 5   0  0.2284843E-03  0.1001365E+04  0.7818609E-02  0.9307049E-01
        2   -1    0    0  501    0  0.00000000000E+00  0.00000000000E+00  0.11419637255E+04  0.11419637255E+04  0.25500000920E-02 0. -1.
       -2   -1    0    0    0  501  0.00000000000E+00  0.00000000000E+00 -0.21951936956E+03  0.21951936958E+03  0.25500000920E-02 0.  1.
    10030    2    1    2    0    0  0.00000000000E+00  0.00000000000E+00  0.92244435590E+03  0.13614830950E+04  0.10013653821E+04 0.  0.
        2    1    3    3  502    0  0.10112963329E+03 -0.40815351177E+03  0.83074726345E+03  0.93110552980E+03  0.25500000920E-02 0. -1.
       -2    1    3    3    0  502 -0.10112963329E+03  0.40815351177E+03  0.91697092453E+02  0.43037756525E+03  0.25500000920E-02 0.  1.
</event>
<event>
 5   0  0.1285769E-03  0.1001660E+04  0.7818609E-02  0.9306726E-01
       -1   -1    0    0    0  501  0.00000000000E+00  0.00000000000E+00  0.13078988878E+04  0.13078988878E+04  0.50400001928E-02 0. -1.
        1   -1    0    0  501    0  0.00000000000E+00  0.00000000000E+00 -0.19178143535E+03  0.19178143541E+03  0.50400001928E-02 0.  1.
    10030    2    1    2    0    0  0.00000000000E+00  0.00000000000E+00  0.11161174524E+04  0.14996803232E+04  0.10016600742E+04 0.  0.
        5    1    3    3  502    0  0.17276171256E+02  0.32164526126E+03  0.11321983010E+04  0.11771360257E+04  0.46999998093E+01 0. -1.
       -5    1    3    3    0  502 -0.17276171256E+02 -0.32164526126E+03 -0.16080848547E+02  0.32254429754E+03  0.46999998093E+01 0.  1.
</event>
<event>
 5   0  0.1249195E-03  0.1000745E+04  0.7818609E-02  0.9307728E-01
        1   -1    0    0  501    0  0.00000000000E+00  0.00000000000E+00  0.82628490566E+03  0.82628490567E+03  0.50400001928E-02 0. -1.
       -1   -1    0    0    0  501  0.00000000000E+00  0.00000000000E+00 -0.30301002574E+03  0.30301002578E+03  0.50400001928E-02 0.  1.
    10030    2    1    2    0    0  0.00000000000E+00  0.00000000000E+00  0.52327487992E+03  0.11292949315E+04  0.10007449437E+04 0.  0.
        2    1    3    3  502    0 -0.44008712254E+03 -0.59721121776E+02  0.52174388555E+03  0.68517148943E+03  0.25500000920E-02 0. -1.
       -2    1    3    3    0  502  0.44008712254E+03  0.59721121776E+02  0.15309943669E+01  0.44412344203E+03  0.25500000920E-02 0.  1.
</event>
<event>
 5   0  0.1293716E-03  0.9966254E+03  0.7818609E-02  0.9312254E-01
        1   -1    0    0  501    0  0.00000000000E+00  0.00000000000E+00  0.12111415820E+04  0.12111415820E+04  0.50400001928E-02 0.  1.
       -1   -1    0    0    0  501  0.00000000000E+00  0.00000000000E+00 -0.20502602331E+03  0.20502602337E+03  0.50400001928E-02 0. -1.
    10030    2    1    2    0    0  0.00000000000E+00  0.00000000000E+00  0.10061155587E+04  0.14161676054E+04  0.99662539056E+03 0.  0.
        3    1    3    3  502    0 -0.48548776811E+03 -0.46100225450E+02  0.64860716129E+03  0.81148928745E+03  0.10100000352E+00 0.  1.
       -3    1    3    3    0  502  0.48548776811E+03  0.46100225450E+02  0.35750839741E+03  0.60467831794E+03  0.10100000352E+00 0. -1.
</event>
<event>
 5   0  0.2204862E-03  0.9917928E+03  0.7818609E-02  0.9317592E-01
       -2   -1    0    0    0  501  0.00000000000E+00  0.00000000000E+00  0.48140851866E+03  0.48140851867E+03  0.25500000920E-02 0.  1.
        2   -1    0    0  501    0  0.00000000000E+00  0.00000000000E+00 -0.51082033467E+03  0.51082033467E+03  0.25500000920E-02 0. -1.
    10030    2    1    2    0    0  0.00000000000E+00  0.00000000000E+00 -0.29411816009E+02  0.99222885334E+03  0.99179284252E+03 0.  0.
        1    1    3    3  502    0  0.31003101963E+03 -0.29363882372E+03 -0.26694820091E+03  0.50359143551E+03  0.50400001928E-02 0. -1.
       -1    1    3    3    0  502 -0.31003101963E+03  0.29363882372E+03  0.23753638490E+03  0.48863741783E+03  0.50400001928E-02 0.  1.
</event>
<event>
 5   0  0.2284843E-03  0.1003564E+04  0.7818609E-02  0.9304645E-01
        2   -1    0    0  501    0  0.00000000000E+00  0.00000000000E+00  0.64359029980E+03  0.64359029980E+03  0.25500000920E-02 0. -1.
       -2   -1    0    0    0  501  0.00000000000E+00  0.00000000000E+00 -0.39121946309E+03  0.39121946309E+03  0.25500000920E-02 0.  1.
    10030    2    1    2    0    0  0.00000000000E+00  0.00000000000E+00  0.25237083671E+03  0.10348097629E+04  0.10035637529E+04 0.  0.
        2    1    3    3  502    0  0.10095049886E+03 -0.21779021292E+03 -0.32817142940E+03  0.40659570478E+03  0.25500000920E-02 0.  1.
       -2    1    3    3    0  502 -0.10095049886E+03  0.21779021292E+03  0.58054226611E+03  0.62821405812E+03  0.25500000920E-02 0. -1.
</event>
<event>
 5   0  0.1293716E-03  0.9817396E+03  0.7818609E-02  0.9328802E-01
       -1   -1    0    0    0  501  0.00000000000E+00  0.00000000000E+00  0.90267656107E+03  0.90267656108E+03  0.50400001928E-02 0. -1.
        1   -1    0    0  501    0  0.00000000000E+00  0.00000000000E+00 -0.26693190750E+03  0.26693190755E+03  0.50400001928E-02 0.  1.
    10030    2    1    2    0    0  0.00000000000E+00  0.00000000000E+00  0.63574465357E+03  0.11696084686E+04  0.98173963216E+03 0.  0.
        3    1    3    3  502    0  0.28476878617E+03  0.55664193774E+02  0.78957001768E+03  0.84119711546E+03  0.10100000352E+00 0. -1.
       -3    1    3    3    0  502 -0.28476878617E+03 -0.55664193774E+02 -0.15382536411E+03  0.32841135317E+03  0.10100000352E+00 0.  1.
</event>
<event>
 5   0  0.2204862E-03  0.9863577E+03  0.7818609E-02  0.9323635E-01
        2   -1    0    0  501    0  0.00000000000E+00  0.00000000000E+00  0.17422433381E+04  0.17422433381E+04  0.25500000920E-02 0. -1.
       -2   -1    0    0    0  501  0.00000000000E+00  0.00000000000E+00 -0.13960470567E+03  0.13960470570E+03  0.25500000920E-02 0.  1.
    10030    2    1    2    0    0  0.00000000000E+00  0.00000000000E+00  0.16026386324E+04  0.18818480438E+04  0.98635768047E+03 0.  0.
        1    1    3    3  502    0  0.72642954127E+02  0.25096214875E+03  0.15993643724E+04  0.16205632955E+04  0.50400001928E-02 0. -1.
       -1    1    3    3    0  502 -0.72642954127E+02 -0.25096214875E+03  0.32742599936E+01  0.26128474830E+03  0.50400001928E-02 0.  1.
</event>
<event>
 5   0  0.1353789E-03  0.9984074E+03  0.7818609E-02  0.9310293E-01
       -1   -1    0    0    0  501  0.00000000000E+00  0.00000000000E+00  0.40210158060E+03  0.40210158064E+03  0.50400001928E-02 0. -1.
        1   -1    0    0  501    0  0.00000000000E+00  0.00000000000E+00 -0.61975462998E+03  0.61975463000E+03  0.50400001928E-02 0.  1.
    10030    2    1    2    0    0  0.00000000000E+00  0.00000000000E+00 -0.21765304938E+03  0.10218562106E+04  0.99840736441E+03 0.  0.
        1    1    3    3  502    0  0.40390115631E+03  0.16544644886E+03  0.13913537334E+03  0.45811278485E+03  0.50400001928E-02 0. -1.
       -1    1    3    3    0  502 -0.40390115631E+03 -0.16544644886E+03 -0.35678842271E+03  0.56374342578E+03  0.50400001928E-02 0.  1.
</event>
<event>
 5   0  0.1293716E-03  0.1000886E+04  0.7818609E-02  0.9307574E-01
        1   -1    0    0  501    0  0.00000000000E+00  0.00000000000E+00  0.70396588610E+03  0.70396588612E+03  0.50400001928E-02 0.  1.
       -1   -1    0    0    0  501  0.00000000000E+00  0.00000000000E+00 -0.35576014351E+03  0.35576014354E+03  0.50400001928E-02 0. -1.
    10030    2    1    2    0    0  0.00000000000E+00  0.00000000000E+00  0.34820574260E+03  0.10597260297E+04  0.10008856172E+04 0.  0.
        3    1    3    3  502    0  0.90481146642E+02 -0.16861838949E+03 -0.31549257914E+03  0.36899129646E+03  0.10100000352E+00 0. -1.
       -3    1    3    3    0  502 -0.90481146642E+02  0.16861838949E+03  0.66369832174E+03  0.69073473320E+03  0.10100000352E+00 0.  1.
</event>
<event>
 5   0  0.2255142E-03  0.9907187E+03  0.7818609E-02  0.9318783E-01
       -2   -1    0    0    0  501  0.00000000000E+00  0.00000000000E+00  0.30892792019E+03  0.30892792020E+03  0.25500000920E-02 0.  1.
        2   -1    0    0  501    0  0.00000000000E+00  0.00000000000E+00 -0.79429821328E+03  0.79429821329E+03  0.25500000920E-02 0. -1.
    10030    2    1    2    0    0  0.00000000000E+00  0.00000000000E+00 -0.48537029309E+03  0.11032261335E+04  0.99071871901E+03 0.  0.
        4    1    3    3  502    0  0.31935216048E+03 -0.43790338700E+02 -0.66153212167E+03  0.73588705456E+03  0.12699999809E+01 0. -1.
       -4    1    3    3    0  502 -0.31935216048E+03  0.43790338700E+02  0.17616182858E+03  0.36733907894E+03  0.12699999809E+01 0.  1.
</event>
<event>
 5   0  0.8680125E-04  0.9986994E+03  0.7818609E-02  0.9309972E-01
        4   -1    0    0  501    0  0.00000000000E+00  0.00000000000E+00  0.14308896462E+04  0.14308902098E+04  0.12699999809E+01 0. -1.
       -4   -1    0    0    0  501  0.00000000000E+00  0.00000000000E+00 -0.17425938138E+03  0.17426400919E+03  0.12699999809E+01 0.  1.
    10030    2    1    2    0    0  0.00000000000E+00  0.00000000000E+00  0.12566302649E+04  0.16051542190E+04  0.99869937634E+03 0.  0.
        4    1    3    3  502    0  0.30623511952E+03  0.36364840495E+03  0.38283048046E+03  0.61039405348E+03  0.12699999809E+01 0. -1.
       -4    1    3    3    0  502 -0.30623511952E+03 -0.36364840495E+03  0.87379978439E+03  0.99476016554E+03  0.12699999809E+01 0.  1.
</event>
<event>
 5   0  0.8680125E-04  0.9990524E+03  0.7818609E-02  0.9309585E-01
        3   -1    0    0  501    0  0.00000000000E+00  0.00000000000E+00  0.52629479061E+03  0.52629480030E+03  0.10100000352E+00 0. -1.
       -3   -1    0    0    0  501  0.00000000000E+00  0.00000000000E+00 -0.47411906510E+03  0.47411907586E+03  0.10100000352E+00 0.  1.
    10030    2    1    2    0    0  0.00000000000E+00  0.00000000000E+00  0.52175725508E+02  0.10004138762E+04  0.99905235963E+03 0.  0.
        4    1    3    3  502    0 -0.33132068375E+03 -0.33598543540E+03 -0.13804152890E+03  0.49164691078E+03  0.12699999809E+01 0.  1.
       -4    1    3    3    0  502  0.33132068375E+03  0.33598543540E+03  0.19021725441E+03  0.50876696538E+03  0.12699999809E+01 0. -1.
</event>
<event>
 5   0  0.2204862E-03  0.1002058E+04  0.7818609E-02  0.9306290E-01
        2   -1    0    0  501    0  0.00000000000E+00  0.00000000000E+00  0.36796543546E+03  0.36796543547E+03  0.25500000920E-02 0.  1.
       -2   -1    0    0    0  501  0.00000000000E+00  0.00000000000E+00 -0.68221119237E+03  0.68221119238E+03  0.25500000920E-02 0. -1.
    10030    2    1    2    0    0  0.00000000000E+00  0.00000000000E+00 -0.31424575691E+03  0.10501766278E+04  0.10020581590E+04 0.  0.
        1    1    3    3  502    0  0.52714912425E+02 -0.17110635781E+03 -0.64753995905E+03  0.67183647286E+03  0.50400001928E-02 0. -1.
       -1    1    3    3    0  502 -0.52714912425E+02  0.17110635781E+03  0.33329420213E+03  0.37834015499E+03  0.50400001928E-02 0.  1.
</event>
<event>
 5   0  0.2264577E-03  0.9984511E+03  0.7818609E-02  0.9310245E-01
        2   -1    0    0  501    0  0.00000000000E+00  0.00000000000E+00  0.22522879023E+04  0.22522879023E+04  0.25500000920E-02 0. -1.
       -2   -1    0    0    0  501  0.00000000000E+00  0.00000000000E+00 -0.11065464976E+03  0.11065464978E+03  0.25500000920E-02 0.  1.
    10030    2    1    2    0    0  0.00000000000E+00  0.00000000000E+00  0.21416332525E+04  0.23629425521E+04  0.99845105842E+03 0.  0.
        5    1    3    3  502    0 -0.17809865851E+03 -0.34699693184E+03  0.18081890173E+04  0.18497825859E+04  0.46999998093E+01 0. -1.
       -5    1    3    3    0  502  0.17809865851E+03  0.34699693184E+03  0.33344423526E+03  0.51315996618E+03  0.46999998093E+01 0.  1.
</event>
<event>
 5   0  0.2255142E-03  0.1001832E+04  0.7818609E-02  0.9306538E-01
        2   -1    0    0  501    0  0.00000000000E+00  0.00000000000E+00  0.98422084767E+03  0.98422084767E+03  0.25500000920E-02 0. -1.
       -2   -1    0    0    0  501  0.00000000000E+00  0.00000000000E+00 -0.25493957918E+03  0.25493957920E+03  0.25500000920E-02 0.  1.
    10030    2    1    2    0    0  0.00000000000E+00  0.00000000000E+00  0.72928126849E+03  0.12391604269E+04  0.10018320193E+04 0.  0.
        4    1    3    3  502    0 -0.12451269177E+03  0.24547342182E+02 -0.23472278253E+03  0.26683774088E+03  0.12699999809E+01 0.  1.
       -4    1    3    3    0  502  0.12451269177E+03 -0.24547342182E+02  0.96400405101E+03  0.97232268599E+03  0.12699999809E+01 0. -1.
</event>
<event>
 5   0  0.1293716E-03  0.1012633E+04  0.7818609E-02  0.9294796E-01
       -1   -1    0    0    0  501  0.00000000000E+00  0.00000000000E+00  0.44260150972E+03  0.44260150975E+03  0.50400001928E-02 0. -1.
        1   -1    0    0  501    0  0.00000000000E+00  0.00000000000E+00 -0.57920405604E+03  0.57920405606E+03  0.50400001928E-02 0.  1.
    10030    2    1    2    0    0  0.00000000000E+00  0.00000000000E+00 -0.13660254632E+03  0.10218055658E+04  0.10126333782E+04 0.  0.
        3    1    3    3  502    0  0.42336456722E+03 -0.24926214006E+03 -0.19183322227E+03  0.52741745004E+03  0.10100000352E+00 0.  1.
       -3    1    3    3    0  502 -0.42336456722E+03  0.24926214006E+03  0.55230675959E+02  0.49438811577E+03  0.10100000352E+00 0. -1.
</event>
<event>
 5   0  0.1293716E-03  0.9948051E+03  0.7818609E-02  0.9314261E-01
        1   -1    0    0  501    0  0.00000000000E+00  0.00000000000E+00  0.70354200718E+03  0.70354200720E+03  0.50400001928E-02 0. -1.
       -1   -1    0    0    0  501  0.00000000000E+00  0.00000000000E+00 -0.35166242905E+03  0.35166242908E+03  0.50400001928E-02 0.  1.
    10030    2    1    2    0    0  0.00000000000E+00  0.00000000000E+00  0.35187957814E+03  0.10552044363E+04  0.99480508887E+03 0.  0.
        3    1    3    3  502    0  0.46692714807E+03 -0.98382022007E+02  0.32485332596E+03  0.57726049358E+03  0.10100000352E+00 0. -1.
       -3    1    3    3    0  502 -0.46692714807E+03  0.98382022007E+02  0.27026252184E+02  0.47794394271E+03  0.10100000352E+00 0.  1.
</event>
<event>
 5   0  0.2277570E-03  0.1001294E+04  0.7818609E-02  0.9307126E-01
       -2   -1    0    0    0  501  0.00000000000E+00  0.00000000000E+00  0.75988459275E+03  0.75988459275E+03  0.25500000920E-02 0.  1.
        2   -1    0    0  501    0  0.00000000000E+00  0.00000000000E+00 -0.32984952945E+03  0.32984952946E+03  0.25500000920E-02 0. -1.
    10030    2    1    2    0    0  0.00000000000E+00  0.00000000000E+00  0.43003506330E+03  0.10897341222E+04  0.10012943131E+04 0.  0.
        3    1    3    3  502    0  0.18301262044E+03 -0.29322266119E+03  0.60918735389E+03  0.70041586976E+03  0.10100000352E+00 0.  1.
       -3    1    3    3    0  502 -0.18301262044E+03  0.29322266119E+03 -0.17915229059E+03  0.38931825246E+03  0.10100000352E+00 0. -1.
</event>
<event>
 5   0  0.2255142E-03  0.1001975E+04  0.7818609E-02  0.9306381E-01
       -2   -1    0    0    0  501  0.00000000000E+00  0.00000000000E+00  0.91575166453E+03  0.91575166453E+03  0.25500000920E-02 0. -1.
        2   -1    0    0  501    0  0.00000000000E+00  0.00000000000E+00 -0.27407937617E+03  0.27407937618E+03  0.25500000920E-02 0.  1.
    10030    2    1    2    0    0  0.00000000000E+00  0.00000000000E+00  0.64167228836E+03  0.11898310407E+04  0.10019753389E+04 0.  0.
        4    1    3    3  502    0 -0.18327019014E+03 -0.16015422711E+03 -0.19915458505E+03  0.31448608984E+03  0.12699999809E+01 0.  1.
       -4    1    3    3    0  502  0.18327019014E+03  0.16015422711E+03  0.84082687342E+03  0.87534495087E+03  0.12699999809E+01 0. -1.
</event>
<event>
 5   0  0.1249195E-03  0.9992367E+03  0.7818609E-02  0.9309382E-01
        1   -1    0    0  501    0  0.00000000000E+00  0.00000000000E+00  0.11361687067E+04  0.11361687067E+04  0.50400001928E-02 0.  1.
       -1   -1    0    0    0  501  0.00000000000E+00  0.00000000000E+00 -0.21970196575E+03  0.21970196581E+03  0.50400001928E-02 0. -1.
    10030    2    1    2    0    0  0.00000000000E+00  0.00000000000E+00  0.91646674095E+03  0.13558706725E+04  0.99923670537E+03 0.  0.
        2    1    3    3  502    0  0.89505761739E+02  0.49065533457E+03  0.49813102435E+03  0.70490315374E+03  0.25500000920E-02 0.  1.
       -2    1    3    3    0  502 -0.89505761739E+02 -0.49065533457E+03  0.41833571660E+03  0.65096751879E+03  0.25500000920E-02 0. -1.
</event>
<event>
 5   0  0.1353789E-03  0.9989792E+03  0.7818609E-02  0.9309665E-01
       -1   -1    0    0    0  501  0.00000000000E+00  0.00000000000E+00  0.21627447011E+03  0.21627447017E+03  0.50400001928E-02 0. -1.
        1   -1    0    0  501    0  0.00000000000E+00  0.00000000000E+00 -0.11535797834E+04  0.11535797834E+04  0.50400001928E-02 0.  1.
    10030    2    1    2    0    0  0.00000000000E+00  0.00000000000E+00 -0.93730531328E+03  0.13698542536E+04  0.99897919184E+03 0.  0.
        1    1    3    3  502    0  0.20374847529E+03  0.45260093439E+03 -0.39195051772E+03  0.63244466585E+03  0.50400001928E-02 0.  1.
       -1    1    3    3    0  502 -0.20374847529E+03 -0.45260093439E+03 -0.54535479556E+03  0.73740958772E+03  0.50400001928E-02 0. -1.
</event>
<event>
 5   0  0.1249195E-03  0.9953099E+03  0.7818609E-02  0.9313704E-01
        1   -1    0    0  501    0  0.00000000000E+00  0.00000000000E+00  0.46638547883E+03  0.46638547886E+03  0.50400001928E-02 0.  1.
       -1   -1    0    0    0  501  0.00000000000E+00  0.00000000000E+00 -0.53102096964E+03  0.53102096967E+03  0.50400001928E-02 0. -1.
    10030    2    1    2    0    0  0.00000000000E+00  0.00000000000E+00 -0.64635490807E+02  0.99740644853E+03  0.99530994012E+03 0.  0.
        2    1    3    3  502    0  0.85785896496E+02 -0.24658591151E+03 -0.45688059443E+03  0.52621640925E+03  0.25500000920E-02 0. -1.
       -2    1    3    3    0  502 -0.85785896496E+02  0.24658591151E+03  0.39224510362E+03  0.47119003928E+03  0.25500000920E-02 0.  1.
</event>
<event>
 5   0  0.8680125E-04  0.1000160E+04  0.7818609E-02  0.9308369E-01
        3   -1    0    0  501    0  0.00000000000E+00  0.00000000000E+00  0.11610076942E+04  0.11610076986E+04  0.10100000352E+00 0. -1.
       -3   -1    0    0    0  501  0.00000000000E+00  0.00000000000E+00 -0.21539919708E+03  0.21539922076E+03  0.10100000352E+00 0.  1.
    10030    2    1    2    0    0  0.00000000000E+00  0.00000000000E+00  0.94560849708E+03  0.13764069193E+04  0.10001602761E+04 0.  0.
        1    1    3    3  502    0 -0.46091039563E+03 -0.17063694987E+03  0.34574130521E+03  0.60090965345E+03  0.50400001928E-02 0.  1.
       -1    1    3    3    0  502  0.46091039563E+03  0.17063694987E+03  0.59986719188E+03  0.77549726587E+03  0.50400001928E-02 0. -1.
</event>
<event>
 5   0  0.2255142E-03  0.9992051E+03  0.7818609E-02  0.9309417E-01
        2   -1    0    0  501    0  0.00000000000E+00  0.00000000000E+00  0.22613290704E+04  0.22613290704E+04  0.25500000920E-02 0.  1.
       -2   -1    0    0    0  501  0.00000000000E+00  0.00000000000E+00 -0.11037876348E+03  0.11037876351E+03  0.25500000920E-02 0. -1.
    10030    2    1    2    0    0  0.00000000000E+00  0.00000000000E+00  0.21509503069E+04  0.23717078339E+04  0.99920509736E+03 0.  0.
        4    1    3    3  502    0  0.39425345018E+03 -0.20561691690E+03  0.53480075731E+03  0.69550525692E+03  0.12699999809E+01 0. -1.
       -4    1    3    3    0  502 -0.39425345018E+03  0.20561691690E+03  0.16161495496E+04  0.16762025770E+04  0.12699999809E+01 0.  1.
</event>
<event>
 5   0  0.2255142E-03  0.9994409E+03  0.7818609E-02  0.9309158E-01
       -2   -1    0    0    0  501  0.00000000000E+00  0.00000000000E+00  0.43796427482E+03  0.43796427483E+03  0.25500000920E-02 0. -1.
        2   -1    0    0  501    0  0.00000000000E+00  0.00000000000E+00 -0.57018470992E+03  0.57018470993E+03  0.25500000920E-02 0.  1.
    10030    2    1    2    0    0  0.00000000000E+00  0.00000000000E+00 -0.13222043510E+03  0.10081489848E+04  0.99944090971E+03 0.  0.
        4    1    3    3  502    0  0.35959610382E+02 -0.40629879102E+03  0.22510421242E+03  0.46588123005E+03  0.12699999809E+01 0. -1.
       -4    1    3    3    0  502 -0.35959610382E+02  0.40629879102E+03 -0.35732464752E+03  0.54226775470E+03  0.12699999809E+01 0.  1.
</event>
<event>
 5   0  0.2264577E-03  0.9997317E+03  0.7818609E-02  0.9308839E-01
       -2   -1    0    0    0  501  0.00000000000E+00  0.00000000000E+00  0.49511607138E+03  0.49511607138E+03  0.25500000920E-02 0.  1.
        2   -1    0    0  501    0  0.00000000000E+00  0.00000000000E+00 -0.50466114531E+03  0.50466114532E+03  0.25500000920E-02 0. -1.
    10030    2    1    2    0    0  0.00000000000E+00  0.00000000000E+00 -0.95450739318E+01  0.99977721670E+03  0.99973165129E+03 0.  0.
        5    1    3    3  502    0  0.41901363601E+03  0.27228879536E+03 -0.16180879322E+02  0.49999752609E+03  0.46999998093E+01 0.  1.
       -5    1    3    3    0  502 -0.41901363601E+03 -0.27228879536E+03  0.66358053900E+01  0.49977969061E+03  0.46999998093E+01 0. -1.
</event>
<event>
 5   0  0.1293716E-03  0.9998999E+03  0.7818609E-02  0.9308655E-01
       -1   -1    0    0    0  501  0.00000000000E+00  0.00000000000E+00  0.17589922288E+03  0.17589922296E+03  0.50400001928E-02 0.  1.
        1   -1    0    0  501    0  0.00000000000E+00  0.00000000000E+00 -0.14209838872E+04  0.14209838872E+04  0.50400001928E-02 0. -1.
    10030    2    1    2    0    0  0.00000000000E+00  0.00000000000E+00 -0.12450846643E+04  0.15968831102E+04  0.99989991810E+03 0.  0.
        3    1    3    3  502    0 -0.47435931928E+03 -0.14845803910E+03 -0.70844777820E+03  0.86542175718E+03  0.10100000352E+00 0. -1.
       -3    1    3    3    0  502  0.47435931928E+03  0.14845803910E+03 -0.53663688610E+03  0.73146135297E+03  0.10100000352E+00 0.  1.
</event>
<event>
 5   0  0.1249195E-03  0.9986456E+03  0.7818609E-02  0.9310032E-01
        1   -1    0    0  501    0  0.00000000000E+00  0.00000000000E+00  0.20786867301E+04  0.20786867301E+04  0.50400001928E-02 0.  1.
       -1   -1    0    0    0  501  0.00000000000E+00  0.00000000000E+00 -0.11994268597E+03  0.11994268608E+03  0.50400001928E-02 0. -1.
    10030    2    1    2    0    0  0.00000000000E+00  0.00000000000E+00  0.19587440441E+04  0.21986294162E+04  0.99864562247E+03 0.  0.
        2    1    3    3  502    0 -0.17863829518E+03 -0.43104811532E+03  0.58794838213E+03  0.75059804042E+03  0.25500000920E-02 0.  1.
       -2    1    3    3    0  502  0.17863829518E+03  0.43104811532E+03  0.13707956620E+04  0.14480313757E+04  0.25500000920E-02 0. -1.
</event>
<event>
 5   0  0.2204862E-03  0.1005122E+04  0.7818609E-02  0.9302945E-01
       -2   -1    0    0    0  501  0.00000000000E+00  0.00000000000E+00  0.34451783083E+03  0.34451783084E+03  0.25500000920E-02 0. -1.
        2   -1    0    0  501    0  0.00000000000E+00  0.00000000000E+00 -0.73310468649E+03  0.73310468649E+03  0.25500000920E-02 0.  1.
    10030    2    1    2    0    0  0.00000000000E+00  0.00000000000E+00 -0.38858685566E+03  0.10776225173E+04  0.10051221545E+04 0.  0.
        1    1    3    3  502    0 -0.14914961396E+02 -0.32600444630E+03  0.21546019137E+03  0.39105555765E+03  0.50400001928E-02 0. -1.
       -1    1    3    3    0  502  0.14914961396E+02  0.32600444630E+03 -0.60404704703E+03  0.68656695968E+03  0.50400001928E-02 0.  1.
</event>
<event>
 5   0  0.1293575E-03  0.1004128E+04  0.7818609E-02  0.9304029E-01
        1   -1    0    0  501    0  0.00000000000E+00  0.00000000000E+00  0.15059343286E+04  0.15059343286E+04  0.50400001928E-02 0.  1.
       -1   -1    0    0    0  501  0.00000000000E+00  0.00000000000E+00 -0.16738317036E+03  0.16738317043E+03  0.50400001928E-02 0. -1.
    10030    2    1    2    0    0  0.00000000000E+00  0.00000000000E+00  0.13385511583E+04  0.16733174991E+04  0.10041276061E+04 0.  0.
        4    1    3    3  502    0 -0.18725961256E+03 -0.23329818791E+03  0.13411879603E+04  0.13741473592E+04  0.12699999809E+01 0.  1.
       -4    1    3    3    0  502  0.18725961256E+03  0.23329818791E+03 -0.26368020314E+01  0.29917013989E+03  0.12699999809E+01 0. -1.
</event>
<event>
 5   0  0.2204862E-03  0.1000808E+04  0.7818609E-02  0.9307660E-01
        2   -1    0    0  501    0  0.00000000000E+00  0.00000000000E+00  0.12773935080E+04  0.12773935080E+04  0.25500000920E-02 0. -1.
       -2   -1    0    0    0  501  0.00000000000E+00  0.00000000000E+00 -0.19602726041E+03  0.19602726043E+03  0.25500000920E-02 0.  1.
    10030    2    1    2    0    0  0.00000000000E+00  0.00000000000E+00  0.10813662476E+04  0.14734207684E+04  0.10008075736E+04 0.  0.
        1    1    3    3  502    0  0.71712340111E+02  0.21844108131E+03 -0.11366518983E+03  0.25647405548E+03  0.50400001928E-02 0.  1.
       -1    1    3    3    0  502 -0.71712340111E+02 -0.21844108131E+03  0.11950314374E+04  0.12169467130E+04  0.50400001928E-02 0. -1.
</event>
<event>
 5   0  0.8680125E-04  0.1001491E+04  0.7818609E-02  0.9306912E-01
       -3   -1    0    0    0  501  0.00000000000E+00  0.00000000000E+00  0.46745890210E+03  0.46745891301E+03  0.10100000352E+00 0.  1.
        3   -1    0    0  501    0  0.00000000000E+00  0.00000000000E+00 -0.53640181794E+03  0.53640182745E+03  0.10100000352E+00 0. -1.
    10030    2    1    2    0    0  0.00000000000E+00  0.00000000000E+00 -0.68942915843E+02  0.10038607405E+04  0.10014905195E+04 0.  0.
        4    1    3    3  502    0  0.44554241380E+03 -0.84787411762E+02 -0.24721715813E+03  0.51654127024E+03  0.12699999809E+01 0. -1.
       -4    1    3    3    0  502 -0.44554241380E+03  0.84787411762E+02  0.17827424228E+03  0.48731947022E+03  0.12699999809E+01 0.  1.
</event>
<event>
 5   0  0.2284843E-03  0.9994131E+03  0.7818609E-02  0.9309189E-01
       -2   -1    0    0    0  501  0.00000000000E+00  0.00000000000E+00  0.11644720398E+03  0.11644720401E+03  0.25500000920E-02 0. -1.
        2   -1    0    0  501    0  0.00000000000E+00  0.00000000000E+00 -0.21443765065E+04  0.21443765065E+04  0.25500000920E-02 0.  1.
    10030    2    1    2    0    0  0.00000000000E+00  0.00000000000E+00 -0.20279293026E+04  0.22608237106E+04  0.99941312478E+03 0.  0.
        2    1    3    3  502    0 -0.36612136116E+03 -0.19946816604E+03 -0.39084872588E+03  0.57148501896E+03  0.25500000920E-02 0. -1.
       -2    1    3    3    0  502  0.36612136116E+03  0.19946816604E+03 -0.16370805767E+04  0.16893386916E+04  0.25500000920E-02 0.  1.
</event>
<event>
 5   0  0.1293575E-03  0.9985422E+03  0.7818609E-02  0.9310145E-01
       -1   -1    0    0    0  501  0.00000000000E+00  0.00000000000E+00  0.29076684746E+03  0.29076684751E+03  0.50400001928E-02 0. -1.
        1   -1    0    0  501    0  0.00000000000E+00  0.00000000000E+00 -0.85729038022E+03  0.85729038023E+03  0.50400001928E-02 0.  1.
    10030    2    1    2    0    0  0.00000000000E+00  0.00000000000E+00 -0.56652353275E+03  0.11480572277E+04  0.99854217988E+03 0.  0.
        4    1    3    3  502    0  0.21593028016E+03 -0.94663095277E+02 -0.78925288889E+03  0.82371640934E+03  0.12699999809E+01 0.  1.
       -4    1    3    3    0  502 -0.21593028016E+03  0.94663095277E+02  0.22272935613E+03  0.32434081840E+03  0.12699999809E+01 0. -1.
</event>
<event>
 5   0  0.2255142E-03  0.9918339E+03  0.7818609E-02  0.9317547E-01
       -2   -1    0    0    0  501  0.00000000000E+00  0.00000000000E+00  0.12546943960E+03  0.12546943962E+03  0.25500000920E-02 0.  1.
        2   -1    0    0  501    0  0.00000000000E+00  0.00000000000E+00 -0.19601078397E+04  0.19601078397E+04  0.25500000920E-02 0. -1.
    10030    2    1    2    0    0  0.00000000000E+00  0.00000000000E+00 -0.18346384001E+04  0.20855772793E+04  0.99183392205E+03 0.  0.
        4    1    3    3  502    0  0.17157775984E+02  0.43917652538E+02 -0.19553804922E+04  0.19559492917E+04  0.12699999809E+01 0. -1.
       -4    1    3    3    0  502 -0.17157775984E+02 -0.43917652538E+02  0.12074209209E+03  0.12962798765E+03  0.12699999809E+01 0.  1.
</event>
<event>
 5   0  0.1293716E-03  0.9990920E+03  0.7818609E-02  0.9309541E-01
        1   -1    0    0  501    0  0.00000000000E+00  0.00000000000E+00  0.49773494131E+03  0.49773494133E+03  0.50400001928E-02 0. -1.
       -1   -1    0    0    0  501  0.00000000000E+00  0.00000000000E+00 -0.50136369411E+03  0.50136369413E+03  0.50400001928E-02 0.  1.
    10030    2    1    2    0    0  0.00000000000E+00  0.00000000000E+00 -0.36287527999E+01  0.99909863547E+03  0.99909204558E+03 0.  0.
        3    1    3    3  502    0 -0.45084227484E+02  0.67347328683E+02 -0.49474558230E+03  0.50133965697E+03  0.10100000352E+00 0.  1.
       -3    1    3    3    0  502  0.45084227484E+02 -0.67347328683E+02  0.49111682950E+03  0.49775897849E+03  0.10100000352E+00 0. -1.
</event>
<event>
 5   0  0.2264577E-03  0.9976863E+03  0.7818609E-02  0.9311086E-01
       -2   -1    0    0    0  501  0.00000000000E+00  0.00000000000E+00  0.77473079978E+03  0.77473079979E+03  0.25500000920E-02 0. -1.
        2   -1    0    0  501    0  0.00000000000E+00  0.00000000000E+00 -0.32120123086E+03  0.32120123087E+03  0.25500000920E-02 0.  1.
    10030    2    1    2    0    0  0.00000000000E+00  0.00000000000E+00  0.45352956892E+03  0.10959320307E+04  0.99768629636E+03 0.  0.
        5    1    3    3  502    0 -0.13731524770E+03 -0.44479363598E+03  0.29878784547E+02  0.46648867899E+03  0.46999998093E+01 0. -1.
       -5    1    3    3    0  502  0.13731524770E+03  0.44479363598E+03  0.42365078437E+03  0.62944335167E+03  0.46999998093E+01 0.  1.
</event>
<event>
 5   0  0.2264577E-03  0.1001775E+04  0.7818609E-02  0.9306600E-01
        2   -1    0    0  501    0  0.00000000000E+00  0.00000000000E+00  0.85673497715E+03  0.85673497715E+03  0.25500000920E-02 0. -1.
       -2   -1    0    0    0  501  0.00000000000E+00  0.00000000000E+00 -0.29284255403E+03  0.29284255404E+03  0.25500000920E-02 0.  1.
    10030    2    1    2    0    0  0.00000000000E+00  0.00000000000E+00  0.56389242311E+03  0.11495775312E+04  0.10017753418E+04 0.  0.
        5    1    3    3  502    0 -0.36816491295E+03 -0.11264340042E+03 -0.85683188286E+02  0.39445866392E+03  0.46999998093E+01 0.  1.
       -5    1    3    3    0  502  0.36816491295E+03  0.11264340042E+03  0.64957561140E+03  0.75511886727E+03  0.46999998093E+01 0. -1.
</event>
<event>
 5   0  0.2204862E-03  0.9922279E+03  0.7818609E-02  0.9317110E-01
       -2   -1    0    0    0  501  0.00000000000E+00  0.00000000000E+00  0.68287822392E+03  0.68287822393E+03  0.25500000920E-02 0.  1.
        2   -1    0    0  501    0  0.00000000000E+00  0.00000000000E+00 -0.36042891660E+03  0.36042891661E+03  0.25500000920E-02 0. -1.
    10030    2    1    2    0    0  0.00000000000E+00  0.00000000000E+00  0.32244930732E+03  0.10433071405E+04  0.99222791419E+03 0.  0.
        1    1    3    3  502    0  0.29249235865E+03  0.21957270851E+03 -0.19124072831E+03  0.41271899687E+03  0.50400001928E-02 0. -1.
       -1    1    3    3    0  502 -0.29249235865E+03 -0.21957270851E+03  0.51369003563E+03  0.63058814366E+03  0.50400001928E-02 0.  1.
</event>
<event>
 5   0  0.1249195E-03  0.1007655E+04  0.7818609E-02  0.9300189E-01
        1   -1    0    0  501    0  0.00000000000E+00  0.00000000000E+00  0.45371223959E+03  0.45371223962E+03  0.50400001928E-02 0. -1.
       -1   -1    0    0    0  501  0.00000000000E+00  0.00000000000E+00 -0.55947802305E+03  0.55947802307E+03  0.50400001928E-02 0.  1.
    10030    2    1    2    0    0  0.00000000000E+00  0.00000000000E+00 -0.10576578345E+03  0.10131902627E+04  0.10076547561E+04 0.  0.
        2    1    3    3  502    0  0.21991103716E+03  0.18868572705E+03  0.36154494220E+03  0.46333347936E+03  0.25500000920E-02 0. -1.
       -2    1    3    3    0  502 -0.21991103716E+03 -0.18868572705E+03 -0.46731072566E+03  0.54985678333E+03  0.25500000920E-02 0.  1.
</event>
<event>
 5   0  0.1293716E-03  0.9957894E+03  0.7818609E-02  0.9313175E-01
        1   -1    0    0  501    0  0.00000000000E+00  0.00000000000E+00  0.23475395807E+03  0.23475395812E+03  0.50400001928E-02 0.  1.
       -1   -1    0    0    0  501  0.00000000000E+00  0.00000000000E+00 -0.10559955917E+04  0.10559955917E+04  0.50400001928E-02 0. -1.
    10030    2    1    2    0    0  0.00000000000E+00  0.00000000000E+00 -0.82124163365E+03  0.12907495499E+04  0.99578942533E+03 0.  0.
        3    1    3    3  502    0 -0.42363852469E+02 -0.27358635568E+03  0.12578815380E+03  0.30408363956E+03  0.10100000352E+00 0.  1.
       -3    1    3    3    0  502  0.42363852469E+02  0.27358635568E+03 -0.94702978745E+03  0.98666591029E+03  0.10100000352E+00 0. -1.
</event>
<event>
 5   0  0.1353789E-03  0.1003240E+04  0.7818609E-02  0.9304998E-01
        1   -1    0    0  501    0  0.00000000000E+00  0.00000000000E+00  0.76330110409E+03  0.76330110410E+03  0.50400001928E-02 0.  1.
       -1   -1    0    0    0  501  0.00000000000E+00  0.00000000000E+00 -0.32965065742E+03  0.32965065746E+03  0.50400001928E-02 0. -1.
    10030    2    1    2    0    0  0.00000000000E+00  0.00000000000E+00  0.43365044667E+03  0.10929517616E+04  0.10032401722E+04 0.  0.
        1    1    3    3  502    0 -0.20626388820E+03 -0.45203338266E+03  0.14179149503E+03  0.51670475003E+03  0.50400001928E-02 0. -1.
       -1    1    3    3    0  502  0.20626388820E+03  0.45203338266E+03  0.29185895164E+03  0.57624701153E+03  0.50400001928E-02 0.  1.
</event>
<event>
 5   0  0.2255142E-03  0.9996699E+03  0.7818609E-02  0.9308907E-01
        2   -1    0    0  501    0  0.00000000000E+00  0.00000000000E+00  0.90304279898E+03  0.90304279898E+03  0.25500000920E-02 0. -1.
       -2   -1    0    0    0  501  0.00000000000E+00  0.00000000000E+00 -0.27665905043E+03  0.27665905044E+03  0.25500000920E-02 0.  1.
    10030    2    1    2    0    0  0.00000000000E+00  0.00000000000E+00  0.62638374855E+03  0.11797018494E+04  0.99966987205E+03 0.  0.
        4    1    3    3  502    0 -0.22313786324E+03 -0.36987848185E+03  0.16444624982E+02  0.43228767729E+03  0.12699999809E+01 0.  1.
       -4    1    3    3    0  502  0.22313786324E+03  0.36987848185E+03  0.60993912356E+03  0.74741417213E+03  0.12699999809E+01 0. -1.
</event>
<event>
 5   0  0.1285769E-03  0.1025168E+04  0.7818609E-02  0.9281364E-01
       -1   -1    0    0    0  501  0.00000000000E+00  0.00000000000E+00  0.43897710707E+03  0.43897710710E+03  0.50400001928E-02 0. -1.
        1   -1    0    0  501    0  0.00000000000E+00  0.00000000000E+00 -0.59853289757E+03  0.59853289759E+03  0.50400001928E-02 0.  1.
    10030    2    1    2    0    0  0.00000000000E+00  0.00000000000E+00 -0.15955579050E+03  0.10375100047E+04  0.10251677714E+04 0.  0.
        5    1    3    3  502    0 -0.29953736538E+03  0.29303140604E+03 -0.37850971475E+03  0.56469614160E+03  0.46999998093E+01 0.  1.
       -5    1    3    3    0  502  0.29953736538E+03 -0.29303140604E+03  0.21895392425E+03  0.47281386309E+03  0.46999998093E+01 0. -1.
</event>
<event>
 5   0  0.1293575E-03  0.1013805E+04  0.7818609E-02  0.9293532E-01
       -1   -1    0    0    0  501  0.00000000000E+00  0.00000000000E+00  0.18345411133E+04  0.18345411133E+04  0.50400001928E-02 0.  1.
        1   -1    0    0  501    0  0.00000000000E+00  0.00000000000E+00 -0.14006238961E+03  0.14006238970E+03  0.50400001928E-02 0. -1.
    10030    2    1    2    0    0  0.00000000000E+00  0.00000000000E+00  0.16944787237E+04  0.19746035030E+04  0.10138051337E+04 0.  0.
        4    1    3    3  502    0 -0.92446879950E+02  0.73471753059E+02  0.18073741278E+04  0.18112281399E+04  0.12699999809E+01 0.  1.
       -4    1    3    3    0  502  0.92446879950E+02 -0.73471753059E+02 -0.11289540408E+03  0.16337536311E+03  0.12699999809E+01 0. -1.
</event>
<event>
 5   0  0.1249195E-03  0.9991694E+03  0.7818609E-02  0.9309456E-01
        1   -1    0    0  501    0  0.00000000000E+00  0.00000000000E+00  0.27934944718E+03  0.27934944723E+03  0.50400001928E-02 0.  1.
       -1   -1    0    0    0  501  0.00000000000E+00  0.00000000000E+00 -0.89345046718E+03  0.89345046720E+03  0.50400001928E-02 0. -1.
    10030    2    1    2    0    0  0.00000000000E+00  0.00000000000E+00 -0.61410102000E+03  0.11727999144E+04  0.99916944334E+03 0.  0.
        2    1    3    3  502    0 -0.44775179108E+03 -0.22057203431E+03 -0.28211766035E+03  0.57334462850E+03  0.25500000920E-02 0. -1.
       -2    1    3    3    0  502  0.44775179108E+03  0.22057203431E+03 -0.33198335964E+03  0.59945528593E+03  0.25500000920E-02 0.  1.
</event>
<event>
 5   0  0.2277570E-03  0.9989871E+03  0.7818609E-02  0.9309656E-01
        2   -1    0    0  501    0  0.00000000000E+00  0.00000000000E+00  0.41444360618E+03  0.41444360619E+03  0.25500000920E-02 0.  1.
       -2   -1    0    0    0  501  0.00000000000E+00  0.00000000000E+00 -0.60199700527E+03  0.60199700527E+03  0.25500000920E-02 0. -1.
    10030    2    1    2    0    0  0.00000000000E+00  0.00000000000E+00 -0.18755339908E+03  0.10164406115E+04  0.99898710659E+03 0.  0.
        3    1    3    3  502    0  0.41372277125E+03  0.22143260504E+03 -0.26792446649E+03  0.54035401356E+03  0.10100000352E+00 0. -1.
       -3    1    3    3    0  502 -0.41372277125E+03 -0.22143260504E+03  0.80371067408E+02  0.47608659790E+03  0.10100000352E+00 0.  1.
</event>
<event>
 5   0  0.2255142E-03  0.9980602E+03  0.7818609E-02  0.9310675E-01
       -2   -1    0    0    0  501  0.00000000000E+00  0.00000000000E+00  0.13478254284E+03  0.13478254286E+03  0.25500000920E-02 0. -1.
        2   -1    0    0  501    0  0.00000000000E+00  0.00000000000E+00 -0.18476506806E+04  0.18476506806E+04  0.25500000920E-02 0.  1.
    10030    2    1    2    0    0  0.00000000000E+00  0.00000000000E+00 -0.17128681377E+04  0.19824332235E+04  0.99806023272E+03 0.  0.
        4    1    3    3  502    0  0.89314084599E+02  0.16262496478E+03  0.63723705337E+02  0.19617902130E+03  0.12699999809E+01 0. -1.
       -4    1    3    3    0  502 -0.89314084599E+02 -0.16262496478E+03 -0.17765918431E+04  0.17862542022E+04  0.12699999809E+01 0.  1.
</event>
<event>
 5   0  0.2204862E-03  0.1000343E+04  0.7818609E-02  0.9308169E-01
       -2   -1    0    0    0  501  0.00000000000E+00  0.00000000000E+00  0.34720376781E+03  0.34720376782E+03  0.25500000920E-02 0. -1.
        2   -1    0    0  501    0  0.00000000000E+00  0.00000000000E+00 -0.72053185913E+03  0.72053185914E+03  0.25500000920E-02 0.  1.
    10030    2    1    2    0    0  0.00000000000E+00  0.00000000000E+00 -0.37332809132E+03  0.10677356270E+04  0.10003426939E+04 0.  0.
        1    1    3    3  502    0  0.22837283707E+03  0.13846955221E+02 -0.66140429050E+03  0.69985821879E+03  0.50400001928E-02 0.  1.
       -1    1    3    3    0  502 -0.22837283707E+03 -0.13846955221E+02  0.28807619918E+03  0.36787740817E+03  0.50400001928E-02 0. -1.
</event>
<event>
 5   0  0.2277570E-03  0.9993580E+03  0.7818609E-02  0.9309249E-01
        2   -1    0    0  501    0  0.00000000000E+00  0.00000000000E+00  0.10609132061E+04  0.10609132061E+04  0.25500000920E-02 0.  1.
       -2   -1    0    0    0  501  0.00000000000E+00  0.00000000000E+00 -0.23534358102E+03  0.23534358104E+03  0.25500000920E-02 0. -1.
    10030    2    1    2    0    0  0.00000000000E+00  0.00000000000E+00  0.82556962512E+03  0.12962567872E+04  0.99935802013E+03 0.  0.
        3    1    3    3  502    0  0.28368506855E+03  0.29578548714E+02  0.94495044658E+03  0.98705798480E+03  0.10100000352E+00 0.  1.
       -3    1    3    3    0  502 -0.28368506855E+03 -0.29578548714E+02 -0.11938082146E+03  0.30919880238E+03  0.10100000352E+00 0. -1.
</event>
<event>
 5   0  0.1285769E-03  0.9700259E+03  0.7818609E-02  0.9342045E-01
        1   -1    0    0  501    0  0.00000000000E+00  0.00000000000E+00  0.84982399930E+03  0.84982399932E+03  0.50400001928E-02 0. -1.
       -1   -1    0    0    0  501  0.00000000000E+00  0.00000000000E+00 -0.27680736536E+03  0.27680736540E+03  0.50400001928E-02 0.  1.
    10030    2    1    2    0    0  0.00000000000E+00  0.00000000000E+00  0.57301663395E+03  0.11266313647E+04  0.97002586006E+03 0.  0.
        5    1    3    3  502    0  0.11557808919E+02  0.48406677364E+03  0.31855299442E+03  0.57961394440E+03  0.46999998093E+01 0.  1.
       -5    1    3    3    0  502 -0.11557808919E+02 -0.48406677364E+03  0.25446363953E+03  0.54701742032E+03  0.46999998093E+01 0. -1.
</event>
<event>
 5   0  0.1293575E-03  0.1002548E+04  0.7818609E-02  0.9305755E-01
        1   -1    0    0  501    0  0.00000000000E+00  0.00000000000E+00  0.24788510672E+04  0.24788510672E+04  0.50400001928E-02 0. -1.
       -1   -1    0    0    0  501  0.00000000000E+00  0.00000000000E+00 -0.10136771096E+03  0.10136771109E+03  0.50400001928E-02 0.  1.
    10030    2    1    2    0    0  0.00000000000E+00  0.00000000000E+00  0.23774833563E+04  0.25802187783E+04  0.10025476720E+04 0.  0.
        4    1    3    3  502    0  0.34010511292E+03 -0.40212698450E+02  0.24667841110E+03  0.42206681978E+03  0.12699999809E+01 0.  1.
       -4    1    3    3    0  502 -0.34010511292E+03  0.40212698450E+02  0.21308049452E+04  0.21581519585E+04  0.12699999809E+01 0. -1.
</event>
<event>
 5   0  0.1285769E-03  0.9975792E+03  0.7818609E-02  0.9311204E-01
        1   -1    0    0  501    0  0.00000000000E+00  0.00000000000E+00  0.38810669566E+03  0.38810669569E+03  0.50400001928E-02 0.  1.
       -1   -1    0    0    0  501  0.00000000000E+00  0.00000000000E+00 -0.64103781169E+03  0.64103781171E+03  0.50400001928E-02 0. -1.
    10030    2    1    2    0    0  0.00000000000E+00  0.00000000000E+00 -0.25293111603E+03  0.10291445074E+04  0.99757920370E+03 0.  0.
        5    1    3    3  502    0 -0.31918513605E+03  0.29022271161E+03  0.13177607557E+03  0.45110464141E+03  0.46999998093E+01 0.  1.
       -5    1    3    3    0  502  0.31918513605E+03 -0.29022271161E+03 -0.38470719161E+03  0.57803986600E+03  0.46999998093E+01 0. -1.
</event>
<event>
 5   0  0.1353789E-03  0.1000380E+04  0.7818609E-02  0.9308128E-01
        1   -1    0    0  501    0  0.00000000000E+00  0.00000000000E+00  0.38787273596E+03  0.38787273599E+03  0.50400001928E-02 0. -1.
       -1   -1    0    0    0  501  0.00000000000E+00  0.00000000000E+00 -0.64503089531E+03  0.64503089533E+03  0.50400001928E-02 0.  1.
    10030    2    1    2    0    0  0.00000000000E+00  0.00000000000E+00 -0.25715815935E+03  0.10329036313E+04  0.10003797242E+04 0.  0.
        1    1    3    3  502    0  0.37327804718E+03 -0.19571359491E+03  0.14952822362E+03  0.44721247905E+03  0.50400001928E-02 0. -1.
       -1    1    3    3    0  502 -0.37327804718E+03  0.19571359491E+03 -0.40668638297E+03  0.58569115227E+03  0.50400001928E-02 0.  1.
</event>
<event>
 5   0  0.2255142E-03  0.1001696E+04  0.7818609E-02  0.9306687E-01
        2   -1    0    0  501    0  0.00000000000E+00  0.00000000000E+00  0.26832974120E+04  0.26832974120E+04  0.25500000920E-02 0. -1.
       -2   -1    0    0    0  501  0.00000000000E+00  0.00000000000E+00 -0.93485226791E+02  0.93485226826E+02  0.25500000920E-02 0.  1.
    10030    2    1    2    0    0  0.00000000000E+00  0.00000000000E+00  0.25898121852E+04  0.27767826389E+04  0.10016958963E+04 0.  0.
        4    1    3    3  502    0 -0.14238895810E+03  0.38104349365E+03  0.48491595835E+03  0.63294064414E+03  0.12699999809E+01 0.  1.
       -4    1    3    3    0  502  0.14238895810E+03 -0.38104349365E+03  0.21048962269E+04  0.21438419947E+04  0.12699999809E+01 0. -1.
</event>
<event>
 5   0  0.2204862E-03  0.1001747E+04  0.7818609E-02  0.9306631E-01
        2   -1    0    0  501    0  0.00000000000E+00  0.00000000000E+00  0.31153980572E+03  0.31153980574E+03  0.25500000920E-02 0. -1.
       -2   -1    0    0    0  501  0.00000000000E+00  0.00000000000E+00 -0.80527207964E+03  0.80527207964E+03  0.25500000920E-02 0.  1.
    10030    2    1    2    0    0  0.00000000000E+00  0.00000000000E+00 -0.49373227391E+03  0.11168118854E+04  0.10017470883E+04 0.  0.
        1    1    3    3  502    0  0.10872381352E+03 -0.25651211100E+02  0.29747470915E+03  0.31775785571E+03  0.50400001928E-02 0. -1.
       -1    1    3    3    0  502 -0.10872381352E+03  0.25651211100E+02 -0.79120698306E+03  0.79905402967E+03  0.50400001928E-02 0.  1.
</event>
<event>
 5   0  0.2284843E-03  0.1001032E+04  0.7818609E-02  0.9307414E-01
       -2   -1    0    0    0  501  0.00000000000E+00  0.00000000000E+00  0.19453724927E+03  0.19453724929E+03  0.25500000920E-02 0.  1.
        2   -1    0    0  501    0  0.00000000000E+00  0.00000000000E+00 -0.12877544234E+04  0.12877544234E+04  0.25500000920E-02 0. -1.
    10030    2    1    2    0    0  0.00000000000E+00  0.00000000000E+00 -0.10932171742E+04  0.14822916727E+04  0.10010318742E+04 0.  0.
        2    1    3    3  502    0 -0.32549138252E+03 -0.35136926837E+03 -0.33145815281E+03  0.58246846260E+03  0.25500000920E-02 0.  1.
       -2    1    3    3    0  502  0.32549138252E+03  0.35136926837E+03 -0.76175902135E+03  0.89982321012E+03  0.25500000920E-02 0. -1.
</event>
<event>
 5   0  0.1293716E-03  0.9964915E+03  0.7818609E-02  0.9312401E-01
       -1   -1    0    0    0  501  0.00000000000E+00  0.00000000000E+00  0.19549867546E+03  0.19549867552E+03  0.50400001928E-02 0. -1.
        1   -1    0    0  501    0  0.00000000000E+00  0.00000000000E+00 -0.12698235352E+04  0.12698235353E+04  0.50400001928E-02 0.  1.
    10030    2    1    2    0    0  0.00000000000E+00  0.00000000000E+00 -0.10743248598E+04  0.14653222108E+04  0.99649148367E+03 0.  0.
        3    1    3    3  502    0  0.63427090898E+02 -0.42866181596E+03 -0.89877788167E+03  0.99778536725E+03  0.10100000352E+00 0.  1.
       -3    1    3    3    0  502 -0.63427090898E+02  0.42866181596E+03 -0.17554697812E+03  0.46753684352E+03  0.10100000352E+00 0. -1.
</event>
<event>
 5   0  0.2277570E-03  0.9996533E+03  0.7818609E-02  0.9308925E-01
        2   -1    0    0  501    0  0.00000000000E+00  0.00000000000E+00  0.11866839254E+04  0.11866839254E+04  0.25500000920E-02 0.  1.
       -2   -1    0    0    0  501  0.00000000000E+00  0.00000000000E+00 -0.21052505586E+03  0.21052505588E+03  0.25500000920E-02 0. -1.
    10030    2    1    2    0    0  0.00000000000E+00  0.00000000000E+00  0.97615886950E+03  0.13972089812E+04  0.99965333930E+03 0.  0.
        3    1    3    3  502    0 -0.22784815631E+03  0.13376011656E+03 -0.10494487015E+03  0.28428856306E+03  0.10100000352E+00 0. -1.
       -3    1    3    3    0  502  0.22784815631E+03 -0.13376011656E+03  0.10811037396E+04  0.11129204182E+04  0.10100000352E+00 0.  1.
</event>
<event>
 5   0  0.2264577E-03  0.9978854E+03  0.7818609E-02  0.9310867E-01
       -2   -1    0    0    0  501  0.00000000000E+00  0.00000000000E+00  0.10232826532E+03  0.10232826535E+03  0.25500000920E-02 0.  1.
        2   -1    0    0  501    0  0.00000000000E+00  0.00000000000E+00 -0.24327963569E+04  0.24327963569E+04  0.25500000920E-02 0. -1.
    10030    2    1    2    0    0  0.00000000000E+00  0.00000000000E+00 -0.23304680915E+04  0.25351246222E+04  0.99788542652E+03 0.  0.
        5    1    3    3  502    0 -0.30416224476E+03  0.39039339855E+03 -0.10045576349E+04  0.11198570483E+04  0.46999998093E+01 0.  1.
       -5    1    3    3    0  502  0.30416224476E+03 -0.39039339855E+03 -0.13259104566E+04  0.14152675739E+04  0.46999998093E+01 0. -1.
</event>
<event>
 5   0  0.2204862E-03  0.9976766E+03  0.7818609E-02  0.9311097E-01
        2   -1    0    0  501    0  0.00000000000E+00  0.00000000000E+00  0.23345670380E+03  0.23345670381E+03  0.25500000920E-02 0. -1.
       -2   -1    0    0    0  501  0.00000000000E+00  0.00000000000E+00 -0.10658921622E+04  0.10658921622E+04  0.25500000920E-02 0.  1.
    10030    2    1    2    0    0  0.00000000000E+00  0.00000000000E+00 -0.83243545842E+03  0.12993488660E+04  0.99767664262E+03 0.  0.
        1    1    3    3  502    0 -0.10753865468E+03  0.12118497297E+03 -0.10306699518E+04  0.10433268469E+04  0.50400001928E-02 0.  1.
       -1    1    3    3    0  502  0.10753865468E+03 -0.12118497297E+03  0.19823449334E+03  0.25602201917E+03  0.50400001928E-02 0. -1.
</event>
<event>
 5   0  0.1293716E-03  0.1001490E+04  0.7818609E-02  0.9306912E-01
       -1   -1    0    0    0  501  0.00000000000E+00  0.00000000000E+00  0.11441984546E+04  0.11441984546E+04  0.50400001928E-02 0.  1.
        1   -1    0    0  501    0  0.00000000000E+00  0.00000000000E+00 -0.21914525347E+03  0.21914525352E+03  0.50400001928E-02 0. -1.
    10030    2    1    2    0    0  0.00000000000E+00  0.00000000000E+00  0.92505320116E+03  0.13633437082E+04  0.10014902104E+04 0.  0.
        3    1    3    3  502    0 -0.18885757054E+03  0.89375805663E+02 -0.15696963046E+03  0.26133253084E+03  0.10100000352E+00 0. -1.
       -3    1    3    3    0  502  0.18885757054E+03 -0.89375805663E+02  0.10820228316E+04  0.11020111773E+04  0.10100000352E+00 0.  1.
</event>
<event>
 5   0  0.1293575E-03  0.9954365E+03  0.7818609E-02  0.9313564E-01
       -1   -1    0    0    0  501  0.00000000000E+00  0.00000000000E+00  0.29127973707E+03  0.29127973712E+03  0.50400001928E-02 0.  1.
        1   -1    0    0  501    0  0.00000000000E+00  0.00000000000E+00 -0.85046588505E+03  0.85046588506E+03  0.50400001928E-02 0. -1.
    10030    2    1    2    0    0  0.00000000000E+00  0.00000000000E+00 -0.55918614797E+03  0.11417456222E+04  0.99543654628E+03 0.  0.
        4    1    3    3  502    0  0.49174490202E+03  0.35632487946E+01 -0.19152084825E+03  0.52773818662E+03  0.12699999809E+01 0. -1.
       -4    1    3    3    0  502 -0.49174490202E+03 -0.35632487946E+01 -0.36766529973E+03  0.61400743556E+03  0.12699999809E+01 0.  1.
</event>
<event>
 5   0  0.1293716E-03  0.1003252E+04  0.7818609E-02  0.9304985E-01
        1   -1    0    0  501    0  0.00000000000E+00  0.00000000000E+00  0.11922768500E+04  0.11922768500E+04  0.50400001928E-02 0. -1.
       -1   -1    0    0    0  501  0.00000000000E+00  0.00000000000E+00 -0.21104875129E+03  0.21104875135E+03  0.50400001928E-02 0.  1.
    10030    2    1    2    0    0  0.00000000000E+00  0.00000000000E+00  0.98122809870E+03  0.14033256014E+04  0.10032517938E+04 0.  0.
        3    1    3    3  502    0 -0.27312316997E+03 -0.32294674978E+03  0.11336498674E+03  0.43788411662E+03  0.10100000352E+00 0.  1.
       -3    1    3    3    0  502  0.27312316997E+03  0.32294674978E+03  0.86786311196E+03  0.96544148474E+03  0.10100000352E+00 0. -1.
</event>
<event>
 5   0  0.2204862E-03  0.1002117E+04  0.7818609E-02  0.9306226E-01
        2   -1    0    0  501    0  0.00000000000E+00  0.00000000000E+00  0.79161369959E+03  0.79161369960E+03  0.25500000920E-02 0. -1.
       -2   -1    0    0    0  501  0.00000000000E+00  0.00000000000E+00 -0.31714895409E+03  0.31714895410E+03  0.25500000920E-02 0.  1.
    10030    2    1    2    0    0  0.00000000000E+00  0.00000000000E+00  0.47446474550E+03  0.11087626537E+04  0.10021166736E+04 0.  0.
        1    1    3    3  502    0  0.10261577485E+03  0.47394496752E+03  0.37677140382E+03  0.61409325045E+03  0.50400001928E-02 0. -1.
       -1    1    3    3    0  502 -0.10261577485E+03 -0.47394496752E+03  0.97693341685E+02  0.49466940326E+03  0.50400001928E-02 0.  1.
</event>
<event>
 5   0  0.2264577E-03  0.9973537E+03  0.7818609E-02  0.9311452E-01
       -2   -1    0    0    0  501  0.00000000000E+00  0.00000000000E+00  0.18688179196E+03  0.18688179197E+03  0.25500000920E-02 0. -1.
        2   -1    0    0  501    0  0.00000000000E+00  0.00000000000E+00 -0.13306732384E+04  0.13306732384E+04  0.25500000920E-02 0.  1.
    10030    2    1    2    0    0  0.00000000000E+00  0.00000000000E+00 -0.11437914465E+04  0.15175550304E+04  0.99735369719E+03 0.  0.
        5    1    3    3  502    0 -0.56481835506E+02  0.31640903574E+03 -0.11519988488E+04  0.11960051477E+04  0.46999998093E+01 0.  1.
       -5    1    3    3    0  502  0.56481835506E+02 -0.31640903574E+03  0.82074023076E+01  0.32154988274E+03  0.46999998093E+01 0. -1.
</event>
<event>
 5   0  0.2284843E-03  0.9427346E+03  0.7818609E-02  0.9373683E-01
       -2   -1    0    0    0  501  0.00000000000E+00  0.00000000000E+00  0.32902886071E+03  0.32902886072E+03  0.25500000920E-02 0.  1.
        2   -1    0    0  501    0  0.00000000000E+00  0.00000000000E+00 -0.67528163153E+03  0.67528163154E+03  0.25500000920E-02 0. -1.
    10030    2    1    2    0    0  0.00000000000E+00  0.00000000000E+00 -0.34625277082E+03  0.10043104923E+04  0.94273463051E+03 0.  0.
        2    1    3    3  502    0 -0.18713128580E+03  0.10422420805E+03 -0.62044040175E+03  0.65637420409E+03  0.25500000920E-02 0. -1.
       -2    1    3    3    0  502  0.18713128580E+03 -0.10422420805E+03  0.27418763092E+03  0.34793628817E+03  0.25500000920E-02 0.  1.
</event>
<event>
 5   0  0.2277570E-03  0.9948312E+03  0.7818609E-02  0.9314232E-01
        2   -1    0    0  501    0  0.00000000000E+00  0.00000000000E+00  0.91419729912E+03  0.91419729913E+03  0.25500000920E-02 0. -1.
       -2   -1    0    0    0  501  0.00000000000E+00  0.00000000000E+00 -0.27064428618E+03  0.27064428619E+03  0.25500000920E-02 0.  1.
    10030    2    1    2    0    0  0.00000000000E+00  0.00000000000E+00  0.64355301295E+03  0.11848415853E+04  0.99483119263E+03 0.  0.
        3    1    3    3  502    0  0.38482944964E+03  0.31512679681E+03  0.31598307899E+03  0.58927406169E+03  0.10100000352E+00 0. -1.
       -3    1    3    3    0  502 -0.38482944964E+03 -0.31512679681E+03  0.32756993395E+03  0.59556752363E+03  0.10100000352E+00 0.  1.
</event>
<event>
 5   0  0.2284843E-03  0.1003217E+04  0.7818609E-02  0.9305023E-01
       -2   -1    0    0    0  501  0.00000000000E+00  0.00000000000E+00  0.69410837332E+03  0.69410837332E+03  0.25500000920E-02 0. -1.
        2   -1    0    0  501    0  0.00000000000E+00  0.00000000000E+00 -0.36249568562E+03  0.36249568562E+03  0.25500000920E-02 0.  1.
    10030    2    1    2    0    0  0.00000000000E+00  0.00000000000E+00  0.33161268770E+03  0.10566040589E+04  0.10032174055E+04 0.  0.
        2    1    3    3  502    0 -0.24877333937E+03 -0.28919374237E+03  0.50885414251E+03  0.63596677064E+03  0.25500000920E-02 0. -1.
       -2    1    3    3    0  502  0.24877333937E+03  0.28919374237E+03 -0.17724145481E+03  0.42063728831E+03  0.25500000920E-02 0.  1.
</event>
<event>
 5   0  0.2277570E-03  0.1005988E+04  0.7818609E-02  0.9302002E-01
        2   -1    0    0  501    0  0.00000000000E+00  0.00000000000E+00  0.15384093797E+04  0.15384093797E+04  0.25500000920E-02 0.  1.
       -2   -1    0    0    0  501  0.00000000000E+00  0.00000000000E+00 -0.16445746941E+03  0.16445746943E+03  0.25500000920E-02 0. -1.
    10030    2    1    2    0    0  0.00000000000E+00  0.00000000000E+00  0.13739519103E+04  0.17028668491E+04  0.10059878996E+04 0.  0.
        3    1    3    3  502    0 -0.31254843160E+03 -0.21765531370E+03  0.12431161209E+04  0.13001530901E+04  0.10100000352E+00 0.  1.
       -3    1    3    3    0  502  0.31254843160E+03  0.21765531370E+03  0.13083578945E+03  0.40271375899E+03  0.10100000352E+00 0. -1.
</event>
<event>
 5   0  0.2277570E-03  0.1000264E+04  0.7818609E-02  0.9308255E-01
        2   -1    0    0  501    0  0.00000000000E+00  0.00000000000E+00  0.67070099393E+03  0.67070099394E+03  0.25500000920E-02 0.  1.
       -2   -1    0    0    0  501  0.00000000000E+00  0.00000000000E+00 -0.37294106206E+03  0.37294106207E+03  0.25500000920E-02 0. -1.
    10030    2    1    2    0    0  0.00000000000E+00  0.00000000000E+00  0.29775993187E+03  0.10436420560E+04  0.10002638472E+04 0.  0.
        3    1    3    3  502    0 -0.11813831439E+03  0.31644540575E+03 -0.23594783559E+03  0.41202639171E+03  0.10100000352E+00 0. -1.
       -3    1    3    3    0  502  0.11813831439E+03 -0.31644540575E+03  0.53370776745E+03  0.63161566430E+03  0.10100000352E+00 0.  1.
</event>
<event>
 5   0  0.2255142E-03  0.1001167E+04  0.7818609E-02  0.9307265E-01
        2   -1    0    0  501    0  0.00000000000E+00  0.00000000000E+00  0.12687160431E+04  0.12687160431E+04  0.25500000920E-02 0. -1.
       -2   -1    0    0    0  501  0.00000000000E+00  0.00000000000E+00 -0.19750997166E+03  0.19750997168E+03  0.25500000920E-02 0.  1.
    10030    2    1    2    0    0  0.00000000000E+00  0.00000000000E+00  0.10712060714E+04  0.14662260148E+04  0.10011674580E+04 0.  0.
        4    1    3    3  502    0 -0.22535213785E+03  0.31043358967E+03  0.64607101146E+02  0.38900937012E+03  0.12699999809E+01 0.  1.
       -4    1    3    3    0  502  0.22535213785E+03 -0.31043358967E+03  0.10065989703E+04  0.10772166447E+04  0.12699999809E+01 0. -1.
</event>
<event>
 5   0  0.1293716E-03  0.1004067E+04  0.7818609E-02  0.9304095E-01
        1   -1    0    0  501    0  0.00000000000E+00  0.00000000000E+00  0.75428467141E+03  0.75428467143E+03  0.50400001928E-02 0.  1.
       -1   -1    0    0    0  501  0.00000000000E+00  0.00000000000E+00 -0.33414138388E+03  0.33414138392E+03  0.50400001928E-02 0. -1.
    10030    2    1    2    0    0  0.00000000000E+00  0.00000000000E+00  0.42014328753E+03  0.10884260554E+04  0.10040671770E+04 0.  0.
        3    1    3    3  502    0  0.69092886917E+01  0.31734370315E+03 -0.21155801324E+03  0.38145978473E+03  0.10100000352E+00 0. -1.
       -3    1    3    3    0  502 -0.69092886917E+01 -0.31734370315E+03  0.63170130077E+03  0.70696627062E+03  0.10100000352E+00 0.  1.
</event>
<event>
 5   0  0.1249195E-03  0.1007344E+04  0.7818609E-02  0.9300526E-01
       -1   -1    0    0    0  501  0.00000000000E+00  0.00000000000E+00  0.14184147573E+03  0.14184147582E+03  0.50400001928E-02 0. -1.
        1   -1    0    0  501    0  0.00000000000E+00  0.00000000000E+00 -0.17885146760E+04  0.17885146760E+04  0.50400001928E-02 0.  1.
    10030    2    1    2    0    0  0.00000000000E+00  0.00000000000E+00 -0.16466732002E+04  0.19303561518E+04  0.10073441539E+04 0.  0.
        2    1    3    3  502    0  0.16190799138E+03 -0.11712929842E+03 -0.17092979158E+04  0.17209395211E+04  0.25500000920E-02 0.  1.
       -2    1    3    3    0  502 -0.16190799138E+03  0.11712929842E+03  0.62624715549E+02  0.20941663073E+03  0.25500000920E-02 0. -1.
</event>
<event>
 5   0  0.1249195E-03  0.9965696E+03  0.7818609E-02  0.9312315E-01
        1   -1    0    0  501    0  0.00000000000E+00  0.00000000000E+00  0.24551240618E+03  0.24551240623E+03  0.50400001928E-02 0. -1.
       -1   -1    0    0    0  501  0.00000000000E+00  0.00000000000E+00 -0.10113043565E+04  0.10113043565E+04  0.50400001928E-02 0.  1.
    10030    2    1    2    0    0  0.00000000000E+00  0.00000000000E+00 -0.76579195030E+03  0.12568167627E+04  0.99656964829E+03 0.  0.
        2    1    3    3  502    0 -0.47046386521E+03 -0.15644014966E+03 -0.44567501984E+03  0.66666032746E+03  0.25500000920E-02 0.  1.
       -2    1    3    3    0  502  0.47046386521E+03  0.15644014966E+03 -0.32011693046E+03  0.59015643525E+03  0.25500000920E-02 0. -1.
</event>
<event>
 5   0  0.1293716E-03  0.1012377E+04  0.7818609E-02  0.9295073E-01
        1   -1    0    0  501    0  0.00000000000E+00  0.00000000000E+00  0.12144924060E+04  0.12144924060E+04  0.50400001928E-02 0. -1.
       -1   -1    0    0    0  501  0.00000000000E+00  0.00000000000E+00 -0.21097426510E+03  0.21097426516E+03  0.50400001928E-02 0.  1.
    10030    2    1    2    0    0  0.00000000000E+00  0.00000000000E+00  0.10035181409E+04  0.14254666712E+04  0.10123766945E+04 0.  0.
        3    1    3    3  502    0 -0.21201618261E+03  0.10522312977E+02 -0.14527321335E+03  0.25722732646E+03  0.10100000352E+00 0.  1.
       -3    1    3    3    0  502  0.21201618261E+03 -0.10522312977E+02  0.11487913543E+04  0.11682393448E+04  0.10100000352E+00 0. -1.
</event>
<event>
 5   0  0.2204862E-03  0.1005952E+04  0.7818609E-02  0.9302040E-01
        2   -1    0    0  501    0  0.00000000000E+00  0.00000000000E+00  0.66711443939E+03  0.66711443939E+03  0.25500000920E-02 0.  1.
       -2   -1    0    0    0  501  0.00000000000E+00  0.00000000000E+00 -0.37922279300E+03  0.37922279300E+03  0.25500000920E-02 0. -1.
    10030    2    1    2    0    0  0.00000000000E+00  0.00000000000E+00  0.28789164639E+03  0.10463372324E+04  0.10059522871E+04 0.  0.
        1    1    3    3  502    0 -0.12289100560E+03 -0.14242633547E+02 -0.36315062637E+03  0.38364492611E+03  0.50400001928E-02 0. -1.
       -1    1    3    3    0  502  0.12289100560E+03  0.14242633547E+02  0.65104227276E+03  0.66269230629E+03  0.50400001928E-02 0.  1.
</event>
<event>
 5   0  0.1293716E-03  0.1001622E+04  0.7818609E-02  0.9306768E-01
       -1   -1    0    0    0  501  0.00000000000E+00  0.00000000000E+00  0.54335754230E+03  0.54335754232E+03  0.50400001928E-02 0. -1.
        1   -1    0    0  501    0  0.00000000000E+00  0.00000000000E+00 -0.46159569048E+03  0.46159569051E+03  0.50400001928E-02 0.  1.
    10030    2    1    2    0    0  0.00000000000E+00  0.00000000000E+00  0.81761851819E+02  0.10049532328E+04  0.10016216850E+04 0.  0.
        3    1    3    3  502    0  0.12021731455E+03  0.40227167301E+03 -0.23304142513E+03  0.48019060554E+03  0.10100000352E+00 0.  1.
       -3    1    3    3    0  502 -0.12021731455E+03 -0.40227167301E+03  0.31480327695E+03  0.52476262729E+03  0.10100000352E+00 0. -1.
</event>
<event>
 5   0  0.2277570E-03  0.9977517E+03  0.7818609E-02  0.9311014E-01
        2   -1    0    0  501    0  0.00000000000E+00  0.00000000000E+00  0.35607962332E+03  0.35607962333E+03  0.25500000920E-02 0.  1.
       -2   -1    0    0    0  501  0.00000000000E+00  0.00000000000E+00 -0.69893665951E+03  0.69893665952E+03  0.25500000920E-02 0. -1.
    10030    2    1    2    0    0  0.00000000000E+00  0.00000000000E+00 -0.34285703619E+03  0.10550162828E+04  0.99775167743E+03 0.  0.
        3    1    3    3  502    0 -0.84259775065E+02  0.46442374332E+03 -0.64072274431E+00  0.47200587261E+03  0.10100000352E+00 0.  1.
       -3    1    3    3    0  502  0.84259775065E+02 -0.46442374332E+03 -0.34221631345E+03  0.58301041024E+03  0.10100000352E+00 0. -1.
</event>
<event>
 5   0  0.1353789E-03  0.9930925E+03  0.7818609E-02  0.9316153E-01
        1   -1    0    0  501    0  0.00000000000E+00  0.00000000000E+00  0.42999963797E+03  0.42999963800E+03  0.50400001928E-02 0. -1.
       -1   -1    0    0    0  501  0.00000000000E+00  0.00000000000E+00 -0.57339154456E+03  0.57339154458E+03  0.50400001928E-02 0.  1.
    10030    2    1    2    0    0  0.00000000000E+00  0.00000000000E+00 -0.14339190659E+03  0.10033911826E+04  0.99309245613E+03 0.  0.
        1    1    3    3  502    0 -0.30661883425E+03 -0.26757312069E+03 -0.35915949993E+03  0.54277622539E+03  0.50400001928E-02 0.  1.
       -1    1    3    3    0  502  0.30661883425E+03  0.26757312069E+03  0.21576759334E+03  0.46061495720E+03  0.50400001928E-02 0. -1.
</event>
<event>
 5   0  0.2255142E-03  0.9988655E+03  0.7818609E-02  0.9309790E-01
       -2   -1    0    0    0  501  0.00000000000E+00  0.00000000000E+00  0.45724509991E+03  0.45724509991E+03  0.25500000920E-02 0.  1.
        2   -1    0    0  501    0  0.00000000000E+00  0.00000000000E+00 -0.54551283241E+03  0.54551283241E+03  0.25500000920E-02 0. -1.
    10030    2    1    2    0    0  0.00000000000E+00  0.00000000000E+00 -0.88267732500E+02  0.10027579323E+04  0.99886549557E+03 0.  0.
        4    1    3    3  502    0 -0.51059364409E+02 -0.53952645174E+02  0.45166670505E+03  0.45773613793E+03  0.12699999809E+01 0.  1.
       -4    1    3    3    0  502  0.51059364409E+02  0.53952645174E+02 -0.53993443755E+03  0.54502179440E+03  0.12699999809E+01 0. -1.
</event>
<event>
 5   0  0.2255142E-03  0.1017786E+04  0.7818609E-02  0.9289250E-01
       -2   -1    0    0    0  501  0.00000000000E+00  0.00000000000E+00  0.17254336737E+03  0.17254336739E+03  0.25500000920E-02 0.  1.
        2   -1    0    0  501    0  0.00000000000E+00  0.00000000000E+00 -0.15009097371E+04  0.15009097371E+04  0.25500000920E-02 0. -1.
    10030    2    1    2    0    0  0.00000000000E+00  0.00000000000E+00 -0.13283663697E+04  0.16734531045E+04  0.10177858717E+04 0.  0.
        4    1    3    3  502    0 -0.18752671537E+03  0.10153687677E+03 -0.14238976114E+04  0.14397784646E+04  0.12699999809E+01 0. -1.
       -4    1    3    3    0  502  0.18752671537E+03 -0.10153687677E+03  0.95531241667E+02  0.23367463995E+03  0.12699999809E+01 0.  1.
</event>
<event>
 5   0  0.1285769E-03  0.9982979E+03  0.7818609E-02  0.9310414E-01
        1   -1    0    0  501    0  0.00000000000E+00  0.00000000000E+00  0.43782727926E+03  0.43782727928E+03  0.50400001928E-02 0. -1.
       -1   -1    0    0    0  501  0.00000000000E+00  0.00000000000E+00 -0.56905922665E+03  0.56905922667E+03  0.50400001928E-02 0.  1.
    10030    2    1    2    0    0  0.00000000000E+00  0.00000000000E+00 -0.13123194739E+03  0.10068865060E+04  0.99829785728E+03 0.  0.
        5    1    3    3  502    0  0.35458172243E+03  0.33695118545E+03 -0.16578436616E+03  0.51649864019E+03  0.46999998093E+01 0. -1.
       -5    1    3    3    0  502 -0.35458172243E+03 -0.33695118545E+03  0.34552418765E+02  0.49038786577E+03  0.46999998093E+01 0.  1.
</event>
<event>
 5   0  0.1293716E-03  0.9986718E+03  0.7818609E-02  0.9310003E-01
        1   -1    0    0  501    0  0.00000000000E+00  0.00000000000E+00  0.63889671001E+03  0.63889671003E+03  0.50400001928E-02 0.  1.
       -1   -1    0    0    0  501  0.00000000000E+00  0.00000000000E+00 -0.39026080670E+03  0.39026080674E+03  0.50400001928E-02 0. -1.
    10030    2    1    2    0    0  0.00000000000E+00  0.00000000000E+00  0.24863590330E+03  0.10291575168E+04  0.99867180890E+03 0.  0.
        3    1    3    3  502    0 -0.11982854779E+03 -0.24749348163E+03  0.55384400225E+03  0.61834868266E+03  0.10100000352E+00 0.  1.
       -3    1    3    3    0  502  0.11982854779E+03  0.24749348163E+03 -0.30520809895E+03  0.41080883411E+03  0.10100000352E+00 0. -1.
</event>
<event>
 5   0  0.1249195E-03  0.1005989E+04  0.7818609E-02  0.9302001E-01
        1   -1    0    0  501    0  0.00000000000E+00  0.00000000000E+00  0.21678094116E+04  0.21678094116E+04  0.50400001928E-02 0.  1.
       -1   -1    0    0    0  501  0.00000000000E+00  0.00000000000E+00 -0.11670918247E+03  0.11670918258E+03  0.50400001928E-02 0. -1.
    10030    2    1    2    0    0  0.00000000000E+00  0.00000000000E+00  0.20511002292E+04  0.22845185942E+04  0.10059885970E+04 0.  0.
        2    1    3    3  502    0 -0.32548236371E+03  0.31105461151E+02  0.15754515363E+03  0.36294186068E+03  0.25500000920E-02 0. -1.
       -2    1    3    3    0  502  0.32548236371E+03 -0.31105461151E+02  0.18935550755E+04  0.19215767335E+04  0.25500000920E-02 0.  1.
</event>
<event>
 5   0  0.2255142E-03  0.1000770E+04  0.7818609E-02  0.9307700E-01
        2   -1    0    0  501    0  0.00000000000E+00  0.00000000000E+00  0.79759777236E+03  0.79759777236E+03  0.25500000920E-02 0.  1.
       -2   -1    0    0    0  501  0.00000000000E+00  0.00000000000E+00 -0.31392424964E+03  0.31392424965E+03  0.25500000920E-02 0. -1.
    10030    2    1    2    0    0  0.00000000000E+00  0.00000000000E+00  0.48367352271E+03  0.11115220220E+04  0.10007702678E+04 0.  0.
        4    1    3    3  502    0 -0.38295389684E+03 -0.85557803309E+02  0.58669798790E+03  0.70582573396E+03  0.12699999809E+01 0.  1.
       -4    1    3    3    0  502  0.38295389684E+03  0.85557803309E+02 -0.10302446519E+03  0.40569628805E+03  0.12699999809E+01 0. -1.
</event>
<event>
 5   0  0.1293716E-03  0.1001385E+04  0.7818609E-02  0.9307027E-01
       -1   -1    0    0    0  501  0.00000000000E+00  0.00000000000E+00  0.42666744349E+03  0.42666744352E+03  0.50400001928E-02 0. -1.
        1   -1    0    0  501    0  0.00000000000E+00  0.00000000000E+00 -0.58756096721E+03  0.58756096723E+03  0.50400001928E-02 0.  1.
    10030    2    1    2    0    0  0.00000000000E+00  0.00000000000E+00 -0.16089352372E+03  0.10142284108E+04  0.10013853121E+04 0.  0.
        3    1    3    3  502    0 -0.16601100559E+03 -0.11428494498E+03 -0.54466166315E+03  0.58075557693E+03  0.10100000352E+00 0.  1.
       -3    1    3    3    0  502  0.16601100559E+03  0.11428494498E+03  0.38376813943E+03  0.43347283383E+03  0.10100000352E+00 0. -1.
</event>
<event>
 5   0  0.2284843E-03  0.1000514E+04  0.7818609E-02  0.9307982E-01
       -2   -1    0    0    0  501  0.00000000000E+00  0.00000000000E+00  0.45272898652E+03  0.45272898653E+03  0.25500000920E-02 0. -1.
        2   -1    0    0  501    0  0.00000000000E+00  0.00000000000E+00 -0.55277415231E+03  0.55277415231E+03  0.25500000920E-02 0.  1.
    10030    2    1    2    0    0  0.00000000000E+00  0.00000000000E+00 -0.10004516578E+03  0.10055031388E+04  0.10005136316E+04 0.  0.
        2    1    3    3  502    0  0.15372575780E+03 -0.34186774057E+03  0.28291750533E+03  0.46962482418E+03  0.25500000920E-02 0. -1.
       -2    1    3    3    0  502 -0.15372575780E+03  0.34186774057E+03 -0.38296267111E+03  0.53587831466E+03  0.25500000920E-02 0.  1.
</event>
<event>
 5   0  0.2255142E-03  0.1008240E+04  0.7818609E-02  0.9299553E-01
       -2   -1    0    0    0  501  0.00000000000E+00  0.00000000000E+00  0.43307559377E+03  0.43307559377E+03  0.25500000920E-02 0. -1.
        2   -1    0    0  501    0  0.00000000000E+00  0.00000000000E+00 -0.58681896786E+03  0.58681896786E+03  0.25500000920E-02 0.  1.
    10030    2    1    2    0    0  0.00000000000E+00  0.00000000000E+00 -0.15374337409E+03  0.10198945616E+04  0.10082399971E+04 0.  0.
        4    1    3    3  502    0 -0.32336619961E+03 -0.11587021079E+03 -0.45011343684E+03  0.56621137725E+03  0.12699999809E+01 0.  1.
       -4    1    3    3    0  502  0.32336619961E+03  0.11587021079E+03  0.29637006275E+03  0.45368318439E+03  0.12699999809E+01 0. -1.
</event>
<event>
 5   0  0.1285769E-03  0.1000483E+04  0.7818609E-02  0.9308016E-01
        1   -1    0    0  501    0  0.00000000000E+00  0.00000000000E+00  0.52009299399E+03  0.52009299402E+03  0.50400001928E-02 0.  1.
       -1   -1    0    0    0  501  0.00000000000E+00  0.00000000000E+00 -0.48114745427E+03  0.48114745430E+03  0.50400001928E-02 0. -1.
    10030    2    1    2    0    0  0.00000000000E+00  0.00000000000E+00  0.38945539722E+02  0.10012404483E+04  0.10004827236E+04 0.  0.
        5    1    3    3  502    0  0.14156252981E+03 -0.44163635685E+03  0.20706261740E+03  0.50791696079E+03  0.46999998093E+01 0.  1.
       -5    1    3    3    0  502 -0.14156252981E+03  0.44163635685E+03 -0.16811707767E+03  0.49332348752E+03  0.46999998093E+01 0. -1.
</event>
<event>
 5   0  0.8680125E-04  0.9997451E+03  0.7818609E-02  0.9308824E-01
       -4   -1    0    0    0  501  0.00000000000E+00  0.00000000000E+00  0.56783787459E+03  0.56783929480E+03  0.12699999809E+01 0.  1.
        4   -1    0    0  501    0  0.00000000000E+00  0.00000000000E+00 -0.44003923516E+03  0.44004106783E+03  0.12699999809E+01 0. -1.
    10030    2    1    2    0    0  0.00000000000E+00  0.00000000000E+00  0.12779863943E+03  0.10078803626E+04  0.99974513410E+03 0.  0.
        5    1    3    3  502    0  0.26391302566E+03 -0.41751575093E+03 -0.13412428164E+02  0.49413709699E+03  0.46999998093E+01 0.  1.
       -5    1    3    3    0  502 -0.26391302566E+03  0.41751575093E+03  0.14121106760E+03  0.51374326565E+03  0.46999998093E+01 0. -1.
</event>
<event>
 5   0  0.2284843E-03  0.9969590E+03  0.7818609E-02  0.9311886E-01
       -2   -1    0    0    0  501  0.00000000000E+00  0.00000000000E+00  0.21368428326E+03  0.21368428328E+03  0.25500000920E-02 0. -1.
        2   -1    0    0  501    0  0.00000000000E+00  0.00000000000E+00 -0.11628455981E+04  0.11628455981E+04  0.25500000920E-02 0.  1.
    10030    2    1    2    0    0  0.00000000000E+00  0.00000000000E+00 -0.94916131480E+03  0.13765298813E+04  0.99695903262E+03 0.  0.
        2    1    3    3  502    0 -0.45719116058E+03 -0.86983948834E+02 -0.22800609035E+03  0.51824390195E+03  0.25500000920E-02 0. -1.
       -2    1    3    3    0  502  0.45719116058E+03  0.86983948834E+02 -0.72115522445E+03  0.85828597939E+03  0.25500000920E-02 0.  1.
</event>
<event>
 5   0  0.2277570E-03  0.9970560E+03  0.7818609E-02  0.9311780E-01
       -2   -1    0    0    0  501  0.00000000000E+00  0.00000000000E+00  0.58200904248E+03  0.58200904249E+03  0.25500000920E-02 0.  1.
        2   -1    0    0  501    0  0.00000000000E+00  0.00000000000E+00 -0.42702110274E+03  0.42702110275E+03  0.25500000920E-02 0. -1.
    10030    2    1    2    0    0  0.00000000000E+00  0.00000000000E+00  0.15498793974E+03  0.10090301452E+04  0.99705595256E+03 0.  0.
        3    1    3    3  502    0  0.32849568961E+03 -0.15933925245E+03  0.42102868318E+03  0.55728231421E+03  0.10100000352E+00 0.  1.
       -3    1    3    3    0  502 -0.32849568961E+03  0.15933925245E+03 -0.26604074344E+03  0.45174783103E+03  0.10100000352E+00 0. -1.
</event>
<event>
 5   0  0.2264577E-03  0.9998859E+03  0.7818609E-02  0.9308670E-01
        2   -1    0    0  501    0  0.00000000000E+00  0.00000000000E+00  0.16349494502E+04  0.16349494502E+04  0.25500000920E-02 0. -1.
       -2   -1    0    0    0  501  0.00000000000E+00  0.00000000000E+00 -0.15287504758E+03  0.15287504760E+03  0.25500000920E-02 0.  1.
    10030    2    1    2    0    0  0.00000000000E+00  0.00000000000E+00  0.14820744026E+04  0.17878244978E+04  0.99988594351E+03 0.  0.
        5    1    3    3  502    0 -0.33005302130E+03  0.32544818584E+03  0.10758780092E+04  0.11714892655E+04  0.46999998093E+01 0.  1.
       -5    1    3    3    0  502  0.33005302130E+03 -0.32544818584E+03  0.40619639343E+03  0.61633523230E+03  0.46999998093E+01 0. -1.
</event>
<event>
 5   0  0.1249195E-03  0.1014720E+04  0.7818609E-02  0.9292546E-01
        1   -1    0    0  501    0  0.00000000000E+00  0.00000000000E+00  0.35202978713E+03  0.35202978717E+03  0.50400001928E-02 0.  1.
       -1   -1    0    0    0  501  0.00000000000E+00  0.00000000000E+00 -0.73122884566E+03  0.73122884568E+03  0.50400001928E-02 0. -1.
    10030    2    1    2    0    0  0.00000000000E+00  0.00000000000E+00 -0.37919905853E+03  0.10832586329E+04  0.10147203258E+04 0.  0.
        2    1    3    3  502    0  0.36203201813E+03 -0.28614990991E+03 -0.41471057834E+03  0.62043034813E+03  0.25500000920E-02 0.  1.
       -2    1    3    3    0  502 -0.36203201813E+03  0.28614990991E+03  0.35511519806E+02  0.46282828472E+03  0.25500000920E-02 0. -1.
</event>
<event>
 5   0  0.2284843E-03  0.1000049E+04  0.7818609E-02  0.9308491E-01
        2   -1    0    0  501    0  0.00000000000E+00  0.00000000000E+00  0.16239186352E+04  0.16239186352E+04  0.25500000920E-02 0.  1.
       -2   -1    0    0    0  501  0.00000000000E+00  0.00000000000E+00 -0.15396357347E+03  0.15396357349E+03  0.25500000920E-02 0. -1.
    10030    2    1    2    0    0  0.00000000000E+00  0.00000000000E+00  0.14699550618E+04  0.17778822087E+04  0.10000486311E+04 0.  0.
        2    1    3    3  502    0  0.45854004134E+03  0.19940430933E+03  0.73819137229E+03  0.89159831215E+03  0.25500000920E-02 0.  1.
       -2    1    3    3    0  502 -0.45854004134E+03 -0.19940430933E+03  0.73176368947E+03  0.88628389657E+03  0.25500000920E-02 0. -1.
</event>
<event>
 5   0  0.1249195E-03  0.9974227E+03  0.7818609E-02  0.9311376E-01
       -1   -1    0    0    0  501  0.00000000000E+00  0.00000000000E+00  0.85413090416E+03  0.85413090418E+03  0.50400001928E-02 0. -1.
        1   -1    0    0  501    0  0.00000000000E+00  0.00000000000E+00 -0.29118837449E+03  0.29118837453E+03  0.50400001928E-02 0.  1.
    10030    2    1    2    0    0  0.00000000000E+00  0.00000000000E+00  0.56294252967E+03  0.11453192787E+04  0.99742265789E+03 0.  0.
        2    1    3    3  502    0 -0.93609045127E+01  0.49808199406E+03  0.25479533071E+03  0.55954799606E+03  0.25500000920E-02 0. -1.
       -2    1    3    3    0  502  0.93609045127E+01 -0.49808199406E+03  0.30814719897E+03  0.58577128265E+03  0.25500000920E-02 0.  1.
</event>
<event>
 5   0  0.2264577E-03  0.9969500E+03  0.7818609E-02  0.9311896E-01
        2   -1    0    0  501    0  0.00000000000E+00  0.00000000000E+00  0.16919279276E+04  0.16919279276E+04  0.25500000920E-02 0. -1.
       -2   -1    0    0    0  501  0.00000000000E+00  0.00000000000E+00 -0.14686045902E+03  0.14686045904E+03  0.25500000920E-02 0.  1.
    10030    2    1    2    0    0  0.00000000000E+00  0.00000000000E+00  0.15450674686E+04  0.18387883867E+04  0.99694997287E+03 0.  0.
        5    1    3    3  502    0  0.17329103657E+03 -0.42517415802E+03  0.11304278589E+04  0.12201197000E+04  0.46999998093E+01 0. -1.
       -5    1    3    3    0  502 -0.17329103657E+03  0.42517415802E+03  0.41463960969E+03  0.61866868672E+03  0.46999998093E+01 0.  1.
</event>
<event>
 5   0  0.1293575E-03  0.9997414E+03  0.7818609E-02  0.9308828E-01
        1   -1    0    0  501    0  0.00000000000E+00  0.00000000000E+00  0.10756190755E+03  0.10756190766E+03  0.50400001928E-02 0.  1.
       -1   -1    0    0    0  501  0.00000000000E+00  0.00000000000E+00 -0.23230411790E+04  0.23230411790E+04  0.50400001928E-02 0. -1.
    10030    2    1    2    0    0  0.00000000000E+00  0.00000000000E+00 -0.22154792714E+04  0.24306030866E+04  0.99974144791E+03 0.  0.
        4    1    3    3  502    0  0.43428151854E+03 -0.18255199162E+03 -0.70132770994E+03  0.84485965498E+03  0.12699999809E+01 0.  1.
       -4    1    3    3    0  502 -0.43428151854E+03  0.18255199162E+03 -0.15141515615E+04  0.15857434317E+04  0.12699999809E+01 0. -1.
</event>
<event>
 5   0  0.1249195E-03  0.9924693E+03  0.7818609E-02  0.9316843E-01
        1   -1    0    0  501    0  0.00000000000E+00  0.00000000000E+00  0.55865064136E+03  0.55865064138E+03  0.50400001928E-02 0. -1.
       -1   -1    0    0    0  501  0.00000000000E+00  0.00000000000E+00 -0.44079218341E+03  0.44079218344E+03  0.50400001928E-02 0.  1.
    10030    2    1    2    0    0  0.00000000000E+00  0.00000000000E+00  0.11785845795E+03  0.99944282483E+03  0.99246931640E+03 0.  0.
        2    1    3    3  502    0  0.33493221117E+03 -0.33259250536E+03 -0.95285533722E+02  0.48153576570E+03  0.25500000920E-02 0.  1.
       -2    1    3    3    0  502 -0.33493221117E+03  0.33259250536E+03  0.21314399167E+03  0.51790705913E+03  0.25500000920E-02 0. -1.
</event>
<event>
 5   0  0.1353789E-03  0.1000032E+04  0.7818609E-02  0.9308510E-01
        1   -1    0    0  501    0  0.00000000000E+00  0.00000000000E+00  0.13828274715E+04  0.13828274715E+04  0.50400001928E-02 0. -1.
       -1   -1    0    0    0  501  0.00000000000E+00  0.00000000000E+00 -0.18080049128E+03  0.18080049135E+03  0.50400001928E-02 0.  1.
    10030    2    1    2    0    0  0.00000000000E+00  0.00000000000E+00  0.12020269802E+04  0.15636279628E+04  0.10000317720E+04 0.  0.
        1    1    3    3  502    0  0.10076278277E+03 -0.51171049633E+02  0.13625969398E+04  0.13672754057E+04  0.50400001928E-02 0. -1.
       -1    1    3    3    0  502 -0.10076278277E+03  0.51171049633E+02 -0.16056995963E+03  0.19635255709E+03  0.50400001928E-02 0.  1.
</event>
<event>
 5   0  0.2264577E-03  0.1001067E+04  0.7818609E-02  0.9307375E-01
        2   -1    0    0  501    0  0.00000000000E+00  0.00000000000E+00  0.68409706295E+03  0.68409706296E+03  0.25500000920E-02 0. -1.
       -2   -1    0    0    0  501  0.00000000000E+00  0.00000000000E+00 -0.36622569551E+03  0.36622569552E+03  0.25500000920E-02 0.  1.
    10030    2    1    2    0    0  0.00000000000E+00  0.00000000000E+00  0.31787136745E+03  0.10503227585E+04  0.10010672758E+04 0.  0.
        5    1    3    3  502    0 -0.91031841493E+02  0.41273619417E+03 -0.12234831517E+03  0.44003313780E+03  0.46999998093E+01 0.  1.
       -5    1    3    3    0  502  0.91031841493E+02 -0.41273619417E+03  0.44021968262E+03  0.61028962067E+03  0.46999998093E+01 0. -1.
</event>
<event>
 5   0  0.1285769E-03  0.9917778E+03  0.7818609E-02  0.9317609E-01
       -1   -1    0    0    0  501  0.00000000000E+00  0.00000000000E+00  0.42764806241E+03  0.42764806244E+03  0.50400001928E-02 0. -1.
        1   -1    0    0  501    0  0.00000000000E+00  0.00000000000E+00 -0.57501914122E+03  0.57501914125E+03  0.50400001928E-02 0.  1.
    10030    2    1    2    0    0  0.00000000000E+00  0.00000000000E+00 -0.14737107882E+03  0.10026672037E+04  0.99177784129E+03 0.  0.
        5    1    3    3  502    0 -0.85726305381E+02 -0.99696833841E+02 -0.55705146525E+03  0.57237826920E+03  0.46999998093E+01 0.  1.
       -5    1    3    3    0  502  0.85726305381E+02  0.99696833841E+02  0.40968038643E+03  0.43028893448E+03  0.46999998093E+01 0. -1.
</event>
<event>
 5   0  0.1293716E-03  0.9976017E+03  0.7818609E-02  0.9311179E-01
        1   -1    0    0  501    0  0.00000000000E+00  0.00000000000E+00  0.70245940047E+03  0.70245940049E+03  0.50400001928E-02 0. -1.
       -1   -1    0    0    0  501  0.00000000000E+00  0.00000000000E+00 -0.35418742174E+03  0.35418742177E+03  0.50400001928E-02 0.  1.
    10030    2    1    2    0    0  0.00000000000E+00  0.00000000000E+00  0.34827197873E+03  0.10566468223E+04  0.99760169197E+03 0.  0.
        3    1    3    3  502    0 -0.36844254490E+02  0.49700486073E+03  0.19612383244E+03  0.53557062889E+03  0.10100000352E+00 0. -1.
       -3    1    3    3    0  502  0.36844254490E+02 -0.49700486073E+03  0.15214814630E+03  0.52107619337E+03  0.10100000352E+00 0.  1.
</event>
<event>
 5   0  0.2204862E-03  0.9982043E+03  0.7818609E-02  0.9310516E-01
       -2   -1    0    0    0  501  0.00000000000E+00  0.00000000000E+00  0.21251675572E+03  0.21251675574E+03  0.25500000920E-02 0. -1.
        2   -1    0    0  501    0  0.00000000000E+00  0.00000000000E+00 -0.11721568620E+04  0.11721568620E+04  0.25500000920E-02 0.  1.
    10030    2    1    2    0    0  0.00000000000E+00  0.00000000000E+00 -0.95964010627E+03  0.13846736177E+04  0.99820433484E+03 0.  0.
        1    1    3    3  502    0 -0.47759218814E+03  0.58088736352E+02 -0.66402784227E+03  0.82000096024E+03  0.50400001928E-02 0.  1.
       -1    1    3    3    0  502  0.47759218814E+03 -0.58088736352E+02 -0.29561226401E+03  0.56467265750E+03  0.50400001928E-02 0. -1.
</event>
<event>
 5   0  0.1353789E-03  0.9931616E+03  0.7818609E-02  0.9316077E-01
       -1   -1    0    0    0  501  0.00000000000E+00  0.00000000000E+00  0.19088359132E+03  0.19088359139E+03  0.50400001928E-02 0. -1.
        1   -1    0    0  501    0  0.00000000000E+00  0.00000000000E+00 -0.12918473812E+04  0.12918473812E+04  0.50400001928E-02 0.  1.
    10030    2    1    2    0    0  0.00000000000E+00  0.00000000000E+00 -0.11009637899E+04  0.14827309726E+04  0.99316155305E+03 0.  0.
        1    1    3    3  502    0  0.35914927660E+03 -0.15541223270E+02 -0.10619370633E+04  0.11211333815E+04  0.50400001928E-02 0.  1.
       -1    1    3    3    0  502 -0.35914927660E+03  0.15541223270E+02 -0.39026726539E+02  0.36159759113E+03  0.50400001928E-02 0. -1.
</event>
<event>
 5   0  0.2277570E-03  0.9988297E+03  0.7818609E-02  0.9309829E-01
       -2   -1    0    0    0  501  0.00000000000E+00  0.00000000000E+00  0.23371672999E+03  0.23371673000E+03  0.25500000920E-02 0. -1.
        2   -1    0    0  501    0  0.00000000000E+00  0.00000000000E+00 -0.10671686560E+04  0.10671686560E+04  0.25500000920E-02 0.  1.
    10030    2    1    2    0    0  0.00000000000E+00  0.00000000000E+00 -0.83345192598E+03  0.13008853860E+04  0.99882965239E+03 0.  0.
        3    1    3    3  502    0 -0.17145457856E+03  0.39979963933E+03 -0.73622469045E+03  0.85513930394E+03  0.10100000352E+00 0.  1.
       -3    1    3    3    0  502  0.17145457856E+03 -0.39979963933E+03 -0.97227235530E+02  0.44574608203E+03  0.10100000352E+00 0. -1.
</event>
<event>
 5   0  0.1353789E-03  0.9974599E+03  0.7818609E-02  0.9311335E-01
        1   -1    0    0  501    0  0.00000000000E+00  0.00000000000E+00  0.37436506630E+03  0.37436506633E+03  0.50400001928E-02 0. -1.
       -1   -1    0    0    0  501  0.00000000000E+00  0.00000000000E+00 -0.66440907317E+03  0.66440907319E+03  0.50400001928E-02 0.  1.
    10030    2    1    2    0    0  0.00000000000E+00  0.00000000000E+00 -0.29004400687E+03  0.10387741395E+04  0.99745986737E+03 0.  0.
        1    1    3    3  502    0  0.21069580166E+03 -0.27014537975E+03 -0.52247055540E+03  0.62477734300E+03  0.50400001928E-02 0.  1.
       -1    1    3    3    0  502 -0.21069580166E+03  0.27014537975E+03  0.23242654853E+03  0.41399679652E+03  0.50400001928E-02 0. -1.
</event>
<event>
 5   0  0.1293575E-03  0.9990120E+03  0.7818609E-02  0.9309629E-01
        1   -1    0    0  501    0  0.00000000000E+00  0.00000000000E+00  0.54936019771E+03  0.54936019773E+03  0.50400001928E-02 0. -1.
       -1   -1    0    0    0  501  0.00000000000E+00  0.00000000000E+00 -0.45417603849E+03  0.45417603851E+03  0.50400001928E-02 0.  1.
    10030    2    1    2    0    0  0.00000000000E+00  0.00000000000E+00  0.95184159225E+02  0.10035362362E+04  0.99901198857E+03 0.  0.
        4    1    3    3  502    0 -0.23040918087E+02 -0.36560341067E+03  0.38870004973E+03  0.53412178326E+03  0.12699999809E+01 0. -1.
       -4    1    3    3    0  502  0.23040918087E+02  0.36560341067E+03 -0.29351589050E+03  0.46941445299E+03  0.12699999809E+01 0.  1.
</event>
<event>
 5   0  0.2204862E-03  0.1000809E+04  0.7818609E-02  0.9307658E-01
       -2   -1    0    0    0  501  0.00000000000E+00  0.00000000000E+00  0.18353456211E+03  0.18353456212E+03  0.25500000920E-02 0. -1.
        2   -1    0    0  501    0  0.00000000000E+00  0.00000000000E+00 -0.13643464784E+04  0.13643464784E+04  0.25500000920E-02 0.  1.
    10030    2    1    2    0    0  0.00000000000E+00  0.00000000000E+00 -0.11808119163E+04  0.15478810406E+04  0.10008091396E+04 0.  0.
        1    1    3    3  502    0  0.29910896306E+03 -0.22035771492E+03 -0.71924965687E+02  0.37841365597E+03  0.50400001928E-02 0. -1.
       -1    1    3    3    0  502 -0.29910896306E+03  0.22035771492E+03 -0.11088869507E+04  0.11694673846E+04  0.50400001928E-02 0.  1.
</event>
<event>
 5   0  0.1353789E-03  0.9986333E+03  0.7818609E-02  0.9310045E-01
       -1   -1    0    0    0  501  0.00000000000E+00  0.00000000000E+00  0.49365221354E+03  0.49365221356E+03  0.50400001928E-02 0. -1.
        1   -1    0    0  501    0  0.00000000000E+00  0.00000000000E+00 -0.50504608132E+03  0.50504608134E+03  0.50400001928E-02 0.  1.
    10030    2    1    2    0    0  0.00000000000E+00  0.00000000000E+00 -0.11393867781E+02  0.99869829491E+03  0.99863329808E+03 0.  0.
        1    1    3    3  502    0 -0.13466344038E+03  0.48051017568E+03 -0.22810758431E+02  0.49954439426E+03  0.50400001928E-02 0. -1.
       -1    1    3    3    0  502  0.13466344038E+03 -0.48051017568E+03  0.11416890650E+02  0.49915390065E+03  0.50400001928E-02 0.  1.
</event>
<event>
 5   0  0.1353789E-03  0.9937549E+03  0.7818609E-02  0.9315421E-01
       -1   -1    0    0    0  501  0.00000000000E+00  0.00000000000E+00  0.47049867775E+03  0.47049867778E+03  0.50400001928E-02 0.  1.
        1   -1    0    0  501    0  0.00000000000E+00  0.00000000000E+00 -0.52473518500E+03  0.52473518502E+03  0.50400001928E-02 0. -1.
    10030    2    1    2    0    0  0.00000000000E+00  0.00000000000E+00 -0.54236507245E+02  0.99523386280E+03  0.99375492097E+03 0.  0.
        1    1    3    3  502    0 -0.45411732713E+03  0.16208628574E+03 -0.14726637565E+03  0.50416455275E+03  0.50400001928E-02 0. -1.
       -1    1    3    3    0  502  0.45411732713E+03 -0.16208628574E+03  0.93029868404E+02  0.49106931005E+03  0.50400001928E-02 0.  1.
</event>
<event>
 5   0  0.2277570E-03  0.9957277E+03  0.7818609E-02  0.9313243E-01
        2   -1    0    0  501    0  0.00000000000E+00  0.00000000000E+00  0.29497723253E+03  0.29497723254E+03  0.25500000920E-02 0.  1.
       -2   -1    0    0    0  501  0.00000000000E+00  0.00000000000E+00 -0.84029674653E+03  0.84029674654E+03  0.25500000920E-02 0. -1.
    10030    2    1    2    0    0  0.00000000000E+00  0.00000000000E+00 -0.54531951400E+03  0.11352739791E+04  0.99572769130E+03 0.  0.
        3    1    3    3  502    0 -0.47440669461E+02 -0.45495971904E+03 -0.48571406509E+02  0.45999799434E+03  0.10100000352E+00 0.  1.
       -3    1    3    3    0  502  0.47440669461E+02  0.45495971904E+03 -0.49674810749E+03  0.67527598474E+03  0.10100000352E+00 0. -1.
</event>
<event>
 5   0  0.2264577E-03  0.9998256E+03  0.7818609E-02  0.9308736E-01
       -2   -1    0    0    0  501  0.00000000000E+00  0.00000000000E+00  0.58111348905E+03  0.58111348906E+03  0.25500000920E-02 0.  1.
        2   -1    0    0  501    0  0.00000000000E+00  0.00000000000E+00 -0.43005855758E+03  0.43005855759E+03  0.25500000920E-02 0. -1.
    10030    2    1    2    0    0  0.00000000000E+00  0.00000000000E+00  0.15105493147E+03  0.10111720466E+04  0.99982564260E+03 0.  0.
        5    1    3    3  502    0 -0.30275360331E+03 -0.38292805658E+03 -0.33384463031E+02  0.48931610764E+03  0.46999998093E+01 0.  1.
       -5    1    3    3    0  502  0.30275360331E+03  0.38292805658E+03  0.18443939450E+03  0.52185593900E+03  0.46999998093E+01 0. -1.
</event>
<event>
 5   0  0.2284843E-03  0.9986061E+03  0.7818609E-02  0.9310075E-01
        2   -1    0    0  501    0  0.00000000000E+00  0.00000000000E+00  0.13806989472E+04  0.13806989472E+04  0.25500000920E-02 0.  1.
       -2   -1    0    0    0  501  0.00000000000E+00  0.00000000000E+00 -0.18056328149E+03  0.18056328151E+03  0.25500000920E-02 0. -1.
    10030    2    1    2    0    0  0.00000000000E+00  0.00000000000E+00  0.12001356657E+04  0.15612622287E+04  0.99860609387E+03 0.  0.
        2    1    3    3  502    0 -0.19723812432E+02  0.74513805652E+02 -0.17120529365E+03  0.18775672715E+03  0.25500000920E-02 0. -1.
       -2    1    3    3    0  502  0.19723812432E+02 -0.74513805652E+02  0.13713409594E+04  0.13735055016E+04  0.25500000920E-02 0.  1.
</event>
<event>
 5   0  0.2284843E-03  0.9892622E+03  0.7818609E-02  0.9320401E-01
        2   -1    0    0  501    0  0.00000000000E+00  0.00000000000E+00  0.64516208463E+03  0.64516208463E+03  0.25500000920E-02 0. -1.
       -2   -1    0    0    0  501  0.00000000000E+00  0.00000000000E+00 -0.37922241569E+03  0.37922241570E+03  0.25500000920E-02 0.  1.
    10030    2    1    2    0    0  0.00000000000E+00  0.00000000000E+00  0.26593966893E+03  0.10243845003E+04  0.98926219832E+03 0.  0.
        2    1    3    3  502    0  0.40638175907E+03 -0.22748808488E+03  0.30550772301E+03  0.55698467815E+03  0.25500000920E-02 0. -1.
       -2    1    3    3    0  502 -0.40638175907E+03  0.22748808488E+03 -0.39568054076E+02  0.46739982219E+03  0.25500000920E-02 0.  1.
</event>
<event>
 5   0  0.2277570E-03  0.9991273E+03  0.7818609E-02  0.9309502E-01
        2   -1    0    0  501    0  0.00000000000E+00  0.00000000000E+00  0.77794896139E+03  0.77794896139E+03  0.25500000920E-02 0. -1.
       -2   -1    0    0    0  501  0.00000000000E+00  0.00000000000E+00 -0.32079721822E+03  0.32079721823E+03  0.25500000920E-02 0.  1.
    10030    2    1    2    0    0  0.00000000000E+00  0.00000000000E+00  0.45715174317E+03  0.10987461796E+04  0.99912734471E+03 0.  0.
        3    1    3    3  502    0 -0.42769917312E+03  0.20153833134E+03  0.51186907504E+02  0.47556744147E+03  0.10100000352E+00 0. -1.
       -3    1    3    3    0  502  0.42769917312E+03 -0.20153833134E+03  0.40596483566E+03  0.62317873815E+03  0.10100000352E+00 0.  1.
</event>
<event>
 5   0  0.1249195E-03  0.9991313E+03  0.7818609E-02  0.9309498E-01
       -1   -1    0    0    0  501  0.00000000000E+00  0.00000000000E+00  0.19244586967E+03  0.19244586974E+03  0.50400001928E-02 0.  1.
        1   -1    0    0  501    0  0.00000000000E+00  0.00000000000E+00 -0.12968105198E+04  0.12968105198E+04  0.50400001928E-02 0. -1.
    10030    2    1    2    0    0  0.00000000000E+00  0.00000000000E+00 -0.11043646502E+04  0.14892563896E+04  0.99913127935E+03 0.  0.
        2    1    3    3  502    0 -0.33897027414E+02 -0.49819494719E+03 -0.53014360513E+03  0.72828528472E+03  0.25500000920E-02 0.  1.
       -2    1    3    3    0  502  0.33897027414E+02  0.49819494719E+03 -0.57422104503E+03  0.76097110486E+03  0.25500000920E-02 0. -1.
</event>
<event>
 5   0  0.2204862E-03  0.1001750E+04  0.7818609E-02  0.9306627E-01
        2   -1    0    0  501    0  0.00000000000E+00  0.00000000000E+00  0.71662739173E+03  0.71662739174E+03  0.25500000920E-02 0.  1.
       -2   -1    0    0    0  501  0.00000000000E+00  0.00000000000E+00 -0.35007860918E+03  0.35007860919E+03  0.25500000920E-02 0. -1.
    10030    2    1    2    0    0  0.00000000000E+00  0.00000000000E+00  0.36654878255E+03  0.10667060009E+04  0.10017503094E+04 0.  0.
        1    1    3    3  502    0 -0.34626436782E+03  0.35408742643E+03  0.10359599437E+03  0.50597336694E+03  0.50400001928E-02 0. -1.
       -1    1    3    3    0  502  0.34626436782E+03 -0.35408742643E+03  0.26295278818E+03  0.56073263398E+03  0.50400001928E-02 0.  1.
</event>
<event>
 5   0  0.1353789E-03  0.9990531E+03  0.7818609E-02  0.9309584E-01
        1   -1    0    0  501    0  0.00000000000E+00  0.00000000000E+00  0.11976042748E+04  0.11976042748E+04  0.50400001928E-02 0.  1.
       -1   -1    0    0    0  501  0.00000000000E+00  0.00000000000E+00 -0.20835495557E+03  0.20835495563E+03  0.50400001928E-02 0. -1.
    10030    2    1    2    0    0  0.00000000000E+00  0.00000000000E+00  0.98924931926E+03  0.14059592305E+04  0.99905312277E+03 0.  0.
        1    1    3    3  502    0  0.28072836690E+03 -0.21243714656E+03 -0.40986304743E+01  0.35207208923E+03  0.50400001928E-02 0. -1.
       -1    1    3    3    0  502 -0.28072836690E+03  0.21243714656E+03  0.99334794973E+03  0.10538871412E+04  0.50400001928E-02 0.  1.
</event>
<event>
 5   0  0.1293716E-03  0.9917149E+03  0.7818609E-02  0.9317679E-01
       -1   -1    0    0    0  501  0.00000000000E+00  0.00000000000E+00  0.45495121030E+03  0.45495121033E+03  0.50400001928E-02 0. -1.
        1   -1    0    0  501    0  0.00000000000E+00  0.00000000000E+00 -0.54044174992E+03  0.54044174994E+03  0.50400001928E-02 0.  1.
    10030    2    1    2    0    0  0.00000000000E+00  0.00000000000E+00 -0.85490539612E+02  0.99539296027E+03  0.99171493535E+03 0.  0.
        3    1    3    3  502    0  0.30504301693E+03  0.34268614049E+03  0.14607362269E+03  0.48147953903E+03  0.10100000352E+00 0. -1.
       -3    1    3    3    0  502 -0.30504301693E+03 -0.34268614049E+03 -0.23156416230E+03  0.51391342124E+03  0.10100000352E+00 0.  1.
</event>
<event>
 5   0  0.1293575E-03  0.9991177E+03  0.7818609E-02  0.9309513E-01
       -1   -1    0    0    0  501  0.00000000000E+00  0.00000000000E+00  0.95793941144E+03  0.95793941146E+03  0.50400001928E-02 0.  1.
        1   -1    0    0  501    0  0.00000000000E+00  0.00000000000E+00 -0.26051650272E+03  0.26051650277E+03  0.50400001928E-02 0. -1.
    10030    2    1    2    0    0  0.00000000000E+00  0.00000000000E+00  0.69742290872E+03  0.12184559142E+04  0.99911766139E+03 0.  0.
        4    1    3    3  502    0  0.36152137726E+03  0.25527835066E+03  0.63129748182E+03  0.77097526938E+03  0.12699999809E+01 0. -1.
       -4    1    3    3    0  502 -0.36152137726E+03 -0.25527835066E+03  0.66125426901E+02  0.44748064485E+03  0.12699999809E+01 0.  1.
</event>
<event>
 5   0  0.2255142E-03  0.9997014E+03  0.7818609E-02  0.9308872E-01
        2   -1    0    0  501    0  0.00000000000E+00  0.00000000000E+00  0.38547692471E+03  0.38547692472E+03  0.25500000920E-02 0.  1.
       -2   -1    0    0    0  501  0.00000000000E+00  0.00000000000E+00 -0.64816002134E+03  0.64816002134E+03  0.25500000920E-02 0. -1.
    10030    2    1    2    0    0  0.00000000000E+00  0.00000000000E+00 -0.26268309662E+03  0.10336369461E+04  0.99970141893E+03 0.  0.
        4    1    3    3  502    0  0.43325617776E+03 -0.76148267543E+02  0.11407552201E+03  0.45444946016E+03  0.12699999809E+01 0.  1.
       -4    1    3    3    0  502 -0.43325617776E+03  0.76148267543E+02 -0.37675861863E+03  0.57918748591E+03  0.12699999809E+01 0. -1.
</event>
<event>
 5   0  0.1293716E-03  0.9963546E+03  0.7818609E-02  0.9312552E-01
        1   -1    0    0  501    0  0.00000000000E+00  0.00000000000E+00  0.52962801380E+03  0.52962801382E+03  0.50400001928E-02 0.  1.
       -1   -1    0    0    0  501  0.00000000000E+00  0.00000000000E+00 -0.46859423426E+03  0.46859423429E+03  0.50400001928E-02 0. -1.
    10030    2    1    2    0    0  0.00000000000E+00  0.00000000000E+00  0.61033779538E+02  0.99822224811E+03  0.99635462280E+03 0.  0.
        3    1    3    3  502    0  0.44029371789E+03 -0.23216665513E+03  0.51066544420E+02  0.50036758082E+03  0.10100000352E+00 0.  1.
       -3    1    3    3    0  502 -0.44029371789E+03  0.23216665513E+03  0.99672351171E+01  0.49785466730E+03  0.10100000352E+00 0. -1.
</event>
<event>
 5   0  0.2264577E-03  0.9992306E+03  0.7818609E-02  0.9309389E-01
        2   -1    0    0  501    0  0.00000000000E+00  0.00000000000E+00  0.86196387611E+03  0.86196387611E+03  0.25500000920E-02 0.  1.
       -2   -1    0    0    0  501  0.00000000000E+00  0.00000000000E+00 -0.28958923290E+03  0.28958923291E+03  0.25500000920E-02 0. -1.
    10030    2    1    2    0    0  0.00000000000E+00  0.00000000000E+00  0.57237464321E+03  0.11515531090E+04  0.99923061938E+03 0.  0.
        5    1    3    3  502    0  0.84001536799E+02  0.94548314181E+02 -0.27080927781E+03  0.29892373082E+03  0.46999998093E+01 0. -1.
       -5    1    3    3    0  502 -0.84001536799E+02 -0.94548314181E+02  0.84318392102E+03  0.85262937820E+03  0.46999998093E+01 0.  1.
</event>
<event>
 5   0  0.1293716E-03  0.1004541E+04  0.7818609E-02  0.9303578E-01
        1   -1    0    0  501    0  0.00000000000E+00  0.00000000000E+00  0.69642718543E+03  0.69642718544E+03  0.50400001928E-02 0.  1.
       -1   -1    0    0    0  501  0.00000000000E+00  0.00000000000E+00 -0.36224285167E+03  0.36224285171E+03  0.50400001928E-02 0. -1.
    10030    2    1    2    0    0  0.00000000000E+00  0.00000000000E+00  0.33418433375E+03  0.10586700372E+04  0.10045412279E+04 0.  0.
        3    1    3    3  502    0  0.43003536142E+03 -0.41860666402E+02 -0.10281953234E+03  0.44413353161E+03  0.10100000352E+00 0. -1.
       -3    1    3    3    0  502 -0.43003536142E+03  0.41860666402E+02  0.43700386609E+03  0.61453650554E+03  0.10100000352E+00 0.  1.
</event>
<event>
 5   0  0.2204862E-03  0.1000491E+04  0.7818609E-02  0.9308007E-01
       -2   -1    0    0    0  501  0.00000000000E+00  0.00000000000E+00  0.48888971524E+03  0.48888971525E+03  0.25500000920E-02 0. -1.
        2   -1    0    0  501    0  0.00000000000E+00  0.00000000000E+00 -0.51186496325E+03  0.51186496325E+03  0.25500000920E-02 0.  1.
    10030    2    1    2    0    0  0.00000000000E+00  0.00000000000E+00 -0.22975248004E+02  0.10007546785E+04  0.10004909118E+04 0.  0.
        1    1    3    3  502    0  0.38440066398E+03  0.19810549226E+02 -0.33108584663E+03  0.50771465037E+03  0.50400001928E-02 0.  1.
       -1    1    3    3    0  502 -0.38440066398E+03 -0.19810549226E+02  0.30811059863E+03  0.49304002814E+03  0.50400001928E-02 0. -1.
</event>
<event>
 5   0  0.1293716E-03  0.1002330E+04  0.7818609E-02  0.9305993E-01
        1   -1    0    0  501    0  0.00000000000E+00  0.00000000000E+00  0.70247313941E+03  0.70247313943E+03  0.50400001928E-02 0. -1.
       -1   -1    0    0    0  501  0.00000000000E+00  0.00000000000E+00 -0.35754591376E+03  0.35754591379E+03  0.50400001928E-02 0.  1.
    10030    2    1    2    0    0  0.00000000000E+00  0.00000000000E+00  0.34492722565E+03  0.10600190532E+04  0.10023300864E+04 0.  0.
        3    1    3    3  502    0 -0.21547763744E+03  0.41661559770E+02 -0.30402335058E+03  0.37496200567E+03  0.10100000352E+00 0.  1.
       -3    1    3    3    0  502  0.21547763744E+03 -0.41661559770E+02  0.64895057623E+03  0.68505704755E+03  0.10100000352E+00 0. -1.
</event>
<event>
 5   0  0.2264577E-03  0.9996679E+03  0.7818609E-02  0.9308909E-01
        2   -1    0    0  501    0  0.00000000000E+00  0.00000000000E+00  0.54869622759E+03  0.54869622759E+03  0.25500000920E-02 0. -1.
       -2   -1    0    0    0  501  0.00000000000E+00  0.00000000000E+00 -0.45532289414E+03  0.45532289414E+03  0.25500000920E-02 0.  1.
    10030    2    1    2    0    0  0.00000000000E+00  0.00000000000E+00  0.93373333449E+02  0.10040191217E+04  0.99966785355E+03 0.  0.
        5    1    3    3  502    0 -0.97335990279E+02 -0.10742373250E+03  0.52709672890E+03  0.54668748379E+03  0.46999998093E+01 0. -1.
       -5    1    3    3    0  502  0.97335990279E+02  0.10742373250E+03 -0.43372339546E+03  0.45733163795E+03  0.46999998093E+01 0.  1.
</event>
<event>
 5   0  0.2277570E-03  0.9990082E+03  0.7818609E-02  0.9309633E-01
       -2   -1    0    0    0  501  0.00000000000E+00  0.00000000000E+00  0.21844868627E+03  0.21844868628E+03  0.25500000920E-02 0.  1.
        2   -1    0    0  501    0  0.00000000000E+00  0.00000000000E+00 -0.11421644882E+04  0.11421644882E+04  0.25500000920E-02 0. -1.
    10030    2    1    2    0    0  0.00000000000E+00  0.00000000000E+00 -0.92371580188E+03  0.13606131744E+04  0.99900817204E+03 0.  0.
        3    1    3    3  502    0 -0.24541312042E+02  0.43410225486E+03 -0.12697734948E+03  0.45295728403E+03  0.10100000352E+00 0.  1.
       -3    1    3    3    0  502  0.24541312042E+02 -0.43410225486E+03 -0.79673845240E+03  0.90765589041E+03  0.10100000352E+00 0. -1.
</event>
<event>
 5   0  0.2277570E-03  0.1004446E+04  0.7818609E-02  0.9303682E-01
        2   -1    0    0  501    0  0.00000000000E+00  0.00000000000E+00  0.27047855662E+03  0.27047855663E+03  0.25500000920E-02 0. -1.
       -2   -1    0    0    0  501  0.00000000000E+00  0.00000000000E+00 -0.93252519467E+03  0.93252519468E+03  0.25500000920E-02 0.  1.
    10030    2    1    2    0    0  0.00000000000E+00  0.00000000000E+00 -0.66204663806E+03  0.12030037513E+04  0.10044462528E+04 0.  0.
        3    1    3    3  502    0  0.11234834745E+03 -0.38365078801E+03  0.33074866770E+02  0.40112845241E+03  0.10100000352E+00 0. -1.
       -3    1    3    3    0  502 -0.11234834745E+03  0.38365078801E+03 -0.69512150483E+03  0.80187529890E+03  0.10100000352E+00 0.  1.
</event>
<event>
 5   0  0.1293575E-03  0.9973606E+03  0.7818609E-02  0.9311444E-01
       -1   -1    0    0    0  501  0.00000000000E+00  0.00000000000E+00  0.27298214857E+03  0.27298214862E+03  0.50400001928E-02 0.  1.
        1   -1    0    0  501    0  0.00000000000E+00  0.00000000000E+00 -0.91098274769E+03  0.91098274771E+03  0.50400001928E-02 0. -1.
    10030    2    1    2    0    0  0.00000000000E+00  0.00000000000E+00 -0.63800059912E+03  0.11839648963E+04  0.99736057234E+03 0.  0.
        4    1    3    3  502    0  0.17747826651E+03 -0.74065308236E+02  0.22718898012E+03  0.29765861411E+03  0.12699999809E+01 0.  1.
       -4    1    3    3    0  502 -0.17747826651E+03  0.74065308236E+02 -0.86518957924E+03  0.88630628221E+03  0.12699999809E+01 0. -1.
</event>
<event>
 5   0  0.1293575E-03  0.9975462E+03  0.7818609E-02  0.9311240E-01
       -1   -1    0    0    0  501  0.00000000000E+00  0.00000000000E+00  0.22866915282E+03  0.22866915287E+03  0.50400001928E-02 0. -1.
        1   -1    0    0  501    0  0.00000000000E+00  0.00000000000E+00 -0.10879236864E+04  0.10879236864E+04  0.50400001928E-02 0.  1.
    10030    2    1    2    0    0  0.00000000000E+00  0.00000000000E+00 -0.85925453354E+03  0.13165928392E+04  0.99754616481E+03 0.  0.
        4    1    3    3  502    0  0.44576803732E+03 -0.11914710377E+03 -0.67958745990E+03  0.82142918379E+03  0.12699999809E+01 0. -1.
       -4    1    3    3    0  502 -0.44576803732E+03  0.11914710377E+03 -0.17966707364E+03  0.49516365545E+03  0.12699999809E+01 0.  1.
</event>
<event>
 5   0  0.1353789E-03  0.9994403E+03  0.7818609E-02  0.9309159E-01
       -1   -1    0    0    0  501  0.00000000000E+00  0.00000000000E+00  0.20418253059E+03  0.20418253066E+03  0.50400001928E-02 0. -1.
        1   -1    0    0  501    0  0.00000000000E+00  0.00000000000E+00 -0.12230244208E+04  0.12230244208E+04  0.50400001928E-02 0.  1.
    10030    2    1    2    0    0  0.00000000000E+00  0.00000000000E+00 -0.10188418902E+04  0.14272069515E+04  0.99944028590E+03 0.  0.
        1    1    3    3  502    0  0.36641070110E+03 -0.13602371662E+03 -0.95408146574E+03  0.10310338000E+04  0.50400001928E-02 0.  1.
       -1    1    3    3    0  502 -0.36641070110E+03  0.13602371662E+03 -0.64760424458E+02  0.39617315150E+03  0.50400001928E-02 0. -1.
</event>
<event>
 5   0  0.1285769E-03  0.1003318E+04  0.7818609E-02  0.9304913E-01
        1   -1    0    0  501    0  0.00000000000E+00  0.00000000000E+00  0.24328630372E+03  0.24328630377E+03  0.50400001928E-02 0.  1.
       -1   -1    0    0    0  501  0.00000000000E+00  0.00000000000E+00 -0.10344272690E+04  0.10344272690E+04  0.50400001928E-02 0. -1.
    10030    2    1    2    0    0  0.00000000000E+00  0.00000000000E+00 -0.79114096528E+03  0.12777135728E+04  0.10033184674E+04 0.  0.
        5    1    3    3  502    0 -0.13747281665E+03 -0.36584289519E+03  0.49207950186E+01  0.39087863014E+03  0.46999998093E+01 0.  1.
       -5    1    3    3    0  502  0.13747281665E+03  0.36584289519E+03 -0.79606176030E+03  0.88683494264E+03  0.46999998093E+01 0. -1.
</event>
<event>
 5   0  0.1293716E-03  0.9933563E+03  0.7818609E-02  0.9315862E-01
        1   -1    0    0  501    0  0.00000000000E+00  0.00000000000E+00  0.73590962664E+03  0.73590962666E+03  0.50400001928E-02 0. -1.
       -1   -1    0    0    0  501  0.00000000000E+00  0.00000000000E+00 -0.33521667283E+03  0.33521667287E+03  0.50400001928E-02 0.  1.
    10030    2    1    2    0    0  0.00000000000E+00  0.00000000000E+00  0.40069295381E+03  0.10711262995E+04  0.99335628368E+03 0.  0.
        3    1    3    3  502    0  0.23814644428E+03  0.23870460029E+03 -0.19289036205E+03  0.38845890014E+03  0.10100000352E+00 0.  1.
       -3    1    3    3    0  502 -0.23814644428E+03 -0.23870460029E+03  0.59358331586E+03  0.68266739939E+03  0.10100000352E+00 0. -1.
</event>
<event>
 5   0  0.1293575E-03  0.1001498E+04  0.7818609E-02  0.9306904E-01
        1   -1    0    0  501    0  0.00000000000E+00  0.00000000000E+00  0.13277633894E+04  0.13277633894E+04  0.50400001928E-02 0.  1.
       -1   -1    0    0    0  501  0.00000000000E+00  0.00000000000E+00 -0.18885098825E+03  0.18885098831E+03  0.50400001928E-02 0. -1.
    10030    2    1    2    0    0  0.00000000000E+00  0.00000000000E+00  0.11389124011E+04  0.15166143777E+04  0.10014977350E+04 0.  0.
        4    1    3    3  502    0  0.61639616794E+02  0.16247298700E+03 -0.14172393259E+03  0.22424138742E+03  0.12699999809E+01 0. -1.
       -4    1    3    3    0  502 -0.61639616794E+02 -0.16247298700E+03  0.12806363337E+04  0.12923729903E+04  0.12699999809E+01 0.  1.
</event>
<event>
 5   0  0.1249195E-03  0.1003943E+04  0.7818609E-02  0.9304231E-01
        1   -1    0    0  501    0  0.00000000000E+00  0.00000000000E+00  0.16570356435E+04  0.16570356435E+04  0.50400001928E-02 0.  1.
       -1   -1    0    0    0  501  0.00000000000E+00  0.00000000000E+00 -0.15206385107E+03  0.15206385115E+03  0.50400001928E-02 0. -1.
    10030    2    1    2    0    0  0.00000000000E+00  0.00000000000E+00  0.15049717924E+04  0.18090994947E+04  0.10039426705E+04 0.  0.
        2    1    3    3  502    0  0.16605812532E+03  0.29145463496E+03  0.14254148389E+04  0.14643526106E+04  0.25500000920E-02 0.  1.
       -2    1    3    3    0  502 -0.16605812532E+03 -0.29145463496E+03  0.79556953570E+02  0.34474688409E+03  0.25500000920E-02 0. -1.
</event>
<event>
 5   0  0.2284843E-03  0.1000433E+04  0.7818609E-02  0.9308070E-01
       -2   -1    0    0    0  501  0.00000000000E+00  0.00000000000E+00  0.49785015452E+03  0.49785015453E+03  0.25500000920E-02 0. -1.
        2   -1    0    0  501    0  0.00000000000E+00  0.00000000000E+00 -0.50259367140E+03  0.50259367141E+03  0.25500000920E-02 0.  1.
    10030    2    1    2    0    0  0.00000000000E+00  0.00000000000E+00 -0.47435168854E+01  0.10004438259E+04  0.10004325804E+04 0.  0.
        2    1    3    3  502    0  0.27000667663E+03  0.17234076399E+03  0.38183484110E+03  0.49840023099E+03  0.25500000920E-02 0. -1.
       -2    1    3    3    0  502 -0.27000667663E+03 -0.17234076399E+03 -0.38657835799E+03  0.50204359495E+03  0.25500000920E-02 0.  1.
</event>
<event>
 5   0  0.1285769E-03  0.1013649E+04  0.7818609E-02  0.9293700E-01
       -1   -1    0    0    0  501  0.00000000000E+00  0.00000000000E+00  0.41213422875E+03  0.41213422878E+03  0.50400001928E-02 0.  1.
        1   -1    0    0  501    0  0.00000000000E+00  0.00000000000E+00 -0.62327041229E+03  0.62327041231E+03  0.50400001928E-02 0. -1.
    10030    2    1    2    0    0  0.00000000000E+00  0.00000000000E+00 -0.21113618354E+03  0.10354046411E+04  0.10136489939E+04 0.  0.
        5    1    3    3  502    0 -0.26044331731E+03 -0.40950646970E+03  0.43588935204E+02  0.48728672825E+03  0.46999998093E+01 0.  1.
       -5    1    3    3    0  502  0.26044331731E+03  0.40950646970E+03 -0.25472511874E+03  0.54811791284E+03  0.46999998093E+01 0. -1.
</event>
<event>
 5   0  0.1293716E-03  0.9874182E+03  0.7818609E-02  0.9322453E-01
       -1   -1    0    0    0  501  0.00000000000E+00  0.00000000000E+00  0.37562952485E+03  0.37562952488E+03  0.50400001928E-02 0.  1.
        1   -1    0    0  501    0  0.00000000000E+00  0.00000000000E+00 -0.64890713329E+03  0.64890713331E+03  0.50400001928E-02 0. -1.
    10030    2    1    2    0    0  0.00000000000E+00  0.00000000000E+00 -0.27327760845E+03  0.10245366582E+04  0.98741820557E+03 0.  0.
        3    1    3    3  502    0  0.20500936432E+03  0.83806498196E+02 -0.59446983024E+03  0.63438691496E+03  0.10100000352E+00 0. -1.
       -3    1    3    3    0  502 -0.20500936432E+03 -0.83806498196E+02  0.32119222180E+03  0.39014974323E+03  0.10100000352E+00 0.  1.
</event>
<event>
 5   0  0.2284843E-03  0.1014882E+04  0.7818609E-02  0.9292372E-01
       -2   -1    0    0    0  501  0.00000000000E+00  0.00000000000E+00  0.12892591030E+04  0.12892591030E+04  0.25500000920E-02 0.  1.
        2   -1    0    0  501    0  0.00000000000E+00  0.00000000000E+00 -0.19972416626E+03  0.19972416627E+03  0.25500000920E-02 0. -1.
    10030    2    1    2    0    0  0.00000000000E+00  0.00000000000E+00  0.10895349367E+04  0.14889832693E+04  0.10148816669E+04 0.  0.
        2    1    3    3  502    0  0.85820497067E+02  0.43614388432E+03  0.90387329633E+03  0.10072604337E+04  0.25500000920E-02 0.  1.
       -2    1    3    3    0  502 -0.85820497067E+02 -0.43614388432E+03  0.18566164039E+03  0.48172283552E+03  0.25500000920E-02 0. -1.
</event>
<event>
 5   0  0.1249195E-03  0.1013091E+04  0.7818609E-02  0.9294302E-01
       -1   -1    0    0    0  501  0.00000000000E+00  0.00000000000E+00  0.50605598694E+03  0.50605598696E+03  0.50400001928E-02 0.  1.
        1   -1    0    0  501    0  0.00000000000E+00  0.00000000000E+00 -0.50703532559E+03  0.50703532561E+03  0.50400001928E-02 0. -1.
    10030    2    1    2    0    0  0.00000000000E+00  0.00000000000E+00 -0.97933864821E+00  0.10130913126E+04  0.10130908392E+04 0.  0.
        2    1    3    3  502    0  0.39701440588E+03 -0.26590962084E+03  0.16761721214E+03  0.50638315014E+03  0.25500000920E-02 0.  1.
       -2    1    3    3    0  502 -0.39701440588E+03  0.26590962084E+03 -0.16859655079E+03  0.50670816243E+03  0.25500000920E-02 0. -1.
</event>
<event>
 5   0  0.1285769E-03  0.1007314E+04  0.7818609E-02  0.9300559E-01
       -1   -1    0    0    0  501  0.00000000000E+00  0.00000000000E+00  0.25533628899E+03  0.25533628904E+03  0.50400001928E-02 0.  1.
        1   -1    0    0  501    0  0.00000000000E+00  0.00000000000E+00 -0.99347585505E+03  0.99347585506E+03  0.50400001928E-02 0. -1.
    10030    2    1    2    0    0  0.00000000000E+00  0.00000000000E+00 -0.73813956606E+03  0.12488121441E+04  0.10073141279E+04 0.  0.
        5    1    3    3  502    0 -0.20163931082E+03 -0.41185316375E+03 -0.62724313720E+03  0.77700545901E+03  0.46999998093E+01 0.  1.
       -5    1    3    3    0  502  0.20163931082E+03  0.41185316375E+03 -0.11089642885E+03  0.47180668509E+03  0.46999998093E+01 0. -1.
</event>
<event>
 5   0  0.2204862E-03  0.1000486E+04  0.7818609E-02  0.9308012E-01
        2   -1    0    0  501    0  0.00000000000E+00  0.00000000000E+00  0.41489079052E+03  0.41489079052E+03  0.25500000920E-02 0.  1.
       -2   -1    0    0    0  501  0.00000000000E+00  0.00000000000E+00 -0.60315399058E+03  0.60315399059E+03  0.25500000920E-02 0. -1.
    10030    2    1    2    0    0  0.00000000000E+00  0.00000000000E+00 -0.18826320007E+03  0.10180447811E+04  0.10004859539E+04 0.  0.
        1    1    3    3  502    0  0.41122908089E+03  0.20428466515E+03 -0.29611329549E+03  0.54637410734E+03  0.50400001928E-02 0. -1.
       -1    1    3    3    0  502 -0.41122908089E+03 -0.20428466515E+03  0.10785009542E+03  0.47167067377E+03  0.50400001928E-02 0.  1.
</event>
<event>
 5   0  0.2284843E-03  0.1001474E+04  0.7818609E-02  0.9306929E-01
        2   -1    0    0  501    0  0.00000000000E+00  0.00000000000E+00  0.68450530945E+03  0.68450530945E+03  0.25500000920E-02 0.  1.
       -2   -1    0    0    0  501  0.00000000000E+00  0.00000000000E+00 -0.36630483293E+03  0.36630483294E+03  0.25500000920E-02 0. -1.
    10030    2    1    2    0    0  0.00000000000E+00  0.00000000000E+00  0.31820047651E+03  0.10508101424E+04  0.10014741195E+04 0.  0.
        2    1    3    3  502    0  0.87400986401E+02  0.46146767007E+03 -0.23079991784E+02  0.47023826830E+03  0.25500000920E-02 0. -1.
       -2    1    3    3    0  502 -0.87400986401E+02 -0.46146767007E+03  0.34128046830E+03  0.58057187410E+03  0.25500000920E-02 0.  1.
</event>
<event>
 5   0  0.2255142E-03  0.9986894E+03  0.7818609E-02  0.9309983E-01
       -2   -1    0    0    0  501  0.00000000000E+00  0.00000000000E+00  0.32698348609E+03  0.32698348610E+03  0.25500000920E-02 0. -1.
        2   -1    0    0  501    0  0.00000000000E+00  0.00000000000E+00 -0.76256180907E+03  0.76256180908E+03  0.25500000920E-02 0.  1.
    10030    2    1    2    0    0  0.00000000000E+00  0.00000000000E+00 -0.43557832298E+03  0.10895452952E+04  0.99868937853E+03 0.  0.
        4    1    3    3  502    0 -0.50232367314E+02  0.94191273469E+02  0.31438782263E+03  0.33201897934E+03  0.12699999809E+01 0. -1.
       -4    1    3    3    0  502  0.50232367314E+02 -0.94191273469E+02 -0.74996614561E+03  0.75752631584E+03  0.12699999809E+01 0.  1.
</event>
<event>
 5   0  0.2264577E-03  0.9960931E+03  0.7818609E-02  0.9312840E-01
        2   -1    0    0  501    0  0.00000000000E+00  0.00000000000E+00  0.41683500821E+03  0.41683500821E+03  0.25500000920E-02 0.  1.
       -2   -1    0    0    0  501  0.00000000000E+00  0.00000000000E+00 -0.59508046734E+03  0.59508046734E+03  0.25500000920E-02 0. -1.
    10030    2    1    2    0    0  0.00000000000E+00  0.00000000000E+00 -0.17824545913E+03  0.10119154756E+04  0.99609311110E+03 0.  0.
        5    1    3    3  502    0  0.79038749482E+02 -0.17718154640E+02 -0.58832137288E+03  0.59388987591E+03  0.46999998093E+01 0. -1.
       -5    1    3    3    0  502 -0.79038749482E+02  0.17718154640E+02  0.41007591375E+03  0.41802559965E+03  0.46999998093E+01 0.  1.
</event>
<event>
 5   0  0.2255142E-03  0.1012788E+04  0.7818609E-02  0.9294629E-01
        2   -1    0    0  501    0  0.00000000000E+00  0.00000000000E+00  0.95915592512E+03  0.95915592512E+03  0.25500000920E-02 0.  1.
       -2   -1    0    0    0  501  0.00000000000E+00  0.00000000000E+00 -0.26735495848E+03  0.26735495849E+03  0.25500000920E-02 0. -1.
    10030    2    1    2    0    0  0.00000000000E+00  0.00000000000E+00  0.69180096664E+03  0.12265108836E+04  0.10127884133E+04 0.  0.
        4    1    3    3  502    0  0.42618606104E+03 -0.27328667373E+03  0.33300919415E+03  0.60598424151E+03  0.12699999809E+01 0. -1.
       -4    1    3    3    0  502 -0.42618606104E+03  0.27328667373E+03  0.35879177249E+03  0.62052664211E+03  0.12699999809E+01 0.  1.
</event>
<event>
 5   0  0.2204862E-03  0.9983594E+03  0.7818609E-02  0.9310346E-01
        2   -1    0    0  501    0  0.00000000000E+00  0.00000000000E+00  0.22777484967E+04  0.22777484967E+04  0.25500000920E-02 0. -1.
       -2   -1    0    0    0  501  0.00000000000E+00  0.00000000000E+00 -0.10939766289E+03  0.10939766292E+03  0.25500000920E-02 0.  1.
    10030    2    1    2    0    0  0.00000000000E+00  0.00000000000E+00  0.21683508338E+04  0.23871461596E+04  0.99835937863E+03 0.  0.
        1    1    3    3  502    0  0.31360784009E+02 -0.36491593213E+03  0.27320734145E+03  0.45693477405E+03  0.50400001928E-02 0.  1.
       -1    1    3    3    0  502 -0.31360784009E+02  0.36491593213E+03  0.18951434924E+04  0.19302113856E+04  0.50400001928E-02 0. -1.
</event>
<event>
 5   0  0.1249195E-03  0.9963889E+03  0.7818609E-02  0.9312514E-01
        1   -1    0    0  501    0  0.00000000000E+00  0.00000000000E+00  0.59994686027E+03  0.59994686030E+03  0.50400001928E-02 0.  1.
       -1   -1    0    0    0  501  0.00000000000E+00  0.00000000000E+00 -0.41369948964E+03  0.41369948967E+03  0.50400001928E-02 0. -1.
    10030    2    1    2    0    0  0.00000000000E+00  0.00000000000E+00  0.18624737063E+03  0.10136463500E+04  0.99638889984E+03 0.  0.
        2    1    3    3  502    0 -0.29875886192E+03 -0.25369038903E+03  0.40599224007E+03  0.56430964024E+03  0.25500000920E-02 0.  1.
       -2    1    3    3    0  502  0.29875886192E+03  0.25369038903E+03 -0.21974486944E+03  0.44933670973E+03  0.25500000920E-02 0. -1.
</event>
<event>
 5   0  0.2284843E-03  0.9999843E+03  0.7818609E-02  0.9308562E-01
        2   -1    0    0  501    0  0.00000000000E+00  0.00000000000E+00  0.54767988700E+03  0.54767988700E+03  0.25500000920E-02 0.  1.
       -2   -1    0    0    0  501  0.00000000000E+00  0.00000000000E+00 -0.45645668551E+03  0.45645668551E+03  0.25500000920E-02 0. -1.
    10030    2    1    2    0    0  0.00000000000E+00  0.00000000000E+00  0.91223201493E+02  0.10041365725E+04  0.99998429176E+03 0.  0.
        2    1    3    3  502    0 -0.27358589319E+03  0.41841569301E+03  0.37137790861E+02  0.50129846262E+03  0.25500000920E-02 0. -1.
       -2    1    3    3    0  502  0.27358589319E+03 -0.41841569301E+03  0.54085410632E+02  0.50283810989E+03  0.25500000920E-02 0.  1.
</event>
<event>
 5   0  0.2277570E-03  0.1002563E+04  0.7818609E-02  0.9305738E-01
       -2   -1    0    0    0  501  0.00000000000E+00  0.00000000000E+00  0.10650101619E+04  0.10650101619E+04  0.25500000920E-02 0.  1.
        2   -1    0    0  501    0  0.00000000000E+00  0.00000000000E+00 -0.23594438196E+03  0.23594438197E+03  0.25500000920E-02 0. -1.
    10030    2    1    2    0    0  0.00000000000E+00  0.00000000000E+00  0.82906577994E+03  0.13009545439E+04  0.10025630443E+04 0.  0.
        3    1    3    3  502    0 -0.17261703784E+03  0.32352381071E+03  0.85804645308E+03  0.93311736866E+03  0.10100000352E+00 0.  1.
       -3    1    3    3    0  502  0.17261703784E+03 -0.32352381071E+03 -0.28980673144E+02  0.36783717521E+03  0.10100000352E+00 0. -1.
</event>
<event>
 5   0  0.8680125E-04  0.1000483E+04  0.7818609E-02  0.9308016E-01
        4   -1    0    0  501    0  0.00000000000E+00  0.00000000000E+00  0.21056997288E+03  0.21057380269E+03  0.12699999809E+01 0. -1.
       -4   -1    0    0    0  501  0.00000000000E+00  0.00000000000E+00 -0.11883851419E+04  0.11883858205E+04  0.12699999809E+01 0.  1.
    10030    2    1    2    0    0  0.00000000000E+00  0.00000000000E+00 -0.97781516903E+03  0.13989596232E+04  0.10004826448E+04 0.  0.
        4    1    3    3  502    0  0.30614193734E+03  0.16867154300E+03 -0.98930365080E+03  0.10492360562E+04  0.12699999809E+01 0.  1.
       -4    1    3    3    0  502 -0.30614193734E+03 -0.16867154300E+03  0.11488481765E+02  0.34972356702E+03  0.12699999809E+01 0. -1.
</event>
<event>
 5   0  0.2204862E-03  0.1000096E+04  0.7818609E-02  0.9308439E-01
       -2   -1    0    0    0  501  0.00000000000E+00  0.00000000000E+00  0.99770868698E+03  0.99770868698E+03  0.25500000920E-02 0.  1.
        2   -1    0    0  501    0  0.00000000000E+00  0.00000000000E+00 -0.25062230061E+03  0.25062230063E+03  0.25500000920E-02 0. -1.
    10030    2    1    2    0    0  0.00000000000E+00  0.00000000000E+00  0.74708638636E+03  0.12483309876E+04  0.10000960883E+04 0.  0.
        1    1    3    3  502    0 -0.10701642628E+03 -0.45232176635E+03  0.14338258424E+03  0.48642169081E+03  0.50400001928E-02 0.  1.
       -1    1    3    3    0  502  0.10701642628E+03  0.45232176635E+03  0.60370380213E+03  0.76190929679E+03  0.50400001928E-02 0. -1.
</event>
<event>
 5   0  0.1353789E-03  0.1002892E+04  0.7818609E-02  0.9305378E-01
       -1   -1    0    0    0  501  0.00000000000E+00  0.00000000000E+00  0.39093128151E+03  0.39093128154E+03  0.50400001928E-02 0.  1.
        1   -1    0    0  501    0  0.00000000000E+00  0.00000000000E+00 -0.64320297625E+03  0.64320297627E+03  0.50400001928E-02 0. -1.
    10030    2    1    2    0    0  0.00000000000E+00  0.00000000000E+00 -0.25227169474E+03  0.10341342578E+04  0.10028921454E+04 0.  0.
        1    1    3    3  502    0  0.40170265036E+03 -0.18216557826E+03 -0.37210147818E+03  0.57706917029E+03  0.50400001928E-02 0. -1.
       -1    1    3    3    0  502 -0.40170265036E+03  0.18216557826E+03  0.11982978344E+03  0.45706508752E+03  0.50400001928E-02 0.  1.
</event>
<event>
 5   0  0.2284843E-03  0.9983709E+03  0.7818609E-02  0.9310333E-01
       -2   -1    0    0    0  501  0.00000000000E+00  0.00000000000E+00  0.23292341022E+03  0.23292341024E+03  0.25500000920E-02 0.  1.
        2   -1    0    0  501    0  0.00000000000E+00  0.00000000000E+00 -0.10698200260E+04  0.10698200260E+04  0.25500000920E-02 0. -1.
    10030    2    1    2    0    0  0.00000000000E+00  0.00000000000E+00 -0.83689661580E+03  0.13027434363E+04  0.99837093066E+03 0.  0.
        2    1    3    3  502    0 -0.45097293705E+03 -0.18753676248E+03 -0.55304289908E+03  0.73783675394E+03  0.25500000920E-02 0.  1.
       -2    1    3    3    0  502  0.45097293705E+03  0.18753676248E+03 -0.28385371672E+03  0.56490668233E+03  0.25500000920E-02 0. -1.
</event>
<event>
 5   0  0.1293716E-03  0.9929533E+03  0.7818609E-02  0.9316307E-01
       -1   -1    0    0    0  501  0.00000000000E+00  0.00000000000E+00  0.38603751643E+03  0.38603751647E+03  0.50400001928E-02 0.  1.
        1   -1    0    0  501    0  0.00000000000E+00  0.00000000000E+00 -0.63851060450E+03  0.63851060452E+03  0.50400001928E-02 0. -1.
    10030    2    1    2    0    0  0.00000000000E+00  0.00000000000E+00 -0.25247308807E+03  0.10245481210E+04  0.99295326780E+03 0.  0.
        3    1    3    3  502    0 -0.13539893224E+03  0.14585666162E+03  0.34307896486E+03  0.39662352795E+03  0.10100000352E+00 0.  1.
       -3    1    3    3    0  502  0.13539893224E+03 -0.14585666162E+03 -0.59555205293E+03  0.62792459304E+03  0.10100000352E+00 0. -1.
</event>
<event>
 5   0  0.2264577E-03  0.1002623E+04  0.7818609E-02  0.9305672E-01
       -2   -1    0    0    0  501  0.00000000000E+00  0.00000000000E+00  0.25431281927E+03  0.25431281929E+03  0.25500000920E-02 0. -1.
        2   -1    0    0  501    0  0.00000000000E+00  0.00000000000E+00 -0.98820539156E+03  0.98820539156E+03  0.25500000920E-02 0.  1.
    10030    2    1    2    0    0  0.00000000000E+00  0.00000000000E+00 -0.73389257229E+03  0.12425182109E+04  0.10026231578E+04 0.  0.
        5    1    3    3  502    0 -0.79731764686E+01  0.28915221004E+03 -0.87431792083E+03  0.92093783112E+03  0.46999998093E+01 0.  1.
       -5    1    3    3    0  502  0.79731764686E+01 -0.28915221004E+03  0.14042534854E+03  0.32158037973E+03  0.46999998093E+01 0. -1.
</event>
<event>
 5   0  0.1249195E-03  0.9981294E+03  0.7818609E-02  0.9310599E-01
       -1   -1    0    0    0  501  0.00000000000E+00  0.00000000000E+00  0.13470515273E+03  0.13470515283E+03  0.50400001928E-02 0. -1.
        1   -1    0    0  501    0  0.00000000000E+00  0.00000000000E+00 -0.18489685147E+04  0.18489685147E+04  0.50400001928E-02 0.  1.
    10030    2    1    2    0    0  0.00000000000E+00  0.00000000000E+00 -0.17142633619E+04  0.19836736675E+04  0.99812942301E+03 0.  0.
        2    1    3    3  502    0  0.31048417868E+03  0.37135621076E+03 -0.10985790708E+04  0.12004923303E+04  0.25500000920E-02 0.  1.
       -2    1    3    3    0  502 -0.31048417868E+03 -0.37135621076E+03 -0.61568429117E+03  0.78318133717E+03  0.25500000920E-02 0. -1.
</event>
<event>
 5   0  0.2255142E-03  0.1003331E+04  0.7818609E-02  0.9304899E-01
       -2   -1    0    0    0  501  0.00000000000E+00  0.00000000000E+00  0.29096396181E+03  0.29096396182E+03  0.25500000920E-02 0. -1.
        2   -1    0    0  501    0  0.00000000000E+00  0.00000000000E+00 -0.86494583000E+03  0.86494583000E+03  0.25500000920E-02 0.  1.
    10030    2    1    2    0    0  0.00000000000E+00  0.00000000000E+00 -0.57398186819E+03  0.11559097918E+04  0.10033305845E+04 0.  0.
        4    1    3    3  502    0  0.36234160163E+03  0.73115747022E+02  0.10374536597E+03  0.38392976258E+03  0.12699999809E+01 0. -1.
       -4    1    3    3    0  502 -0.36234160163E+03 -0.73115747022E+02 -0.67772723416E+03  0.77198002925E+03  0.12699999809E+01 0.  1.
</event>
<event>
 5   0  0.1353789E-03  0.9821126E+03  0.7818609E-02  0.9328384E-01
        1   -1    0    0  501    0  0.00000000000E+00  0.00000000000E+00  0.71719045532E+03  0.71719045534E+03  0.50400001928E-02 0. -1.
       -1   -1    0    0    0  501  0.00000000000E+00  0.00000000000E+00 -0.33622352750E+03  0.33622352753E+03  0.50400001928E-02 0.  1.
    10030    2    1    2    0    0  0.00000000000E+00  0.00000000000E+00  0.38096692783E+03  0.10534139829E+04  0.98211263062E+03 0.  0.
        1    1    3    3  502    0 -0.31445141326E+02  0.54707712396E+02 -0.33185683729E+03  0.33780274006E+03  0.50400001928E-02 0.  1.
       -1    1    3    3    0  502  0.31445141326E+02 -0.54707712396E+02  0.71282376512E+03  0.71561124282E+03  0.50400001928E-02 0. -1.
</event>
<event>
 5   0  0.2204862E-03  0.9980027E+03  0.7818609E-02  0.9310738E-01
       -2   -1    0    0    0  501  0.00000000000E+00  0.00000000000E+00  0.88765033625E+02  0.88765033662E+02  0.25500000920E-02 0. -1.
        2   -1    0    0  501    0  0.00000000000E+00  0.00000000000E+00 -0.28051851404E+04  0.28051851404E+04  0.25500000920E-02 0.  1.
    10030    2    1    2    0    0  0.00000000000E+00  0.00000000000E+00 -0.27164201068E+04  0.28939501741E+04  0.99800271216E+03 0.  0.
        1    1    3    3  502    0 -0.11087612511E+03 -0.82174199480E+02  0.32324953084E+02  0.14174278393E+03  0.50400001928E-02 0. -1.
       -1    1    3    3    0  502  0.11087612511E+03  0.82174199480E+02 -0.27487450599E+04  0.27522073901E+04  0.50400001928E-02 0.  1.
</event>
<event>
 5   0  0.1293575E-03  0.1000325E+04  0.7818609E-02  0.9308189E-01
        1   -1    0    0  501    0  0.00000000000E+00  0.00000000000E+00  0.56536756022E+03  0.56536756025E+03  0.50400001928E-02 0.  1.
       -1   -1    0    0    0  501  0.00000000000E+00  0.00000000000E+00 -0.44247751699E+03  0.44247751702E+03  0.50400001928E-02 0. -1.
    10030    2    1    2    0    0  0.00000000000E+00  0.00000000000E+00  0.12289004324E+03  0.10078450773E+04  0.10003248158E+04 0.  0.
        4    1    3    3  502    0 -0.32333145738E+03 -0.37716839832E+03  0.30299296566E+01  0.49679978402E+03  0.12699999809E+01 0.  1.
       -4    1    3    3    0  502  0.32333145738E+03  0.37716839832E+03  0.11986011358E+03  0.51104529325E+03  0.12699999809E+01 0. -1.
</event>
<event>
 5   0  0.8680125E-04  0.9874432E+03  0.7818609E-02  0.9322425E-01
        3   -1    0    0  501    0  0.00000000000E+00  0.00000000000E+00  0.13321540179E+04  0.13321540217E+04  0.10100000352E+00 0.  1.
       -3   -1    0    0    0  501  0.00000000000E+00  0.00000000000E+00 -0.18298260889E+03  0.18298263677E+03  0.10100000352E+00 0. -1.
    10030    2    1    2    0    0  0.00000000000E+00  0.00000000000E+00  0.11491714090E+04  0.15151366585E+04  0.98744324731E+03 0.  0.
        1    1    3    3  502    0 -0.16987471909E+03 -0.79600096473E+01  0.12857951178E+04  0.12969926241E+04  0.50400001928E-02 0.  1.
       -1    1    3    3    0  502  0.16987471909E+03  0.79600096473E+01 -0.13662370877E+03  0.21814403444E+03  0.50400001928E-02 0. -1.
</event>
<event>
 5   0  0.2277570E-03  0.1000565E+04  0.7818609E-02  0.9307926E-01
        2   -1    0    0  501    0  0.00000000000E+00  0.00000000000E+00  0.10493972769E+04  0.10493972769E+04  0.25500000920E-02 0. -1.
       -2   -1    0    0    0  501  0.00000000000E+00  0.00000000000E+00 -0.23850110902E+03  0.23850110903E+03  0.25500000920E-02 0.  1.
    10030    2    1    2    0    0  0.00000000000E+00  0.00000000000E+00  0.81089616788E+03  0.12878983859E+04  0.10005646693E+04 0.  0.
        3    1    3    3  502    0  0.26167229496E+03  0.24769420314E+03 -0.41290569741E+02  0.36267027665E+03  0.10100000352E+00 0.  1.
       -3    1    3    3    0  502 -0.26167229496E+03 -0.24769420314E+03  0.85218673762E+03  0.92522810928E+03  0.10100000352E+00 0. -1.
</event>
<event>
 5   0  0.1293716E-03  0.9962456E+03  0.7818609E-02  0.9312672E-01
        1   -1    0    0  501    0  0.00000000000E+00  0.00000000000E+00  0.47315580435E+03  0.47315580437E+03  0.50400001928E-02 0.  1.
       -1   -1    0    0    0  501  0.00000000000E+00  0.00000000000E+00 -0.52440725775E+03  0.52440725777E+03  0.50400001928E-02 0. -1.
    10030    2    1    2    0    0  0.00000000000E+00  0.00000000000E+00 -0.51251453404E+02  0.99756306215E+03  0.99624562809E+03 0.  0.
        3    1    3    3  502    0 -0.16805116948E+03 -0.14187829555E+03 -0.47315711559E+03  0.52177419689E+03  0.10100000352E+00 0. -1.
       -3    1    3    3    0  502  0.16805116948E+03  0.14187829555E+03  0.42190566218E+03  0.47578886525E+03  0.10100000352E+00 0.  1.
</event>
<event>
 5   0  0.2204862E-03  0.1000977E+04  0.7818609E-02  0.9307474E-01
        2   -1    0    0  501    0  0.00000000000E+00  0.00000000000E+00  0.85044798272E+03  0.85044798272E+03  0.25500000920E-02 0.  1.
       -2   -1    0    0    0  501  0.00000000000E+00  0.00000000000E+00 -0.29453716460E+03  0.29453716461E+03  0.25500000920E-02 0. -1.
    10030    2    1    2    0    0  0.00000000000E+00  0.00000000000E+00  0.55591081812E+03  0.11449851473E+04  0.10009765981E+04 0.  0.
        1    1    3    3  502    0 -0.41118489395E+03 -0.13835980365E+03  0.56340053586E+03  0.71108130064E+03  0.50400001928E-02 0.  1.
       -1    1    3    3    0  502  0.41118489395E+03  0.13835980365E+03 -0.74897177377E+01  0.43390384669E+03  0.50400001928E-02 0. -1.
</event>
<event>
 5   0  0.1293575E-03  0.1001549E+04  0.7818609E-02  0.9306848E-01
       -1   -1    0    0    0  501  0.00000000000E+00  0.00000000000E+00  0.30209746043E+03  0.30209746047E+03  0.50400001928E-02 0. -1.
        1   -1    0    0  501    0  0.00000000000E+00  0.00000000000E+00 -0.83011269184E+03  0.83011269186E+03  0.50400001928E-02 0.  1.
    10030    2    1    2    0    0  0.00000000000E+00  0.00000000000E+00 -0.52801523141E+03  0.11322101523E+04  0.10015486730E+04 0.  0.
        4    1    3    3  502    0 -0.33523214540E+03 -0.19974633411E+03  0.90773232556E+02  0.40065019898E+03  0.12699999809E+01 0. -1.
       -4    1    3    3    0  502  0.33523214540E+03  0.19974633411E+03 -0.61878846397E+03  0.73155995335E+03  0.12699999809E+01 0.  1.
</event>
<event>
 5   0  0.2277570E-03  0.9994678E+03  0.7818609E-02  0.9309129E-01
       -2   -1    0    0    0  501  0.00000000000E+00  0.00000000000E+00  0.15567435860E+03  0.15567435862E+03  0.25500000920E-02 0. -1.
        2   -1    0    0  501    0  0.00000000000E+00  0.00000000000E+00 -0.16042074676E+04  0.16042074676E+04  0.25500000920E-02 0.  1.
    10030    2    1    2    0    0  0.00000000000E+00  0.00000000000E+00 -0.14485331090E+04  0.17598818262E+04  0.99946779557E+03 0.  0.
        3    1    3    3  502    0  0.24241922215E+02 -0.20221756371E+03  0.79281282871E+02  0.21855238704E+03  0.10100000352E+00 0. -1.
       -3    1    3    3    0  502 -0.24241922215E+02  0.20221756371E+03 -0.15278143919E+04  0.15413294392E+04  0.10100000352E+00 0.  1.
</event>
<event>
 5   0  0.1293575E-03  0.9977763E+03  0.7818609E-02  0.9310987E-01
        1   -1    0    0  501    0  0.00000000000E+00  0.00000000000E+00  0.85087612948E+03  0.85087612949E+03  0.50400001928E-02 0. -1.
       -1   -1    0    0    0  501  0.00000000000E+00  0.00000000000E+00 -0.29250955674E+03  0.29250955678E+03  0.50400001928E-02 0.  1.
    10030    2    1    2    0    0  0.00000000000E+00  0.00000000000E+00  0.55836657274E+03  0.11433856863E+04  0.99777632665E+03 0.  0.
        4    1    3    3  502    0  0.25440044313E+03 -0.42134038771E+03  0.37256444400E+03  0.61729505556E+03  0.12699999809E+01 0. -1.
       -4    1    3    3    0  502 -0.25440044313E+03  0.42134038771E+03  0.18580212874E+03  0.52609063072E+03  0.12699999809E+01 0.  1.
</event>
<event>
 5   0  0.1285769E-03  0.9994995E+03  0.7818609E-02  0.9309094E-01
        1   -1    0    0  501    0  0.00000000000E+00  0.00000000000E+00  0.75813621365E+03  0.75813621366E+03  0.50400001928E-02 0. -1.
       -1   -1    0    0    0  501  0.00000000000E+00  0.00000000000E+00 -0.32942604607E+03  0.32942604611E+03  0.50400001928E-02 0.  1.
    10030    2    1    2    0    0  0.00000000000E+00  0.00000000000E+00  0.42871016758E+03  0.10875622598E+04  0.99949950530E+03 0.  0.
        5    1    3    3  502    0 -0.78247589012E+02 -0.43043180844E+03  0.47715822764E+03  0.64737646783E+03  0.46999998093E+01 0. -1.
       -5    1    3    3    0  502  0.78247589012E+02  0.43043180844E+03 -0.48448060069E+02  0.44018579194E+03  0.46999998093E+01 0.  1.
</event>
<event>
 5   0  0.1293575E-03  0.9999342E+03  0.7818609E-02  0.9308617E-01
       -1   -1    0    0    0  501  0.00000000000E+00  0.00000000000E+00  0.19999116510E+03  0.19999116516E+03  0.50400001928E-02 0. -1.
        1   -1    0    0  501    0  0.00000000000E+00  0.00000000000E+00 -0.12498907938E+04  0.12498907938E+04  0.50400001928E-02 0.  1.
    10030    2    1    2    0    0  0.00000000000E+00  0.00000000000E+00 -0.10498996287E+04  0.14498819590E+04  0.99993423013E+03 0.  0.
        4    1    3    3  502    0 -0.73557951619E+01  0.34220302408E+03  0.34639514775E+01  0.34230195628E+03  0.12699999809E+01 0. -1.
       -4    1    3    3    0  502  0.73557951619E+01 -0.34220302408E+03 -0.10533635802E+04  0.11075800027E+04  0.12699999809E+01 0.  1.
</event>
<event>
 5   0  0.1293716E-03  0.9978642E+03  0.7818609E-02  0.9310890E-01
       -1   -1    0    0    0  501  0.00000000000E+00  0.00000000000E+00  0.27981434193E+03  0.27981434197E+03  0.50400001928E-02 0.  1.
        1   -1    0    0  501    0  0.00000000000E+00  0.00000000000E+00 -0.88963718696E+03  0.88963718698E+03  0.50400001928E-02 0. -1.
    10030    2    1    2    0    0  0.00000000000E+00  0.00000000000E+00 -0.60982284504E+03  0.11694515290E+04  0.99786420731E+03 0.  0.
        3    1    3    3  502    0 -0.40857006398E+02 -0.49723835213E+03 -0.29994475999E+03  0.58213584587E+03  0.10100000352E+00 0. -1.
       -3    1    3    3    0  502  0.40857006398E+02  0.49723835213E+03 -0.30987808505E+03  0.58731568308E+03  0.10100000352E+00 0.  1.
</event>
<event>
 5   0  0.2284843E-03  0.1003387E+04  0.7818609E-02  0.9304838E-01
        2   -1    0    0  501    0  0.00000000000E+00  0.00000000000E+00  0.86403158965E+03  0.86403158965E+03  0.25500000920E-02 0. -1.
       -2   -1    0    0    0  501  0.00000000000E+00  0.00000000000E+00 -0.29130461991E+03  0.29130461992E+03  0.25500000920E-02 0.  1.
    10030    2    1    2    0    0  0.00000000000E+00  0.00000000000E+00  0.57272696973E+03  0.11553362096E+04  0.10033870516E+04 0.  0.
        2    1    3    3  502    0 -0.48047912338E+03  0.14406392412E+03  0.27595004522E+03  0.57250592110E+03  0.25500000920E-02 0.  1.
       -2    1    3    3    0  502  0.48047912338E+03 -0.14406392412E+03  0.29677692452E+03  0.58283028848E+03  0.25500000920E-02 0. -1.
</event>
<event>
 5   0  0.2255142E-03  0.1001827E+04  0.7818609E-02  0.9306543E-01
       -2   -1    0    0    0  501  0.00000000000E+00  0.00000000000E+00  0.59956648263E+03  0.59956648264E+03  0.25500000920E-02 0. -1.
        2   -1    0    0  501    0  0.00000000000E+00  0.00000000000E+00 -0.41849329433E+03  0.41849329434E+03  0.25500000920E-02 0.  1.
    10030    2    1    2    0    0  0.00000000000E+00  0.00000000000E+00  0.18107318830E+03  0.10180597770E+04  0.10018274352E+04 0.  0.
        4    1    3    3  502    0  0.17809654267E+03  0.43666260869E+03 -0.81079340729E+02  0.47850609686E+03  0.12699999809E+01 0.  1.
       -4    1    3    3    0  502 -0.17809654267E+03 -0.43666260869E+03  0.26215252903E+03  0.53955368011E+03  0.12699999809E+01 0. -1.
</event>
<event>
 5   0  0.2264577E-03  0.9920957E+03  0.7818609E-02  0.9317257E-01
        2   -1    0    0  501    0  0.00000000000E+00  0.00000000000E+00  0.10959973326E+04  0.10959973326E+04  0.25500000920E-02 0. -1.
       -2   -1    0    0    0  501  0.00000000000E+00  0.00000000000E+00 -0.22451103235E+03  0.22451103236E+03  0.25500000920E-02 0.  1.
    10030    2    1    2    0    0  0.00000000000E+00  0.00000000000E+00  0.87148630021E+03  0.13205083649E+04  0.99209574657E+03 0.  0.
        5    1    3    3  502    0 -0.21838711232E+03 -0.44479293022E+02  0.10255709121E+04  0.10495185202E+04  0.46999998093E+01 0. -1.
       -5    1    3    3    0  502  0.21838711232E+03  0.44479293022E+02 -0.15408461192E+03  0.27098984477E+03  0.46999998093E+01 0.  1.
</event>
<event>
 5   0  0.8680125E-04  0.1035995E+04  0.7818609E-02  0.9269924E-01
        4   -1    0    0  501    0  0.00000000000E+00  0.00000000000E+00  0.28206197037E+03  0.28206482948E+03  0.12699999809E+01 0.  1.
       -4   -1    0    0    0  501  0.00000000000E+00  0.00000000000E+00 -0.95127779563E+03  0.95127864339E+03  0.12699999809E+01 0. -1.
    10030    2    1    2    0    0  0.00000000000E+00  0.00000000000E+00 -0.66921582526E+03  0.12333434729E+04  0.10359953191E+04 0.  0.
        2    1    3    3  502    0  0.17777813309E+03 -0.35370993302E+03 -0.73232075732E+03  0.83247190519E+03  0.25500000920E-02 0. -1.
       -2    1    3    3    0  502 -0.17777813309E+03  0.35370993302E+03  0.63104932061E+02  0.40087156768E+03  0.25500000920E-02 0.  1.
</event>
<event>
 5   0  0.1293575E-03  0.9954988E+03  0.7818609E-02  0.9313495E-01
       -1   -1    0    0    0  501  0.00000000000E+00  0.00000000000E+00  0.22962314009E+03  0.22962314014E+03  0.50400001928E-02 0. -1.
        1   -1    0    0  501    0  0.00000000000E+00  0.00000000000E+00 -0.10789612646E+04  0.10789612646E+04  0.50400001928E-02 0.  1.
    10030    2    1    2    0    0  0.00000000000E+00  0.00000000000E+00 -0.84933812448E+03  0.13085844047E+04  0.99549881696E+03 0.  0.
        4    1    3    3  502    0  0.22735745149E+03 -0.37088568734E+03 -0.10671934918E+03  0.44792659690E+03  0.12699999809E+01 0. -1.
       -4    1    3    3    0  502 -0.22735745149E+03  0.37088568734E+03 -0.74261877530E+03  0.86065780781E+03  0.12699999809E+01 0.  1.
</event>
<event>
 5   0  0.1353789E-03  0.1003073E+04  0.7818609E-02  0.9305181E-01
        1   -1    0    0  501    0  0.00000000000E+00  0.00000000000E+00  0.54815353260E+03  0.54815353262E+03  0.50400001928E-02 0. -1.
       -1   -1    0    0    0  501  0.00000000000E+00  0.00000000000E+00 -0.45888380383E+03  0.45888380386E+03  0.50400001928E-02 0.  1.
    10030    2    1    2    0    0  0.00000000000E+00  0.00000000000E+00  0.89269728764E+02  0.10070373365E+04  0.10030728351E+04 0.  0.
        1    1    3    3  502    0  0.12945807207E+03  0.45153449507E+02  0.52897352130E+03  0.54645330330E+03  0.50400001928E-02 0. -1.
       -1    1    3    3    0  502 -0.12945807207E+03 -0.45153449507E+02 -0.43970379254E+03  0.46058403318E+03  0.50400001928E-02 0.  1.
</event>
<event>
 5   0  0.2277570E-03  0.1000018E+04  0.7818609E-02  0.9308525E-01
       -2   -1    0    0    0  501  0.00000000000E+00  0.00000000000E+00  0.68591258418E+03  0.68591258419E+03  0.25500000920E-02 0.  1.
        2   -1    0    0  501    0  0.00000000000E+00  0.00000000000E+00 -0.36449139877E+03  0.36449139878E+03  0.25500000920E-02 0. -1.
    10030    2    1    2    0    0  0.00000000000E+00  0.00000000000E+00  0.32142118541E+03  0.10504039830E+04  0.10000184743E+04 0.  0.
        3    1    3    3  502    0  0.59796309073E+02  0.81250943209E+02 -0.35369042857E+03  0.36779647064E+03  0.10100000352E+00 0. -1.
       -3    1    3    3    0  502 -0.59796309073E+02 -0.81250943209E+02  0.67511161398E+03  0.68260751233E+03  0.10100000352E+00 0.  1.
</event>
<event>
 5   0  0.2204862E-03  0.9975840E+03  0.7818609E-02  0.9311199E-01
        2   -1    0    0  501    0  0.00000000000E+00  0.00000000000E+00  0.53271331464E+03  0.53271331465E+03  0.25500000920E-02 0.  1.
       -2   -1    0    0    0  501  0.00000000000E+00  0.00000000000E+00 -0.46703064186E+03  0.46703064187E+03  0.25500000920E-02 0. -1.
    10030    2    1    2    0    0  0.00000000000E+00  0.00000000000E+00  0.65682672777E+02  0.99974395652E+03  0.99758396393E+03 0.  0.
        1    1    3    3  502    0  0.34301443942E+03  0.19365127442E+03 -0.27381748772E+03  0.47972464847E+03  0.50400001928E-02 0. -1.
       -1    1    3    3    0  502 -0.34301443942E+03 -0.19365127442E+03  0.33950016050E+03  0.52001930805E+03  0.50400001928E-02 0.  1.
</event>
<event>
 5   0  0.8680125E-04  0.9970198E+03  0.7818609E-02  0.9311820E-01
        3   -1    0    0  501    0  0.00000000000E+00  0.00000000000E+00  0.10907318860E+03  0.10907323536E+03  0.10100000352E+00 0.  1.
       -3   -1    0    0    0  501  0.00000000000E+00  0.00000000000E+00 -0.22783971722E+04  0.22783971745E+04  0.10100000352E+00 0. -1.
    10030    2    1    2    0    0  0.00000000000E+00  0.00000000000E+00 -0.21693239836E+04  0.23874704098E+04  0.99701976503E+03 0.  0.
        4    1    3    3  502    0  0.44960251920E+03 -0.77085726112E+02 -0.15661260145E+04  0.16312072035E+04  0.12699999809E+01 0. -1.
       -4    1    3    3    0  502 -0.44960251920E+03  0.77085726112E+02 -0.60319796912E+03  0.75626320636E+03  0.12699999809E+01 0.  1.
</event>
<event>
 5   0  0.2264577E-03  0.1004726E+04  0.7818609E-02  0.9303377E-01
       -2   -1    0    0    0  501  0.00000000000E+00  0.00000000000E+00  0.27689791313E+03  0.27689791314E+03  0.25500000920E-02 0. -1.
        2   -1    0    0  501    0  0.00000000000E+00  0.00000000000E+00 -0.91141306811E+03  0.91141306811E+03  0.25500000920E-02 0.  1.
    10030    2    1    2    0    0  0.00000000000E+00  0.00000000000E+00 -0.63451515498E+03  0.11883109813E+04  0.10047255875E+04 0.  0.
        5    1    3    3  502    0  0.39763108503E+03 -0.80140844859E+01  0.45688894477E+02  0.40035518032E+03  0.46999998093E+01 0. -1.
       -5    1    3    3    0  502 -0.39763108503E+03  0.80140844859E+01 -0.68020404945E+03  0.78795580093E+03  0.46999998093E+01 0.  1.
</event>
<event>
 5   0  0.1293716E-03  0.9886990E+03  0.7818609E-02  0.9321027E-01
        1   -1    0    0  501    0  0.00000000000E+00  0.00000000000E+00  0.29306224219E+03  0.29306224224E+03  0.50400001928E-02 0.  1.
       -1   -1    0    0    0  501  0.00000000000E+00  0.00000000000E+00 -0.83388918956E+03  0.83388918958E+03  0.50400001928E-02 0. -1.
    10030    2    1    2    0    0  0.00000000000E+00  0.00000000000E+00 -0.54082694737E+03  0.11269514318E+04  0.98869901520E+03 0.  0.
        3    1    3    3  502    0 -0.84238666702E+02 -0.11763399046E+03 -0.80921505842E+03  0.82204800934E+03  0.10100000352E+00 0. -1.
       -3    1    3    3    0  502  0.84238666702E+02  0.11763399046E+03  0.26838811106E+03  0.30490342247E+03  0.10100000352E+00 0.  1.
</event>
<event>
 5   0  0.8680125E-04  0.1001930E+04  0.7818609E-02  0.9306430E-01
       -3   -1    0    0    0  501  0.00000000000E+00  0.00000000000E+00  0.87628944881E+03  0.87628945463E+03  0.10100000352E+00 0.  1.
        3   -1    0    0  501    0  0.00000000000E+00  0.00000000000E+00 -0.28639641665E+03  0.28639643446E+03  0.10100000352E+00 0. -1.
    10030    2    1    2    0    0  0.00000000000E+00  0.00000000000E+00  0.58989303216E+03  0.11626858891E+04  0.10019304803E+04 0.  0.
        1    1    3    3  502    0  0.33418766400E+03 -0.10627499328E+03  0.71010461632E+03  0.79197495864E+03  0.50400001928E-02 0.  1.
       -1    1    3    3    0  502 -0.33418766400E+03  0.10627499328E+03 -0.12021158416E+03  0.37071093045E+03  0.50400001928E-02 0. -1.
</event>
<event>
 5   0  0.2284843E-03  0.9952313E+03  0.7818609E-02  0.9313791E-01
        2   -1    0    0  501    0  0.00000000000E+00  0.00000000000E+00  0.80824140146E+03  0.80824140146E+03  0.25500000920E-02 0. -1.
       -2   -1    0    0    0  501  0.00000000000E+00  0.00000000000E+00 -0.30637049963E+03  0.30637049964E+03  0.25500000920E-02 0.  1.
    10030    2    1    2    0    0  0.00000000000E+00  0.00000000000E+00  0.50187090183E+03  0.11146119011E+04  0.99523127361E+03 0.  0.
        2    1    3    3  502    0 -0.25451649410E+03 -0.39730207372E+03  0.73877566185E+02  0.47758295442E+03  0.25500000920E-02 0. -1.
       -2    1    3    3    0  502  0.25451649410E+03  0.39730207372E+03  0.42799333564E+03  0.63702894669E+03  0.25500000920E-02 0.  1.
</event>
<event>
 5   0  0.1353789E-03  0.1003874E+04  0.7818609E-02  0.9304306E-01
        1   -1    0    0  501    0  0.00000000000E+00  0.00000000000E+00  0.38574044462E+03  0.38574044465E+03  0.50400001928E-02 0. -1.
       -1   -1    0    0    0  501  0.00000000000E+00  0.00000000000E+00 -0.65313493880E+03  0.65313493882E+03  0.50400001928E-02 0.  1.
    10030    2    1    2    0    0  0.00000000000E+00  0.00000000000E+00 -0.26739449418E+03  0.10388753835E+04  0.10038736210E+04 0.  0.
        1    1    3    3  502    0  0.22924482451E+03  0.24564661973E+03 -0.51958613595E+03  0.61876102338E+03  0.50400001928E-02 0.  1.
       -1    1    3    3    0  502 -0.22924482451E+03 -0.24564661973E+03  0.25219164177E+03  0.42011436009E+03  0.50400001928E-02 0. -1.
</event>
<event>
 5   0  0.2277570E-03  0.1017231E+04  0.7818609E-02  0.9289846E-01
        2   -1    0    0  501    0  0.00000000000E+00  0.00000000000E+00  0.53360109931E+03  0.53360109931E+03  0.25500000920E-02 0. -1.
       -2   -1    0    0    0  501  0.00000000000E+00  0.00000000000E+00 -0.48479945785E+03  0.48479945785E+03  0.25500000920E-02 0.  1.
    10030    2    1    2    0    0  0.00000000000E+00  0.00000000000E+00  0.48801641460E+02  0.10184005572E+04  0.10172306005E+04 0.  0.
        3    1    3    3  502    0 -0.37192551031E+03  0.34687011359E+03  0.30893071756E+02  0.50951138653E+03  0.10100000352E+00 0.  1.
       -3    1    3    3    0  502  0.37192551031E+03 -0.34687011359E+03  0.17908569705E+02  0.50888917064E+03  0.10100000352E+00 0. -1.
</event>
<event>
 5   0  0.2284843E-03  0.9957172E+03  0.7818609E-02  0.9313255E-01
       -2   -1    0    0    0  501  0.00000000000E+00  0.00000000000E+00  0.21295073941E+03  0.21295073942E+03  0.25500000920E-02 0. -1.
        2   -1    0    0  501    0  0.00000000000E+00  0.00000000000E+00 -0.11639460962E+04  0.11639460962E+04  0.25500000920E-02 0.  1.
    10030    2    1    2    0    0  0.00000000000E+00  0.00000000000E+00 -0.95099535675E+03  0.13768968356E+04  0.99571719242E+03 0.  0.
        2    1    3    3  502    0  0.15688694761E+03 -0.25831790343E+03 -0.10225796908E+04  0.10663071216E+04  0.25500000920E-02 0.  1.
       -2    1    3    3    0  502 -0.15688694761E+03  0.25831790343E+03  0.71584334012E+02  0.31058971401E+03  0.25500000920E-02 0. -1.
</event>
<event>
 5   0  0.1353789E-03  0.1000613E+04  0.7818609E-02  0.9307873E-01
       -1   -1    0    0    0  501  0.00000000000E+00  0.00000000000E+00  0.36257397976E+03  0.36257397980E+03  0.50400001928E-02 0.  1.
        1   -1    0    0  501    0  0.00000000000E+00  0.00000000000E+00 -0.69035954556E+03  0.69035954557E+03  0.50400001928E-02 0. -1.
    10030    2    1    2    0    0  0.00000000000E+00  0.00000000000E+00 -0.32778556579E+03  0.10529335254E+04  0.10006126282E+04 0.  0.
        1    1    3    3  502    0 -0.46784954863E+03 -0.85184566537E+02 -0.30738877840E+00  0.47554148614E+03  0.50400001928E-02 0. -1.
       -1    1    3    3    0  502  0.46784954863E+03  0.85184566537E+02 -0.32747817701E+03  0.57739203923E+03  0.50400001928E-02 0.  1.
</event>
<event>
 5   0  0.2264577E-03  0.1001653E+04  0.7818609E-02  0.9306734E-01
        2   -1    0    0  501    0  0.00000000000E+00  0.00000000000E+00  0.67324239274E+03  0.67324239275E+03  0.25500000920E-02 0. -1.
       -2   -1    0    0    0  501  0.00000000000E+00  0.00000000000E+00 -0.37256572582E+03  0.37256572583E+03  0.25500000920E-02 0.  1.
    10030    2    1    2    0    0  0.00000000000E+00  0.00000000000E+00  0.30067666692E+03  0.10458081186E+04  0.10016527157E+04 0.  0.
        5    1    3    3  502    0 -0.46469616008E+03 -0.17705685520E+03  0.21222433537E+03  0.54069668917E+03  0.46999998093E+01 0. -1.
       -5    1    3    3    0  502  0.46469616008E+03  0.17705685520E+03  0.88452331553E+02  0.50511142941E+03  0.46999998093E+01 0.  1.
</event>
<event>
 5   0  0.2284843E-03  0.9975424E+03  0.7818609E-02  0.9311244E-01
        2   -1    0    0  501    0  0.00000000000E+00  0.00000000000E+00  0.15018061021E+04  0.15018061021E+04  0.25500000920E-02 0. -1.
       -2   -1    0    0    0  501  0.00000000000E+00  0.00000000000E+00 -0.16564903223E+03  0.16564903225E+03  0.25500000920E-02 0.  1.
    10030    2    1    2    0    0  0.00000000000E+00  0.00000000000E+00  0.13361570699E+04  0.16674551344E+04  0.99754243505E+03 0.  0.
        2    1    3    3  502    0 -0.17202304598E+03 -0.46085084773E+03  0.80589174355E+03  0.94415937984E+03  0.25500000920E-02 0. -1.
       -2    1    3    3    0  502  0.17202304598E+03  0.46085084773E+03  0.53026532632E+03  0.72329575452E+03  0.25500000920E-02 0.  1.
</event>
<event>
 5   0  0.2264577E-03  0.1003326E+04  0.7818609E-02  0.9304905E-01
        2   -1    0    0  501    0  0.00000000000E+00  0.00000000000E+00  0.88821754238E+03  0.88821754238E+03  0.25500000920E-02 0.  1.
       -2   -1    0    0    0  501  0.00000000000E+00  0.00000000000E+00 -0.28333787297E+03  0.28333787298E+03  0.25500000920E-02 0. -1.
    10030    2    1    2    0    0  0.00000000000E+00  0.00000000000E+00  0.60487966941E+03  0.11715554154E+04  0.10033258079E+04 0.  0.
        5    1    3    3  502    0 -0.27812385836E+03 -0.40617803680E+03  0.18977249254E+03  0.52760701956E+03  0.46999998093E+01 0.  1.
       -5    1    3    3    0  502  0.27812385836E+03  0.40617803680E+03  0.41510717687E+03  0.64394839580E+03  0.46999998093E+01 0. -1.
</event>
<event>
 5   0  0.1353789E-03  0.9917602E+03  0.7818609E-02  0.9317628E-01
        1   -1    0    0  501    0  0.00000000000E+00  0.00000000000E+00  0.59027543348E+03  0.59027543350E+03  0.50400001928E-02 0. -1.
       -1   -1    0    0    0  501  0.00000000000E+00  0.00000000000E+00 -0.41658025814E+03  0.41658025818E+03  0.50400001928E-02 0.  1.
    10030    2    1    2    0    0  0.00000000000E+00  0.00000000000E+00  0.17369517533E+03  0.10068556917E+04  0.99176023812E+03 0.  0.
        1    1    3    3  502    0 -0.99043904192E+02 -0.39040465240E+03 -0.20681565265E+03  0.45276727110E+03  0.50400001928E-02 0.  1.
       -1    1    3    3    0  502  0.99043904192E+02  0.39040465240E+03  0.38051082798E+03  0.55408842057E+03  0.50400001928E-02 0. -1.
</event>
<event>
 5   0  0.2255142E-03  0.1000738E+04  0.7818609E-02  0.9307736E-01
        2   -1    0    0  501    0  0.00000000000E+00  0.00000000000E+00  0.10625338066E+04  0.10625338066E+04  0.25500000920E-02 0.  1.
       -2   -1    0    0    0  501  0.00000000000E+00  0.00000000000E+00 -0.23563405217E+03  0.23563405218E+03  0.25500000920E-02 0. -1.
    10030    2    1    2    0    0  0.00000000000E+00  0.00000000000E+00  0.82689975442E+03  0.12981678588E+04  0.10007380205E+04 0.  0.
        4    1    3    3  502    0  0.19037857498E+03 -0.40071882604E+03  0.11326978011E+03  0.45787687792E+03  0.12699999809E+01 0. -1.
       -4    1    3    3    0  502 -0.19037857498E+03  0.40071882604E+03  0.71362997431E+03  0.84029098085E+03  0.12699999809E+01 0.  1.
</event>
<event>
 5   0  0.2277570E-03  0.9947095E+03  0.7818609E-02  0.9314366E-01
        2   -1    0    0  501    0  0.00000000000E+00  0.00000000000E+00  0.11593572030E+04  0.11593572030E+04  0.25500000920E-02 0. -1.
       -2   -1    0    0    0  501  0.00000000000E+00  0.00000000000E+00 -0.21336112840E+03  0.21336112842E+03  0.25500000920E-02 0.  1.
    10030    2    1    2    0    0  0.00000000000E+00  0.00000000000E+00  0.94599607457E+03  0.13727183314E+04  0.99470952757E+03 0.  0.
        3    1    3    3  502    0 -0.27307388519E+03  0.41366272642E+03  0.41650899367E+03  0.64743026653E+03  0.10100000352E+00 0. -1.
       -3    1    3    3    0  502  0.27307388519E+03 -0.41366272642E+03  0.52948708090E+03  0.72528806487E+03  0.10100000352E+00 0.  1.
</event>
<event>
 5   0  0.8680125E-04  0.9922039E+03  0.7818609E-02  0.9317137E-01
       -4   -1    0    0    0  501  0.00000000000E+00  0.00000000000E+00  0.30791497718E+03  0.30791759623E+03  0.12699999809E+01 0.  1.
        4   -1    0    0  501    0  0.00000000000E+00  0.00000000000E+00 -0.79929573402E+03  0.79929674297E+03  0.12699999809E+01 0. -1.
    10030    2    1    2    0    0  0.00000000000E+00  0.00000000000E+00 -0.49138075685E+03  0.11072143392E+04  0.99220388265E+03 0.  0.
        2    1    3    3  502    0  0.28133251579E+03  0.39734093196E+02 -0.69951271470E+03  0.75501312614E+03  0.25500000920E-02 0. -1.
       -2    1    3    3    0  502 -0.28133251579E+03 -0.39734093196E+02  0.20813195786E+03  0.35220121307E+03  0.25500000920E-02 0.  1.
</event>
<event>
 5   0  0.2277570E-03  0.1005542E+04  0.7818609E-02  0.9302487E-01
        2   -1    0    0  501    0  0.00000000000E+00  0.00000000000E+00  0.61832127512E+03  0.61832127512E+03  0.25500000920E-02 0.  1.
       -2   -1    0    0    0  501  0.00000000000E+00  0.00000000000E+00 -0.40881458181E+03  0.40881458182E+03  0.25500000920E-02 0. -1.
    10030    2    1    2    0    0  0.00000000000E+00  0.00000000000E+00  0.20950669330E+03  0.10271358569E+04  0.10055421493E+04 0.  0.
        3    1    3    3  502    0 -0.48799557429E+03  0.62584345588E+02  0.21052537389E+03  0.53514243346E+03  0.10100000352E+00 0.  1.
       -3    1    3    3    0  502  0.48799557429E+03 -0.62584345588E+02 -0.10186805868E+01  0.49199342348E+03  0.10100000352E+00 0. -1.
</event>
<event>
 5   0  0.1293716E-03  0.9983138E+03  0.7818609E-02  0.9310396E-01
       -1   -1    0    0    0  501  0.00000000000E+00  0.00000000000E+00  0.13996600326E+03  0.13996600335E+03  0.50400001928E-02 0. -1.
        1   -1    0    0  501    0  0.00000000000E+00  0.00000000000E+00 -0.17801296463E+04  0.17801296463E+04  0.50400001928E-02 0.  1.
    10030    2    1    2    0    0  0.00000000000E+00  0.00000000000E+00 -0.16401636430E+04  0.19200956496E+04  0.99831384238E+03 0.  0.
        3    1    3    3  502    0  0.79377934587E+02 -0.41433555812E+03 -0.13332306437E+04  0.13983843430E+04  0.10100000352E+00 0.  1.
       -3    1    3    3    0  502 -0.79377934587E+02  0.41433555812E+03 -0.30693299933E+03  0.52171130666E+03  0.10100000352E+00 0. -1.
</event>
<event>
 5   0  0.1293716E-03  0.1027950E+04  0.7818609E-02  0.9278410E-01
       -1   -1    0    0    0  501  0.00000000000E+00  0.00000000000E+00  0.31935161883E+03  0.31935161887E+03  0.50400001928E-02 0. -1.
        1   -1    0    0  501    0  0.00000000000E+00  0.00000000000E+00 -0.82720857522E+03  0.82720857524E+03  0.50400001928E-02 0.  1.
    10030    2    1    2    0    0  0.00000000000E+00  0.00000000000E+00 -0.50785695639E+03  0.11465601941E+04  0.10279501887E+04 0.  0.
        3    1    3    3  502    0  0.64545689434E+02 -0.32263043323E+02  0.31367354020E+03  0.32186666495E+03  0.10100000352E+00 0. -1.
       -3    1    3    3    0  502 -0.64545689434E+02  0.32263043323E+02 -0.82153049659E+03  0.82469352915E+03  0.10100000352E+00 0.  1.
</event>
<event>
 5   0  0.2255142E-03  0.9991776E+03  0.7818609E-02  0.9309447E-01
       -2   -1    0    0    0  501  0.00000000000E+00  0.00000000000E+00  0.11940318006E+03  0.11940318008E+03  0.25500000920E-02 0.  1.
        2   -1    0    0  501    0  0.00000000000E+00  0.00000000000E+00 -0.20903043499E+04  0.20903043499E+04  0.25500000920E-02 0. -1.
    10030    2    1    2    0    0  0.00000000000E+00  0.00000000000E+00 -0.19709011698E+04  0.22097075300E+04  0.99917763525E+03 0.  0.
        4    1    3    3  502    0 -0.20853130841E+03  0.12530530638E+03 -0.20452833448E+02  0.24414474741E+03  0.12699999809E+01 0.  1.
       -4    1    3    3    0  502  0.20853130841E+03 -0.12530530638E+03 -0.19504483364E+04  0.19655627826E+04  0.12699999809E+01 0. -1.
</event>
<event>
 5   0  0.1285769E-03  0.9955166E+03  0.7818609E-02  0.9313476E-01
        1   -1    0    0  501    0  0.00000000000E+00  0.00000000000E+00  0.65216008093E+03  0.65216008095E+03  0.50400001928E-02 0.  1.
       -1   -1    0    0    0  501  0.00000000000E+00  0.00000000000E+00 -0.37991183071E+03  0.37991183074E+03  0.50400001928E-02 0. -1.
    10030    2    1    2    0    0  0.00000000000E+00  0.00000000000E+00  0.27224825023E+03  0.10320719117E+04  0.99551661019E+03 0.  0.
        5    1    3    3  502    0  0.43550769135E+03  0.13231996002E+02  0.38558230521E+03  0.58184004592E+03  0.46999998093E+01 0. -1.
       -5    1    3    3    0  502 -0.43550769135E+03 -0.13231996002E+02 -0.11333405498E+03  0.45023186578E+03  0.46999998093E+01 0.  1.
</event>
<event>
 5   0  0.8680125E-04  0.9986950E+03  0.7818609E-02  0.9309977E-01
        3   -1    0    0  501    0  0.00000000000E+00  0.00000000000E+00  0.45211556820E+03  0.45211557948E+03  0.10100000352E+00 0. -1.
       -3   -1    0    0    0  501  0.00000000000E+00  0.00000000000E+00 -0.55151363884E+03  0.55151364809E+03  0.10100000352E+00 0.  1.
    10030    2    1    2    0    0  0.00000000000E+00  0.00000000000E+00 -0.99398070641E+02  0.10036292276E+04  0.99869497345E+03 0.  0.
        4    1    3    3  502    0  0.17464258158E+03 -0.18967455931E+03 -0.47944466289E+03  0.54437603495E+03  0.12699999809E+01 0.  1.
       -4    1    3    3    0  502 -0.17464258158E+03  0.18967455931E+03  0.38004659225E+03  0.45925319262E+03  0.12699999809E+01 0. -1.
</event>
<event>
 5   0  0.1293716E-03  0.9988167E+03  0.7818609E-02  0.9309844E-01
        1   -1    0    0  501    0  0.00000000000E+00  0.00000000000E+00  0.13361325376E+04  0.13361325376E+04  0.50400001928E-02 0.  1.
       -1   -1    0    0    0  501  0.00000000000E+00  0.00000000000E+00 -0.18666465727E+03  0.18666465733E+03  0.50400001928E-02 0. -1.
    10030    2    1    2    0    0  0.00000000000E+00  0.00000000000E+00  0.11494678803E+04  0.15227971949E+04  0.99881674446E+03 0.  0.
        3    1    3    3  502    0 -0.43029906375E+03 -0.21720764829E+03  0.77393967154E+03  0.91176700540E+03  0.10100000352E+00 0.  1.
       -3    1    3    3    0  502  0.43029906375E+03  0.21720764829E+03  0.37552820879E+03  0.61103018955E+03  0.10100000352E+00 0. -1.
</event>
<event>
 5   0  0.1285769E-03  0.1001309E+04  0.7818609E-02  0.9307111E-01
        1   -1    0    0  501    0  0.00000000000E+00  0.00000000000E+00  0.12995435885E+04  0.12995435885E+04  0.50400001928E-02 0. -1.
       -1   -1    0    0    0  501  0.00000000000E+00  0.00000000000E+00 -0.19287901888E+03  0.19287901895E+03  0.50400001928E-02 0.  1.
    10030    2    1    2    0    0  0.00000000000E+00  0.00000000000E+00  0.11066645697E+04  0.14924226075E+04  0.10013085287E+04 0.  0.
        5    1    3    3  502    0  0.47319372026E+03  0.13873827158E+03  0.42449479249E+03  0.65067543656E+03  0.46999998093E+01 0. -1.
       -5    1    3    3    0  502 -0.47319372026E+03 -0.13873827158E+03  0.68216977716E+03  0.84174717093E+03  0.46999998093E+01 0.  1.
</event>
<event>
 5   0  0.1293716E-03  0.1006417E+04  0.7818609E-02  0.9301535E-01
       -1   -1    0    0    0  501  0.00000000000E+00  0.00000000000E+00  0.34898860809E+03  0.34898860813E+03  0.50400001928E-02 0. -1.
        1   -1    0    0  501    0  0.00000000000E+00  0.00000000000E+00 -0.72557908936E+03  0.72557908938E+03  0.50400001928E-02 0.  1.
    10030    2    1    2    0    0  0.00000000000E+00  0.00000000000E+00 -0.37659048127E+03  0.10745676975E+04  0.10064170835E+04 0.  0.
        3    1    3    3  502    0  0.21267399033E+03 -0.45569253567E+03 -0.16881379437E+03  0.53045642667E+03  0.10100000352E+00 0.  1.
       -3    1    3    3    0  502 -0.21267399033E+03  0.45569253567E+03 -0.20777668690E+03  0.54411127083E+03  0.10100000352E+00 0. -1.
</event>
<event>
 5   0  0.2204862E-03  0.9973143E+03  0.7818609E-02  0.9311495E-01
       -2   -1    0    0    0  501  0.00000000000E+00  0.00000000000E+00  0.29170521908E+03  0.29170521909E+03  0.25500000920E-02 0. -1.
        2   -1    0    0  501    0  0.00000000000E+00  0.00000000000E+00 -0.85243235022E+03  0.85243235023E+03  0.25500000920E-02 0.  1.
    10030    2    1    2    0    0  0.00000000000E+00  0.00000000000E+00 -0.56072713114E+03  0.11441375693E+04  0.99731432454E+03 0.  0.
        1    1    3    3  502    0  0.14499917333E+03  0.19839157317E+03 -0.77814936704E+03  0.81602721402E+03  0.50400001928E-02 0.  1.
       -1    1    3    3    0  502 -0.14499917333E+03 -0.19839157317E+03  0.21742223589E+03  0.32811035530E+03  0.50400001928E-02 0. -1.
</event>
<event>
 5   0  0.1249195E-03  0.9951233E+03  0.7818609E-02  0.9313910E-01
       -1   -1    0    0    0  501  0.00000000000E+00  0.00000000000E+00  0.55725948024E+03  0.55725948026E+03  0.50400001928E-02 0.  1.
        1   -1    0    0  501    0  0.00000000000E+00  0.00000000000E+00 -0.44425906334E+03  0.44425906337E+03  0.50400001928E-02 0. -1.
    10030    2    1    2    0    0  0.00000000000E+00  0.00000000000E+00  0.11300041690E+03  0.10015185436E+04  0.99512325820E+03 0.  0.
        2    1    3    3  502    0  0.26007452758E+03 -0.37895568611E+03 -0.13530633763E+03  0.47911791548E+03  0.25500000920E-02 0. -1.
       -2    1    3    3    0  502 -0.26007452758E+03  0.37895568611E+03  0.24830675453E+03  0.52240062814E+03  0.25500000920E-02 0.  1.
</event>
<event>
 5   0  0.1293716E-03  0.9967231E+03  0.7818609E-02  0.9312146E-01
        1   -1    0    0  501    0  0.00000000000E+00  0.00000000000E+00  0.10431243013E+04  0.10431243013E+04  0.50400001928E-02 0.  1.
       -1   -1    0    0    0  501  0.00000000000E+00  0.00000000000E+00 -0.23809650316E+03  0.23809650322E+03  0.50400001928E-02 0. -1.
    10030    2    1    2    0    0  0.00000000000E+00  0.00000000000E+00  0.80502779810E+03  0.12812208045E+04  0.99672312813E+03 0.  0.
        3    1    3    3  502    0 -0.10932797311E+03 -0.22512320467E+03  0.95649104672E+03  0.98869014137E+03  0.10100000352E+00 0.  1.
       -3    1    3    3    0  502  0.10932797311E+03  0.22512320467E+03 -0.15146324862E+03  0.29253066313E+03  0.10100000352E+00 0. -1.
</event>
<event>
 5   0  0.1249195E-03  0.1000020E+04  0.7818609E-02  0.9308523E-01
       -1   -1    0    0    0  501  0.00000000000E+00  0.00000000000E+00  0.12077232651E+03  0.12077232661E+03  0.50400001928E-02 0.  1.
        1   -1    0    0  501    0  0.00000000000E+00  0.00000000000E+00 -0.20700922964E+04  0.20700922964E+04  0.50400001928E-02 0. -1.
    10030    2    1    2    0    0  0.00000000000E+00  0.00000000000E+00 -0.19493199699E+04  0.21908646230E+04  0.10000197255E+04 0.  0.
        2    1    3    3  502    0 -0.43687430068E+02  0.46880415514E+03 -0.13433690147E+04  0.14234908631E+04  0.25500000920E-02 0. -1.
       -2    1    3    3    0  502  0.43687430068E+02 -0.46880415514E+03 -0.60595095515E+03  0.76737375996E+03  0.25500000920E-02 0.  1.
</event>
<event>
 5   0  0.1293716E-03  0.9994099E+03  0.7818609E-02  0.9309192E-01
       -1   -1    0    0    0  501  0.00000000000E+00  0.00000000000E+00  0.34077781193E+03  0.34077781196E+03  0.50400001928E-02 0. -1.
        1   -1    0    0  501    0  0.00000000000E+00  0.00000000000E+00 -0.73275033577E+03  0.73275033578E+03  0.50400001928E-02 0.  1.
    10030    2    1    2    0    0  0.00000000000E+00  0.00000000000E+00 -0.39197252384E+03  0.10735281477E+04  0.99940993819E+03 0.  0.
        3    1    3    3  502    0  0.39187432203E+03  0.72586920891E+02 -0.51978988995E+03  0.65499304213E+03  0.10100000352E+00 0.  1.
       -3    1    3    3    0  502 -0.39187432203E+03 -0.72586920891E+02  0.12781736611E+03  0.41853510561E+03  0.10100000352E+00 0. -1.
</event>
<event>
 5   0  0.2264577E-03  0.1000062E+04  0.7818609E-02  0.9308477E-01
       -2   -1    0    0    0  501  0.00000000000E+00  0.00000000000E+00  0.13527349617E+03  0.13527349620E+03  0.25500000920E-02 0. -1.
        2   -1    0    0  501    0  0.00000000000E+00  0.00000000000E+00 -0.18483367764E+04  0.18483367764E+04  0.25500000920E-02 0.  1.
    10030    2    1    2    0    0  0.00000000000E+00  0.00000000000E+00 -0.17130632802E+04  0.19836102726E+04  0.10000619538E+04 0.  0.
        5    1    3    3  502    0 -0.15015163112E+03  0.43530706006E+03 -0.47002562628E+03  0.65801514285E+03  0.46999998093E+01 0. -1.
       -5    1    3    3    0  502  0.15015163112E+03 -0.43530706006E+03 -0.12430376539E+04  0.13255951297E+04  0.46999998093E+01 0.  1.
</event>
<event>
 5   0  0.2204862E-03  0.9994460E+03  0.7818609E-02  0.9309153E-01
       -2   -1    0    0    0  501  0.00000000000E+00  0.00000000000E+00  0.17594163872E+03  0.17594163874E+03  0.25500000920E-02 0.  1.
        2   -1    0    0  501    0  0.00000000000E+00  0.00000000000E+00 -0.14193517745E+04  0.14193517745E+04  0.25500000920E-02 0. -1.
    10030    2    1    2    0    0  0.00000000000E+00  0.00000000000E+00 -0.12434101358E+04  0.15952934132E+04  0.99944600082E+03 0.  0.
        1    1    3    3  502    0 -0.14924061028E+03 -0.68742624173E+02  0.13159064546E+03  0.21050987182E+03  0.50400001928E-02 0.  1.
       -1    1    3    3    0  502  0.14924061028E+03  0.68742624173E+02 -0.13750007812E+04  0.13847835414E+04  0.50400001928E-02 0. -1.
</event>
<event>
 5   0  0.1353789E-03  0.9863268E+03  0.7818609E-02  0.9323670E-01
        1   -1    0    0  501    0  0.00000000000E+00  0.00000000000E+00  0.64326422507E+03  0.64326422509E+03  0.50400001928E-02 0.  1.
       -1   -1    0    0    0  501  0.00000000000E+00  0.00000000000E+00 -0.37808745950E+03  0.37808745954E+03  0.50400001928E-02 0. -1.
    10030    2    1    2    0    0  0.00000000000E+00  0.00000000000E+00  0.26517676557E+03  0.10213516846E+04  0.98632679508E+03 0.  0.
        1    1    3    3  502    0  0.32009623333E+03  0.34644197857E+03  0.28166770022E+03  0.54938177662E+03  0.50400001928E-02 0.  1.
       -1    1    3    3    0  502 -0.32009623333E+03 -0.34644197857E+03 -0.16490934654E+02  0.47196990801E+03  0.50400001928E-02 0. -1.
</event>
<event>
 5   0  0.2284843E-03  0.1002252E+04  0.7818609E-02  0.9306078E-01
        2   -1    0    0  501    0  0.00000000000E+00  0.00000000000E+00  0.15263357332E+04  0.15263357332E+04  0.25500000920E-02 0. -1.
       -2   -1    0    0    0  501  0.00000000000E+00  0.00000000000E+00 -0.16452945802E+03  0.16452945804E+03  0.25500000920E-02 0.  1.
    10030    2    1    2    0    0  0.00000000000E+00  0.00000000000E+00  0.13618062751E+04  0.16908651912E+04  0.10022518465E+04 0.  0.
        2    1    3    3  502    0  0.22935495664E+03  0.38670814105E+02 -0.67949152868E+02  0.24231429050E+03  0.25500000920E-02 0.  1.
       -2    1    3    3    0  502 -0.22935495664E+03 -0.38670814105E+02  0.14297554280E+04  0.14485509007E+04  0.25500000920E-02 0. -1.
</event>
<event>
 5   0  0.2264577E-03  0.1000199E+04  0.7818609E-02  0.9308326E-01
        2   -1    0    0  501    0  0.00000000000E+00  0.00000000000E+00  0.70138875000E+03  0.70138875000E+03  0.25500000920E-02 0. -1.
       -2   -1    0    0    0  501  0.00000000000E+00  0.00000000000E+00 -0.35657788506E+03  0.35657788507E+03  0.25500000920E-02 0.  1.
    10030    2    1    2    0    0  0.00000000000E+00  0.00000000000E+00  0.34481086493E+03  0.10579666351E+04  0.10001994143E+04 0.  0.
        5    1    3    3  502    0  0.36956130374E+03  0.30672396802E+02 -0.18247322017E+03  0.41332181073E+03  0.46999998093E+01 0.  1.
       -5    1    3    3    0  502 -0.36956130374E+03 -0.30672396802E+02  0.52728408510E+03  0.64464482434E+03  0.46999998093E+01 0. -1.
</event>
<event>
 5   0  0.1249195E-03  0.9966311E+03  0.7818609E-02  0.9312247E-01
       -1   -1    0    0    0  501  0.00000000000E+00  0.00000000000E+00  0.30130864232E+03  0.30130864236E+03  0.50400001928E-02 0.  1.
        1   -1    0    0  501    0  0.00000000000E+00  0.00000000000E+00 -0.82413296916E+03  0.82413296917E+03  0.50400001928E-02 0. -1.
    10030    2    1    2    0    0  0.00000000000E+00  0.00000000000E+00 -0.52282432684E+03  0.11254416115E+04  0.99663109736E+03 0.  0.
        2    1    3    3  502    0 -0.57481071111E+02 -0.49293512260E+03 -0.31228187159E+03  0.58635234796E+03  0.25500000920E-02 0. -1.
       -2    1    3    3    0  502  0.57481071111E+02  0.49293512260E+03 -0.21054245525E+03  0.53908926357E+03  0.25500000920E-02 0.  1.
</event>
<event>
 5   0  0.2284843E-03  0.1001997E+04  0.7818609E-02  0.9306358E-01
        2   -1    0    0  501    0  0.00000000000E+00  0.00000000000E+00  0.10437083828E+04  0.10437083828E+04  0.25500000920E-02 0. -1.
       -2   -1    0    0    0  501  0.00000000000E+00  0.00000000000E+00 -0.24048800783E+03  0.24048800785E+03  0.25500000920E-02 0.  1.
    10030    2    1    2    0    0  0.00000000000E+00  0.00000000000E+00  0.80322037493E+03  0.12841963906E+04  0.10019967061E+04 0.  0.
        2    1    3    3  502    0 -0.22933375623E+03 -0.14450079024E+03 -0.13839109217E+03  0.30434609333E+03  0.25500000920E-02 0.  1.
       -2    1    3    3    0  502  0.22933375623E+03  0.14450079024E+03  0.94161146710E+03  0.97985029729E+03  0.25500000920E-02 0. -1.
</event>
<event>
 5   0  0.2277570E-03  0.1016052E+04  0.7818609E-02  0.9291113E-01
       -2   -1    0    0    0  501  0.00000000000E+00  0.00000000000E+00  0.43428021161E+03  0.43428021162E+03  0.25500000920E-02 0.  1.
        2   -1    0    0  501    0  0.00000000000E+00  0.00000000000E+00 -0.59429430501E+03  0.59429430501E+03  0.25500000920E-02 0. -1.
    10030    2    1    2    0    0  0.00000000000E+00  0.00000000000E+00 -0.16001409339E+03  0.10285745166E+04  0.10160516848E+04 0.  0.
        3    1    3    3  502    0 -0.38614663348E+02  0.21594645924E+03 -0.54387539286E+03  0.58645069584E+03  0.10100000352E+00 0. -1.
       -3    1    3    3    0  502  0.38614663348E+02 -0.21594645924E+03  0.38386129947E+03  0.44212382080E+03  0.10100000352E+00 0.  1.
</event>
<event>
 5   0  0.1285769E-03  0.9627934E+03  0.7818609E-02  0.9350321E-01
        1   -1    0    0  501    0  0.00000000000E+00  0.00000000000E+00  0.15408252331E+03  0.15408252339E+03  0.50400001928E-02 0. -1.
       -1   -1    0    0    0  501  0.00000000000E+00  0.00000000000E+00 -0.15040174604E+04  0.15040174604E+04  0.50400001928E-02 0.  1.
    10030    2    1    2    0    0  0.00000000000E+00  0.00000000000E+00 -0.13499349371E+04  0.16580999838E+04  0.96279344714E+03 0.  0.
        5    1    3    3  502    0  0.31726461748E+03  0.10484366406E+03 -0.12717249745E+04  0.13148975367E+04  0.46999998093E+01 0.  1.
       -5    1    3    3    0  502 -0.31726461748E+03 -0.10484366406E+03 -0.78209962577E+02  0.34320244702E+03  0.46999998093E+01 0. -1.
</event>
<event>
 5   0  0.1285769E-03  0.1003457E+04  0.7818609E-02  0.9304761E-01
       -1   -1    0    0    0  501  0.00000000000E+00  0.00000000000E+00  0.51580486298E+03  0.51580486300E+03  0.50400001928E-02 0.  1.
        1   -1    0    0  501    0  0.00000000000E+00  0.00000000000E+00 -0.48803619377E+03  0.48803619380E+03  0.50400001928E-02 0. -1.
    10030    2    1    2    0    0  0.00000000000E+00  0.00000000000E+00  0.27768669205E+02  0.10038410568E+04  0.10034569090E+04 0.  0.
        5    1    3    3  502    0  0.49209239688E+03 -0.60109535582E+02 -0.63224799355E+02  0.49978750343E+03  0.46999998093E+01 0.  1.
       -5    1    3    3    0  502 -0.49209239688E+03  0.60109535582E+02  0.90993468560E+02  0.50405355336E+03  0.46999998093E+01 0. -1.
</event>
<event>
 5   0  0.2204862E-03  0.9694905E+03  0.7818609E-02  0.9342655E-01
        2   -1    0    0  501    0  0.00000000000E+00  0.00000000000E+00  0.10886032119E+04  0.10886032119E+04  0.25500000920E-02 0.  1.
       -2   -1    0    0    0  501  0.00000000000E+00  0.00000000000E+00 -0.21585272880E+03  0.21585272882E+03  0.25500000920E-02 0. -1.
    10030    2    1    2    0    0  0.00000000000E+00  0.00000000000E+00  0.87275048306E+03  0.13044559407E+04  0.96949053399E+03 0.  0.
        1    1    3    3  502    0 -0.45795497137E+03  0.10994836543E+03  0.59076633758E+03  0.75552383451E+03  0.50400001928E-02 0.  1.
       -1    1    3    3    0  502  0.45795497137E+03 -0.10994836543E+03  0.28198414548E+03  0.54893210618E+03  0.50400001928E-02 0. -1.
</event>
<event>
 5   0  0.1293575E-03  0.9980844E+03  0.7818609E-02  0.9310648E-01
       -1   -1    0    0    0  501  0.00000000000E+00  0.00000000000E+00  0.50348434623E+03  0.50348434625E+03  0.50400001928E-02 0.  1.
        1   -1    0    0  501    0  0.00000000000E+00  0.00000000000E+00 -0.49463928842E+03  0.49463928845E+03  0.50400001928E-02 0. -1.
    10030    2    1    2    0    0  0.00000000000E+00  0.00000000000E+00  0.88450578071E+01  0.99812363470E+03  0.99808444287E+03 0.  0.
        4    1    3    3  502    0  0.49142638798E+03 -0.26542817476E+02 -0.78267536218E+02  0.49832904399E+03  0.12699999809E+01 0. -1.
       -4    1    3    3    0  502 -0.49142638798E+03  0.26542817476E+02  0.87112594025E+02  0.49979459071E+03  0.12699999809E+01 0.  1.
</event>
<event>
 5   0  0.1249195E-03  0.1000739E+04  0.7818609E-02  0.9307735E-01
        1   -1    0    0  501    0  0.00000000000E+00  0.00000000000E+00  0.47853754127E+03  0.47853754129E+03  0.50400001928E-02 0. -1.
       -1   -1    0    0    0  501  0.00000000000E+00  0.00000000000E+00 -0.52319718255E+03  0.52319718257E+03  0.50400001928E-02 0.  1.
    10030    2    1    2    0    0  0.00000000000E+00  0.00000000000E+00 -0.44659641283E+02  0.10017347239E+04  0.10007387139E+04 0.  0.
        2    1    3    3  502    0 -0.49424399552E+03 -0.75564581187E+02 -0.27563232713E+01  0.49999473034E+03  0.25500000920E-02 0.  1.
       -2    1    3    3    0  502  0.49424399552E+03  0.75564581187E+02 -0.41903318012E+02  0.50173999353E+03  0.25500000920E-02 0. -1.
</event>
<event>
 5   0  0.2255142E-03  0.1003502E+04  0.7818609E-02  0.9304712E-01
        2   -1    0    0  501    0  0.00000000000E+00  0.00000000000E+00  0.98120691403E+03  0.98120691403E+03  0.25500000920E-02 0.  1.
       -2   -1    0    0    0  501  0.00000000000E+00  0.00000000000E+00 -0.25657601603E+03  0.25657601604E+03  0.25500000920E-02 0. -1.
    10030    2    1    2    0    0  0.00000000000E+00  0.00000000000E+00  0.72463089800E+03  0.12377829301E+04  0.10035021892E+04 0.  0.
        4    1    3    3  502    0  0.19475735266E+03 -0.46162642804E+03  0.32914555194E+03  0.59947292911E+03  0.12699999809E+01 0.  1.
       -4    1    3    3    0  502 -0.19475735266E+03  0.46162642804E+03  0.39548534606E+03  0.63831000096E+03  0.12699999809E+01 0. -1.
</event>
<event>
 5   0  0.2284843E-03  0.9378522E+03  0.7818609E-02  0.9379463E-01
        2   -1    0    0  501    0  0.00000000000E+00  0.00000000000E+00  0.19568007232E+04  0.19568007232E+04  0.25500000920E-02 0.  1.
       -2   -1    0    0    0  501  0.00000000000E+00  0.00000000000E+00 -0.11237305993E+03  0.11237305995E+03  0.25500000920E-02 0. -1.
    10030    2    1    2    0    0  0.00000000000E+00  0.00000000000E+00  0.18444276633E+04  0.20691737832E+04  0.93785219510E+03 0.  0.
        2    1    3    3  502    0 -0.24684017310E+03 -0.33802887191E+03  0.45576170416E+03  0.61879909526E+03  0.25500000920E-02 0. -1.
       -2    1    3    3    0  502  0.24684017310E+03  0.33802887191E+03  0.13886659591E+04  0.14503746879E+04  0.25500000920E-02 0.  1.
</event>
<event>
 5   0  0.2264577E-03  0.9917466E+03  0.7818609E-02  0.9317644E-01
       -2   -1    0    0    0  501  0.00000000000E+00  0.00000000000E+00  0.73425720802E+03  0.73425720802E+03  0.25500000920E-02 0. -1.
        2   -1    0    0  501    0  0.00000000000E+00  0.00000000000E+00 -0.33488312372E+03  0.33488312373E+03  0.25500000920E-02 0.  1.
    10030    2    1    2    0    0  0.00000000000E+00  0.00000000000E+00  0.39937408430E+03  0.10691403317E+04  0.99174663587E+03 0.  0.
        5    1    3    3  502    0 -0.97374583273E+02 -0.20275740652E+03 -0.27669818029E+03  0.35661793048E+03  0.46999998093E+01 0.  1.
       -5    1    3    3    0  502  0.97374583273E+02  0.20275740652E+03  0.67607226459E+03  0.71252240127E+03  0.46999998093E+01 0. -1.
</event>
<event>
 5   0  0.8680125E-04  0.9866033E+03  0.7818609E-02  0.9323361E-01
        4   -1    0    0  501    0  0.00000000000E+00  0.00000000000E+00  0.67579485060E+03  0.67579604394E+03  0.12699999809E+01 0. -1.
       -4   -1    0    0    0  501  0.00000000000E+00  0.00000000000E+00 -0.36008669070E+03  0.36008893030E+03  0.12699999809E+01 0.  1.
    10030    2    1    2    0    0  0.00000000000E+00  0.00000000000E+00  0.31570815990E+03  0.10358849742E+04  0.98660328279E+03 0.  0.
        3    1    3    3  502    0 -0.29179127099E+03  0.38716066059E+03  0.62135775157E+02  0.48877028110E+03  0.10100000352E+00 0. -1.
       -3    1    3    3    0  502  0.29179127099E+03 -0.38716066059E+03  0.25357238474E+03  0.54711469313E+03  0.10100000352E+00 0.  1.
</event>
<event>
 5   0  0.2255142E-03  0.1003538E+04  0.7818609E-02  0.9304673E-01
        2   -1    0    0  501    0  0.00000000000E+00  0.00000000000E+00  0.10529970201E+04  0.10529970201E+04  0.25500000920E-02 0. -1.
       -2   -1    0    0    0  501  0.00000000000E+00  0.00000000000E+00 -0.23910036150E+03  0.23910036151E+03  0.25500000920E-02 0.  1.
    10030    2    1    2    0    0  0.00000000000E+00  0.00000000000E+00  0.81389665857E+03  0.12920973816E+04  0.10035376788E+04 0.  0.
        4    1    3    3  502    0 -0.42000306501E+03 -0.20174737093E+03  0.16722403703E+03  0.49504552089E+03  0.12699999809E+01 0.  1.
       -4    1    3    3    0  502  0.42000306501E+03  0.20174737093E+03  0.64667262154E+03  0.79705186069E+03  0.12699999809E+01 0. -1.
</event>
<event>
 5   0  0.2277570E-03  0.9986724E+03  0.7818609E-02  0.9310002E-01
       -2   -1    0    0    0  501  0.00000000000E+00  0.00000000000E+00  0.34179862974E+03  0.34179862975E+03  0.25500000920E-02 0. -1.
        2   -1    0    0  501    0  0.00000000000E+00  0.00000000000E+00 -0.72948400456E+03  0.72948400456E+03  0.25500000920E-02 0.  1.
    10030    2    1    2    0    0  0.00000000000E+00  0.00000000000E+00 -0.38768537482E+03  0.10712826343E+04  0.99867238509E+03 0.  0.
        3    1    3    3  502    0 -0.45060901099E+03 -0.88458760364E+02 -0.40422231089E+03  0.61177538353E+03  0.10100000352E+00 0.  1.
       -3    1    3    3    0  502  0.45060901099E+03  0.88458760364E+02  0.16536936070E+02  0.45950725079E+03  0.10100000352E+00 0. -1.
</event>
<event>
 5   0  0.1293716E-03  0.9919473E+03  0.7818609E-02  0.9317421E-01
       -1   -1    0    0    0  501  0.00000000000E+00  0.00000000000E+00  0.63281539310E+03  0.63281539312E+03  0.50400001928E-02 0.  1.
        1   -1    0    0  501    0  0.00000000000E+00  0.00000000000E+00 -0.38872291880E+03  0.38872291884E+03  0.50400001928E-02 0. -1.
    10030    2    1    2    0    0  0.00000000000E+00  0.00000000000E+00  0.24409247429E+03  0.10215383120E+04  0.99194727016E+03 0.  0.
        3    1    3    3  502    0 -0.35100659613E+02  0.16357610768E+03  0.60287999888E+03  0.62566245097E+03  0.10100000352E+00 0.  1.
       -3    1    3    3    0  502  0.35100659613E+02 -0.16357610768E+03 -0.35878752459E+03  0.39587586098E+03  0.10100000352E+00 0. -1.
</event>
<event>
 5   0  0.2277570E-03  0.1002764E+04  0.7818609E-02  0.9305519E-01
        2   -1    0    0  501    0  0.00000000000E+00  0.00000000000E+00  0.11965902398E+04  0.11965902398E+04  0.25500000920E-02 0. -1.
       -2   -1    0    0    0  501  0.00000000000E+00  0.00000000000E+00 -0.21008335229E+03  0.21008335230E+03  0.25500000920E-02 0.  1.
    10030    2    1    2    0    0  0.00000000000E+00  0.00000000000E+00  0.98650688748E+03  0.14066735921E+04  0.10027635592E+04 0.  0.
        3    1    3    3  502    0  0.41683464332E+03  0.26836560870E+03  0.38816102731E+03  0.62963498404E+03  0.10100000352E+00 0.  1.
       -3    1    3    3    0  502 -0.41683464332E+03 -0.26836560870E+03  0.59834586018E+03  0.77703860804E+03  0.10100000352E+00 0. -1.
</event>
<event>
 5   0  0.1249195E-03  0.9955402E+03  0.7818609E-02  0.9313450E-01
       -1   -1    0    0    0  501  0.00000000000E+00  0.00000000000E+00  0.30606266311E+03  0.30606266316E+03  0.50400001928E-02 0.  1.
        1   -1    0    0  501    0  0.00000000000E+00  0.00000000000E+00 -0.80955669624E+03  0.80955669626E+03  0.50400001928E-02 0. -1.
    10030    2    1    2    0    0  0.00000000000E+00  0.00000000000E+00 -0.50349403313E+03  0.11156193594E+04  0.99554021200E+03 0.  0.
        2    1    3    3  502    0  0.46598538696E+03  0.77498672234E+02 -0.75889905697E+02  0.47844299854E+03  0.25500000920E-02 0.  1.
       -2    1    3    3    0  502 -0.46598538696E+03 -0.77498672234E+02 -0.42760412743E+03  0.63717636088E+03  0.25500000920E-02 0. -1.
</event>
<event>
 5   0  0.1353789E-03  0.1001261E+04  0.7818609E-02  0.9307163E-01
       -1   -1    0    0    0  501  0.00000000000E+00  0.00000000000E+00  0.56032218779E+03  0.56032218781E+03  0.50400001928E-02 0.  1.
        1   -1    0    0  501    0  0.00000000000E+00  0.00000000000E+00 -0.44729744594E+03  0.44729744597E+03  0.50400001928E-02 0. -1.
    10030    2    1    2    0    0  0.00000000000E+00  0.00000000000E+00  0.11302474184E+03  0.10076196338E+04  0.10012605725E+04 0.  0.
        1    1    3    3  502    0  0.10719225486E+03 -0.16009751695E+03  0.52151766095E+03  0.55596948220E+03  0.50400001928E-02 0.  1.
       -1    1    3    3    0  502 -0.10719225486E+03  0.16009751695E+03 -0.40849291910E+03  0.45165015158E+03  0.50400001928E-02 0. -1.
</event>
<event>
 5   0  0.2255142E-03  0.9996239E+03  0.7818609E-02  0.9308957E-01
       -2   -1    0    0    0  501  0.00000000000E+00  0.00000000000E+00  0.29657976032E+03  0.29657976033E+03  0.25500000920E-02 0. -1.
        2   -1    0    0  501    0  0.00000000000E+00  0.00000000000E+00 -0.84230962135E+03  0.84230962135E+03  0.25500000920E-02 0.  1.
    10030    2    1    2    0    0  0.00000000000E+00  0.00000000000E+00 -0.54572986103E+03  0.11388893817E+04  0.99962390052E+03 0.  0.
        4    1    3    3  502    0  0.32604490396E+03  0.35703544748E+03 -0.12861278730E+03  0.50032234820E+03  0.12699999809E+01 0. -1.
       -4    1    3    3    0  502 -0.32604490396E+03 -0.35703544748E+03 -0.41711707372E+03  0.63856703348E+03  0.12699999809E+01 0.  1.
</event>
<event>
 5   0  0.2255142E-03  0.1015337E+04  0.7818609E-02  0.9291881E-01
        2   -1    0    0  501    0  0.00000000000E+00  0.00000000000E+00  0.93575905408E+03  0.93575905408E+03  0.25500000920E-02 0.  1.
       -2   -1    0    0    0  501  0.00000000000E+00  0.00000000000E+00 -0.27542068095E+03  0.27542068096E+03  0.25500000920E-02 0. -1.
    10030    2    1    2    0    0  0.00000000000E+00  0.00000000000E+00  0.66033837313E+03  0.12111797350E+04  0.10153371773E+04 0.  0.
        4    1    3    3  502    0  0.28857079996E+03 -0.13500784633E+03  0.80166120943E+03  0.86264855693E+03  0.12699999809E+01 0.  1.
       -4    1    3    3    0  502 -0.28857079996E+03  0.13500784633E+03 -0.14132283631E+03  0.34853117812E+03  0.12699999809E+01 0. -1.
</event>
<event>
 5   0  0.2255142E-03  0.9986428E+03  0.7818609E-02  0.9310035E-01
       -2   -1    0    0    0  501  0.00000000000E+00  0.00000000000E+00  0.34271715593E+03  0.34271715594E+03  0.25500000920E-02 0.  1.
        2   -1    0    0  501    0  0.00000000000E+00  0.00000000000E+00 -0.72748577231E+03  0.72748577232E+03  0.25500000920E-02 0. -1.
    10030    2    1    2    0    0  0.00000000000E+00  0.00000000000E+00 -0.38476861639E+03  0.10702029283E+04  0.99864278873E+03 0.  0.
        4    1    3    3  502    0 -0.27673709203E+03  0.41186659404E+03 -0.13269065778E+03  0.51363988645E+03  0.12699999809E+01 0. -1.
       -4    1    3    3    0  502  0.27673709203E+03 -0.41186659404E+03 -0.25207795861E+03  0.55656304181E+03  0.12699999809E+01 0.  1.
</event>
<event>
 5   0  0.8680125E-04  0.1006175E+04  0.7818609E-02  0.9301798E-01
        3   -1    0    0  501    0  0.00000000000E+00  0.00000000000E+00  0.61712535893E+03  0.61712536720E+03  0.10100000352E+00 0. -1.
       -3   -1    0    0    0  501  0.00000000000E+00  0.00000000000E+00 -0.41012231754E+03  0.41012232997E+03  0.10100000352E+00 0.  1.
    10030    2    1    2    0    0  0.00000000000E+00  0.00000000000E+00  0.20700304140E+03  0.10272476972E+04  0.10061747225E+04 0.  0.
        4    1    3    3  502    0  0.21942339976E+03 -0.23997452822E+03 -0.28841437049E+03  0.43464797775E+03  0.12699999809E+01 0.  1.
       -4    1    3    3    0  502 -0.21942339976E+03  0.23997452822E+03  0.49541741189E+03  0.59259971942E+03  0.12699999809E+01 0. -1.
</event>
<event>
 5   0  0.1353789E-03  0.9971138E+03  0.7818609E-02  0.9311716E-01
       -1   -1    0    0    0  501  0.00000000000E+00  0.00000000000E+00  0.35136316994E+03  0.35136316998E+03  0.50400001928E-02 0.  1.
        1   -1    0    0  501    0  0.00000000000E+00  0.00000000000E+00 -0.70741333805E+03  0.70741333807E+03  0.50400001928E-02 0. -1.
    10030    2    1    2    0    0  0.00000000000E+00  0.00000000000E+00 -0.35605016811E+03  0.10587765080E+04  0.99711382087E+03 0.  0.
        1    1    3    3  502    0  0.34753983727E+03  0.78938451921E+02 -0.54821613986E+03  0.65387778194E+03  0.50400001928E-02 0. -1.
       -1    1    3    3    0  502 -0.34753983727E+03 -0.78938451921E+02  0.19216597175E+03  0.40489872611E+03  0.50400001928E-02 0.  1.
</event>
<event>
 5   0  0.8680125E-04  0.9954430E+03  0.7818609E-02  0.9313557E-01
        3   -1    0    0  501    0  0.00000000000E+00  0.00000000000E+00  0.55553557872E+03  0.55553558790E+03  0.10100000352E+00 0. -1.
       -3   -1    0    0    0  501  0.00000000000E+00  0.00000000000E+00 -0.44592409110E+03  0.44592410253E+03  0.10100000352E+00 0.  1.
    10030    2    1    2    0    0  0.00000000000E+00  0.00000000000E+00  0.10961148762E+03  0.10014596904E+04  0.99544303370E+03 0.  0.
        1    1    3    3  502    0 -0.30641506925E+03  0.25923501493E+03  0.35092083745E+03  0.53314015212E+03  0.50400001928E-02 0. -1.
       -1    1    3    3    0  502  0.30641506925E+03 -0.25923501493E+03 -0.24130934982E+03  0.46831953831E+03  0.50400001928E-02 0.  1.
</event>
<event>
 5   0  0.2277570E-03  0.1002295E+04  0.7818609E-02  0.9306031E-01
        2   -1    0    0  501    0  0.00000000000E+00  0.00000000000E+00  0.17276423850E+04  0.17276423850E+04  0.25500000920E-02 0. -1.
       -2   -1    0    0    0  501  0.00000000000E+00  0.00000000000E+00 -0.14537095939E+03  0.14537095941E+03  0.25500000920E-02 0.  1.
    10030    2    1    2    0    0  0.00000000000E+00  0.00000000000E+00  0.15822714256E+04  0.18730133444E+04  0.10022954275E+04 0.  0.
        3    1    3    3  502    0 -0.17938327225E+03 -0.11105358877E+03 -0.58338047080E+02  0.21889402888E+03  0.10100000352E+00 0.  1.
       -3    1    3    3    0  502  0.17938327225E+03  0.11105358877E+03  0.16406094727E+04  0.16541193155E+04  0.10100000352E+00 0. -1.
</event>
<event>
 5   0  0.8680125E-04  0.1000012E+04  0.7818609E-02  0.9308532E-01
       -3   -1    0    0    0  501  0.00000000000E+00  0.00000000000E+00  0.22185364942E+03  0.22185367241E+03  0.10100000352E+00 0. -1.
        3   -1    0    0  501    0  0.00000000000E+00  0.00000000000E+00 -0.11268948732E+04  0.11268948777E+04  0.10100000352E+00 0.  1.
    10030    2    1    2    0    0  0.00000000000E+00  0.00000000000E+00 -0.90504122379E+03  0.13487485501E+04  0.10000115173E+04 0.  0.
        5    1    3    3  502    0 -0.15932965487E+03  0.42350778837E+03 -0.16565273093E+03  0.48187934485E+03  0.46999998093E+01 0. -1.
       -5    1    3    3    0  502  0.15932965487E+03 -0.42350778837E+03 -0.73938849286E+03  0.86686920530E+03  0.46999998093E+01 0.  1.
</event>
<event>
 5   0  0.2204862E-03  0.9926793E+03  0.7818609E-02  0.9316611E-01
       -2   -1    0    0    0  501  0.00000000000E+00  0.00000000000E+00  0.20435492399E+03  0.20435492400E+03  0.25500000920E-02 0.  1.
        2   -1    0    0  501    0  0.00000000000E+00  0.00000000000E+00 -0.12055156695E+04  0.12055156695E+04  0.25500000920E-02 0. -1.
    10030    2    1    2    0    0  0.00000000000E+00  0.00000000000E+00 -0.10011607455E+04  0.14098705935E+04  0.99267932993E+03 0.  0.
        1    1    3    3  502    0 -0.24636570435E+03  0.24092549865E+03 -0.10079399613E+04  0.10652155283E+04  0.50400001928E-02 0. -1.
       -1    1    3    3    0  502  0.24636570435E+03 -0.24092549865E+03  0.67792157671E+01  0.34465506520E+03  0.50400001928E-02 0.  1.
</event>
<event>
 5   0  0.8680125E-04  0.9993062E+03  0.7818609E-02  0.9309306E-01
        4   -1    0    0  501    0  0.00000000000E+00  0.00000000000E+00  0.40071555691E+03  0.40071756943E+03  0.12699999809E+01 0.  1.
       -4   -1    0    0    0  501  0.00000000000E+00  0.00000000000E+00 -0.62301436833E+03  0.62301566276E+03  0.12699999809E+01 0. -1.
    10030    2    1    2    0    0  0.00000000000E+00  0.00000000000E+00 -0.22229881142E+03  0.10237332322E+04  0.99930624392E+03 0.  0.
        5    1    3    3  502    0  0.31003819198E+03  0.90780525642E+02 -0.50160418182E+03  0.59665201713E+03  0.46999998093E+01 0. -1.
       -5    1    3    3    0  502 -0.31003819198E+03 -0.90780525642E+02  0.27930537040E+03  0.42708121506E+03  0.46999998093E+01 0.  1.
</event>
<event>
 5   0  0.1353789E-03  0.1006478E+04  0.7818609E-02  0.9301468E-01
       -1   -1    0    0    0  501  0.00000000000E+00  0.00000000000E+00  0.22124275649E+03  0.22124275655E+03  0.50400001928E-02 0.  1.
        1   -1    0    0  501    0  0.00000000000E+00  0.00000000000E+00 -0.11446687851E+04  0.11446687851E+04  0.50400001928E-02 0. -1.
    10030    2    1    2    0    0  0.00000000000E+00  0.00000000000E+00 -0.92342602863E+03  0.13659115417E+04  0.10064783700E+04 0.  0.
        1    1    3    3  502    0 -0.19315258243E+03 -0.37319404277E+03 -0.85940428883E+02  0.42891429330E+03  0.50400001928E-02 0.  1.
       -1    1    3    3    0  502  0.19315258243E+03  0.37319404277E+03 -0.83748559975E+03  0.93699724838E+03  0.50400001928E-02 0. -1.
</event>
<event>
 5   0  0.1249195E-03  0.1001090E+04  0.7818609E-02  0.9307350E-01
        1   -1    0    0  501    0  0.00000000000E+00  0.00000000000E+00  0.85517141445E+03  0.85517141446E+03  0.50400001928E-02 0.  1.
       -1   -1    0    0    0  501  0.00000000000E+00  0.00000000000E+00 -0.29297678781E+03  0.29297678786E+03  0.50400001928E-02 0. -1.
    10030    2    1    2    0    0  0.00000000000E+00  0.00000000000E+00  0.56219462663E+03  0.11481482023E+04  0.10010901539E+04 0.  0.
        2    1    3    3  502    0 -0.10272529759E+03 -0.25687986895E+03  0.75951408718E+03  0.80833248262E+03  0.25500000920E-02 0.  1.
       -2    1    3    3    0  502  0.10272529759E+03  0.25687986895E+03 -0.19731946054E+03  0.33981571969E+03  0.25500000920E-02 0. -1.
</event>
<event>
 5   0  0.2277570E-03  0.9901308E+03  0.7818609E-02  0.9319436E-01
       -2   -1    0    0    0  501  0.00000000000E+00  0.00000000000E+00  0.28642137218E+03  0.28642137219E+03  0.25500000920E-02 0. -1.
        2   -1    0    0  501    0  0.00000000000E+00  0.00000000000E+00 -0.85569647242E+03  0.85569647242E+03  0.25500000920E-02 0.  1.
    10030    2    1    2    0    0  0.00000000000E+00  0.00000000000E+00 -0.56927510024E+03  0.11421178446E+04  0.99013081521E+03 0.  0.
        3    1    3    3  502    0  0.21908136322E+03  0.32379033403E+03 -0.63499262206E+03  0.74568925458E+03  0.10100000352E+00 0.  1.
       -3    1    3    3    0  502 -0.21908136322E+03 -0.32379033403E+03  0.65717521820E+02  0.39642859004E+03  0.10100000352E+00 0. -1.
</event>
<event>
 5   0  0.1249195E-03  0.1000912E+04  0.7818609E-02  0.9307545E-01
       -1   -1    0    0    0  501  0.00000000000E+00  0.00000000000E+00  0.22476810082E+03  0.22476810088E+03  0.50400001928E-02 0. -1.
        1   -1    0    0  501    0  0.00000000000E+00  0.00000000000E+00 -0.11142876156E+04  0.11142876156E+04  0.50400001928E-02 0.  1.
    10030    2    1    2    0    0  0.00000000000E+00  0.00000000000E+00 -0.88951951477E+03  0.13390557165E+04  0.10009122063E+04 0.  0.
        2    1    3    3  502    0  0.66744120317E+02 -0.90040822495E+01  0.21867770864E+03  0.22881387929E+03  0.25500000920E-02 0. -1.
       -2    1    3    3    0  502 -0.66744120317E+02  0.90040822495E+01 -0.11081972234E+04  0.11102418372E+04  0.25500000920E-02 0.  1.
</event>
<event>
 5   0  0.2255142E-03  0.9984855E+03  0.7818609E-02  0.9310207E-01
        2   -1    0    0  501    0  0.00000000000E+00  0.00000000000E+00  0.24787338504E+04  0.24787338504E+04  0.25500000920E-02 0.  1.
       -2   -1    0    0    0  501  0.00000000000E+00  0.00000000000E+00 -0.10055267287E+03  0.10055267291E+03  0.25500000920E-02 0. -1.
    10030    2    1    2    0    0  0.00000000000E+00  0.00000000000E+00  0.23781811775E+04  0.25792865233E+04  0.99848548120E+03 0.  0.
        4    1    3    3  502    0  0.21446629851E+03 -0.44187033204E+03  0.14200886228E+04  0.15026305244E+04  0.12699999809E+01 0. -1.
       -4    1    3    3    0  502 -0.21446629851E+03  0.44187033204E+03  0.95809255474E+03  0.10766559989E+04  0.12699999809E+01 0.  1.
</event>
<event>
 5   0  0.1293716E-03  0.9996196E+03  0.7818609E-02  0.9308962E-01
        1   -1    0    0  501    0  0.00000000000E+00  0.00000000000E+00  0.53402947505E+03  0.53402947508E+03  0.50400001928E-02 0. -1.
       -1   -1    0    0    0  501  0.00000000000E+00  0.00000000000E+00 -0.46778281592E+03  0.46778281595E+03  0.50400001928E-02 0.  1.
    10030    2    1    2    0    0  0.00000000000E+00  0.00000000000E+00  0.66246659136E+02  0.10018122910E+04  0.99961955093E+03 0.  0.
        3    1    3    3  502    0  0.18483349674E+03  0.44832715405E+03  0.15442246947E+03  0.50892727167E+03  0.10100000352E+00 0.  1.
       -3    1    3    3    0  502 -0.18483349674E+03 -0.44832715405E+03 -0.88175810332E+02  0.49288501935E+03  0.10100000352E+00 0. -1.
</event>
<event>
 5   0  0.1353789E-03  0.1011922E+04  0.7818609E-02  0.9295565E-01
       -1   -1    0    0    0  501  0.00000000000E+00  0.00000000000E+00  0.30017322206E+03  0.30017322211E+03  0.50400001928E-02 0.  1.
        1   -1    0    0  501    0  0.00000000000E+00  0.00000000000E+00 -0.85282939024E+03  0.85282939026E+03  0.50400001928E-02 0. -1.
    10030    2    1    2    0    0  0.00000000000E+00  0.00000000000E+00 -0.55265616818E+03  0.11530026124E+04  0.10119220246E+04 0.  0.
        1    1    3    3  502    0  0.11471678757E+03  0.44056371861E+03 -0.52787961261E+03  0.69707475707E+03  0.50400001928E-02 0.  1.
       -1    1    3    3    0  502 -0.11471678757E+03 -0.44056371861E+03 -0.24776555568E+02  0.45592785530E+03  0.50400001928E-02 0. -1.
</event>
<event>
 5   0  0.2255142E-03  0.9990466E+03  0.7818609E-02  0.9309591E-01
        2   -1    0    0  501    0  0.00000000000E+00  0.00000000000E+00  0.12194531188E+04  0.12194531188E+04  0.25500000920E-02 0. -1.
       -2   -1    0    0    0  501  0.00000000000E+00  0.00000000000E+00 -0.20461920891E+03  0.20461920892E+03  0.25500000920E-02 0.  1.
    10030    2    1    2    0    0  0.00000000000E+00  0.00000000000E+00  0.10148339099E+04  0.14240723277E+04  0.99904661047E+03 0.  0.
        4    1    3    3  502    0  0.24518759047E+03 -0.23108383767E+03  0.10331001495E+04  0.10866527625E+04  0.12699999809E+01 0. -1.
       -4    1    3    3    0  502 -0.24518759047E+03  0.23108383767E+03 -0.18266239611E+02  0.33741956517E+03  0.12699999809E+01 0.  1.
</event>
<event>
 5   0  0.2264577E-03  0.9993784E+03  0.7818609E-02  0.9309227E-01
       -2   -1    0    0    0  501  0.00000000000E+00  0.00000000000E+00  0.22496021621E+03  0.22496021622E+03  0.25500000920E-02 0. -1.
        2   -1    0    0  501    0  0.00000000000E+00  0.00000000000E+00 -0.11099265283E+04  0.11099265283E+04  0.25500000920E-02 0.  1.
    10030    2    1    2    0    0  0.00000000000E+00  0.00000000000E+00 -0.88496631207E+03  0.13348867445E+04  0.99937843041E+03 0.  0.
        5    1    3    3  502    0 -0.20781549770E+03  0.37476059976E+03 -0.99241746188E+02  0.43989067097E+03  0.46999998093E+01 0. -1.
       -5    1    3    3    0  502  0.20781549770E+03 -0.37476059976E+03 -0.78572456589E+03  0.89499607354E+03  0.46999998093E+01 0.  1.
</event>
<event>
 5   0  0.1249195E-03  0.9992738E+03  0.7818609E-02  0.9309342E-01
       -1   -1    0    0    0  501  0.00000000000E+00  0.00000000000E+00  0.92179510224E+03  0.92179510225E+03  0.50400001928E-02 0.  1.
        1   -1    0    0  501    0  0.00000000000E+00  0.00000000000E+00 -0.27081620417E+03  0.27081620421E+03  0.50400001928E-02 0. -1.
    10030    2    1    2    0    0  0.00000000000E+00  0.00000000000E+00  0.65097889807E+03  0.11926113065E+04  0.99927383763E+03 0.  0.
        2    1    3    3  502    0  0.35113148420E+03  0.31977530159E+03  0.51071895152E+03  0.69741193720E+03  0.25500000920E-02 0.  1.
       -2    1    3    3    0  502 -0.35113148420E+03 -0.31977530159E+03  0.14025994655E+03  0.49519936926E+03  0.25500000920E-02 0. -1.
</event>
<event>
 5   0  0.1249195E-03  0.9962519E+03  0.7818609E-02  0.9312665E-01
       -1   -1    0    0    0  501  0.00000000000E+00  0.00000000000E+00  0.27670322463E+03  0.27670322468E+03  0.50400001928E-02 0.  1.
        1   -1    0    0  501    0  0.00000000000E+00  0.00000000000E+00 -0.89673491753E+03  0.89673491754E+03  0.50400001928E-02 0. -1.
    10030    2    1    2    0    0  0.00000000000E+00  0.00000000000E+00 -0.62003169290E+03  0.11734381422E+04  0.99625186244E+03 0.  0.
        2    1    3    3  502    0  0.86406670104E+02 -0.25493468936E+03  0.18365999596E+03  0.32586623422E+03  0.25500000920E-02 0.  1.
       -2    1    3    3    0  502 -0.86406670104E+02  0.25493468936E+03 -0.80369168886E+03  0.84757190800E+03  0.25500000920E-02 0. -1.
</event>
<event>
 5   0  0.1353789E-03  0.9990945E+03  0.7818609E-02  0.9309539E-01
        1   -1    0    0  501    0  0.00000000000E+00  0.00000000000E+00  0.86827626746E+03  0.86827626747E+03  0.50400001928E-02 0. -1.
       -1   -1    0    0    0  501  0.00000000000E+00  0.00000000000E+00 -0.28740556554E+03  0.28740556559E+03  0.50400001928E-02 0.  1.
    10030    2    1    2    0    0  0.00000000000E+00  0.00000000000E+00  0.58087070192E+03  0.11556818331E+04  0.99909445345E+03 0.  0.
        1    1    3    3  502    0  0.18923758741E+03  0.37287233450E+02 -0.24259754879E+03  0.30992704459E+03  0.50400001928E-02 0.  1.
       -1    1    3    3    0  502 -0.18923758741E+03 -0.37287233450E+02  0.82346825071E+03  0.84575478847E+03  0.50400001928E-02 0. -1.
</event>
<event>
 5   0  0.1285769E-03  0.9986603E+03  0.7818609E-02  0.9310015E-01
        1   -1    0    0  501    0  0.00000000000E+00  0.00000000000E+00  0.39774728717E+03  0.39774728720E+03  0.50400001928E-02 0.  1.
       -1   -1    0    0    0  501  0.00000000000E+00  0.00000000000E+00 -0.62685687197E+03  0.62685687199E+03  0.50400001928E-02 0. -1.
    10030    2    1    2    0    0  0.00000000000E+00  0.00000000000E+00 -0.22910958480E+03  0.10246041592E+04  0.99866034325E+03 0.  0.
        5    1    3    3  502    0  0.78113029582E+01 -0.46698575386E+03 -0.29569688758E+03  0.55280688318E+03  0.46999998093E+01 0. -1.
       -5    1    3    3    0  502 -0.78113029582E+01  0.46698575386E+03  0.66587302785E+02  0.47179727601E+03  0.46999998093E+01 0.  1.
</event>
<event>
 5   0  0.1293716E-03  0.9869146E+03  0.7818609E-02  0.9323014E-01
       -1   -1    0    0    0  501  0.00000000000E+00  0.00000000000E+00  0.62424565166E+03  0.62424565168E+03  0.50400001928E-02 0.  1.
        1   -1    0    0  501    0  0.00000000000E+00  0.00000000000E+00 -0.39007097990E+03  0.39007097994E+03  0.50400001928E-02 0. -1.
    10030    2    1    2    0    0  0.00000000000E+00  0.00000000000E+00  0.23417467175E+03  0.10143166316E+04  0.98691461245E+03 0.  0.
        3    1    3    3  502    0  0.13219910930E+03  0.44328166118E+03  0.29368621549E+03  0.54792959311E+03  0.10100000352E+00 0.  1.
       -3    1    3    3    0  502 -0.13219910930E+03 -0.44328166118E+03 -0.59511543740E+02  0.46638703850E+03  0.10100000352E+00 0. -1.
</event>
<event>
 5   0  0.2204862E-03  0.1004436E+04  0.7818609E-02  0.9303692E-01
        2   -1    0    0  501    0  0.00000000000E+00  0.00000000000E+00  0.30808150892E+03  0.30808150893E+03  0.25500000920E-02 0.  1.
       -2   -1    0    0    0  501  0.00000000000E+00  0.00000000000E+00 -0.81868954227E+03  0.81868954228E+03  0.25500000920E-02 0. -1.
    10030    2    1    2    0    0  0.00000000000E+00  0.00000000000E+00 -0.51060803335E+03  0.11267710512E+04  0.10044363783E+04 0.  0.
        1    1    3    3  502    0 -0.18375599030E+03  0.15677639410E+03 -0.74924779721E+03  0.78722129250E+03  0.50400001928E-02 0. -1.
       -1    1    3    3    0  502  0.18375599030E+03 -0.15677639410E+03  0.23863976386E+03  0.33954975871E+03  0.50400001928E-02 0.  1.
</event>
<event>
 5   0  0.1293716E-03  0.1013908E+04  0.7818609E-02  0.9293421E-01
        1   -1    0    0  501    0  0.00000000000E+00  0.00000000000E+00  0.13084549933E+04  0.13084549934E+04  0.50400001928E-02 0.  1.
       -1   -1    0    0    0  501  0.00000000000E+00  0.00000000000E+00 -0.19641677389E+03  0.19641677395E+03  0.50400001928E-02 0. -1.
    10030    2    1    2    0    0  0.00000000000E+00  0.00000000000E+00  0.11120382195E+04  0.15048717673E+04  0.10139082969E+04 0.  0.
        3    1    3    3  502    0 -0.48876074973E+03  0.72459275626E+02  0.72436677024E+03  0.87683786707E+03  0.10100000352E+00 0.  1.
       -3    1    3    3    0  502  0.48876074973E+03 -0.72459275626E+02  0.38767144922E+03  0.62803390023E+03  0.10100000352E+00 0. -1.
</event>
<event>
 5   0  0.1353789E-03  0.9984114E+03  0.7818609E-02  0.9310289E-01
        1   -1    0    0  501    0  0.00000000000E+00  0.00000000000E+00  0.19791462294E+03  0.19791462300E+03  0.50400001928E-02 0. -1.
       -1   -1    0    0    0  501  0.00000000000E+00  0.00000000000E+00 -0.12591608377E+04  0.12591608378E+04  0.50400001928E-02 0.  1.
    10030    2    1    2    0    0  0.00000000000E+00  0.00000000000E+00 -0.10612462148E+04  0.14570754608E+04  0.99841142316E+03 0.  0.
        1    1    3    3  502    0 -0.16864532859E+03 -0.33771154055E+03 -0.53876847868E+02  0.38130440102E+03  0.50400001928E-02 0. -1.
       -1    1    3    3    0  502  0.16864532859E+03  0.33771154055E+03 -0.10073693669E+04  0.10757710597E+04  0.50400001928E-02 0.  1.
</event>
<event>
 5   0  0.1353789E-03  0.1004207E+04  0.7818609E-02  0.9303942E-01
       -1   -1    0    0    0  501  0.00000000000E+00  0.00000000000E+00  0.54948727405E+03  0.54948727407E+03  0.50400001928E-02 0. -1.
        1   -1    0    0  501    0  0.00000000000E+00  0.00000000000E+00 -0.45880597631E+03  0.45880597633E+03  0.50400001928E-02 0.  1.
    10030    2    1    2    0    0  0.00000000000E+00  0.00000000000E+00  0.90681297746E+02  0.10082932504E+04  0.10042072401E+04 0.  0.
        1    1    3    3  502    0 -0.19486655679E+03 -0.70516201943E+01  0.50991687447E+03  0.54592849275E+03  0.50400001928E-02 0. -1.
       -1    1    3    3    0  502  0.19486655679E+03  0.70516201943E+01 -0.41923557673E+03  0.46236475766E+03  0.50400001928E-02 0.  1.
</event>
<event>
 5   0  0.1249195E-03  0.9994276E+03  0.7818609E-02  0.9309173E-01
       -1   -1    0    0    0  501  0.00000000000E+00  0.00000000000E+00  0.20205157990E+03  0.20205157996E+03  0.50400001928E-02 0. -1.
        1   -1    0    0  501    0  0.00000000000E+00  0.00000000000E+00 -0.12358918399E+04  0.12358918399E+04  0.50400001928E-02 0.  1.
    10030    2    1    2    0    0  0.00000000000E+00  0.00000000000E+00 -0.10338402600E+04  0.14379434199E+04  0.99942763398E+03 0.  0.
        2    1    3    3  502    0  0.14955167396E+03  0.34975269355E+03 -0.50659191027E+02  0.38374340838E+03  0.25500000920E-02 0. -1.
       -2    1    3    3    0  502 -0.14955167396E+03 -0.34975269355E+03 -0.98318106901E+03  0.10542000115E+04  0.25500000920E-02 0.  1.
</event>
<event>
 5   0  0.1293716E-03  0.1001408E+04  0.7818609E-02  0.9307002E-01
       -1   -1    0    0    0  501  0.00000000000E+00  0.00000000000E+00  0.41212653065E+03  0.41212653068E+03  0.50400001928E-02 0.  1.
        1   -1    0    0  501    0  0.00000000000E+00  0.00000000000E+00 -0.60831878551E+03  0.60831878553E+03  0.50400001928E-02 0. -1.
    10030    2    1    2    0    0  0.00000000000E+00  0.00000000000E+00 -0.19619225486E+03  0.10204453162E+04  0.10014076305E+04 0.  0.
        3    1    3    3  502    0 -0.10967797211E+03 -0.11357094204E+02  0.39960080454E+03  0.41453474444E+03  0.10100000352E+00 0.  1.
       -3    1    3    3    0  502  0.10967797211E+03  0.11357094204E+02 -0.59579305940E+03  0.60591057178E+03  0.10100000352E+00 0. -1.
</event>
<event>
 5   0  0.2204862E-03  0.9947340E+03  0.7818609E-02  0.9314339E-01
        2   -1    0    0  501    0  0.00000000000E+00  0.00000000000E+00  0.15034757281E+04  0.15034757281E+04  0.25500000920E-02 0. -1.
       -2   -1    0    0    0  501  0.00000000000E+00  0.00000000000E+00 -0.16453469191E+03  0.16453469193E+03  0.25500000920E-02 0.  1.
    10030    2    1    2    0    0  0.00000000000E+00  0.00000000000E+00  0.13389410362E+04  0.16680104201E+04  0.99473396593E+03 0.  0.
        1    1    3    3  502    0  0.18357227819E+03 -0.31143461446E+03  0.12422622630E+04  0.12937951269E+04  0.50400001928E-02 0. -1.
       -1    1    3    3    0  502 -0.18357227819E+03  0.31143461446E+03  0.96678773257E+02  0.37421529316E+03  0.50400001928E-02 0.  1.
</event>
<event>
 5   0  0.2277570E-03  0.9954551E+03  0.7818609E-02  0.9313544E-01
       -2   -1    0    0    0  501  0.00000000000E+00  0.00000000000E+00  0.53288370920E+03  0.53288370921E+03  0.25500000920E-02 0. -1.
        2   -1    0    0  501    0  0.00000000000E+00  0.00000000000E+00 -0.46489080026E+03  0.46489080027E+03  0.25500000920E-02 0.  1.
    10030    2    1    2    0    0  0.00000000000E+00  0.00000000000E+00  0.67992908944E+02  0.99777450948E+03  0.99545514017E+03 0.  0.
        3    1    3    3  502    0 -0.46310402187E+03 -0.14018394770E+03 -0.82962393888E+02  0.49091714501E+03  0.10100000352E+00 0.  1.
       -3    1    3    3    0  502  0.46310402187E+03  0.14018394770E+03  0.15095530283E+03  0.50685736447E+03  0.10100000352E+00 0. -1.
</event>
<event>
 5   0  0.1293716E-03  0.9936165E+03  0.7818609E-02  0.9315574E-01
        1   -1    0    0  501    0  0.00000000000E+00  0.00000000000E+00  0.69552694144E+03  0.69552694145E+03  0.50400001928E-02 0. -1.
       -1   -1    0    0    0  501  0.00000000000E+00  0.00000000000E+00 -0.35486542017E+03  0.35486542021E+03  0.50400001928E-02 0.  1.
    10030    2    1    2    0    0  0.00000000000E+00  0.00000000000E+00  0.34066152126E+03  0.10503923617E+04  0.99361654644E+03 0.  0.
        3    1    3    3  502    0  0.31415781155E+03  0.64736074570E+02 -0.23073193193E+03  0.39512418873E+03  0.10100000352E+00 0.  1.
       -3    1    3    3    0  502 -0.31415781155E+03 -0.64736074570E+02  0.57139345319E+03  0.65526817293E+03  0.10100000352E+00 0. -1.
</event>
<event>
 5   0  0.8680125E-04  0.9999024E+03  0.7818609E-02  0.9308652E-01
       -4   -1    0    0    0  501  0.00000000000E+00  0.00000000000E+00  0.39546237796E+03  0.39546441721E+03  0.12699999809E+01 0. -1.
        4   -1    0    0  501    0  0.00000000000E+00  0.00000000000E+00 -0.63204374552E+03  0.63204502146E+03  0.12699999809E+01 0.  1.
    10030    2    1    2    0    0  0.00000000000E+00  0.00000000000E+00 -0.23658136756E+03  0.10275094387E+04  0.99990244678E+03 0.  0.
        4    1    3    3  502    0 -0.34193552587E+03 -0.15466449068E+03  0.22114515068E+03  0.43560050402E+03  0.12699999809E+01 0. -1.
       -4    1    3    3    0  502  0.34193552587E+03  0.15466449068E+03 -0.45772651823E+03  0.59190893466E+03  0.12699999809E+01 0.  1.
</event>
<event>
 5   0  0.1293575E-03  0.9965620E+03  0.7818609E-02  0.9312324E-01
       -1   -1    0    0    0  501  0.00000000000E+00  0.00000000000E+00  0.10940008478E+03  0.10940008490E+03  0.50400001928E-02 0. -1.
        1   -1    0    0  501    0  0.00000000000E+00  0.00000000000E+00 -0.22695040320E+04  0.22695040320E+04  0.50400001928E-02 0.  1.
    10030    2    1    2    0    0  0.00000000000E+00  0.00000000000E+00 -0.21601039472E+04  0.23789041169E+04  0.99656195724E+03 0.  0.
        4    1    3    3  502    0  0.47201278969E+02 -0.34586958575E+03 -0.19288322522E+04  0.19601656055E+04  0.12699999809E+01 0.  1.
       -4    1    3    3    0  502 -0.47201278969E+02  0.34586958575E+03 -0.23127169500E+03  0.41873851135E+03  0.12699999809E+01 0. -1.
</event>
<event>
 5   0  0.1249195E-03  0.9988485E+03  0.7818609E-02  0.9309809E-01
        1   -1    0    0  501    0  0.00000000000E+00  0.00000000000E+00  0.35806697967E+03  0.35806697971E+03  0.50400001928E-02 0.  1.
       -1   -1    0    0    0  501  0.00000000000E+00  0.00000000000E+00 -0.69658637240E+03  0.69658637241E+03  0.50400001928E-02 0. -1.
    10030    2    1    2    0    0  0.00000000000E+00  0.00000000000E+00 -0.33851939272E+03  0.10546533521E+04  0.99884849397E+03 0.  0.
        2    1    3    3  502    0  0.48005403816E+03 -0.11389658568E+03 -0.25104878985E+03  0.55357908801E+03  0.25500000920E-02 0. -1.
       -2    1    3    3    0  502 -0.48005403816E+03  0.11389658568E+03 -0.87470602868E+02  0.50107426412E+03  0.25500000920E-02 0.  1.
</event>
<event>
 5   0  0.1353789E-03  0.1000537E+04  0.7818609E-02  0.9307956E-01
        1   -1    0    0  501    0  0.00000000000E+00  0.00000000000E+00  0.16038743890E+04  0.16038743891E+04  0.50400001928E-02 0.  1.
       -1   -1    0    0    0  501  0.00000000000E+00  0.00000000000E+00 -0.15603996414E+03  0.15603996422E+03  0.50400001928E-02 0. -1.
    10030    2    1    2    0    0  0.00000000000E+00  0.00000000000E+00  0.14478344249E+04  0.17599143533E+04  0.10005368604E+04 0.  0.
        1    1    3    3  502    0 -0.82375744498E+02  0.47191686838E+03  0.47037397186E+03  0.67137394004E+03  0.50400001928E-02 0. -1.
       -1    1    3    3    0  502  0.82375744498E+02 -0.47191686838E+03  0.97746045304E+03  0.10885404132E+04  0.50400001928E-02 0.  1.
</event>
<event>
 5   0  0.1285769E-03  0.1003958E+04  0.7818609E-02  0.9304215E-01
       -1   -1    0    0    0  501  0.00000000000E+00  0.00000000000E+00  0.49741376939E+03  0.49741376941E+03  0.50400001928E-02 0.  1.
        1   -1    0    0  501    0  0.00000000000E+00  0.00000000000E+00 -0.50658567208E+03  0.50658567211E+03  0.50400001928E-02 0. -1.
    10030    2    1    2    0    0  0.00000000000E+00  0.00000000000E+00 -0.91719026968E+01  0.10039994415E+04  0.10039575463E+04 0.  0.
        5    1    3    3  502    0 -0.31200720739E+03  0.18212955806E+02  0.38821586382E+03  0.49841133228E+03  0.46999998093E+01 0.  1.
       -5    1    3    3    0  502  0.31200720739E+03 -0.18212955806E+02 -0.39738776652E+03  0.50558810924E+03  0.46999998093E+01 0. -1.
</event>
<event>
 5   0  0.2264577E-03  0.9862362E+03  0.7818609E-02  0.9323771E-01
        2   -1    0    0  501    0  0.00000000000E+00  0.00000000000E+00  0.41715059922E+03  0.41715059923E+03  0.25500000920E-02 0. -1.
       -2   -1    0    0    0  501  0.00000000000E+00  0.00000000000E+00 -0.58292012677E+03  0.58292012678E+03  0.25500000920E-02 0.  1.
    10030    2    1    2    0    0  0.00000000000E+00  0.00000000000E+00 -0.16576952755E+03  0.10000707260E+04  0.98623623983E+03 0.  0.
        5    1    3    3  502    0 -0.14378493550E+03  0.17597656956E+03 -0.52663222502E+03  0.57358996778E+03  0.46999998093E+01 0.  1.
       -5    1    3    3    0  502  0.14378493550E+03 -0.17597656956E+03  0.36086269747E+03  0.42648075822E+03  0.46999998093E+01 0. -1.
</event>
<event>
 5   0  0.2255142E-03  0.9979194E+03  0.7818609E-02  0.9310830E-01
       -2   -1    0    0    0  501  0.00000000000E+00  0.00000000000E+00  0.52749070334E+03  0.52749070335E+03  0.25500000920E-02 0. -1.
        2   -1    0    0  501    0  0.00000000000E+00  0.00000000000E+00 -0.47197185080E+03  0.47197185081E+03  0.25500000920E-02 0.  1.
    10030    2    1    2    0    0  0.00000000000E+00  0.00000000000E+00  0.55518852543E+02  0.99946255416E+03  0.99791936256E+03 0.  0.
        4    1    3    3  502    0 -0.16526964275E+03 -0.38526143853E+03  0.29876744662E+03  0.51478542219E+03  0.12699999809E+01 0. -1.
       -4    1    3    3    0  502  0.16526964275E+03  0.38526143853E+03 -0.24324859408E+03  0.48467713197E+03  0.12699999809E+01 0.  1.
</event>
<event>
 5   0  0.1285769E-03  0.1000882E+04  0.7818609E-02  0.9307578E-01
       -1   -1    0    0    0  501  0.00000000000E+00  0.00000000000E+00  0.66798234364E+03  0.66798234366E+03  0.50400001928E-02 0. -1.
        1   -1    0    0  501    0  0.00000000000E+00  0.00000000000E+00 -0.37492214309E+03  0.37492214313E+03  0.50400001928E-02 0.  1.
    10030    2    1    2    0    0  0.00000000000E+00  0.00000000000E+00  0.29306020055E+03  0.10429044868E+04  0.10008823544E+04 0.  0.
        5    1    3    3  502    0 -0.44417260952E+03  0.81840390003E+02  0.37105824349E+03  0.58454552136E+03  0.46999998093E+01 0. -1.
       -5    1    3    3    0  502  0.44417260952E+03 -0.81840390003E+02 -0.77998042942E+02  0.45835896542E+03  0.46999998093E+01 0.  1.
</event>
<event>
 5   0  0.1285769E-03  0.1008618E+04  0.7818609E-02  0.9299143E-01
        1   -1    0    0  501    0  0.00000000000E+00  0.00000000000E+00  0.89999219253E+03  0.89999219255E+03  0.50400001928E-02 0. -1.
       -1   -1    0    0    0  501  0.00000000000E+00  0.00000000000E+00 -0.28258867320E+03  0.28258867325E+03  0.50400001928E-02 0.  1.
    10030    2    1    2    0    0  0.00000000000E+00  0.00000000000E+00  0.61740351933E+03  0.11825808658E+04  0.10086180637E+04 0.  0.
        5    1    3    3  502    0 -0.30080655268E+03  0.34729403799E+03  0.64985179359E+02  0.46405053011E+03  0.46999998093E+01 0.  1.
       -5    1    3    3    0  502  0.30080655268E+03 -0.34729403799E+03  0.55241833997E+03  0.71853033568E+03  0.46999998093E+01 0. -1.
</event>
<event>
 5   0  0.2277570E-03  0.9990174E+03  0.7818609E-02  0.9309623E-01
        2   -1    0    0  501    0  0.00000000000E+00  0.00000000000E+00  0.25528537256E+04  0.25528537256E+04  0.25500000920E-02 0. -1.
       -2   -1    0    0    0  501  0.00000000000E+00  0.00000000000E+00 -0.97737273638E+02  0.97737273671E+02  0.25500000920E-02 0.  1.
    10030    2    1    2    0    0  0.00000000000E+00  0.00000000000E+00  0.24551164519E+04  0.26505909992E+04  0.99901744365E+03 0.  0.
        3    1    3    3  502    0 -0.26675418543E+03  0.19365480923E+03  0.22232994532E+04  0.22476032678E+04  0.10100000352E+00 0. -1.
       -3    1    3    3    0  502  0.26675418543E+03 -0.19365480923E+03  0.23181699867E+03  0.40298773139E+03  0.10100000352E+00 0.  1.
</event>
<event>
 5   0  0.2255142E-03  0.9987901E+03  0.7818609E-02  0.9309873E-01
        2   -1    0    0  501    0  0.00000000000E+00  0.00000000000E+00  0.50315008719E+03  0.50315008719E+03  0.25500000920E-02 0. -1.
       -2   -1    0    0    0  501  0.00000000000E+00  0.00000000000E+00 -0.49566805276E+03  0.49566805277E+03  0.25500000920E-02 0.  1.
    10030    2    1    2    0    0  0.00000000000E+00  0.00000000000E+00  0.74820344252E+01  0.99881813996E+03  0.99879011603E+03 0.  0.
        4    1    3    3  502    0 -0.29234888385E+03 -0.79015057632E+02 -0.39336276072E+03  0.49643441021E+03  0.12699999809E+01 0.  1.
       -4    1    3    3    0  502  0.29234888385E+03  0.79015057632E+02  0.40084479515E+03  0.50238372975E+03  0.12699999809E+01 0. -1.
</event>
<event>
 5   0  0.2255142E-03  0.1042543E+04  0.7818609E-02  0.9263077E-01
        2   -1    0    0  501    0  0.00000000000E+00  0.00000000000E+00  0.13467200875E+04  0.13467200875E+04  0.25500000920E-02 0. -1.
       -2   -1    0    0    0  501  0.00000000000E+00  0.00000000000E+00 -0.20176719262E+03  0.20176719263E+03  0.25500000920E-02 0.  1.
    10030    2    1    2    0    0  0.00000000000E+00  0.00000000000E+00  0.11449528949E+04  0.15484872802E+04  0.10425429129E+04 0.  0.
        4    1    3    3  502    0 -0.41780451413E+02  0.18984053824E+03 -0.14591875286E+03  0.24306157948E+03  0.12699999809E+01 0.  1.
       -4    1    3    3    0  502  0.41780451413E+02 -0.18984053824E+03  0.12908716478E+04  0.13054257007E+04  0.12699999809E+01 0. -1.
</event>
<event>
 5   0  0.1293575E-03  0.1066638E+04  0.7818609E-02  0.9238333E-01
       -1   -1    0    0    0  501  0.00000000000E+00  0.00000000000E+00  0.57387065865E+03  0.57387065868E+03  0.50400001928E-02 0.  1.
        1   -1    0    0  501    0  0.00000000000E+00  0.00000000000E+00 -0.49563313959E+03  0.49563313962E+03  0.50400001928E-02 0. -1.
    10030    2    1    2    0    0  0.00000000000E+00  0.00000000000E+00  0.78237519063E+02  0.10695037983E+04  0.10666383010E+04 0.  0.
        4    1    3    3  502    0 -0.17316933980E+03  0.50146938874E+03  0.93749396755E+02  0.53874829965E+03  0.12699999809E+01 0. -1.
       -4    1    3    3    0  502  0.17316933980E+03 -0.50146938874E+03 -0.15511877692E+02  0.53075549864E+03  0.12699999809E+01 0.  1.
</event>
<event>
 5   0  0.1293716E-03  0.9944438E+03  0.7818609E-02  0.9314660E-01
       -1   -1    0    0    0  501  0.00000000000E+00  0.00000000000E+00  0.37814882991E+03  0.37814882994E+03  0.50400001928E-02 0. -1.
        1   -1    0    0  501    0  0.00000000000E+00  0.00000000000E+00 -0.65378920897E+03  0.65378920899E+03  0.50400001928E-02 0.  1.
    10030    2    1    2    0    0  0.00000000000E+00  0.00000000000E+00 -0.27564037907E+03  0.10319380389E+04  0.99444381321E+03 0.  0.
        3    1    3    3  502    0 -0.39386983757E+03  0.12796598623E+02  0.17681529410E+03  0.43192691548E+03  0.10100000352E+00 0. -1.
       -3    1    3    3    0  502  0.39386983757E+03 -0.12796598623E+02 -0.45245567316E+03  0.60001112345E+03  0.10100000352E+00 0.  1.
</event>
<event>
 5   0  0.1293716E-03  0.9966141E+03  0.7818609E-02  0.9312266E-01
       -1   -1    0    0    0  501  0.00000000000E+00  0.00000000000E+00  0.25105602101E+03  0.25105602106E+03  0.50400001928E-02 0. -1.
        1   -1    0    0  501    0  0.00000000000E+00  0.00000000000E+00 -0.98906179112E+03  0.98906179113E+03  0.50400001928E-02 0.  1.
    10030    2    1    2    0    0  0.00000000000E+00  0.00000000000E+00 -0.73800577011E+03  0.12401178122E+04  0.99661410356E+03 0.  0.
        3    1    3    3  502    0  0.49470998445E+03 -0.57298700054E+02 -0.34785665574E+03  0.60747458621E+03  0.10100000352E+00 0.  1.
       -3    1    3    3    0  502 -0.49470998445E+03  0.57298700054E+02 -0.39014911437E+03  0.63264322599E+03  0.10100000352E+00 0. -1.
</event>
<event>
 5   0  0.2204862E-03  0.1001195E+04  0.7818609E-02  0.9307235E-01
       -2   -1    0    0    0  501  0.00000000000E+00  0.00000000000E+00  0.24459821827E+03  0.24459821828E+03  0.25500000920E-02 0.  1.
        2   -1    0    0  501    0  0.00000000000E+00  0.00000000000E+00 -0.10245293467E+04  0.10245293467E+04  0.25500000920E-02 0. -1.
    10030    2    1    2    0    0  0.00000000000E+00  0.00000000000E+00 -0.77993112842E+03  0.12691275650E+04  0.10011953911E+04 0.  0.
        1    1    3    3  502    0  0.32094887970E+03 -0.23803055272E+03 -0.77193474328E+01  0.39965774828E+03  0.50400001928E-02 0.  1.
       -1    1    3    3    0  502 -0.32094887970E+03  0.23803055272E+03 -0.77221178099E+03  0.86946981669E+03  0.50400001928E-02 0. -1.
</event>
<event>
 5   0  0.1293575E-03  0.1001902E+04  0.7818609E-02  0.9306461E-01
        1   -1    0    0  501    0  0.00000000000E+00  0.00000000000E+00  0.11976849361E+04  0.11976849361E+04  0.50400001928E-02 0.  1.
       -1   -1    0    0    0  501  0.00000000000E+00  0.00000000000E+00 -0.20953085054E+03  0.20953085060E+03  0.50400001928E-02 0. -1.
    10030    2    1    2    0    0  0.00000000000E+00  0.00000000000E+00  0.98815408552E+03  0.14072157867E+04  0.10019020778E+04 0.  0.
        4    1    3    3  502    0 -0.63648583842E+02 -0.52300211071E+02  0.11881036599E+04  0.11909569152E+04  0.12699999809E+01 0.  1.
       -4    1    3    3    0  502  0.63648583842E+02  0.52300211071E+02 -0.19994957437E+03  0.21625887148E+03  0.12699999809E+01 0. -1.
</event>
<event>
 5   0  0.2277570E-03  0.9992265E+03  0.7818609E-02  0.9309394E-01
       -2   -1    0    0    0  501  0.00000000000E+00  0.00000000000E+00  0.31536708426E+03  0.31536708427E+03  0.25500000920E-02 0.  1.
        2   -1    0    0  501    0  0.00000000000E+00  0.00000000000E+00 -0.79150103884E+03  0.79150103885E+03  0.25500000920E-02 0. -1.
    10030    2    1    2    0    0  0.00000000000E+00  0.00000000000E+00 -0.47613395458E+03  0.11068681231E+04  0.99922645045E+03 0.  0.
        3    1    3    3  502    0 -0.42013647096E+03 -0.63490082222E+02  0.53051330409E+02  0.42820567328E+03  0.10100000352E+00 0.  1.
       -3    1    3    3    0  502  0.42013647096E+03  0.63490082222E+02 -0.52918528499E+03  0.67866244984E+03  0.10100000352E+00 0. -1.
</event>
<event>
 5   0  0.1285769E-03  0.1001776E+04  0.7818609E-02  0.9306599E-01
        1   -1    0    0  501    0  0.00000000000E+00  0.00000000000E+00  0.41960201902E+03  0.41960201905E+03  0.50400001928E-02 0.  1.
       -1   -1    0    0    0  501  0.00000000000E+00  0.00000000000E+00 -0.59792131460E+03  0.59792131463E+03  0.50400001928E-02 0. -1.
    10030    2    1    2    0    0  0.00000000000E+00  0.00000000000E+00 -0.17831929559E+03  0.10175233337E+04  0.10017764039E+04 0.  0.
        5    1    3    3  502    0 -0.29017046270E+03 -0.28349331390E+03  0.20922593179E+03  0.45647008334E+03  0.46999998093E+01 0.  1.
       -5    1    3    3    0  502  0.29017046270E+03  0.28349331390E+03 -0.38754522738E+03  0.56105325034E+03  0.46999998093E+01 0. -1.
</event>
<event>
 5   0  0.2277570E-03  0.1003426E+04  0.7818609E-02  0.9304795E-01
        2   -1    0    0  501    0  0.00000000000E+00  0.00000000000E+00  0.14909319124E+03  0.14909319126E+03  0.25500000920E-02 0. -1.
       -2   -1    0    0    0  501  0.00000000000E+00  0.00000000000E+00 -0.16883137533E+04  0.16883137533E+04  0.25500000920E-02 0.  1.
    10030    2    1    2    0    0  0.00000000000E+00  0.00000000000E+00 -0.15392205620E+04  0.18374069445E+04  0.10034263008E+04 0.  0.
        3    1    3    3  502    0  0.27461388404E+03 -0.38510199044E+03 -0.46320452111E+03  0.66202323745E+03  0.10100000352E+00 0. -1.
       -3    1    3    3    0  502 -0.27461388404E+03  0.38510199044E+03 -0.10760160409E+04  0.11753837071E+04  0.10100000352E+00 0.  1.
</event>
<event>
 5   0  0.2204862E-03  0.9968000E+03  0.7818609E-02  0.9312061E-01
        2   -1    0    0  501    0  0.00000000000E+00  0.00000000000E+00  0.85864460013E+03  0.85864460014E+03  0.25500000920E-02 0. -1.
       -2   -1    0    0    0  501  0.00000000000E+00  0.00000000000E+00 -0.28929613415E+03  0.28929613416E+03  0.25500000920E-02 0.  1.
    10030    2    1    2    0    0  0.00000000000E+00  0.00000000000E+00  0.56934846599E+03  0.11479407343E+04  0.99680000689E+03 0.  0.
        1    1    3    3  502    0 -0.41151512773E+03 -0.21939176315E+03  0.82154608922E+02  0.47352595059E+03  0.50400001928E-02 0.  1.
       -1    1    3    3    0  502  0.41151512773E+03  0.21939176315E+03  0.48719385706E+03  0.67441478370E+03  0.50400001928E-02 0. -1.
</event>
<event>
 5   0  0.1285769E-03  0.1002513E+04  0.7818609E-02  0.9305793E-01
        1   -1    0    0  501    0  0.00000000000E+00  0.00000000000E+00  0.16925743958E+04  0.16925743958E+04  0.50400001928E-02 0.  1.
       -1   -1    0    0    0  501  0.00000000000E+00  0.00000000000E+00 -0.14844730899E+03  0.14844730907E+03  0.50400001928E-02 0. -1.
    10030    2    1    2    0    0  0.00000000000E+00  0.00000000000E+00  0.15441270868E+04  0.18410217048E+04  0.10025130710E+04 0.  0.
        5    1    3    3  502    0  0.20737536404E+03  0.31046283684E+03  0.15791162657E+03  0.40540089600E+03  0.46999998093E+01 0. -1.
       -5    1    3    3    0  502 -0.20737536404E+03 -0.31046283684E+03  0.13862154602E+04  0.14356208088E+04  0.46999998093E+01 0.  1.
</event>
<event>
 5   0  0.1249195E-03  0.9611053E+03  0.7818609E-02  0.9352263E-01
       -1   -1    0    0    0  501  0.00000000000E+00  0.00000000000E+00  0.58746205088E+03  0.58746205090E+03  0.50400001928E-02 0.  1.
        1   -1    0    0  501    0  0.00000000000E+00  0.00000000000E+00 -0.39309921478E+03  0.39309921482E+03  0.50400001928E-02 0. -1.
    10030    2    1    2    0    0  0.00000000000E+00  0.00000000000E+00  0.19436283609E+03  0.98056126571E+03  0.96110534478E+03 0.  0.
        2    1    3    3  502    0 -0.35506264441E+01 -0.44960973894E+03 -0.75867441230E+02  0.45597959707E+03  0.25500000920E-02 0. -1.
       -2    1    3    3    0  502  0.35506264441E+01  0.44960973894E+03  0.27023027732E+03  0.52458166865E+03  0.25500000920E-02 0.  1.
</event>
<event>
 5   0  0.2284843E-03  0.1001866E+04  0.7818609E-02  0.9306500E-01
        2   -1    0    0  501    0  0.00000000000E+00  0.00000000000E+00  0.10863955651E+04  0.10863955651E+04  0.25500000920E-02 0. -1.
       -2   -1    0    0    0  501  0.00000000000E+00  0.00000000000E+00 -0.23097848603E+03  0.23097848605E+03  0.25500000920E-02 0.  1.
    10030    2    1    2    0    0  0.00000000000E+00  0.00000000000E+00  0.85541707910E+03  0.13173740512E+04  0.10018662643E+04 0.  0.
        2    1    3    3  502    0 -0.30123111395E+03  0.39660646620E+03  0.35693297686E+03  0.61272997562E+03  0.25500000920E-02 0.  1.
       -2    1    3    3    0  502  0.30123111395E+03 -0.39660646620E+03  0.49848410224E+03  0.70464407557E+03  0.25500000920E-02 0. -1.
</event>
<event>
 5   0  0.2284843E-03  0.1001961E+04  0.7818609E-02  0.9306397E-01
        2   -1    0    0  501    0  0.00000000000E+00  0.00000000000E+00  0.67019709570E+03  0.67019709571E+03  0.25500000920E-02 0. -1.
       -2   -1    0    0    0  501  0.00000000000E+00  0.00000000000E+00 -0.37448890595E+03  0.37448890596E+03  0.25500000920E-02 0.  1.
    10030    2    1    2    0    0  0.00000000000E+00  0.00000000000E+00  0.29570818975E+03  0.10446860017E+04  0.10019608319E+04 0.  0.
        2    1    3    3  502    0  0.21970961405E+03 -0.41179204578E+03 -0.41942108300E+02  0.46861940200E+03  0.25500000920E-02 0. -1.
       -2    1    3    3    0  502 -0.21970961405E+03  0.41179204578E+03  0.33765029805E+03  0.57606659967E+03  0.25500000920E-02 0.  1.
</event>
<event>
 5   0  0.1293716E-03  0.9979249E+03  0.7818609E-02  0.9310824E-01
        1   -1    0    0  501    0  0.00000000000E+00  0.00000000000E+00  0.19327267647E+03  0.19327267653E+03  0.50400001928E-02 0. -1.
       -1   -1    0    0    0  501  0.00000000000E+00  0.00000000000E+00 -0.12881465074E+04  0.12881465074E+04  0.50400001928E-02 0.  1.
    10030    2    1    2    0    0  0.00000000000E+00  0.00000000000E+00 -0.10948738310E+04  0.14814191840E+04  0.99792489342E+03 0.  0.
        3    1    3    3  502    0  0.86393136145E+02 -0.58721101498E+02  0.17685832983E+03  0.20540404272E+03  0.10100000352E+00 0. -1.
       -3    1    3    3    0  502 -0.86393136145E+02  0.58721101498E+02 -0.12717321608E+04  0.12760151412E+04  0.10100000352E+00 0.  1.
</event>
<event>
 5   0  0.1249195E-03  0.9784442E+03  0.7818609E-02  0.9332508E-01
       -1   -1    0    0    0  501  0.00000000000E+00  0.00000000000E+00  0.77243412921E+03  0.77243412923E+03  0.50400001928E-02 0.  1.
        1   -1    0    0  501    0  0.00000000000E+00  0.00000000000E+00 -0.30984939673E+03  0.30984939677E+03  0.50400001928E-02 0. -1.
    10030    2    1    2    0    0  0.00000000000E+00  0.00000000000E+00  0.46258473248E+03  0.10822835260E+04  0.97844417108E+03 0.  0.
        2    1    3    3  502    0  0.45342090945E+03 -0.13222951910E+03  0.90231539430E+02  0.48085018203E+03  0.25500000920E-02 0. -1.
       -2    1    3    3    0  502 -0.45342090945E+03  0.13222951910E+03  0.37235319305E+03  0.60143334396E+03  0.25500000920E-02 0.  1.
</event>
<event>
 5   0  0.2204862E-03  0.1016222E+04  0.7818609E-02  0.9290929E-01
       -2   -1    0    0    0  501  0.00000000000E+00  0.00000000000E+00  0.54806354412E+03  0.54806354413E+03  0.25500000920E-02 0. -1.
        2   -1    0    0  501    0  0.00000000000E+00  0.00000000000E+00 -0.47107107936E+03  0.47107107937E+03  0.25500000920E-02 0.  1.
    10030    2    1    2    0    0  0.00000000000E+00  0.00000000000E+00  0.76992464756E+02  0.10191346235E+04  0.10162221909E+04 0.  0.
        1    1    3    3  502    0  0.10169700274E+03  0.34348069071E+03 -0.32289137621E+03  0.48226559706E+03  0.50400001928E-02 0.  1.
       -1    1    3    3    0  502 -0.10169700274E+03 -0.34348069071E+03  0.39988384096E+03  0.53686902643E+03  0.50400001928E-02 0. -1.
</event>
<event>
 5   0  0.1293575E-03  0.9982419E+03  0.7818609E-02  0.9310475E-01
        1   -1    0    0  501    0  0.00000000000E+00  0.00000000000E+00  0.49606196938E+03  0.49606196940E+03  0.50400001928E-02 0. -1.
       -1   -1    0    0    0  501  0.00000000000E+00  0.00000000000E+00 -0.50219878725E+03  0.50219878728E+03  0.50400001928E-02 0.  1.
    10030    2    1    2    0    0  0.00000000000E+00  0.00000000000E+00 -0.61368178749E+01  0.99826075668E+03  0.99824189342E+03 0.  0.
        4    1    3    3  502    0  0.11528482476E+02  0.85344749270E+02 -0.49471117476E+03  0.50215275710E+03  0.12699999809E+01 0.  1.
       -4    1    3    3    0  502 -0.11528482476E+02 -0.85344749270E+02  0.48857435688E+03  0.49610799957E+03  0.12699999809E+01 0. -1.
</event>
<event>
 5   0  0.2204862E-03  0.1001648E+04  0.7818609E-02  0.9306739E-01
        2   -1    0    0  501    0  0.00000000000E+00  0.00000000000E+00  0.92424919248E+03  0.92424919249E+03  0.25500000920E-02 0. -1.
       -2   -1    0    0    0  501  0.00000000000E+00  0.00000000000E+00 -0.27138193973E+03  0.27138193974E+03  0.25500000920E-02 0.  1.
    10030    2    1    2    0    0  0.00000000000E+00  0.00000000000E+00  0.65286725275E+03  0.11956311322E+04  0.10016477198E+04 0.  0.
        1    1    3    3  502    0  0.14615867080E+03 -0.47901549691E+03  0.32342917035E+03  0.59617500081E+03  0.50400001928E-02 0. -1.
       -1    1    3    3    0  502 -0.14615867080E+03  0.47901549691E+03  0.32943808240E+03  0.59945613142E+03  0.50400001928E-02 0.  1.
</event>
<event>
 5   0  0.1353789E-03  0.9992328E+03  0.7818609E-02  0.9309387E-01
        1   -1    0    0  501    0  0.00000000000E+00  0.00000000000E+00  0.47427554614E+03  0.47427554617E+03  0.50400001928E-02 0. -1.
       -1   -1    0    0    0  501  0.00000000000E+00  0.00000000000E+00 -0.52631120549E+03  0.52631120552E+03  0.50400001928E-02 0.  1.
    10030    2    1    2    0    0  0.00000000000E+00  0.00000000000E+00 -0.52035659353E+02  0.10005867517E+04  0.99923277458E+03 0.  0.
        1    1    3    3  502    0 -0.10248710227E+03 -0.30674454843E+03 -0.40734968979E+03  0.52012459461E+03  0.50400001928E-02 0.  1.
       -1    1    3    3    0  502  0.10248710227E+03  0.30674454843E+03  0.35531403044E+03  0.48046215707E+03  0.50400001928E-02 0. -1.
</event>
<event>
 5   0  0.2255142E-03  0.9987234E+03  0.7818609E-02  0.9309946E-01
        2   -1    0    0  501    0  0.00000000000E+00  0.00000000000E+00  0.15435236465E+04  0.15435236465E+04  0.25500000920E-02 0.  1.
       -2   -1    0    0    0  501  0.00000000000E+00  0.00000000000E+00 -0.16155379559E+03  0.16155379561E+03  0.25500000920E-02 0. -1.
    10030    2    1    2    0    0  0.00000000000E+00  0.00000000000E+00  0.13819698509E+04  0.17050774421E+04  0.99872339254E+03 0.  0.
        4    1    3    3  502    0  0.19179652720E+03 -0.49121406336E+02  0.14736494377E+04  0.14868904124E+04  0.12699999809E+01 0.  1.
       -4    1    3    3    0  502 -0.19179652720E+03  0.49121406336E+02 -0.91679586768E+02  0.21818702972E+03  0.12699999809E+01 0. -1.
</event>
<event>
 5   0  0.1285769E-03  0.1000558E+04  0.7818609E-02  0.9307933E-01
       -1   -1    0    0    0  501  0.00000000000E+00  0.00000000000E+00  0.48916081621E+03  0.48916081624E+03  0.50400001928E-02 0. -1.
        1   -1    0    0  501    0  0.00000000000E+00  0.00000000000E+00 -0.51164969983E+03  0.51164969985E+03  0.50400001928E-02 0.  1.
    10030    2    1    2    0    0  0.00000000000E+00  0.00000000000E+00 -0.22488883613E+02  0.10008105161E+04  0.10005578140E+04 0.  0.
        5    1    3    3  502    0 -0.27469197936E+03 -0.33456629593E+03 -0.26203990479E+03  0.50604080033E+03  0.46999998093E+01 0.  1.
       -5    1    3    3    0  502  0.27469197936E+03  0.33456629593E+03  0.23955102117E+03  0.49476971577E+03  0.46999998093E+01 0. -1.
</event>
<event>
 5   0  0.2277570E-03  0.1002684E+04  0.7818609E-02  0.9305606E-01
        2   -1    0    0  501    0  0.00000000000E+00  0.00000000000E+00  0.45557503840E+03  0.45557503841E+03  0.25500000920E-02 0.  1.
       -2   -1    0    0    0  501  0.00000000000E+00  0.00000000000E+00 -0.55170692491E+03  0.55170692492E+03  0.25500000920E-02 0. -1.
    10030    2    1    2    0    0  0.00000000000E+00  0.00000000000E+00 -0.96131886515E+02  0.10072819633E+04  0.10026842045E+04 0.  0.
        3    1    3    3  502    0  0.44307330635E+03  0.12077959193E+03  0.15395873521E+03  0.48436036891E+03  0.10100000352E+00 0. -1.
       -3    1    3    3    0  502 -0.44307330635E+03 -0.12077959193E+03 -0.25009062172E+03  0.52292159441E+03  0.10100000352E+00 0.  1.
</event>
<event>
 5   0  0.2284843E-03  0.1000234E+04  0.7818609E-02  0.9308288E-01
        2   -1    0    0  501    0  0.00000000000E+00  0.00000000000E+00  0.17495446056E+04  0.17495446056E+04  0.25500000920E-02 0. -1.
       -2   -1    0    0    0  501  0.00000000000E+00  0.00000000000E+00 -0.14296128742E+03  0.14296128744E+03  0.25500000920E-02 0.  1.
    10030    2    1    2    0    0  0.00000000000E+00  0.00000000000E+00  0.16065833182E+04  0.18925058930E+04  0.10002342710E+04 0.  0.
        2    1    3    3  502    0 -0.46815426814E+03 -0.16284762610E+03  0.92921523126E+03  0.10531518001E+04  0.25500000920E-02 0. -1.
       -2    1    3    3    0  502  0.46815426814E+03  0.16284762610E+03  0.67736808692E+03  0.83935409292E+03  0.25500000920E-02 0.  1.
</event>
<event>
 5   0  0.2204862E-03  0.1001004E+04  0.7818609E-02  0.9307444E-01
        2   -1    0    0  501    0  0.00000000000E+00  0.00000000000E+00  0.19417466913E+04  0.19417466913E+04  0.25500000920E-02 0.  1.
       -2   -1    0    0    0  501  0.00000000000E+00  0.00000000000E+00 -0.12900883026E+03  0.12900883029E+03  0.25500000920E-02 0. -1.
    10030    2    1    2    0    0  0.00000000000E+00  0.00000000000E+00  0.18127378610E+04  0.20707555216E+04  0.10010044342E+04 0.  0.
        1    1    3    3  502    0 -0.12913361356E+03  0.35735794449E+03  0.15802699449E+04  0.16253102133E+04  0.50400001928E-02 0.  1.
       -1    1    3    3    0  502  0.12913361356E+03 -0.35735794449E+03  0.23246791618E+03  0.44544530834E+03  0.50400001928E-02 0. -1.
</event>
<event>
 5   0  0.1249195E-03  0.9906375E+03  0.7818609E-02  0.9318873E-01
       -1   -1    0    0    0  501  0.00000000000E+00  0.00000000000E+00  0.28979776433E+03  0.28979776438E+03  0.50400001928E-02 0. -1.
        1   -1    0    0  501    0  0.00000000000E+00  0.00000000000E+00 -0.84659259433E+03  0.84659259435E+03  0.50400001928E-02 0.  1.
    10030    2    1    2    0    0  0.00000000000E+00  0.00000000000E+00 -0.55679483000E+03  0.11363903587E+04  0.99063745371E+03 0.  0.
        2    1    3    3  502    0  0.10943826501E+03  0.37648250962E+03  0.68834296756E+02  0.39806277685E+03  0.25500000920E-02 0. -1.
       -2    1    3    3    0  502 -0.10943826501E+03 -0.37648250962E+03 -0.62562912676E+03  0.73832758187E+03  0.25500000920E-02 0.  1.
</event>
<event>
 5   0  0.2284843E-03  0.9818127E+03  0.7818609E-02  0.9328720E-01
       -2   -1    0    0    0  501  0.00000000000E+00  0.00000000000E+00  0.38818394236E+03  0.38818394237E+03  0.25500000920E-02 0. -1.
        2   -1    0    0  501    0  0.00000000000E+00  0.00000000000E+00 -0.62081149872E+03  0.62081149873E+03  0.25500000920E-02 0.  1.
    10030    2    1    2    0    0  0.00000000000E+00  0.00000000000E+00 -0.23262755636E+03  0.10089954411E+04  0.98181272154E+03 0.  0.
        2    1    3    3  502    0 -0.43939088510E+03  0.18293802686E+02 -0.34050499420E+03  0.55618581805E+03  0.25500000920E-02 0.  1.
       -2    1    3    3    0  502  0.43939088510E+03 -0.18293802686E+02  0.10787743783E+03  0.45280962305E+03  0.25500000920E-02 0. -1.
</event>
<event>
 5   0  0.1293716E-03  0.9991334E+03  0.7818609E-02  0.9309496E-01
        1   -1    0    0  501    0  0.00000000000E+00  0.00000000000E+00  0.10215718581E+04  0.10215718581E+04  0.50400001928E-02 0.  1.
       -1   -1    0    0    0  501  0.00000000000E+00  0.00000000000E+00 -0.24429694194E+03  0.24429694200E+03  0.50400001928E-02 0. -1.
    10030    2    1    2    0    0  0.00000000000E+00  0.00000000000E+00  0.77727491616E+03  0.12658688001E+04  0.99913338639E+03 0.  0.
        3    1    3    3  502    0 -0.23314457157E+03  0.41708955149E+03  0.20396087027E+03  0.51953838359E+03  0.10100000352E+00 0. -1.
       -3    1    3    3    0  502  0.23314457157E+03 -0.41708955149E+03  0.57331404589E+03  0.74633041653E+03  0.10100000352E+00 0.  1.
</event>
<event>
 5   0  0.1293575E-03  0.9933403E+03  0.7818609E-02  0.9315879E-01
        1   -1    0    0  501    0  0.00000000000E+00  0.00000000000E+00  0.13658014154E+04  0.13658014154E+04  0.50400001928E-02 0. -1.
       -1   -1    0    0    0  501  0.00000000000E+00  0.00000000000E+00 -0.18061279663E+03  0.18061279670E+03  0.50400001928E-02 0.  1.
    10030    2    1    2    0    0  0.00000000000E+00  0.00000000000E+00  0.11851886188E+04  0.15464142122E+04  0.99334025057E+03 0.  0.
        4    1    3    3  502    0  0.48890501751E+03 -0.26953711891E+02  0.72214421902E+03  0.87249556142E+03  0.12699999809E+01 0.  1.
       -4    1    3    3    0  502 -0.48890501751E+03  0.26953711891E+02  0.46304439979E+03  0.67391865073E+03  0.12699999809E+01 0. -1.
</event>
<event>
 5   0  0.1249195E-03  0.9632692E+03  0.7818609E-02  0.9349774E-01
        1   -1    0    0  501    0  0.00000000000E+00  0.00000000000E+00  0.11602868676E+04  0.11602868676E+04  0.50400001928E-02 0.  1.
       -1   -1    0    0    0  501  0.00000000000E+00  0.00000000000E+00 -0.19992634415E+03  0.19992634422E+03  0.50400001928E-02 0. -1.
    10030    2    1    2    0    0  0.00000000000E+00  0.00000000000E+00  0.96036052348E+03  0.13602132119E+04  0.96326924931E+03 0.  0.
        2    1    3    3  502    0 -0.24810807772E+03  0.11371355907E+03  0.10405528065E+04  0.10757502195E+04  0.25500000920E-02 0.  1.
       -2    1    3    3    0  502  0.24810807772E+03 -0.11371355907E+03 -0.80192283003E+02  0.28446299233E+03  0.25500000920E-02 0. -1.
</event>
<event>
 5   0  0.1285769E-03  0.9979714E+03  0.7818609E-02  0.9310773E-01
       -1   -1    0    0    0  501  0.00000000000E+00  0.00000000000E+00  0.15804735086E+03  0.15804735094E+03  0.50400001928E-02 0.  1.
        1   -1    0    0  501    0  0.00000000000E+00  0.00000000000E+00 -0.15753932892E+04  0.15753932893E+04  0.50400001928E-02 0. -1.
    10030    2    1    2    0    0  0.00000000000E+00  0.00000000000E+00 -0.14173459384E+04  0.17334406402E+04  0.99797141443E+03 0.  0.
        5    1    3    3  502    0 -0.45556281895E+03 -0.91847833856E+02 -0.10241658256E+04  0.11246827263E+04  0.46999998093E+01 0.  1.
       -5    1    3    3    0  502  0.45556281895E+03  0.91847833856E+02 -0.39318011281E+03  0.60875791387E+03  0.46999998093E+01 0. -1.
</event>
<event>
 5   0  0.2277570E-03  0.9995001E+03  0.7818609E-02  0.9309093E-01
       -2   -1    0    0    0  501  0.00000000000E+00  0.00000000000E+00  0.27569744732E+03  0.27569744733E+03  0.25500000920E-02 0.  1.
        2   -1    0    0  501    0  0.00000000000E+00  0.00000000000E+00 -0.90588482210E+03  0.90588482211E+03  0.25500000920E-02 0. -1.
    10030    2    1    2    0    0  0.00000000000E+00  0.00000000000E+00 -0.63018737478E+03  0.11815822694E+04  0.99950014113E+03 0.  0.
        3    1    3    3  502    0  0.28347035145E+03 -0.38680516372E+03 -0.48134123651E+03  0.67945792438E+03  0.10100000352E+00 0. -1.
       -3    1    3    3    0  502 -0.28347035145E+03  0.38680516372E+03 -0.14884613827E+03  0.50212434506E+03  0.10100000352E+00 0.  1.
</event>
<event>
 5   0  0.2255142E-03  0.1048397E+04  0.7818609E-02  0.9257001E-01
       -2   -1    0    0    0  501  0.00000000000E+00  0.00000000000E+00  0.65063248164E+03  0.65063248164E+03  0.25500000920E-02 0. -1.
        2   -1    0    0  501    0  0.00000000000E+00  0.00000000000E+00 -0.42233343496E+03  0.42233343497E+03  0.25500000920E-02 0.  1.
    10030    2    1    2    0    0  0.00000000000E+00  0.00000000000E+00  0.22829904668E+03  0.10729659166E+04  0.10483965869E+04 0.  0.
        4    1    3    3  502    0 -0.19888628138E+03 -0.25193311361E+03 -0.30999760275E+03  0.44623555805E+03  0.12699999809E+01 0.  1.
       -4    1    3    3    0  502  0.19888628138E+03  0.25193311361E+03  0.53829664943E+03  0.62673035856E+03  0.12699999809E+01 0. -1.
</event>
<event>
 5   0  0.2264577E-03  0.1019791E+04  0.7818609E-02  0.9287100E-01
       -2   -1    0    0    0  501  0.00000000000E+00  0.00000000000E+00  0.19014737421E+03  0.19014737423E+03  0.25500000920E-02 0.  1.
        2   -1    0    0  501    0  0.00000000000E+00  0.00000000000E+00 -0.13673268183E+04  0.13673268183E+04  0.25500000920E-02 0. -1.
    10030    2    1    2    0    0  0.00000000000E+00  0.00000000000E+00 -0.11771794441E+04  0.15574741925E+04  0.10197913595E+04 0.  0.
        5    1    3    3  502    0 -0.44178777044E+03  0.15128150902E+03 -0.90124308413E+03  0.10150486273E+04  0.46999998093E+01 0.  1.
       -5    1    3    3    0  502  0.44178777044E+03 -0.15128150902E+03 -0.27593635996E+03  0.54242556524E+03  0.46999998093E+01 0. -1.
</event>
<event>
 5   0  0.1249195E-03  0.1000358E+04  0.7818609E-02  0.9308152E-01
        1   -1    0    0  501    0  0.00000000000E+00  0.00000000000E+00  0.15860779316E+04  0.15860779316E+04  0.50400001928E-02 0. -1.
       -1   -1    0    0    0  501  0.00000000000E+00  0.00000000000E+00 -0.15773437907E+03  0.15773437915E+03  0.50400001928E-02 0.  1.
    10030    2    1    2    0    0  0.00000000000E+00  0.00000000000E+00  0.14283435526E+04  0.17438123108E+04  0.10003579715E+04 0.  0.
        2    1    3    3  502    0  0.40433313564E+03  0.29399562136E+03  0.68604707615E+03  0.84886942497E+03  0.25500000920E-02 0. -1.
       -2    1    3    3    0  502 -0.40433313564E+03 -0.29399562136E+03  0.74229647641E+03  0.89494288581E+03  0.25500000920E-02 0.  1.
</event>
<event>
 5   0  0.8680125E-04  0.1001228E+04  0.7818609E-02  0.9307199E-01
       -4   -1    0    0    0  501  0.00000000000E+00  0.00000000000E+00  0.34074307391E+03  0.34074544064E+03  0.12699999809E+01 0.  1.
        4   -1    0    0  501    0  0.00000000000E+00  0.00000000000E+00 -0.73548835718E+03  0.73548945367E+03  0.12699999809E+01 0. -1.
    10030    2    1    2    0    0  0.00000000000E+00  0.00000000000E+00 -0.39474528327E+03  0.10762348943E+04  0.10012281004E+04 0.  0.
        5    1    3    3  502    0  0.39559538013E+01 -0.22884594052E+03  0.28118326616E+03  0.36259099993E+03  0.46999998093E+01 0.  1.
       -5    1    3    3    0  502 -0.39559538013E+01  0.22884594052E+03 -0.67592854943E+03  0.71364389438E+03  0.46999998093E+01 0. -1.
</event>
<event>
 5   0  0.8680125E-04  0.9977722E+03  0.7818609E-02  0.9310992E-01
        3   -1    0    0  501    0  0.00000000000E+00  0.00000000000E+00  0.24613078882E+04  0.24613078903E+04  0.10100000352E+00 0.  1.
       -3   -1    0    0    0  501  0.00000000000E+00  0.00000000000E+00 -0.10111991974E+03  0.10111997018E+03  0.10100000352E+00 0. -1.
    10030    2    1    2    0    0  0.00000000000E+00  0.00000000000E+00  0.23601879685E+04  0.25624278605E+04  0.99777216515E+03 0.  0.
        2    1    3    3  502    0 -0.16748619137E+03 -0.42184976588E+03  0.17118836879E+04  0.17710320748E+04  0.25500000920E-02 0.  1.
       -2    1    3    3    0  502  0.16748619137E+03  0.42184976588E+03  0.64830428063E+03  0.79139578566E+03  0.25500000920E-02 0. -1.
</event>
<event>
 5   0  0.1285769E-03  0.9996024E+03  0.7818609E-02  0.9308981E-01
        1   -1    0    0  501    0  0.00000000000E+00  0.00000000000E+00  0.19202700881E+03  0.19202700888E+03  0.50400001928E-02 0.  1.
       -1   -1    0    0    0  501  0.00000000000E+00  0.00000000000E+00 -0.13008650913E+04  0.13008650913E+04  0.50400001928E-02 0. -1.
    10030    2    1    2    0    0  0.00000000000E+00  0.00000000000E+00 -0.11088380825E+04  0.14928921002E+04  0.99960238577E+03 0.  0.
        5    1    3    3  502    0  0.31330057630E+03 -0.25233067395E+03 -0.11150257253E+03  0.41747207548E+03  0.46999998093E+01 0.  1.
       -5    1    3    3    0  502 -0.31330057630E+03  0.25233067395E+03 -0.99733550994E+03  0.10754200247E+04  0.46999998093E+01 0. -1.
</event>
<event>
 5   0  0.1293575E-03  0.9932903E+03  0.7818609E-02  0.9315935E-01
        1   -1    0    0  501    0  0.00000000000E+00  0.00000000000E+00  0.68079751945E+03  0.68079751947E+03  0.50400001928E-02 0.  1.
       -1   -1    0    0    0  501  0.00000000000E+00  0.00000000000E+00 -0.36230509282E+03  0.36230509286E+03  0.50400001928E-02 0. -1.
    10030    2    1    2    0    0  0.00000000000E+00  0.00000000000E+00  0.31849242663E+03  0.10431026123E+04  0.99329030703E+03 0.  0.
        4    1    3    3  502    0 -0.28860887220E+03  0.32832912985E+03  0.40677788217E+03  0.59713060292E+03  0.12699999809E+01 0.  1.
       -4    1    3    3    0  502  0.28860887220E+03 -0.32832912985E+03 -0.88285455546E+02  0.44597200941E+03  0.12699999809E+01 0. -1.
</event>
<event>
 5   0  0.1353789E-03  0.1000993E+04  0.7818609E-02  0.9307456E-01
       -1   -1    0    0    0  501  0.00000000000E+00  0.00000000000E+00  0.31266036666E+03  0.31266036670E+03  0.50400001928E-02 0. -1.
        1   -1    0    0  501    0  0.00000000000E+00  0.00000000000E+00 -0.80117887053E+03  0.80117887055E+03  0.50400001928E-02 0.  1.
    10030    2    1    2    0    0  0.00000000000E+00  0.00000000000E+00 -0.48851850387E+03  0.11138392373E+04  0.10009932656E+04 0.  0.
        1    1    3    3  502    0  0.13997022892E+03  0.47985859492E+03 -0.21608832279E+03  0.54456413706E+03  0.50400001928E-02 0.  1.
       -1    1    3    3    0  502 -0.13997022892E+03 -0.47985859492E+03 -0.27243018108E+03  0.56927510019E+03  0.50400001928E-02 0. -1.
</event>
<event>
 5   0  0.2255142E-03  0.1001778E+04  0.7818609E-02  0.9306597E-01
       -2   -1    0    0    0  501  0.00000000000E+00  0.00000000000E+00  0.34511603933E+03  0.34511603933E+03  0.25500000920E-02 0. -1.
        2   -1    0    0  501    0  0.00000000000E+00  0.00000000000E+00 -0.72697244288E+03  0.72697244288E+03  0.25500000920E-02 0.  1.
    10030    2    1    2    0    0  0.00000000000E+00  0.00000000000E+00 -0.38185640355E+03  0.10720884822E+04  0.10017781195E+04 0.  0.
        4    1    3    3  502    0 -0.46636805305E+03 -0.14787734936E+03 -0.76057024024E+02  0.49512943274E+03  0.12699999809E+01 0. -1.
       -4    1    3    3    0  502  0.46636805305E+03  0.14787734936E+03 -0.30579937953E+03  0.57695904948E+03  0.12699999809E+01 0.  1.
</event>
<event>
 5   0  0.2264577E-03  0.9994643E+03  0.7818609E-02  0.9309133E-01
        2   -1    0    0  501    0  0.00000000000E+00  0.00000000000E+00  0.72414868669E+03  0.72414868670E+03  0.25500000920E-02 0.  1.
       -2   -1    0    0    0  501  0.00000000000E+00  0.00000000000E+00 -0.34486317362E+03  0.34486317363E+03  0.25500000920E-02 0. -1.
    10030    2    1    2    0    0  0.00000000000E+00  0.00000000000E+00  0.37928551307E+03  0.10690118603E+04  0.99946428505E+03 0.  0.
        5    1    3    3  502    0  0.11231437537E+03  0.18006162161E+02 -0.33080824651E+03  0.34984986315E+03  0.46999998093E+01 0. -1.
       -5    1    3    3    0  502 -0.11231437537E+03 -0.18006162161E+02  0.71009375958E+03  0.71916199718E+03  0.46999998093E+01 0.  1.
</event>
<event>
 5   0  0.1285769E-03  0.9995527E+03  0.7818609E-02  0.9309035E-01
        1   -1    0    0  501    0  0.00000000000E+00  0.00000000000E+00  0.25087238896E+03  0.25087238901E+03  0.50400001928E-02 0. -1.
       -1   -1    0    0    0  501  0.00000000000E+00  0.00000000000E+00 -0.99563134135E+03  0.99563134136E+03  0.50400001928E-02 0.  1.
    10030    2    1    2    0    0  0.00000000000E+00  0.00000000000E+00 -0.74475895239E+03  0.12465037304E+04  0.99955272630E+03 0.  0.
        5    1    3    3  502    0 -0.21813889760E+03  0.44403142639E+03 -0.28414745626E+03  0.57053514631E+03  0.46999998093E+01 0. -1.
       -5    1    3    3    0  502  0.21813889760E+03 -0.44403142639E+03 -0.46061149613E+03  0.67596858406E+03  0.46999998093E+01 0.  1.
</event>
<event>
 5   0  0.2204862E-03  0.1000303E+04  0.7818609E-02  0.9308213E-01
       -2   -1    0    0    0  501  0.00000000000E+00  0.00000000000E+00  0.22476042612E+03  0.22476042614E+03  0.25500000920E-02 0.  1.
        2   -1    0    0  501    0  0.00000000000E+00  0.00000000000E+00 -0.11129691136E+04  0.11129691136E+04  0.25500000920E-02 0. -1.
    10030    2    1    2    0    0  0.00000000000E+00  0.00000000000E+00 -0.88820868746E+03  0.13377295397E+04  0.10003027786E+04 0.  0.
        1    1    3    3  502    0  0.20277964696E+03 -0.28551255119E+03 -0.92165173301E+03  0.98594062656E+03  0.50400001928E-02 0. -1.
       -1    1    3    3    0  502 -0.20277964696E+03  0.28551255119E+03  0.33443045547E+02  0.35178891317E+03  0.50400001928E-02 0.  1.
</event>
<event>
 5   0  0.2284843E-03  0.9989241E+03  0.7818609E-02  0.9309726E-01
       -2   -1    0    0    0  501  0.00000000000E+00  0.00000000000E+00  0.68980776881E+03  0.68980776881E+03  0.25500000920E-02 0.  1.
        2   -1    0    0  501    0  0.00000000000E+00  0.00000000000E+00 -0.36164036756E+03  0.36164036757E+03  0.25500000920E-02 0. -1.
    10030    2    1    2    0    0  0.00000000000E+00  0.00000000000E+00  0.32816740125E+03  0.10514481364E+04  0.99892409134E+03 0.  0.
        2    1    3    3  502    0  0.31275227741E+03 -0.33277648220E+03 -0.48808791661E+02  0.45927820793E+03  0.25500000920E-02 0.  1.
       -2    1    3    3    0  502 -0.31275227741E+03  0.33277648220E+03  0.37697619291E+03  0.59216992845E+03  0.25500000920E-02 0. -1.
</event>
<event>
 5   0  0.2284843E-03  0.1003487E+04  0.7818609E-02  0.9304728E-01
       -2   -1    0    0    0  501  0.00000000000E+00  0.00000000000E+00  0.12809755793E+04  0.12809755793E+04  0.25500000920E-02 0.  1.
        2   -1    0    0  501    0  0.00000000000E+00  0.00000000000E+00 -0.19652739154E+03  0.19652739156E+03  0.25500000920E-02 0. -1.
    10030    2    1    2    0    0  0.00000000000E+00  0.00000000000E+00  0.10844481878E+04  0.14775029709E+04  0.10034874972E+04 0.  0.
        2    1    3    3  502    0 -0.35474730386E+03 -0.10257365297E+03  0.10423521985E+04  0.11058323153E+04  0.25500000920E-02 0.  1.
       -2    1    3    3    0  502  0.35474730386E+03  0.10257365297E+03  0.42095989274E+02  0.37167065556E+03  0.25500000920E-02 0. -1.
</event>
<event>
 5   0  0.1293575E-03  0.1000173E+04  0.7818609E-02  0.9308355E-01
       -1   -1    0    0    0  501  0.00000000000E+00  0.00000000000E+00  0.67685827721E+03  0.67685827722E+03  0.50400001928E-02 0. -1.
        1   -1    0    0  501    0  0.00000000000E+00  0.00000000000E+00 -0.36948108607E+03  0.36948108611E+03  0.50400001928E-02 0.  1.
    10030    2    1    2    0    0  0.00000000000E+00  0.00000000000E+00  0.30737719113E+03  0.10463393633E+04  0.10001726479E+04 0.  0.
        4    1    3    3  502    0  0.21029566691E+03 -0.34127665831E+02  0.62700549043E+03  0.66221330628E+03  0.12699999809E+01 0. -1.
       -4    1    3    3    0  502 -0.21029566691E+03  0.34127665831E+02 -0.31962829929E+03  0.38412605705E+03  0.12699999809E+01 0.  1.
</event>
<event>
 5   0  0.1353789E-03  0.1000972E+04  0.7818609E-02  0.9307479E-01
        1   -1    0    0  501    0  0.00000000000E+00  0.00000000000E+00  0.60699941127E+03  0.60699941129E+03  0.50400001928E-02 0. -1.
       -1   -1    0    0    0  501  0.00000000000E+00  0.00000000000E+00 -0.41266326717E+03  0.41266326720E+03  0.50400001928E-02 0.  1.
    10030    2    1    2    0    0  0.00000000000E+00  0.00000000000E+00  0.19433614410E+03  0.10196626785E+04  0.10009722479E+04 0.  0.
        1    1    3    3  502    0 -0.12360438455E+03  0.24408915237E+03  0.52407416808E+03  0.59119480027E+03  0.50400001928E-02 0. -1.
       -1    1    3    3    0  502  0.12360438455E+03 -0.24408915237E+03 -0.32973802398E+03  0.42846787822E+03  0.50400001928E-02 0.  1.
</event>
<event>
 5   0  0.2264577E-03  0.1001122E+04  0.7818609E-02  0.9307315E-01
        2   -1    0    0  501    0  0.00000000000E+00  0.00000000000E+00  0.16449870582E+04  0.16449870582E+04  0.25500000920E-02 0. -1.
       -2   -1    0    0    0  501  0.00000000000E+00  0.00000000000E+00 -0.15231824342E+03  0.15231824344E+03  0.25500000920E-02 0.  1.
    10030    2    1    2    0    0  0.00000000000E+00  0.00000000000E+00  0.14926688147E+04  0.17973053016E+04  0.10011224484E+04 0.  0.
        5    1    3    3  502    0 -0.33965407633E+03 -0.13406173334E+03  0.13609480331E+04  0.14090915792E+04  0.46999998093E+01 0. -1.
       -5    1    3    3    0  502  0.33965407633E+03  0.13406173334E+03  0.13172078165E+03  0.38821372236E+03  0.46999998093E+01 0.  1.
</event>
<event>
 5   0  0.1285769E-03  0.1012472E+04  0.7818609E-02  0.9294971E-01
        1   -1    0    0  501    0  0.00000000000E+00  0.00000000000E+00  0.44122101872E+03  0.44122101875E+03  0.50400001928E-02 0.  1.
       -1   -1    0    0    0  501  0.00000000000E+00  0.00000000000E+00 -0.58083072776E+03  0.58083072778E+03  0.50400001928E-02 0. -1.
    10030    2    1    2    0    0  0.00000000000E+00  0.00000000000E+00 -0.13960970904E+03  0.10220517465E+04  0.10124716795E+04 0.  0.
        5    1    3    3  502    0 -0.17447843531E+03 -0.18030404937E+03 -0.51362430663E+03  0.57165049896E+03  0.46999998093E+01 0. -1.
       -5    1    3    3    0  502  0.17447843531E+03  0.18030404937E+03  0.37401459758E+03  0.45040124757E+03  0.46999998093E+01 0.  1.
</event>
<event>
 5   0  0.2284843E-03  0.9970551E+03  0.7818609E-02  0.9311781E-01
       -2   -1    0    0    0  501  0.00000000000E+00  0.00000000000E+00  0.47289946306E+03  0.47289946307E+03  0.25500000920E-02 0. -1.
        2   -1    0    0  501    0  0.00000000000E+00  0.00000000000E+00 -0.52554452024E+03  0.52554452025E+03  0.25500000920E-02 0.  1.
    10030    2    1    2    0    0  0.00000000000E+00  0.00000000000E+00 -0.52645057180E+02  0.99844398332E+03  0.99705510670E+03 0.  0.
        2    1    3    3  502    0 -0.26874335395E+03  0.41933258255E+03 -0.47960875841E+02  0.50036291899E+03  0.25500000920E-02 0. -1.
       -2    1    3    3    0  502  0.26874335395E+03 -0.41933258255E+03 -0.46841813388E+01  0.49808106433E+03  0.25500000920E-02 0.  1.
</event>
<event>
 5   0  0.2255142E-03  0.9983743E+03  0.7818609E-02  0.9310330E-01
       -2   -1    0    0    0  501  0.00000000000E+00  0.00000000000E+00  0.12852367749E+03  0.12852367751E+03  0.25500000920E-02 0. -1.
        2   -1    0    0  501    0  0.00000000000E+00  0.00000000000E+00 -0.19388474534E+04  0.19388474534E+04  0.25500000920E-02 0.  1.
    10030    2    1    2    0    0  0.00000000000E+00  0.00000000000E+00 -0.18103237759E+04  0.20673711309E+04  0.99837428818E+03 0.  0.
        4    1    3    3  502    0  0.23574613545E+03 -0.21204124409E+03 -0.10678993767E+03  0.33457948721E+03  0.12699999809E+01 0. -1.
       -4    1    3    3    0  502 -0.23574613545E+03  0.21204124409E+03 -0.17035338382E+04  0.17327916437E+04  0.12699999809E+01 0.  1.
</event>
<event>
 5   0  0.1293575E-03  0.1000634E+04  0.7818609E-02  0.9307850E-01
        1   -1    0    0  501    0  0.00000000000E+00  0.00000000000E+00  0.45436354208E+03  0.45436354210E+03  0.50400001928E-02 0.  1.
       -1   -1    0    0    0  501  0.00000000000E+00  0.00000000000E+00 -0.55091789029E+03  0.55091789032E+03  0.50400001928E-02 0. -1.
    10030    2    1    2    0    0  0.00000000000E+00  0.00000000000E+00 -0.96554348218E+02  0.10052814324E+04  0.10006338072E+04 0.  0.
        4    1    3    3  502    0  0.29031020755E+03 -0.14570975124E+03 -0.43057588465E+03  0.53935939183E+03  0.12699999809E+01 0.  1.
       -4    1    3    3    0  502 -0.29031020755E+03  0.14570975124E+03  0.33402153643E+03  0.46592204059E+03  0.12699999809E+01 0. -1.
</event>
<event>
 5   0  0.2264577E-03  0.1008177E+04  0.7818609E-02  0.9299622E-01
       -2   -1    0    0    0  501  0.00000000000E+00  0.00000000000E+00  0.42762870129E+03  0.42762870130E+03  0.25500000920E-02 0. -1.
        2   -1    0    0  501    0  0.00000000000E+00  0.00000000000E+00 -0.59421870960E+03  0.59421870961E+03  0.25500000920E-02 0.  1.
    10030    2    1    2    0    0  0.00000000000E+00  0.00000000000E+00 -0.16659000832E+03  0.10218474109E+04  0.10081765224E+04 0.  0.
        5    1    3    3  502    0 -0.23786538352E+03  0.40057735396E+03  0.11177443054E+03  0.47912187438E+03  0.46999998093E+01 0. -1.
       -5    1    3    3    0  502  0.23786538352E+03 -0.40057735396E+03 -0.27836443886E+03  0.54272553653E+03  0.46999998093E+01 0.  1.
</event>
<event>
 5   0  0.2277570E-03  0.9983040E+03  0.7818609E-02  0.9310407E-01
        2   -1    0    0  501    0  0.00000000000E+00  0.00000000000E+00  0.77683072732E+03  0.77683072732E+03  0.25500000920E-02 0. -1.
       -2   -1    0    0    0  501  0.00000000000E+00  0.00000000000E+00 -0.32072977217E+03  0.32072977218E+03  0.25500000920E-02 0.  1.
    10030    2    1    2    0    0  0.00000000000E+00  0.00000000000E+00  0.45610095515E+03  0.10975604995E+04  0.99830404626E+03 0.  0.
        3    1    3    3  502    0  0.44348484022E+03 -0.17639911172E+03  0.67379059377E+02  0.48201182346E+03  0.10100000352E+00 0. -1.
       -3    1    3    3    0  502 -0.44348484022E+03  0.17639911172E+03  0.38872189577E+03  0.61554867604E+03  0.10100000352E+00 0.  1.
</event>
<event>
 5   0  0.2255142E-03  0.1000612E+04  0.7818609E-02  0.9307874E-01
       -2   -1    0    0    0  501  0.00000000000E+00  0.00000000000E+00  0.17232879145E+04  0.17232879145E+04  0.25500000920E-02 0. -1.
        2   -1    0    0  501    0  0.00000000000E+00  0.00000000000E+00 -0.14524920306E+03  0.14524920308E+03  0.25500000920E-02 0.  1.
    10030    2    1    2    0    0  0.00000000000E+00  0.00000000000E+00  0.15780387114E+04  0.18685371176E+04  0.10006122051E+04 0.  0.
        4    1    3    3  502    0  0.36097943342E+03 -0.32990178739E+03  0.98632118700E+03  0.11008961974E+04  0.12699999809E+01 0. -1.
       -4    1    3    3    0  502 -0.36097943342E+03  0.32990178739E+03  0.59171752442E+03  0.76764092015E+03  0.12699999809E+01 0.  1.
</event>
<event>
 5   0  0.1249195E-03  0.1000427E+04  0.7818609E-02  0.9308077E-01
       -1   -1    0    0    0  501  0.00000000000E+00  0.00000000000E+00  0.34160641039E+03  0.34160641042E+03  0.50400001928E-02 0. -1.
        1   -1    0    0  501    0  0.00000000000E+00  0.00000000000E+00 -0.73246084539E+03  0.73246084540E+03  0.50400001928E-02 0.  1.
    10030    2    1    2    0    0  0.00000000000E+00  0.00000000000E+00 -0.39085443500E+03  0.10740672558E+04  0.10004265494E+04 0.  0.
        2    1    3    3  502    0 -0.27326050794E+03 -0.10824249887E+03 -0.62997458231E+03  0.69516596444E+03  0.25500000920E-02 0.  1.
       -2    1    3    3    0  502  0.27326050794E+03  0.10824249887E+03  0.23912014730E+03  0.37890129138E+03  0.25500000920E-02 0. -1.
</event>
<event>
 5   0  0.2264577E-03  0.1004510E+04  0.7818609E-02  0.9303612E-01
        2   -1    0    0  501    0  0.00000000000E+00  0.00000000000E+00  0.90144178862E+03  0.90144178862E+03  0.25500000920E-02 0. -1.
       -2   -1    0    0    0  501  0.00000000000E+00  0.00000000000E+00 -0.27984066416E+03  0.27984066417E+03  0.25500000920E-02 0.  1.
    10030    2    1    2    0    0  0.00000000000E+00  0.00000000000E+00  0.62160112446E+03  0.11812824528E+04  0.10045099678E+04 0.  0.
        5    1    3    3  502    0  0.41357351458E+03 -0.20736468278E+03  0.80973212581E+02  0.46970407150E+03  0.46999998093E+01 0. -1.
       -5    1    3    3    0  502 -0.41357351458E+03  0.20736468278E+03  0.54062791188E+03  0.71157838130E+03  0.46999998093E+01 0.  1.
</event>
<event>
 5   0  0.1293716E-03  0.9896879E+03  0.7818609E-02  0.9319928E-01
       -1   -1    0    0    0  501  0.00000000000E+00  0.00000000000E+00  0.13817184050E+03  0.13817184059E+03  0.50400001928E-02 0.  1.
        1   -1    0    0  501    0  0.00000000000E+00  0.00000000000E+00 -0.17722172083E+04  0.17722172083E+04  0.50400001928E-02 0. -1.
    10030    2    1    2    0    0  0.00000000000E+00  0.00000000000E+00 -0.16340453678E+04  0.19103890489E+04  0.98968785692E+03 0.  0.
        3    1    3    3  502    0 -0.42840661195E+03  0.15889616026E+03 -0.11837293077E+04  0.12688559016E+04  0.10100000352E+00 0. -1.
       -3    1    3    3    0  502  0.42840661195E+03 -0.15889616026E+03 -0.45031606010E+03  0.64153314731E+03  0.10100000352E+00 0.  1.
</event>
<event>
 5   0  0.2255142E-03  0.1005504E+04  0.7818609E-02  0.9302528E-01
       -2   -1    0    0    0  501  0.00000000000E+00  0.00000000000E+00  0.46362132370E+03  0.46362132370E+03  0.25500000920E-02 0.  1.
        2   -1    0    0  501    0  0.00000000000E+00  0.00000000000E+00 -0.54518562554E+03  0.54518562554E+03  0.25500000920E-02 0. -1.
    10030    2    1    2    0    0  0.00000000000E+00  0.00000000000E+00 -0.81564301840E+02  0.10088069492E+04  0.10055042146E+04 0.  0.
        4    1    3    3  502    0 -0.42617189299E+03  0.26641089765E+03 -0.53505276680E+02  0.50543216784E+03  0.12699999809E+01 0.  1.
       -4    1    3    3    0  502  0.42617189299E+03 -0.26641089765E+03 -0.28059025160E+02  0.50337478140E+03  0.12699999809E+01 0. -1.
</event>
<event>
 5   0  0.1353789E-03  0.9979016E+03  0.7818609E-02  0.9310849E-01
        1   -1    0    0  501    0  0.00000000000E+00  0.00000000000E+00  0.76223714893E+03  0.76223714895E+03  0.50400001928E-02 0.  1.
       -1   -1    0    0    0  501  0.00000000000E+00  0.00000000000E+00 -0.32660686524E+03  0.32660686528E+03  0.50400001928E-02 0. -1.
    10030    2    1    2    0    0  0.00000000000E+00  0.00000000000E+00  0.43563028369E+03  0.10888440142E+04  0.99790156993E+03 0.  0.
        1    1    3    3  502    0  0.99037140896E+02  0.47730033800E+03  0.33394743659E+03  0.59088480972E+03  0.50400001928E-02 0. -1.
       -1    1    3    3    0  502 -0.99037140896E+02 -0.47730033800E+03  0.10168284710E+03  0.49795920451E+03  0.50400001928E-02 0.  1.
</event>
<event>
 5   0  0.2264577E-03  0.1007085E+04  0.7818609E-02  0.9300808E-01
        2   -1    0    0  501    0  0.00000000000E+00  0.00000000000E+00  0.48734289848E+03  0.48734289849E+03  0.25500000920E-02 0. -1.
       -2   -1    0    0    0  501  0.00000000000E+00  0.00000000000E+00 -0.52028027088E+03  0.52028027088E+03  0.25500000920E-02 0.  1.
    10030    2    1    2    0    0  0.00000000000E+00  0.00000000000E+00 -0.32937372396E+02  0.10076231694E+04  0.10070846940E+04 0.  0.
        5    1    3    3  502    0 -0.19110279633E+03 -0.38699467489E+03  0.24299148459E+03  0.49533030267E+03  0.46999998093E+01 0. -1.
       -5    1    3    3    0  502  0.19110279633E+03  0.38699467489E+03 -0.27592885698E+03  0.51229286670E+03  0.46999998093E+01 0.  1.
</event>
<event>
 5   0  0.1285769E-03  0.1001693E+04  0.7818609E-02  0.9306690E-01
        1   -1    0    0  501    0  0.00000000000E+00  0.00000000000E+00  0.17816423172E+04  0.17816423172E+04  0.50400001928E-02 0.  1.
       -1   -1    0    0    0  501  0.00000000000E+00  0.00000000000E+00 -0.14079554213E+03  0.14079554222E+03  0.50400001928E-02 0. -1.
    10030    2    1    2    0    0  0.00000000000E+00  0.00000000000E+00  0.16408467751E+04  0.19224378594E+04  0.10016931587E+04 0.  0.
        5    1    3    3  502    0 -0.21259846648E+03 -0.80057879617E+02 -0.36183791747E+02  0.23008417769E+03  0.46999998093E+01 0. -1.
       -5    1    3    3    0  502  0.21259846648E+03  0.80057879617E+02  0.16770305668E+04  0.16923536817E+04  0.46999998093E+01 0.  1.
</event>
<event>
 5   0  0.1285769E-03  0.1034532E+04  0.7818609E-02  0.9271461E-01
       -1   -1    0    0    0  501  0.00000000000E+00  0.00000000000E+00  0.47095750912E+03  0.47095750915E+03  0.50400001928E-02 0. -1.
        1   -1    0    0  501    0  0.00000000000E+00  0.00000000000E+00 -0.56812776086E+03  0.56812776088E+03  0.50400001928E-02 0.  1.
    10030    2    1    2    0    0  0.00000000000E+00  0.00000000000E+00 -0.97170251740E+02  0.10390852700E+04  0.10345318461E+04 0.  0.
        5    1    3    3  502    0  0.50652183933E+03  0.30034347189E+02  0.52233513215E+02  0.51011456128E+03  0.46999998093E+01 0. -1.
       -5    1    3    3    0  502 -0.50652183933E+03 -0.30034347189E+02 -0.14940376496E+03  0.52897070875E+03  0.46999998093E+01 0.  1.
</event>
<event>
 5   0  0.2264577E-03  0.9987715E+03  0.7818609E-02  0.9309893E-01
       -2   -1    0    0    0  501  0.00000000000E+00  0.00000000000E+00  0.51134891786E+03  0.51134891786E+03  0.25500000920E-02 0. -1.
        2   -1    0    0  501    0  0.00000000000E+00  0.00000000000E+00 -0.48770243924E+03  0.48770243925E+03  0.25500000920E-02 0.  1.
    10030    2    1    2    0    0  0.00000000000E+00  0.00000000000E+00  0.23646478616E+02  0.99905135711E+03  0.99877147446E+03 0.  0.
        5    1    3    3  502    0  0.11491102244E+03 -0.30523622646E+03 -0.36642334459E+03  0.49057298589E+03  0.46999998093E+01 0.  1.
       -5    1    3    3    0  502 -0.11491102244E+03  0.30523622646E+03  0.39006982321E+03  0.50847837122E+03  0.46999998093E+01 0. -1.
</event>
<event>
 5   0  0.1293575E-03  0.1000831E+04  0.7818609E-02  0.9307634E-01
       -1   -1    0    0    0  501  0.00000000000E+00  0.00000000000E+00  0.47148742179E+03  0.47148742182E+03  0.50400001928E-02 0. -1.
        1   -1    0    0  501    0  0.00000000000E+00  0.00000000000E+00 -0.53111866327E+03  0.53111866329E+03  0.50400001928E-02 0.  1.
    10030    2    1    2    0    0  0.00000000000E+00  0.00000000000E+00 -0.59631241477E+02  0.10026060851E+04  0.10008311930E+04 0.  0.
        4    1    3    3  502    0 -0.14184226545E+03  0.30141147442E+03 -0.40390261864E+03  0.52355233112E+03  0.12699999809E+01 0.  1.
       -4    1    3    3    0  502  0.14184226545E+03 -0.30141147442E+03  0.34427137716E+03  0.47905375399E+03  0.12699999809E+01 0. -1.
</event>
<event>
 5   0  0.1293575E-03  0.1005066E+04  0.7818609E-02  0.9303006E-01
        1   -1    0    0  501    0  0.00000000000E+00  0.00000000000E+00  0.39984158094E+03  0.39984158098E+03  0.50400001928E-02 0.  1.
       -1   -1    0    0    0  501  0.00000000000E+00  0.00000000000E+00 -0.63159823961E+03  0.63159823963E+03  0.50400001928E-02 0. -1.
    10030    2    1    2    0    0  0.00000000000E+00  0.00000000000E+00 -0.23175665867E+03  0.10314398206E+04  0.10050656470E+04 0.  0.
        4    1    3    3  502    0 -0.13563592494E+03  0.21346642863E+03  0.32976639119E+03  0.41558694150E+03  0.12699999809E+01 0.  1.
       -4    1    3    3    0  502  0.13563592494E+03 -0.21346642863E+03 -0.56152304985E+03  0.61585287911E+03  0.12699999809E+01 0. -1.
</event>
<event>
 5   0  0.1285769E-03  0.1003331E+04  0.7818609E-02  0.9304899E-01
        1   -1    0    0  501    0  0.00000000000E+00  0.00000000000E+00  0.60781399390E+03  0.60781399392E+03  0.50400001928E-02 0. -1.
       -1   -1    0    0    0  501  0.00000000000E+00  0.00000000000E+00 -0.41405440602E+03  0.41405440605E+03  0.50400001928E-02 0.  1.
    10030    2    1    2    0    0  0.00000000000E+00  0.00000000000E+00  0.19375958788E+03  0.10218684000E+04  0.10033305781E+04 0.  0.
        5    1    3    3  502    0 -0.16180043445E+03  0.31582652833E+03 -0.26424178880E+03  0.44246083389E+03  0.46999998093E+01 0.  1.
       -5    1    3    3    0  502  0.16180043445E+03 -0.31582652833E+03  0.45800137668E+03  0.57940756607E+03  0.46999998093E+01 0. -1.
</event>
<event>
 5   0  0.1249195E-03  0.9884959E+03  0.7818609E-02  0.9321253E-01
        1   -1    0    0  501    0  0.00000000000E+00  0.00000000000E+00  0.11695022516E+04  0.11695022516E+04  0.50400001928E-02 0. -1.
       -1   -1    0    0    0  501  0.00000000000E+00  0.00000000000E+00 -0.20887605190E+03  0.20887605196E+03  0.50400001928E-02 0.  1.
    10030    2    1    2    0    0  0.00000000000E+00  0.00000000000E+00  0.96062619969E+03  0.13783783036E+04  0.98849585341E+03 0.  0.
        2    1    3    3  502    0  0.40731531153E+03  0.17922208095E+03  0.18041653522E+03  0.48018376014E+03  0.25500000920E-02 0.  1.
       -2    1    3    3    0  502 -0.40731531153E+03 -0.17922208095E+03  0.78020966446E+03  0.89819454343E+03  0.25500000920E-02 0. -1.
</event>
<event>
 5   0  0.1293575E-03  0.9965791E+03  0.7818609E-02  0.9312305E-01
        1   -1    0    0  501    0  0.00000000000E+00  0.00000000000E+00  0.75031958095E+03  0.75031958097E+03  0.50400001928E-02 0.  1.
       -1   -1    0    0    0  501  0.00000000000E+00  0.00000000000E+00 -0.33091565700E+03  0.33091565704E+03  0.50400001928E-02 0. -1.
    10030    2    1    2    0    0  0.00000000000E+00  0.00000000000E+00  0.41940392395E+03  0.10812352380E+04  0.99657914311E+03 0.  0.
        4    1    3    3  502    0 -0.39943894502E+02 -0.23183339123E+03  0.68627477928E+03  0.72547703035E+03  0.12699999809E+01 0.  1.
       -4    1    3    3    0  502  0.39943894502E+02  0.23183339123E+03 -0.26687085532E+03  0.35575820766E+03  0.12699999809E+01 0. -1.
</event>
<event>
 5   0  0.1293575E-03  0.9993310E+03  0.7818609E-02  0.9309279E-01
        1   -1    0    0  501    0  0.00000000000E+00  0.00000000000E+00  0.19474444875E+04  0.19474444875E+04  0.50400001928E-02 0. -1.
       -1   -1    0    0    0  501  0.00000000000E+00  0.00000000000E+00 -0.12820166014E+03  0.12820166024E+03  0.50400001928E-02 0.  1.
    10030    2    1    2    0    0  0.00000000000E+00  0.00000000000E+00  0.18192428273E+04  0.20756461477E+04  0.99933100909E+03 0.  0.
        4    1    3    3  502    0  0.43716218469E+03 -0.20741726707E+03  0.65077155627E+03  0.81094878368E+03  0.12699999809E+01 0.  1.
       -4    1    3    3    0  502 -0.43716218469E+03  0.20741726707E+03  0.11684712711E+04  0.12646973640E+04  0.12699999809E+01 0. -1.
</event>
<event>
 5   0  0.1353789E-03  0.1003625E+04  0.7818609E-02  0.9304578E-01
       -1   -1    0    0    0  501  0.00000000000E+00  0.00000000000E+00  0.54233750206E+03  0.54233750209E+03  0.50400001928E-02 0.  1.
        1   -1    0    0  501    0  0.00000000000E+00  0.00000000000E+00 -0.46431544012E+03  0.46431544015E+03  0.50400001928E-02 0. -1.
    10030    2    1    2    0    0  0.00000000000E+00  0.00000000000E+00  0.78022061943E+02  0.10066529422E+04  0.10036247825E+04 0.  0.
        1    1    3    3  502    0  0.45860219574E+03 -0.57803962552E+02 -0.15692012060E+03  0.48814054973E+03  0.50400001928E-02 0. -1.
       -1    1    3    3    0  502 -0.45860219574E+03  0.57803962552E+02  0.23494218254E+03  0.51851239250E+03  0.50400001928E-02 0.  1.
</event>
<event>
 5   0  0.2284843E-03  0.9978092E+03  0.7818609E-02  0.9310951E-01
       -2   -1    0    0    0  501  0.00000000000E+00  0.00000000000E+00  0.52247141845E+03  0.52247141846E+03  0.25500000920E-02 0. -1.
        2   -1    0    0  501    0  0.00000000000E+00  0.00000000000E+00 -0.47640077946E+03  0.47640077946E+03  0.25500000920E-02 0.  1.
    10030    2    1    2    0    0  0.00000000000E+00  0.00000000000E+00  0.46070638994E+02  0.99887219792E+03  0.99780918216E+03 0.  0.
        2    1    3    3  502    0 -0.65252697543E+02 -0.10802443257E+03  0.50622810735E+03  0.52172223380E+03  0.25500000920E-02 0. -1.
       -2    1    3    3    0  502  0.65252697543E+02  0.10802443257E+03 -0.46015746835E+03  0.47714996412E+03  0.25500000920E-02 0.  1.
</event>
<event>
 5   0  0.1353789E-03  0.9924554E+03  0.7818609E-02  0.9316858E-01
        1   -1    0    0  501    0  0.00000000000E+00  0.00000000000E+00  0.70210830523E+03  0.70210830525E+03  0.50400001928E-02 0.  1.
       -1   -1    0    0    0  501  0.00000000000E+00  0.00000000000E+00 -0.35071789451E+03  0.35071789454E+03  0.50400001928E-02 0. -1.
    10030    2    1    2    0    0  0.00000000000E+00  0.00000000000E+00  0.35139041072E+03  0.10528261998E+04  0.99245543286E+03 0.  0.
        1    1    3    3  502    0  0.14713271994E+03  0.46690756466E+03  0.89570236287E+02  0.49766810071E+03  0.50400001928E-02 0.  1.
       -1    1    3    3    0  502 -0.14713271994E+03 -0.46690756466E+03  0.26182017444E+03  0.55515809908E+03  0.50400001928E-02 0. -1.
</event>
<event>
 5   0  0.1293575E-03  0.1001192E+04  0.7818609E-02  0.9307238E-01
       -1   -1    0    0    0  501  0.00000000000E+00  0.00000000000E+00  0.79669212497E+03  0.79669212499E+03  0.50400001928E-02 0.  1.
        1   -1    0    0  501    0  0.00000000000E+00  0.00000000000E+00 -0.31454612522E+03  0.31454612526E+03  0.50400001928E-02 0. -1.
    10030    2    1    2    0    0  0.00000000000E+00  0.00000000000E+00  0.48214599975E+03  0.11112382502E+04  0.10011921313E+04 0.  0.
        4    1    3    3  502    0  0.19904821325E+03  0.93797167850E+02  0.74013593308E+03  0.77215342532E+03  0.12699999809E+01 0.  1.
       -4    1    3    3    0  502 -0.19904821325E+03 -0.93797167850E+02 -0.25798993333E+03  0.33908482492E+03  0.12699999809E+01 0. -1.
</event>
<event>
 5   0  0.2264577E-03  0.9965002E+03  0.7818609E-02  0.9312392E-01
        2   -1    0    0  501    0  0.00000000000E+00  0.00000000000E+00  0.33241330877E+03  0.33241330878E+03  0.25500000920E-02 0. -1.
       -2   -1    0    0    0  501  0.00000000000E+00  0.00000000000E+00 -0.74682069827E+03  0.74682069827E+03  0.25500000920E-02 0.  1.
    10030    2    1    2    0    0  0.00000000000E+00  0.00000000000E+00 -0.41440738949E+03  0.10792340071E+04  0.99650015430E+03 0.  0.
        5    1    3    3  502    0  0.16121972149E+03  0.18375969317E+03  0.26297315303E+03  0.35907714024E+03  0.46999998093E+01 0. -1.
       -5    1    3    3    0  502 -0.16121972149E+03 -0.18375969317E+03 -0.67738054252E+03  0.72015686681E+03  0.46999998093E+01 0.  1.
</event>
<event>
 5   0  0.8680125E-04  0.1003417E+04  0.7818609E-02  0.9304805E-01
       -4   -1    0    0    0  501  0.00000000000E+00  0.00000000000E+00  0.72961815580E+03  0.72961926110E+03  0.12699999809E+01 0.  1.
        4   -1    0    0  501    0  0.00000000000E+00  0.00000000000E+00 -0.34498819383E+03  0.34499053144E+03  0.12699999809E+01 0. -1.
    10030    2    1    2    0    0  0.00000000000E+00  0.00000000000E+00  0.38462996196E+03  0.10746097925E+04  0.10034171608E+04 0.  0.
        1    1    3    3  502    0  0.34374855010E+03  0.25256590108E+03  0.47517338072E+03  0.63854705532E+03  0.50400001928E-02 0.  1.
       -1    1    3    3    0  502 -0.34374855010E+03 -0.25256590108E+03 -0.90543418758E+02  0.43606273722E+03  0.50400001928E-02 0. -1.
</event>
<event>
 5   0  0.1293716E-03  0.9991989E+03  0.7818609E-02  0.9309424E-01
        1   -1    0    0  501    0  0.00000000000E+00  0.00000000000E+00  0.10645052298E+04  0.10645052298E+04  0.50400001928E-02 0.  1.
       -1   -1    0    0    0  501  0.00000000000E+00  0.00000000000E+00 -0.23447474634E+03  0.23447474640E+03  0.50400001928E-02 0. -1.
    10030    2    1    2    0    0  0.00000000000E+00  0.00000000000E+00  0.83003048342E+03  0.12989799762E+04  0.99919886664E+03 0.  0.
        3    1    3    3  502    0 -0.43751673277E+03 -0.14745283237E+03  0.16686312605E+03  0.49092417160E+03  0.10100000352E+00 0. -1.
       -3    1    3    3    0  502  0.43751673277E+03  0.14745283237E+03  0.66316735737E+03  0.80805580458E+03  0.10100000352E+00 0.  1.
</event>
<event>
 5   0  0.1293575E-03  0.9996587E+03  0.7818609E-02  0.9308919E-01
       -1   -1    0    0    0  501  0.00000000000E+00  0.00000000000E+00  0.70368150337E+03  0.70368150339E+03  0.50400001928E-02 0.  1.
        1   -1    0    0  501    0  0.00000000000E+00  0.00000000000E+00 -0.35503190271E+03  0.35503190275E+03  0.50400001928E-02 0. -1.
    10030    2    1    2    0    0  0.00000000000E+00  0.00000000000E+00  0.34864960066E+03  0.10587134061E+04  0.99965870791E+03 0.  0.
        4    1    3    3  502    0  0.12604402226E+03  0.12601018691E+03  0.66888226517E+03  0.69222161214E+03  0.12699999809E+01 0.  1.
       -4    1    3    3    0  502 -0.12604402226E+03 -0.12601018691E+03 -0.32023266451E+03  0.36649179400E+03  0.12699999809E+01 0. -1.
</event>
<event>
 5   0  0.1293575E-03  0.1001704E+04  0.7818609E-02  0.9306678E-01
        1   -1    0    0  501    0  0.00000000000E+00  0.00000000000E+00  0.50236661466E+03  0.50236661469E+03  0.50400001928E-02 0. -1.
       -1   -1    0    0    0  501  0.00000000000E+00  0.00000000000E+00 -0.49934177463E+03  0.49934177466E+03  0.50400001928E-02 0.  1.
    10030    2    1    2    0    0  0.00000000000E+00  0.00000000000E+00  0.30248400282E+01  0.10017083893E+04  0.10017038223E+04 0.  0.
        4    1    3    3  502    0  0.49752326195E+03  0.52276617062E+02  0.25777384639E+02  0.50092746713E+03  0.12699999809E+01 0. -1.
       -4    1    3    3    0  502 -0.49752326195E+03 -0.52276617062E+02 -0.22752544611E+02  0.50078092222E+03  0.12699999809E+01 0.  1.
</event>
<event>
 5   0  0.2255142E-03  0.9987696E+03  0.7818609E-02  0.9309895E-01
        2   -1    0    0  501    0  0.00000000000E+00  0.00000000000E+00  0.10129633868E+04  0.10129633868E+04  0.25500000920E-02 0.  1.
       -2   -1    0    0    0  501  0.00000000000E+00  0.00000000000E+00 -0.24619367822E+03  0.24619367823E+03  0.25500000920E-02 0. -1.
    10030    2    1    2    0    0  0.00000000000E+00  0.00000000000E+00  0.76676970854E+03  0.12591570650E+04  0.99876960727E+03 0.  0.
        4    1    3    3  502    0 -0.27266732613E+03 -0.51531426315E+02  0.90681507773E+03  0.94832386701E+03  0.12699999809E+01 0.  1.
       -4    1    3    3    0  502  0.27266732613E+03  0.51531426315E+02 -0.14004536919E+03  0.31083319799E+03  0.12699999809E+01 0. -1.
</event>
<event>
 5   0  0.8680125E-04  0.1000353E+04  0.7818609E-02  0.9308158E-01
        3   -1    0    0  501    0  0.00000000000E+00  0.00000000000E+00  0.52852499322E+03  0.52852500287E+03  0.10100000352E+00 0. -1.
       -3   -1    0    0    0  501  0.00000000000E+00  0.00000000000E+00 -0.47334845845E+03  0.47334846922E+03  0.10100000352E+00 0.  1.
    10030    2    1    2    0    0  0.00000000000E+00  0.00000000000E+00  0.55176534773E+02  0.10018734721E+04  0.10003529398E+04 0.  0.
        2    1    3    3  502    0 -0.11644917575E+03 -0.48193529958E+03 -0.38500347910E+02  0.49729701418E+03  0.25500000920E-02 0.  1.
       -2    1    3    3    0  502  0.11644917575E+03  0.48193529958E+03  0.93676882682E+02  0.50457645791E+03  0.25500000920E-02 0. -1.
</event>
<event>
 5   0  0.1293716E-03  0.1014080E+04  0.7818609E-02  0.9293236E-01
        1   -1    0    0  501    0  0.00000000000E+00  0.00000000000E+00  0.54357006625E+03  0.54357006628E+03  0.50400001928E-02 0. -1.
       -1   -1    0    0    0  501  0.00000000000E+00  0.00000000000E+00 -0.47296473194E+03  0.47296473196E+03  0.50400001928E-02 0.  1.
    10030    2    1    2    0    0  0.00000000000E+00  0.00000000000E+00  0.70605334316E+02  0.10165347982E+04  0.10140798207E+04 0.  0.
        3    1    3    3  502    0  0.10219022630E+03  0.39168186613E+03  0.34138090739E+03  0.52952663837E+03  0.10100000352E+00 0. -1.
       -3    1    3    3    0  502 -0.10219022630E+03 -0.39168186613E+03 -0.27077557308E+03  0.48700815987E+03  0.10100000352E+00 0.  1.
</event>
<event>
 5   0  0.2284843E-03  0.1002603E+04  0.7818609E-02  0.9305694E-01
        2   -1    0    0  501    0  0.00000000000E+00  0.00000000000E+00  0.81730846294E+03  0.81730846295E+03  0.25500000920E-02 0.  1.
       -2   -1    0    0    0  501  0.00000000000E+00  0.00000000000E+00 -0.30747661254E+03  0.30747661255E+03  0.25500000920E-02 0. -1.
    10030    2    1    2    0    0  0.00000000000E+00  0.00000000000E+00  0.50983185040E+03  0.11247850755E+04  0.10026030872E+04 0.  0.
        2    1    3    3  502    0 -0.21625022889E+03  0.34198129016E+03 -0.77102739259E+02  0.41189828444E+03  0.25500000920E-02 0. -1.
       -2    1    3    3    0  502  0.21625022889E+03 -0.34198129016E+03  0.58693458966E+03  0.71288679106E+03  0.25500000920E-02 0.  1.
</event>
<event>
 5   0  0.2264577E-03  0.1000641E+04  0.7818609E-02  0.9307842E-01
       -2   -1    0    0    0  501  0.00000000000E+00  0.00000000000E+00  0.31158047736E+03  0.31158047737E+03  0.25500000920E-02 0. -1.
        2   -1    0    0  501    0  0.00000000000E+00  0.00000000000E+00 -0.80338986511E+03  0.80338986511E+03  0.25500000920E-02 0.  1.
    10030    2    1    2    0    0  0.00000000000E+00  0.00000000000E+00 -0.49180938775E+03  0.11149703425E+04  0.10006409899E+04 0.  0.
        5    1    3    3  502    0  0.19320732696E+03  0.27452635148E+03  0.16742983823E+03  0.37516480322E+03  0.46999998093E+01 0. -1.
       -5    1    3    3    0  502 -0.19320732696E+03 -0.27452635148E+03 -0.65923922599E+03  0.73980553926E+03  0.46999998093E+01 0.  1.
</event>
<event>
 5   0  0.2277570E-03  0.9977323E+03  0.7818609E-02  0.9311036E-01
       -2   -1    0    0    0  501  0.00000000000E+00  0.00000000000E+00  0.60398943394E+03  0.60398943395E+03  0.25500000920E-02 0.  1.
        2   -1    0    0  501    0  0.00000000000E+00  0.00000000000E+00 -0.41203936096E+03  0.41203936096E+03  0.25500000920E-02 0. -1.
    10030    2    1    2    0    0  0.00000000000E+00  0.00000000000E+00  0.19195007299E+03  0.10160287949E+04  0.99773226949E+03 0.  0.
        3    1    3    3  502    0 -0.14086042874E+02  0.89550982709E+02  0.59553150089E+03  0.60239154531E+03  0.10100000352E+00 0.  1.
       -3    1    3    3    0  502  0.14086042874E+02 -0.89550982709E+02 -0.40358142790E+03  0.41363724960E+03  0.10100000352E+00 0. -1.
</event>
<event>
 5   0  0.1249195E-03  0.9996083E+03  0.7818609E-02  0.9308975E-01
       -1   -1    0    0    0  501  0.00000000000E+00  0.00000000000E+00  0.19011070568E+03  0.19011070575E+03  0.50400001928E-02 0.  1.
        1   -1    0    0  501    0  0.00000000000E+00  0.00000000000E+00 -0.13139932781E+04  0.13139932781E+04  0.50400001928E-02 0. -1.
    10030    2    1    2    0    0  0.00000000000E+00  0.00000000000E+00 -0.11238825725E+04  0.15041039839E+04  0.99960830213E+03 0.  0.
        2    1    3    3  502    0  0.26431425668E+03 -0.38953473515E+03 -0.81464401364E+03  0.94087417073E+03  0.25500000920E-02 0. -1.
       -2    1    3    3    0  502 -0.26431425668E+03  0.38953473515E+03 -0.30923855881E+03  0.56322981316E+03  0.25500000920E-02 0.  1.
</event>
<event>
 5   0  0.2277570E-03  0.9975269E+03  0.7818609E-02  0.9311261E-01
        2   -1    0    0  501    0  0.00000000000E+00  0.00000000000E+00  0.60733159454E+03  0.60733159454E+03  0.25500000920E-02 0. -1.
       -2   -1    0    0    0  501  0.00000000000E+00  0.00000000000E+00 -0.40960321375E+03  0.40960321376E+03  0.25500000920E-02 0.  1.
    10030    2    1    2    0    0  0.00000000000E+00  0.00000000000E+00  0.19772838078E+03  0.10169348083E+04  0.99752688774E+03 0.  0.
        3    1    3    3  502    0 -0.85316950730E+02  0.25140184822E+03  0.52931505079E+03  0.59216239712E+03  0.10100000352E+00 0. -1.
       -3    1    3    3    0  502  0.85316950730E+02 -0.25140184822E+03 -0.33158667001E+03  0.42477241118E+03  0.10100000352E+00 0.  1.
</event>
<event>
 5   0  0.1285769E-03  0.1000724E+04  0.7818609E-02  0.9307751E-01
       -1   -1    0    0    0  501  0.00000000000E+00  0.00000000000E+00  0.20242222446E+03  0.20242222452E+03  0.50400001928E-02 0. -1.
        1   -1    0    0  501    0  0.00000000000E+00  0.00000000000E+00 -0.12368321064E+04  0.12368321065E+04  0.50400001928E-02 0.  1.
    10030    2    1    2    0    0  0.00000000000E+00  0.00000000000E+00 -0.10344098820E+04  0.14392543310E+04  0.10007243503E+04 0.  0.
        5    1    3    3  502    0 -0.47380901697E+03  0.16056681143E+03 -0.52866839088E+03  0.72786608865E+03  0.46999998093E+01 0.  1.
       -5    1    3    3    0  502  0.47380901697E+03 -0.16056681143E+03 -0.50574149111E+03  0.71138824233E+03  0.46999998093E+01 0. -1.
</event>
<event>
 5   0  0.1293716E-03  0.1000846E+04  0.7818609E-02  0.9307617E-01
       -1   -1    0    0    0  501  0.00000000000E+00  0.00000000000E+00  0.33408771098E+03  0.33408771102E+03  0.50400001928E-02 0. -1.
        1   -1    0    0  501    0  0.00000000000E+00  0.00000000000E+00 -0.74957384760E+03  0.74957384761E+03  0.50400001928E-02 0.  1.
    10030    2    1    2    0    0  0.00000000000E+00  0.00000000000E+00 -0.41548613662E+03  0.10836615586E+04  0.10008464637E+04 0.  0.
        3    1    3    3  502    0 -0.14522124354E+02 -0.50017853644E+03 -0.21405096429E+03  0.54424928656E+03  0.10100000352E+00 0.  1.
       -3    1    3    3    0  502  0.14522124354E+02  0.50017853644E+03 -0.20143517233E+03  0.53941227207E+03  0.10100000352E+00 0. -1.
</event>
<event>
 5   0  0.8680125E-04  0.1000237E+04  0.7818609E-02  0.9308285E-01
       -3   -1    0    0    0  501  0.00000000000E+00  0.00000000000E+00  0.38474506956E+03  0.38474508282E+03  0.10100000352E+00 0. -1.
        3   -1    0    0  501    0  0.00000000000E+00  0.00000000000E+00 -0.65008859162E+03  0.65008859947E+03  0.10100000352E+00 0.  1.
    10030    2    1    2    0    0  0.00000000000E+00  0.00000000000E+00 -0.26534352206E+03  0.10348336823E+04  0.10002367546E+04 0.  0.
        3    1    3    3  502    0  0.39165424861E+03 -0.29805547576E+03 -0.40783831420E+02  0.49385569572E+03  0.10100000352E+00 0. -1.
       -3    1    3    3    0  502 -0.39165424861E+03  0.29805547576E+03 -0.22455969064E+03  0.54097798657E+03  0.10100000352E+00 0.  1.
</event>
<event>
 5   0  0.1293575E-03  0.1010391E+04  0.7818609E-02  0.9297221E-01
        1   -1    0    0  501    0  0.00000000000E+00  0.00000000000E+00  0.90683715937E+03  0.90683715938E+03  0.50400001928E-02 0.  1.
       -1   -1    0    0    0  501  0.00000000000E+00  0.00000000000E+00 -0.28144259138E+03  0.28144259142E+03  0.50400001928E-02 0. -1.
    10030    2    1    2    0    0  0.00000000000E+00  0.00000000000E+00  0.62539456799E+03  0.11882797508E+04  0.10103912116E+04 0.  0.
        4    1    3    3  502    0 -0.34244553158E+03 -0.37071843612E+03  0.28588194455E+03  0.58002689602E+03  0.12699999809E+01 0. -1.
       -4    1    3    3    0  502  0.34244553158E+03  0.37071843612E+03  0.33951262344E+03  0.60825285479E+03  0.12699999809E+01 0.  1.
</event>
<event>
 5   0  0.2255142E-03  0.1002780E+04  0.7818609E-02  0.9305501E-01
       -2   -1    0    0    0  501  0.00000000000E+00  0.00000000000E+00  0.73396528834E+03  0.73396528835E+03  0.25500000920E-02 0.  1.
        2   -1    0    0  501    0  0.00000000000E+00  0.00000000000E+00 -0.34251187359E+03  0.34251187360E+03  0.25500000920E-02 0. -1.
    10030    2    1    2    0    0  0.00000000000E+00  0.00000000000E+00  0.39145341475E+03  0.10764771620E+04  0.10027797885E+04 0.  0.
        4    1    3    3  502    0 -0.11889144282E+03  0.31018577287E+03  0.59887992250E+03  0.68484243688E+03  0.12699999809E+01 0.  1.
       -4    1    3    3    0  502  0.11889144282E+03 -0.31018577287E+03 -0.20742650775E+03  0.39163472508E+03  0.12699999809E+01 0. -1.
</event>
<event>
 5   0  0.1293575E-03  0.1007275E+04  0.7818609E-02  0.9300602E-01
        1   -1    0    0  501    0  0.00000000000E+00  0.00000000000E+00  0.42762676842E+03  0.42762676845E+03  0.50400001928E-02 0.  1.
       -1   -1    0    0    0  501  0.00000000000E+00  0.00000000000E+00 -0.59315885061E+03  0.59315885063E+03  0.50400001928E-02 0. -1.
    10030    2    1    2    0    0  0.00000000000E+00  0.00000000000E+00 -0.16553208218E+03  0.10207856191E+04  0.10072747440E+04 0.  0.
        4    1    3    3  502    0  0.86538597467E+02  0.36099653707E+03  0.26215429352E+03  0.45446002590E+03  0.12699999809E+01 0.  1.
       -4    1    3    3    0  502 -0.86538597467E+02 -0.36099653707E+03 -0.42768637571E+03  0.56632559318E+03  0.12699999809E+01 0. -1.
</event>
<event>
 5   0  0.8680125E-04  0.9966651E+03  0.7818609E-02  0.9312210E-01
        4   -1    0    0  501    0  0.00000000000E+00  0.00000000000E+00  0.31755077790E+03  0.31755331748E+03  0.12699999809E+01 0. -1.
       -4   -1    0    0    0  501  0.00000000000E+00  0.00000000000E+00 -0.78202720994E+03  0.78202824116E+03  0.12699999809E+01 0.  1.
    10030    2    1    2    0    0  0.00000000000E+00  0.00000000000E+00 -0.46447643204E+03  0.10995815586E+04  0.99666506320E+03 0.  0.
        4    1    3    3  502    0 -0.33149078651E+03 -0.34679917951E+03 -0.38098579599E+03  0.61262354027E+03  0.12699999809E+01 0.  1.
       -4    1    3    3    0  502  0.33149078651E+03  0.34679917951E+03 -0.83490636050E+02  0.48695801837E+03  0.12699999809E+01 0. -1.
</event>
<event>
 5   0  0.1293716E-03  0.9928921E+03  0.7818609E-02  0.9316375E-01
       -1   -1    0    0    0  501  0.00000000000E+00  0.00000000000E+00  0.69061423477E+03  0.69061423479E+03  0.50400001928E-02 0.  1.
        1   -1    0    0  501    0  0.00000000000E+00  0.00000000000E+00 -0.35686879060E+03  0.35686879063E+03  0.50400001928E-02 0. -1.
    10030    2    1    2    0    0  0.00000000000E+00  0.00000000000E+00  0.33374544418E+03  0.10474830254E+04  0.99289207220E+03 0.  0.
        3    1    3    3  502    0 -0.19040064587E+02  0.48561629497E+03  0.27380097362E+03  0.55781062499E+03  0.10100000352E+00 0.  1.
       -3    1    3    3    0  502  0.19040064587E+02 -0.48561629497E+03  0.59944470558E+02  0.48967240044E+03  0.10100000352E+00 0. -1.
</event>
<event>
 5   0  0.2284843E-03  0.1000009E+04  0.7818609E-02  0.9308535E-01
        2   -1    0    0  501    0  0.00000000000E+00  0.00000000000E+00  0.11650683323E+04  0.11650683323E+04  0.25500000920E-02 0.  1.
       -2   -1    0    0    0  501  0.00000000000E+00  0.00000000000E+00 -0.21458359947E+03  0.21458359949E+03  0.25500000920E-02 0. -1.
    10030    2    1    2    0    0  0.00000000000E+00  0.00000000000E+00  0.95048473279E+03  0.13796519317E+04  0.10000091127E+04 0.  0.
        2    1    3    3  502    0  0.20855639040E+03 -0.92982079233E+02  0.10889308928E+04  0.11126149039E+04  0.25500000920E-02 0.  1.
       -2    1    3    3    0  502 -0.20855639040E+03  0.92982079233E+02 -0.13844616000E+03  0.26703702788E+03  0.25500000920E-02 0. -1.
</event>
<event>
 5   0  0.2255142E-03  0.1000111E+04  0.7818609E-02  0.9308423E-01
        2   -1    0    0  501    0  0.00000000000E+00  0.00000000000E+00  0.24302587739E+04  0.24302587739E+04  0.25500000920E-02 0.  1.
       -2   -1    0    0    0  501  0.00000000000E+00  0.00000000000E+00 -0.10289246978E+03  0.10289246982E+03  0.25500000920E-02 0. -1.
    10030    2    1    2    0    0  0.00000000000E+00  0.00000000000E+00  0.23273663041E+04  0.25331512437E+04  0.10001106489E+04 0.  0.
        4    1    3    3  502    0  0.68887980072E+02 -0.28250644206E+03  0.21940925223E+04  0.22132778978E+04  0.12699999809E+01 0.  1.
       -4    1    3    3    0  502 -0.68887980072E+02  0.28250644206E+03  0.13327378181E+03  0.31987334590E+03  0.12699999809E+01 0. -1.
</event>
<event>
 5   0  0.2284843E-03  0.9967522E+03  0.7818609E-02  0.9312114E-01
       -2   -1    0    0    0  501  0.00000000000E+00  0.00000000000E+00  0.39888099473E+03  0.39888099474E+03  0.25500000920E-02 0.  1.
        2   -1    0    0  501    0  0.00000000000E+00  0.00000000000E+00 -0.62268882180E+03  0.62268882180E+03  0.25500000920E-02 0. -1.
    10030    2    1    2    0    0  0.00000000000E+00  0.00000000000E+00 -0.22380782707E+03  0.10215698165E+04  0.99675219920E+03 0.  0.
        2    1    3    3  502    0  0.44511546854E+03 -0.77700318181E+01 -0.34151453286E+03  0.56108852233E+03  0.25500000920E-02 0. -1.
       -2    1    3    3    0  502 -0.44511546854E+03  0.77700318181E+01  0.11770670579E+03  0.46048129421E+03  0.25500000920E-02 0.  1.
</event>
<event>
 5   0  0.1293575E-03  0.9960783E+03  0.7818609E-02  0.9312857E-01
       -1   -1    0    0    0  501  0.00000000000E+00  0.00000000000E+00  0.68153147205E+03  0.68153147207E+03  0.50400001928E-02 0.  1.
        1   -1    0    0  501    0  0.00000000000E+00  0.00000000000E+00 -0.36394943474E+03  0.36394943478E+03  0.50400001928E-02 0. -1.
    10030    2    1    2    0    0  0.00000000000E+00  0.00000000000E+00  0.31758203731E+03  0.10454809068E+04  0.99607829820E+03 0.  0.
        4    1    3    3  502    0  0.21158782563E+03 -0.23765504099E+03 -0.24334585984E+03  0.40058475616E+03  0.12699999809E+01 0. -1.
       -4    1    3    3    0  502 -0.21158782563E+03  0.23765504099E+03  0.56092789715E+03  0.64489615068E+03  0.12699999809E+01 0.  1.
</event>
<event>
 5   0  0.2264577E-03  0.9972741E+03  0.7818609E-02  0.9311540E-01
       -2   -1    0    0    0  501  0.00000000000E+00  0.00000000000E+00  0.17269565059E+03  0.17269565061E+03  0.25500000920E-02 0. -1.
        2   -1    0    0  501    0  0.00000000000E+00  0.00000000000E+00 -0.14397520126E+04  0.14397520126E+04  0.25500000920E-02 0.  1.
    10030    2    1    2    0    0  0.00000000000E+00  0.00000000000E+00 -0.12670563621E+04  0.16124476633E+04  0.99727410580E+03 0.  0.
        5    1    3    3  502    0  0.43797236661E+03  0.20550227511E+03 -0.82866484451E+03  0.95956161528E+03  0.46999998093E+01 0. -1.
       -5    1    3    3    0  502 -0.43797236661E+03 -0.20550227511E+03 -0.43839151754E+03  0.65288604797E+03  0.46999998093E+01 0.  1.
</event>
<event>
 5   0  0.1249195E-03  0.1005003E+04  0.7818609E-02  0.9303074E-01
        1   -1    0    0  501    0  0.00000000000E+00  0.00000000000E+00  0.45697472664E+03  0.45697472667E+03  0.50400001928E-02 0. -1.
       -1   -1    0    0    0  501  0.00000000000E+00  0.00000000000E+00 -0.55256426905E+03  0.55256426907E+03  0.50400001928E-02 0.  1.
    10030    2    1    2    0    0  0.00000000000E+00  0.00000000000E+00 -0.95589542409E+02  0.10095389957E+04  0.10050032952E+04 0.  0.
        2    1    3    3  502    0 -0.49775881409E+03  0.27462071393E+02  0.15655985605E+02  0.49876157858E+03  0.25500000920E-02 0.  1.
       -2    1    3    3    0  502  0.49775881409E+03 -0.27462071393E+02 -0.11124552801E+03  0.51077741716E+03  0.25500000920E-02 0. -1.
</event>
<event>
 5   0  0.1353789E-03  0.1003629E+04  0.7818609E-02  0.9304573E-01
        1   -1    0    0  501    0  0.00000000000E+00  0.00000000000E+00  0.43333089690E+03  0.43333089693E+03  0.50400001928E-02 0. -1.
       -1   -1    0    0    0  501  0.00000000000E+00  0.00000000000E+00 -0.58112170339E+03  0.58112170341E+03  0.50400001928E-02 0.  1.
    10030    2    1    2    0    0  0.00000000000E+00  0.00000000000E+00 -0.14779080649E+03  0.10144526003E+04  0.10036293917E+04 0.  0.
        1    1    3    3  502    0 -0.21627816802E+03 -0.19689489257E+03  0.33826925439E+03  0.44717997850E+03  0.50400001928E-02 0. -1.
       -1    1    3    3    0  502  0.21627816802E+03  0.19689489257E+03 -0.48606006087E+03  0.56727262184E+03  0.50400001928E-02 0.  1.
</event>
<event>
 5   0  0.1285769E-03  0.9882203E+03  0.7818609E-02  0.9321560E-01
       -1   -1    0    0    0  501  0.00000000000E+00  0.00000000000E+00  0.29889301902E+03  0.29889301906E+03  0.50400001928E-02 0. -1.
        1   -1    0    0  501    0  0.00000000000E+00  0.00000000000E+00 -0.81683024353E+03  0.81683024355E+03  0.50400001928E-02 0.  1.
    10030    2    1    2    0    0  0.00000000000E+00  0.00000000000E+00 -0.51793722452E+03  0.11157232626E+04  0.98822033484E+03 0.  0.
        5    1    3    3  502    0 -0.26683917665E+03  0.16397619236E+03 -0.69041403956E+03  0.75814574712E+03  0.46999998093E+01 0.  1.
       -5    1    3    3    0  502  0.26683917665E+03 -0.16397619236E+03  0.17247681504E+03  0.35757751549E+03  0.46999998093E+01 0. -1.
</event>
<event>
 5   0  0.1293575E-03  0.9997486E+03  0.7818609E-02  0.9308821E-01
       -1   -1    0    0    0  501  0.00000000000E+00  0.00000000000E+00  0.48157922584E+03  0.48157922587E+03  0.50400001928E-02 0.  1.
        1   -1    0    0  501    0  0.00000000000E+00  0.00000000000E+00 -0.51886440666E+03  0.51886440669E+03  0.50400001928E-02 0. -1.
    10030    2    1    2    0    0  0.00000000000E+00  0.00000000000E+00 -0.37285180821E+02  0.10004436326E+04  0.99974860700E+03 0.  0.
        4    1    3    3  502    0 -0.18201918567E+02  0.95801822810E+02 -0.50925213466E+03  0.51850617031E+03  0.12699999809E+01 0. -1.
       -4    1    3    3    0  502  0.18201918567E+02 -0.95801822810E+02  0.47196695384E+03  0.48193746224E+03  0.12699999809E+01 0.  1.
</event>
<event>
 5   0  0.2204862E-03  0.1004217E+04  0.7818609E-02  0.9303932E-01
       -2   -1    0    0    0  501  0.00000000000E+00  0.00000000000E+00  0.13016164219E+03  0.13016164222E+03  0.25500000920E-02 0. -1.
        2   -1    0    0  501    0  0.00000000000E+00  0.00000000000E+00 -0.19369219266E+04  0.19369219266E+04  0.25500000920E-02 0.  1.
    10030    2    1    2    0    0  0.00000000000E+00  0.00000000000E+00 -0.18067602844E+04  0.20670835688E+04  0.10042169861E+04 0.  0.
        1    1    3    3  502    0  0.11961586859E+03 -0.33390529529E+03 -0.16349455880E+04  0.16729757255E+04  0.50400001928E-02 0.  1.
       -1    1    3    3    0  502 -0.11961586859E+03  0.33390529529E+03 -0.17181469636E+03  0.39410784330E+03  0.50400001928E-02 0. -1.
</event>
<event>
 5   0  0.1353789E-03  0.9989593E+03  0.7818609E-02  0.9309687E-01
       -1   -1    0    0    0  501  0.00000000000E+00  0.00000000000E+00  0.26257635692E+03  0.26257635697E+03  0.50400001928E-02 0.  1.
        1   -1    0    0  501    0  0.00000000000E+00  0.00000000000E+00 -0.95012337683E+03  0.95012337684E+03  0.50400001928E-02 0. -1.
    10030    2    1    2    0    0  0.00000000000E+00  0.00000000000E+00 -0.68754701991E+03  0.12126997338E+04  0.99895932841E+03 0.  0.
        1    1    3    3  502    0  0.30277265916E+03  0.27553237682E+03  0.36205585850E+01  0.40939282149E+03  0.50400001928E-02 0.  1.
       -1    1    3    3    0  502 -0.30277265916E+03 -0.27553237682E+03 -0.69116757849E+03  0.80330691233E+03  0.50400001928E-02 0. -1.
</event>
<event>
 5   0  0.2277570E-03  0.1001057E+04  0.7818609E-02  0.9307386E-01
        2   -1    0    0  501    0  0.00000000000E+00  0.00000000000E+00  0.28967251028E+03  0.28967251029E+03  0.25500000920E-02 0.  1.
       -2   -1    0    0    0  501  0.00000000000E+00  0.00000000000E+00 -0.86486984325E+03  0.86486984326E+03  0.25500000920E-02 0. -1.
    10030    2    1    2    0    0  0.00000000000E+00  0.00000000000E+00 -0.57519733297E+03  0.11545423536E+04  0.10010574780E+04 0.  0.
        3    1    3    3  502    0 -0.12943013481E+03  0.16644755803E+02  0.26970783844E+03  0.29961898473E+03  0.10100000352E+00 0.  1.
       -3    1    3    3    0  502  0.12943013481E+03 -0.16644755803E+02 -0.84490517141E+03  0.85492336883E+03  0.10100000352E+00 0. -1.
</event>
<event>
 5   0  0.2204862E-03  0.9996757E+03  0.7818609E-02  0.9308901E-01
       -2   -1    0    0    0  501  0.00000000000E+00  0.00000000000E+00  0.23117915201E+03  0.23117915203E+03  0.25500000920E-02 0.  1.
        2   -1    0    0  501    0  0.00000000000E+00  0.00000000000E+00 -0.10807111865E+04  0.10807111865E+04  0.25500000920E-02 0. -1.
    10030    2    1    2    0    0  0.00000000000E+00  0.00000000000E+00 -0.84953203447E+03  0.13118903385E+04  0.99967573877E+03 0.  0.
        1    1    3    3  502    0  0.43343412436E+03  0.12577062727E+03 -0.14283333101E+03  0.47337590910E+03  0.50400001928E-02 0.  1.
       -1    1    3    3    0  502 -0.43343412436E+03 -0.12577062727E+03 -0.70669870346E+03  0.83851442941E+03  0.50400001928E-02 0. -1.
</event>
<event>
 5   0  0.2204862E-03  0.9987908E+03  0.7818609E-02  0.9309872E-01
       -2   -1    0    0    0  501  0.00000000000E+00  0.00000000000E+00  0.25673517668E+03  0.25673517669E+03  0.25500000920E-02 0.  1.
        2   -1    0    0  501    0  0.00000000000E+00  0.00000000000E+00 -0.97141259204E+03  0.97141259205E+03  0.25500000920E-02 0. -1.
    10030    2    1    2    0    0  0.00000000000E+00  0.00000000000E+00 -0.71467741537E+03  0.12281477687E+04  0.99879083587E+03 0.  0.
        1    1    3    3  502    0 -0.97310721200E+02  0.48971343396E+03 -0.34460978790E+03  0.60666673702E+03  0.50400001928E-02 0.  1.
       -1    1    3    3    0  502  0.97310721200E+02 -0.48971343396E+03 -0.37006762747E+03  0.62148103172E+03  0.50400001928E-02 0. -1.
</event>
<event>
 5   0  0.2264577E-03  0.9975433E+03  0.7818609E-02  0.9311243E-01
       -2   -1    0    0    0  501  0.00000000000E+00  0.00000000000E+00  0.11425072342E+03  0.11425072345E+03  0.25500000920E-02 0.  1.
        2   -1    0    0  501    0  0.00000000000E+00  0.00000000000E+00 -0.21774319063E+04  0.21774319063E+04  0.25500000920E-02 0. -1.
    10030    2    1    2    0    0  0.00000000000E+00  0.00000000000E+00 -0.20631811829E+04  0.22916826297E+04  0.99754332342E+03 0.  0.
        5    1    3    3  502    0  0.11409798403E+03  0.39809042261E+03 -0.16701347153E+04  0.17207168250E+04  0.46999998093E+01 0. -1.
       -5    1    3    3    0  502 -0.11409798403E+03 -0.39809042261E+03 -0.39304646759E+03  0.57096580477E+03  0.46999998093E+01 0.  1.
</event>
<event>
 5   0  0.1285769E-03  0.9928177E+03  0.7818609E-02  0.9316457E-01
        1   -1    0    0  501    0  0.00000000000E+00  0.00000000000E+00  0.18000426095E+04  0.18000426095E+04  0.50400001928E-02 0.  1.
       -1   -1    0    0    0  501  0.00000000000E+00  0.00000000000E+00 -0.13689774320E+03  0.13689774329E+03  0.50400001928E-02 0. -1.
    10030    2    1    2    0    0  0.00000000000E+00  0.00000000000E+00  0.16631448663E+04  0.19369403528E+04  0.99281774962E+03 0.  0.
        5    1    3    3  502    0  0.36136673068E+03  0.32967956413E+03  0.99625354072E+03  0.11098728470E+04  0.46999998093E+01 0.  1.
       -5    1    3    3    0  502 -0.36136673068E+03 -0.32967956413E+03  0.66689132555E+03  0.82706750579E+03  0.46999998093E+01 0. -1.
</event>
<event>
 5   0  0.2277570E-03  0.9899446E+03  0.7818609E-02  0.9319643E-01
       -2   -1    0    0    0  501  0.00000000000E+00  0.00000000000E+00  0.15055080136E+03  0.15055080138E+03  0.25500000920E-02 0.  1.
        2   -1    0    0  501    0  0.00000000000E+00  0.00000000000E+00 -0.16273414401E+04  0.16273414401E+04  0.25500000920E-02 0. -1.
    10030    2    1    2    0    0  0.00000000000E+00  0.00000000000E+00 -0.14767906388E+04  0.17778922415E+04  0.98994455991E+03 0.  0.
        3    1    3    3  502    0 -0.31058263898E+02  0.14831541458E+03 -0.15846590735E+04  0.15918877056E+04  0.10100000352E+00 0. -1.
       -3    1    3    3    0  502  0.31058263898E+02 -0.14831541458E+03  0.10786843472E+03  0.18600453588E+03  0.10100000352E+00 0.  1.
</event>
<event>
 5   0  0.1249195E-03  0.9987419E+03  0.7818609E-02  0.9309926E-01
        1   -1    0    0  501    0  0.00000000000E+00  0.00000000000E+00  0.50588586974E+03  0.50588586977E+03  0.50400001928E-02 0.  1.
       -1   -1    0    0    0  501  0.00000000000E+00  0.00000000000E+00 -0.49293996455E+03  0.49293996458E+03  0.50400001928E-02 0. -1.
    10030    2    1    2    0    0  0.00000000000E+00  0.00000000000E+00  0.12945905190E+02  0.99882583435E+03  0.99874193408E+03 0.  0.
        2    1    3    3  502    0 -0.20721310150E+03  0.77542718030E+02  0.45419484700E+03  0.50521589603E+03  0.25500000920E-02 0.  1.
       -2    1    3    3    0  502  0.20721310150E+03 -0.77542718030E+02 -0.44124894181E+03  0.49360993832E+03  0.25500000920E-02 0. -1.
</event>
<event>
 5   0  0.1353789E-03  0.9993401E+03  0.7818609E-02  0.9309269E-01
        1   -1    0    0  501    0  0.00000000000E+00  0.00000000000E+00  0.69759355860E+03  0.69759355862E+03  0.50400001928E-02 0.  1.
       -1   -1    0    0    0  501  0.00000000000E+00  0.00000000000E+00 -0.35790207432E+03  0.35790207436E+03  0.50400001928E-02 0. -1.
    10030    2    1    2    0    0  0.00000000000E+00  0.00000000000E+00  0.33969148428E+03  0.10554956330E+04  0.99934014567E+03 0.  0.
        1    1    3    3  502    0 -0.50482731038E+02 -0.42812153944E+03  0.43669613937E+03  0.61362861475E+03  0.50400001928E-02 0.  1.
       -1    1    3    3    0  502  0.50482731038E+02  0.42812153944E+03 -0.97004655089E+02  0.44186701823E+03  0.50400001928E-02 0. -1.
</event>
<event>
 5   0  0.1293716E-03  0.9778934E+03  0.7818609E-02  0.9333129E-01
        1   -1    0    0  501    0  0.00000000000E+00  0.00000000000E+00  0.64183583631E+03  0.64183583633E+03  0.50400001928E-02 0.  1.
       -1   -1    0    0    0  501  0.00000000000E+00  0.00000000000E+00 -0.37247666181E+03  0.37247666184E+03  0.50400001928E-02 0. -1.
    10030    2    1    2    0    0  0.00000000000E+00  0.00000000000E+00  0.26935917450E+03  0.10143124982E+04  0.97789338839E+03 0.  0.
        3    1    3    3  502    0  0.47648530248E+03 -0.92757656878E+02  0.19539711430E+03  0.52328029665E+03  0.10100000352E+00 0. -1.
       -3    1    3    3    0  502 -0.47648530248E+03  0.92757656878E+02  0.73962060208E+02  0.49103220153E+03  0.10100000352E+00 0.  1.
</event>
<event>
 5   0  0.1293716E-03  0.1000957E+04  0.7818609E-02  0.9307496E-01
       -1   -1    0    0    0  501  0.00000000000E+00  0.00000000000E+00  0.91030547584E+03  0.91030547586E+03  0.50400001928E-02 0. -1.
        1   -1    0    0  501    0  0.00000000000E+00  0.00000000000E+00 -0.27515907515E+03  0.27515907520E+03  0.50400001928E-02 0.  1.
    10030    2    1    2    0    0  0.00000000000E+00  0.00000000000E+00  0.63514640069E+03  0.11854645511E+04  0.10009571677E+04 0.  0.
        3    1    3    3  502    0 -0.29500527884E+03  0.51606334905E+02  0.79246993633E+03  0.84717172906E+03  0.10100000352E+00 0. -1.
       -3    1    3    3    0  502  0.29500527884E+03 -0.51606334905E+02 -0.15732353564E+03  0.33829282199E+03  0.10100000352E+00 0.  1.
</event>
<event>
 5   0  0.2284843E-03  0.9941764E+03  0.7818609E-02  0.9314955E-01
        2   -1    0    0  501    0  0.00000000000E+00  0.00000000000E+00  0.96853334651E+03  0.96853334651E+03  0.25500000920E-02 0.  1.
       -2   -1    0    0    0  501  0.00000000000E+00  0.00000000000E+00 -0.25512459920E+03  0.25512459921E+03  0.25500000920E-02 0. -1.
    10030    2    1    2    0    0  0.00000000000E+00  0.00000000000E+00  0.71340874731E+03  0.12236579457E+04  0.99417640658E+03 0.  0.
        2    1    3    3  502    0  0.30887167061E+03  0.38800933452E+03  0.39832975239E+03  0.63609711855E+03  0.25500000920E-02 0. -1.
       -2    1    3    3    0  502 -0.30887167061E+03 -0.38800933452E+03  0.31507899492E+03  0.58756082717E+03  0.25500000920E-02 0.  1.
</event>
<event>
 5   0  0.1285769E-03  0.9995070E+03  0.7818609E-02  0.9309086E-01
        1   -1    0    0  501    0  0.00000000000E+00  0.00000000000E+00  0.46863888352E+03  0.46863888355E+03  0.50400001928E-02 0. -1.
       -1   -1    0    0    0  501  0.00000000000E+00  0.00000000000E+00 -0.53293392531E+03  0.53293392534E+03  0.50400001928E-02 0.  1.
    10030    2    1    2    0    0  0.00000000000E+00  0.00000000000E+00 -0.64295041793E+02  0.10015728089E+04  0.99950699803E+03 0.  0.
        5    1    3    3  502    0  0.48858562449E+03 -0.10217205976E+03 -0.56206048333E+02  0.50233081940E+03  0.46999998093E+01 0.  1.
       -5    1    3    3    0  502 -0.48858562449E+03  0.10217205976E+03 -0.80889934592E+01  0.49924198949E+03  0.46999998093E+01 0. -1.
</event>
<event>
 5   0  0.2264577E-03  0.9984614E+03  0.7818609E-02  0.9310234E-01
       -2   -1    0    0    0  501  0.00000000000E+00  0.00000000000E+00  0.10990445454E+04  0.10990445454E+04  0.25500000920E-02 0.  1.
        2   -1    0    0  501    0  0.00000000000E+00  0.00000000000E+00 -0.22677088744E+03  0.22677088745E+03  0.25500000920E-02 0. -1.
    10030    2    1    2    0    0  0.00000000000E+00  0.00000000000E+00  0.87227365795E+03  0.13258154328E+04  0.99846143021E+03 0.  0.
        5    1    3    3  502    0  0.20541389628E+03  0.30250485366E+03  0.88742346512E+03  0.95981589469E+03  0.46999998093E+01 0.  1.
       -5    1    3    3    0  502 -0.20541389628E+03 -0.30250485366E+03 -0.15149807164E+02  0.36599953815E+03  0.46999998093E+01 0. -1.
</event>
<event>
 5   0  0.1249195E-03  0.9998910E+03  0.7818609E-02  0.9308664E-01
        1   -1    0    0  501    0  0.00000000000E+00  0.00000000000E+00  0.72850341445E+03  0.72850341447E+03  0.50400001928E-02 0.  1.
       -1   -1    0    0    0  501  0.00000000000E+00  0.00000000000E+00 -0.34309448484E+03  0.34309448487E+03  0.50400001928E-02 0. -1.
    10030    2    1    2    0    0  0.00000000000E+00  0.00000000000E+00  0.38540892962E+03  0.10715978993E+04  0.99989100148E+03 0.  0.
        2    1    3    3  502    0 -0.11417788792E+03  0.41213239265E+03 -0.84817513321E+02  0.43598590543E+03  0.25500000920E-02 0. -1.
       -2    1    3    3    0  502  0.11417788792E+03 -0.41213239265E+03  0.47022644294E+03  0.63561199391E+03  0.25500000920E-02 0.  1.
</event>
<event>
 5   0  0.8680125E-04  0.1008386E+04  0.7818609E-02  0.9299394E-01
        4   -1    0    0  501    0  0.00000000000E+00  0.00000000000E+00  0.40573151192E+03  0.40573349956E+03  0.12699999809E+01 0.  1.
       -4   -1    0    0    0  501  0.00000000000E+00  0.00000000000E+00 -0.62654493111E+03  0.62654621825E+03  0.12699999809E+01 0. -1.
    10030    2    1    2    0    0  0.00000000000E+00  0.00000000000E+00 -0.22081341919E+03  0.10322797178E+04  0.10083862602E+04 0.  0.
        1    1    3    3  502    0  0.26184704939E+03  0.35210478786E+03  0.14381001352E+03  0.46176073774E+03  0.50400001928E-02 0.  1.
       -1    1    3    3    0  502 -0.26184704939E+03 -0.35210478786E+03 -0.36462343272E+03  0.57051898007E+03  0.50400001928E-02 0. -1.
</event>
<event>
 5   0  0.1353789E-03  0.9930033E+03  0.7818609E-02  0.9316252E-01
       -1   -1    0    0    0  501  0.00000000000E+00  0.00000000000E+00  0.24990757144E+03  0.24990757149E+03  0.50400001928E-02 0. -1.
        1   -1    0    0  501    0  0.00000000000E+00  0.00000000000E+00 -0.98642021810E+03  0.98642021812E+03  0.50400001928E-02 0.  1.
    10030    2    1    2    0    0  0.00000000000E+00  0.00000000000E+00 -0.73651264667E+03  0.12363277896E+04  0.99300328531E+03 0.  0.
        1    1    3    3  502    0 -0.25039803620E+03 -0.38243872404E+03 -0.60953487628E+03  0.76189980942E+03  0.50400001928E-02 0.  1.
       -1    1    3    3    0  502  0.25039803620E+03  0.38243872404E+03 -0.12697777039E+03  0.47442798018E+03  0.50400001928E-02 0. -1.
</event>
<event>
 5   0  0.1249195E-03  0.1001752E+04  0.7818609E-02  0.9306626E-01
        1   -1    0    0  501    0  0.00000000000E+00  0.00000000000E+00  0.43068518449E+03  0.43068518452E+03  0.50400001928E-02 0.  1.
       -1   -1    0    0    0  501  0.00000000000E+00  0.00000000000E+00 -0.58250586920E+03  0.58250586923E+03  0.50400001928E-02 0. -1.
    10030    2    1    2    0    0  0.00000000000E+00  0.00000000000E+00 -0.15182068472E+03  0.10131910537E+04  0.10017517612E+04 0.  0.
        2    1    3    3  502    0  0.45452849719E+03 -0.10861202028E+03  0.10638075598E+03  0.47928028434E+03  0.25500000920E-02 0. -1.
       -2    1    3    3    0  502 -0.45452849719E+03  0.10861202028E+03 -0.25820144069E+03  0.53391076941E+03  0.25500000920E-02 0.  1.
</event>
<event>
 5   0  0.2204862E-03  0.1000156E+04  0.7818609E-02  0.9308373E-01
        2   -1    0    0  501    0  0.00000000000E+00  0.00000000000E+00  0.19863133923E+04  0.19863133923E+04  0.25500000920E-02 0.  1.
       -2   -1    0    0    0  501  0.00000000000E+00  0.00000000000E+00 -0.12590063874E+03  0.12590063876E+03  0.25500000920E-02 0. -1.
    10030    2    1    2    0    0  0.00000000000E+00  0.00000000000E+00  0.18604127536E+04  0.21122140310E+04  0.10001562375E+04 0.  0.
        1    1    3    3  502    0 -0.29410676494E+03  0.83782253270E+02  0.17658292149E+04  0.17921135766E+04  0.50400001928E-02 0.  1.
       -1    1    3    3    0  502  0.29410676494E+03 -0.83782253270E+02  0.94583538663E+02  0.32010045448E+03  0.50400001928E-02 0. -1.
</event>
<event>
 5   0  0.2204862E-03  0.9998463E+03  0.7818609E-02  0.9308713E-01
       -2   -1    0    0    0  501  0.00000000000E+00  0.00000000000E+00  0.17081127819E+03  0.17081127821E+03  0.25500000920E-02 0. -1.
        2   -1    0    0  501    0  0.00000000000E+00  0.00000000000E+00 -0.14631535857E+04  0.14631535857E+04  0.25500000920E-02 0.  1.
    10030    2    1    2    0    0  0.00000000000E+00  0.00000000000E+00 -0.12923423075E+04  0.16339648639E+04  0.99984625653E+03 0.  0.
        1    1    3    3  502    0  0.17370472252E+03 -0.45331948000E+03 -0.84126160219E+03  0.97128418339E+03  0.50400001928E-02 0.  1.
       -1    1    3    3    0  502 -0.17370472252E+03  0.45331948000E+03 -0.45108070529E+03  0.66268068048E+03  0.50400001928E-02 0. -1.
</event>
<event>
 5   0  0.8680125E-04  0.9988367E+03  0.7818609E-02  0.9309822E-01
        3   -1    0    0  501    0  0.00000000000E+00  0.00000000000E+00  0.56601993279E+03  0.56601994180E+03  0.10100000352E+00 0. -1.
       -3   -1    0    0    0  501  0.00000000000E+00  0.00000000000E+00 -0.44065349941E+03  0.44065351098E+03  0.10100000352E+00 0.  1.
    10030    2    1    2    0    0  0.00000000000E+00  0.00000000000E+00  0.12536643338E+03  0.10066734528E+04  0.99883667229E+03 0.  0.
        2    1    3    3  502    0 -0.18982298355E+02  0.69943061117E+01 -0.44024040089E+03  0.44070495635E+03  0.25500000920E-02 0.  1.
       -2    1    3    3    0  502  0.18982298355E+02 -0.69943061117E+01  0.56560683427E+03  0.56596849643E+03  0.25500000920E-02 0. -1.
</event>
<event>
 5   0  0.1293575E-03  0.1005889E+04  0.7818609E-02  0.9302109E-01
        1   -1    0    0  501    0  0.00000000000E+00  0.00000000000E+00  0.42303490393E+03  0.42303490396E+03  0.50400001928E-02 0.  1.
       -1   -1    0    0    0  501  0.00000000000E+00  0.00000000000E+00 -0.59794895331E+03  0.59794895333E+03  0.50400001928E-02 0. -1.
    10030    2    1    2    0    0  0.00000000000E+00  0.00000000000E+00 -0.17491404938E+03  0.10209838573E+04  0.10058892147E+04 0.  0.
        4    1    3    3  502    0  0.20087065420E+03  0.40100843632E+03 -0.31845710834E+03  0.55006665821E+03  0.12699999809E+01 0. -1.
       -4    1    3    3    0  502 -0.20087065420E+03 -0.40100843632E+03  0.14354305896E+03  0.47091719908E+03  0.12699999809E+01 0.  1.
</event>
<event>
 5   0  0.2264577E-03  0.1000529E+04  0.7818609E-02  0.9307965E-01
       -2   -1    0    0    0  501  0.00000000000E+00  0.00000000000E+00  0.65871543226E+03  0.65871543227E+03  0.25500000920E-02 0. -1.
        2   -1    0    0  501    0  0.00000000000E+00  0.00000000000E+00 -0.37992822656E+03  0.37992822657E+03  0.25500000920E-02 0.  1.
    10030    2    1    2    0    0  0.00000000000E+00  0.00000000000E+00  0.27878720570E+03  0.10386436588E+04  0.10005290321E+04 0.  0.
        5    1    3    3  502    0  0.12532586170E+02  0.17639611384E+03  0.62516174671E+03  0.64970913049E+03  0.46999998093E+01 0. -1.
       -5    1    3    3    0  502 -0.12532586170E+02 -0.17639611384E+03 -0.34637454100E+03  0.38893452836E+03  0.46999998093E+01 0.  1.
</event>
<event>
 5   0  0.1285769E-03  0.1001310E+04  0.7818609E-02  0.9307109E-01
       -1   -1    0    0    0  501  0.00000000000E+00  0.00000000000E+00  0.47337785089E+03  0.47337785091E+03  0.50400001928E-02 0.  1.
        1   -1    0    0  501    0  0.00000000000E+00  0.00000000000E+00 -0.52950389400E+03  0.52950389403E+03  0.50400001928E-02 0. -1.
    10030    2    1    2    0    0  0.00000000000E+00  0.00000000000E+00 -0.56126043114E+02  0.10028817449E+04  0.10013099728E+04 0.  0.
        5    1    3    3  502    0 -0.20454061360E+03 -0.40929375829E+03  0.17541858505E+03  0.49005307178E+03  0.46999998093E+01 0.  1.
       -5    1    3    3    0  502  0.20454061360E+03  0.40929375829E+03 -0.23154462816E+03  0.51282867316E+03  0.46999998093E+01 0. -1.
</event>
<event>
 5   0  0.1249195E-03  0.1000332E+04  0.7818609E-02  0.9308180E-01
       -1   -1    0    0    0  501  0.00000000000E+00  0.00000000000E+00  0.47486488701E+03  0.47486488704E+03  0.50400001928E-02 0.  1.
        1   -1    0    0  501    0  0.00000000000E+00  0.00000000000E+00 -0.52681565205E+03  0.52681565207E+03  0.50400001928E-02 0. -1.
    10030    2    1    2    0    0  0.00000000000E+00  0.00000000000E+00 -0.51950765034E+02  0.10016805391E+04  0.10003324550E+04 0.  0.
        2    1    3    3  502    0 -0.29959962686E+03 -0.38292725710E+03  0.91541346286E+02  0.49474542821E+03  0.25500000920E-02 0. -1.
       -2    1    3    3    0  502  0.29959962686E+03  0.38292725710E+03 -0.14349211132E+03  0.50693511090E+03  0.25500000920E-02 0.  1.
</event>
<event>
 5   0  0.2264577E-03  0.1014087E+04  0.7818609E-02  0.9293228E-01
       -2   -1    0    0    0  501  0.00000000000E+00  0.00000000000E+00  0.12634942426E+03  0.12634942428E+03  0.25500000920E-02 0. -1.
        2   -1    0    0  501    0  0.00000000000E+00  0.00000000000E+00 -0.20347784020E+04  0.20347784020E+04  0.25500000920E-02 0.  1.
    10030    2    1    2    0    0  0.00000000000E+00  0.00000000000E+00 -0.19084289777E+04  0.21611278263E+04  0.10140869383E+04 0.  0.
        5    1    3    3  502    0  0.38409881007E+03  0.20268158715E+03 -0.15118127256E+04  0.15729626597E+04  0.46999998093E+01 0.  1.
       -5    1    3    3    0  502 -0.38409881007E+03 -0.20268158715E+03 -0.39661625216E+03  0.58816516655E+03  0.46999998093E+01 0. -1.
</event>
<event>
 5   0  0.2204862E-03  0.1015635E+04  0.7818609E-02  0.9291561E-01
        2   -1    0    0  501    0  0.00000000000E+00  0.00000000000E+00  0.16228903789E+03  0.16228903791E+03  0.25500000920E-02 0.  1.
       -2   -1    0    0    0  501  0.00000000000E+00  0.00000000000E+00 -0.15890087130E+04  0.15890087130E+04  0.25500000920E-02 0. -1.
    10030    2    1    2    0    0  0.00000000000E+00  0.00000000000E+00 -0.14267196751E+04  0.17512977509E+04  0.10156351614E+04 0.  0.
        1    1    3    3  502    0 -0.94511037374E+02  0.29403697131E+03 -0.18281529399E+02  0.30939342434E+03  0.50400001928E-02 0.  1.
       -1    1    3    3    0  502  0.94511037374E+02 -0.29403697131E+03 -0.14084381457E+04  0.14419043266E+04  0.50400001928E-02 0. -1.
</event>
<event>
 5   0  0.1249195E-03  0.9510344E+03  0.7818609E-02  0.9363942E-01
        1   -1    0    0  501    0  0.00000000000E+00  0.00000000000E+00  0.85343274320E+03  0.85343274321E+03  0.50400001928E-02 0.  1.
       -1   -1    0    0    0  501  0.00000000000E+00  0.00000000000E+00 -0.26494951602E+03  0.26494951606E+03  0.50400001928E-02 0. -1.
    10030    2    1    2    0    0  0.00000000000E+00  0.00000000000E+00  0.58848322718E+03  0.11183822593E+04  0.95103436804E+03 0.  0.
        2    1    3    3  502    0 -0.41166305361E+03 -0.14543871320E+03  0.51580305672E+03  0.67577487548E+03  0.25500000920E-02 0.  1.
       -2    1    3    3    0  502  0.41166305361E+03  0.14543871320E+03  0.72680170458E+02  0.44260738379E+03  0.25500000920E-02 0. -1.
</event>
<event>
 5   0  0.1285769E-03  0.1007108E+04  0.7818609E-02  0.9300783E-01
        1   -1    0    0  501    0  0.00000000000E+00  0.00000000000E+00  0.15623428200E+03  0.15623428208E+03  0.50400001928E-02 0.  1.
       -1   -1    0    0    0  501  0.00000000000E+00  0.00000000000E+00 -0.16229901986E+04  0.16229901986E+04  0.50400001928E-02 0. -1.
    10030    2    1    2    0    0  0.00000000000E+00  0.00000000000E+00 -0.14667559166E+04  0.17792244807E+04  0.10071081540E+04 0.  0.
        5    1    3    3  502    0 -0.18502014527E+03 -0.46665725721E+03 -0.80277825382E+03  0.94682441069E+03  0.46999998093E+01 0. -1.
       -5    1    3    3    0  502  0.18502014527E+03  0.46665725721E+03 -0.66397766280E+03  0.83240007002E+03  0.46999998093E+01 0.  1.
</event>
<event>
 5   0  0.1293716E-03  0.9923107E+03  0.7818609E-02  0.9317019E-01
        1   -1    0    0  501    0  0.00000000000E+00  0.00000000000E+00  0.13467768011E+04  0.13467768012E+04  0.50400001928E-02 0. -1.
       -1   -1    0    0    0  501  0.00000000000E+00  0.00000000000E+00 -0.18278467078E+03  0.18278467085E+03  0.50400001928E-02 0.  1.
    10030    2    1    2    0    0  0.00000000000E+00  0.00000000000E+00  0.11639921304E+04  0.15295614720E+04  0.99231074624E+03 0.  0.
        3    1    3    3  502    0  0.16287159652E+03 -0.30180301927E+03  0.29322531639E+02  0.34419767643E+03  0.10100000352E+00 0.  1.
       -3    1    3    3    0  502 -0.16287159652E+03  0.30180301927E+03  0.11346695987E+04  0.11853637956E+04  0.10100000352E+00 0. -1.
</event>
<event>
 5   0  0.1293716E-03  0.1000223E+04  0.7818609E-02  0.9308300E-01
       -1   -1    0    0    0  501  0.00000000000E+00  0.00000000000E+00  0.12942876535E+04  0.12942876535E+04  0.50400001928E-02 0.  1.
        1   -1    0    0  501    0  0.00000000000E+00  0.00000000000E+00 -0.19324270055E+03  0.19324270061E+03  0.50400001928E-02 0. -1.
    10030    2    1    2    0    0  0.00000000000E+00  0.00000000000E+00  0.11010449530E+04  0.14875303541E+04  0.10002232581E+04 0.  0.
        3    1    3    3  502    0  0.14073139023E+03 -0.45729170071E+03  0.33403110484E+03  0.58352190442E+03  0.10100000352E+00 0. -1.
       -3    1    3    3    0  502 -0.14073139023E+03  0.45729170071E+03  0.76701384814E+03  0.90400844973E+03  0.10100000352E+00 0.  1.
</event>
<event>
 5   0  0.1285769E-03  0.1000995E+04  0.7818609E-02  0.9307454E-01
        1   -1    0    0  501    0  0.00000000000E+00  0.00000000000E+00  0.14317538940E+04  0.14317538940E+04  0.50400001928E-02 0. -1.
       -1   -1    0    0    0  501  0.00000000000E+00  0.00000000000E+00 -0.17495864979E+03  0.17495864986E+03  0.50400001928E-02 0.  1.
    10030    2    1    2    0    0  0.00000000000E+00  0.00000000000E+00  0.12567952442E+04  0.16067125438E+04  0.10009949614E+04 0.  0.
        5    1    3    3  502    0 -0.63605986402E+02  0.32734001486E+03  0.12274271441E+04  0.12719263701E+04  0.46999998093E+01 0. -1.
       -5    1    3    3    0  502  0.63605986402E+02 -0.32734001486E+03  0.29368100064E+02  0.33478617375E+03  0.46999998093E+01 0.  1.
</event>
<event>
 5   0  0.1293575E-03  0.1043341E+04  0.7818609E-02  0.9262247E-01
       -1   -1    0    0    0  501  0.00000000000E+00  0.00000000000E+00  0.29440195288E+03  0.29440195292E+03  0.50400001928E-02 0. -1.
        1   -1    0    0  501    0  0.00000000000E+00  0.00000000000E+00 -0.92438197456E+03  0.92438197457E+03  0.50400001928E-02 0.  1.
    10030    2    1    2    0    0  0.00000000000E+00  0.00000000000E+00 -0.62998002168E+03  0.12187839275E+04  0.10433405169E+04 0.  0.
        4    1    3    3  502    0  0.31987058970E+03 -0.37852329460E+03 -0.50529959145E+03  0.70776151967E+03  0.12699999809E+01 0. -1.
       -4    1    3    3    0  502 -0.31987058970E+03  0.37852329460E+03 -0.12468043023E+03  0.51102240782E+03  0.12699999809E+01 0.  1.
</event>
<event>
 5   0  0.1285769E-03  0.9997123E+03  0.7818609E-02  0.9308860E-01
       -1   -1    0    0    0  501  0.00000000000E+00  0.00000000000E+00  0.49686534485E+03  0.49686534487E+03  0.50400001928E-02 0. -1.
        1   -1    0    0  501    0  0.00000000000E+00  0.00000000000E+00 -0.50286493135E+03  0.50286493138E+03  0.50400001928E-02 0.  1.
    10030    2    1    2    0    0  0.00000000000E+00  0.00000000000E+00 -0.59995865074E+01  0.99973027625E+03  0.99971227371E+03 0.  0.
        5    1    3    3  502    0  0.42025372738E+03 -0.26849271963E+03 -0.36653507363E+02  0.50006710097E+03  0.46999998093E+01 0.  1.
       -5    1    3    3    0  502 -0.42025372738E+03  0.26849271963E+03  0.30653920856E+02  0.49966317528E+03  0.46999998093E+01 0. -1.
</event>
<event>
 5   0  0.2255142E-03  0.9981264E+03  0.7818609E-02  0.9310602E-01
       -2   -1    0    0    0  501  0.00000000000E+00  0.00000000000E+00  0.14428377152E+04  0.14428377152E+04  0.25500000920E-02 0. -1.
        2   -1    0    0  501    0  0.00000000000E+00  0.00000000000E+00 -0.17262100733E+03  0.17262100735E+03  0.25500000920E-02 0.  1.
    10030    2    1    2    0    0  0.00000000000E+00  0.00000000000E+00  0.12702167079E+04  0.16154587225E+04  0.99812644455E+03 0.  0.
        4    1    3    3  502    0  0.10338425715E+03 -0.48707539571E+03  0.58066011144E+03  0.76491733125E+03  0.12699999809E+01 0. -1.
       -4    1    3    3    0  502 -0.10338425715E+03  0.48707539571E+03  0.68955659642E+03  0.85054139129E+03  0.12699999809E+01 0.  1.
</event>
<event>
 5   0  0.1293716E-03  0.1029959E+04  0.7818609E-02  0.9276283E-01
        1   -1    0    0  501    0  0.00000000000E+00  0.00000000000E+00  0.95059318520E+03  0.95059318521E+03  0.50400001928E-02 0.  1.
       -1   -1    0    0    0  501  0.00000000000E+00  0.00000000000E+00 -0.27898761949E+03  0.27898761954E+03  0.50400001928E-02 0. -1.
    10030    2    1    2    0    0  0.00000000000E+00  0.00000000000E+00  0.67160556570E+03  0.12295808048E+04  0.10299586980E+04 0.  0.
        3    1    3    3  502    0 -0.18452405731E+03  0.47993470632E+03  0.30167406727E+03  0.59614906116E+03  0.10100000352E+00 0. -1.
       -3    1    3    3    0  502  0.18452405731E+03 -0.47993470632E+03  0.36993149843E+03  0.63343174359E+03  0.10100000352E+00 0.  1.
</event>
<event>
 5   0  0.2277570E-03  0.1000050E+04  0.7818609E-02  0.9308490E-01
        2   -1    0    0  501    0  0.00000000000E+00  0.00000000000E+00  0.71649027249E+03  0.71649027250E+03  0.25500000920E-02 0. -1.
       -2   -1    0    0    0  501  0.00000000000E+00  0.00000000000E+00 -0.34895814925E+03  0.34895814926E+03  0.25500000920E-02 0.  1.
    10030    2    1    2    0    0  0.00000000000E+00  0.00000000000E+00  0.36753212324E+03  0.10654484218E+04  0.10000502376E+04 0.  0.
        3    1    3    3  502    0  0.49840110424E+03 -0.39476725474E+02  0.19222483366E+03  0.53564210947E+03  0.10100000352E+00 0. -1.
       -3    1    3    3    0  502 -0.49840110424E+03  0.39476725474E+02  0.17530728959E+03  0.52980631229E+03  0.10100000352E+00 0.  1.
</event>
<event>
 5   0  0.2277570E-03  0.1002548E+04  0.7818609E-02  0.9305755E-01
        2   -1    0    0  501    0  0.00000000000E+00  0.00000000000E+00  0.18811793452E+04  0.18811793452E+04  0.25500000920E-02 0. -1.
       -2   -1    0    0    0  501  0.00000000000E+00  0.00000000000E+00 -0.13357340884E+03  0.13357340886E+03  0.25500000920E-02 0.  1.
    10030    2    1    2    0    0  0.00000000000E+00  0.00000000000E+00  0.17476059364E+04  0.20147527541E+04  0.10025478299E+04 0.  0.
        3    1    3    3  502    0 -0.31552089979E+03 -0.38562839171E+03  0.76349568706E+03  0.91169532688E+03  0.10100000352E+00 0.  1.
       -3    1    3    3    0  502  0.31552089979E+03  0.38562839171E+03  0.98411024932E+03  0.11030574272E+04  0.10100000352E+00 0. -1.
</event>
<event>
 5   0  0.8680125E-04  0.9967697E+03  0.7818609E-02  0.9312095E-01
        4   -1    0    0  501    0  0.00000000000E+00  0.00000000000E+00  0.24701667543E+03  0.24701994017E+03  0.12699999809E+01 0.  1.
       -4   -1    0    0    0  501  0.00000000000E+00  0.00000000000E+00 -0.10055390470E+04  0.10055398490E+04  0.12699999809E+01 0. -1.
    10030    2    1    2    0    0  0.00000000000E+00  0.00000000000E+00 -0.75852237156E+03  0.12525597892E+04  0.99676970123E+03 0.  0.
        3    1    3    3  502    0 -0.14879143762E+03 -0.27360344656E+03  0.10967459161E+03  0.33019125385E+03  0.10100000352E+00 0.  1.
       -3    1    3    3    0  502  0.14879143762E+03  0.27360344656E+03 -0.86819696317E+03  0.92236853532E+03  0.10100000352E+00 0. -1.
</event>
<event>
 5   0  0.2264577E-03  0.9980987E+03  0.7818609E-02  0.9310633E-01
       -2   -1    0    0    0  501  0.00000000000E+00  0.00000000000E+00  0.51310843035E+03  0.51310843036E+03  0.25500000920E-02 0.  1.
        2   -1    0    0  501    0  0.00000000000E+00  0.00000000000E+00 -0.48537546032E+03  0.48537546033E+03  0.25500000920E-02 0. -1.
    10030    2    1    2    0    0  0.00000000000E+00  0.00000000000E+00  0.27732970031E+02  0.99848389069E+03  0.99809867364E+03 0.  0.
        5    1    3    3  502    0  0.72136038827E+02 -0.33204277334E+03  0.37948276422E+03  0.50939696678E+03  0.46999998093E+01 0.  1.
       -5    1    3    3    0  502 -0.72136038827E+02  0.33204277334E+03 -0.35174979419E+03  0.48908692391E+03  0.46999998093E+01 0. -1.
</event>
<event>
 5   0  0.1285769E-03  0.9955615E+03  0.7818609E-02  0.9313426E-01
       -1   -1    0    0    0  501  0.00000000000E+00  0.00000000000E+00  0.29185171093E+03  0.29185171097E+03  0.50400001928E-02 0. -1.
        1   -1    0    0  501    0  0.00000000000E+00  0.00000000000E+00 -0.84901219434E+03  0.84901219436E+03  0.50400001928E-02 0.  1.
    10030    2    1    2    0    0  0.00000000000E+00  0.00000000000E+00 -0.55716048341E+03  0.11408639053E+04  0.99556147284E+03 0.  0.
        5    1    3    3  502    0 -0.18558727148E+03 -0.13108441442E+02 -0.80764339406E+03  0.82880903020E+03  0.46999998093E+01 0.  1.
       -5    1    3    3    0  502  0.18558727148E+03  0.13108441442E+02  0.25048291064E+03  0.31205487513E+03  0.46999998093E+01 0. -1.
</event>
<event>
 5   0  0.1249195E-03  0.1001426E+04  0.7818609E-02  0.9306982E-01
       -1   -1    0    0    0  501  0.00000000000E+00  0.00000000000E+00  0.44907880568E+03  0.44907880571E+03  0.50400001928E-02 0. -1.
        1   -1    0    0  501    0  0.00000000000E+00  0.00000000000E+00 -0.55828382386E+03  0.55828382388E+03  0.50400001928E-02 0.  1.
    10030    2    1    2    0    0  0.00000000000E+00  0.00000000000E+00 -0.10920501818E+03  0.10073626296E+04  0.10014258492E+04 0.  0.
        2    1    3    3  502    0  0.42224326315E+03  0.22354580862E+02 -0.32437953199E+03  0.53292699438E+03  0.25500000920E-02 0.  1.
       -2    1    3    3    0  502 -0.42224326315E+03 -0.22354580862E+02  0.21517451381E+03  0.47443563521E+03  0.25500000920E-02 0. -1.
</event>
<event>
 5   0  0.2264577E-03  0.1000136E+04  0.7818609E-02  0.9308396E-01
       -2   -1    0    0    0  501  0.00000000000E+00  0.00000000000E+00  0.16603767334E+03  0.16603767336E+03  0.25500000920E-02 0. -1.
        2   -1    0    0  501    0  0.00000000000E+00  0.00000000000E+00 -0.15060912345E+04  0.15060912345E+04  0.25500000920E-02 0.  1.
    10030    2    1    2    0    0  0.00000000000E+00  0.00000000000E+00 -0.13400535612E+04  0.16721289079E+04  0.10001357597E+04 0.  0.
        5    1    3    3  502    0  0.18974475997E+03 -0.19534820994E+03 -0.13711934236E+04  0.13979833661E+04  0.46999998093E+01 0.  1.
       -5    1    3    3    0  502 -0.18974475997E+03  0.19534820994E+03  0.31139862367E+02  0.27414554180E+03  0.46999998093E+01 0. -1.
</event>
<event>
 5   0  0.2204862E-03  0.9998395E+03  0.7818609E-02  0.9308721E-01
       -2   -1    0    0    0  501  0.00000000000E+00  0.00000000000E+00  0.36203309784E+03  0.36203309785E+03  0.25500000920E-02 0. -1.
        2   -1    0    0  501    0  0.00000000000E+00  0.00000000000E+00 -0.69032291979E+03  0.69032291979E+03  0.25500000920E-02 0.  1.
    10030    2    1    2    0    0  0.00000000000E+00  0.00000000000E+00 -0.32828982195E+03  0.10523560176E+04  0.99983947746E+03 0.  0.
        1    1    3    3  502    0 -0.30159648817E+03  0.33136858372E+03  0.69207649619E+02  0.45338204502E+03  0.50400001928E-02 0. -1.
       -1    1    3    3    0  502  0.30159648817E+03 -0.33136858372E+03 -0.39749747157E+03  0.59897397263E+03  0.50400001928E-02 0.  1.
</event>
<event>
 5   0  0.1249195E-03  0.9971529E+03  0.7818609E-02  0.9311673E-01
       -1   -1    0    0    0  501  0.00000000000E+00  0.00000000000E+00  0.49252059457E+03  0.49252059460E+03  0.50400001928E-02 0.  1.
        1   -1    0    0  501    0  0.00000000000E+00  0.00000000000E+00 -0.50470675010E+03  0.50470675013E+03  0.50400001928E-02 0. -1.
    10030    2    1    2    0    0  0.00000000000E+00  0.00000000000E+00 -0.12186155532E+02  0.99722734472E+03  0.99715288430E+03 0.  0.
        2    1    3    3  502    0 -0.30493430690E+03 -0.10289932292E+03 -0.38691708338E+03  0.50326735598E+03  0.25500000920E-02 0. -1.
       -2    1    3    3    0  502  0.30493430690E+03  0.10289932292E+03  0.37473092785E+03  0.49395998874E+03  0.25500000920E-02 0.  1.
</event>
<event>
 5   0  0.2204862E-03  0.9993095E+03  0.7818609E-02  0.9309302E-01
       -2   -1    0    0    0  501  0.00000000000E+00  0.00000000000E+00  0.25605240356E+03  0.25605240357E+03  0.25500000920E-02 0.  1.
        2   -1    0    0  501    0  0.00000000000E+00  0.00000000000E+00 -0.97501466322E+03  0.97501466322E+03  0.25500000920E-02 0. -1.
    10030    2    1    2    0    0  0.00000000000E+00  0.00000000000E+00 -0.71896225966E+03  0.12310670668E+04  0.99930945764E+03 0.  0.
        1    1    3    3  502    0  0.45338678697E+03 -0.20406620299E+03 -0.42048599337E+03  0.65116131983E+03  0.50400001928E-02 0.  1.
       -1    1    3    3    0  502 -0.45338678697E+03  0.20406620299E+03 -0.29847626629E+03  0.57990574696E+03  0.50400001928E-02 0. -1.
</event>
<event>
 5   0  0.1293575E-03  0.1000000E+04  0.7818609E-02  0.9308544E-01
       -1   -1    0    0    0  501  0.00000000000E+00  0.00000000000E+00  0.21879155480E+03  0.21879155486E+03  0.50400001928E-02 0.  1.
        1   -1    0    0  501    0  0.00000000000E+00  0.00000000000E+00 -0.11426409812E+04  0.11426409812E+04  0.50400001928E-02 0. -1.
    10030    2    1    2    0    0  0.00000000000E+00  0.00000000000E+00 -0.92384942642E+03  0.13614325361E+04  0.10000003938E+04 0.  0.
        4    1    3    3  502    0  0.16993727472E+03 -0.31882044174E+03  0.86532927683E+01  0.36138849426E+03  0.12699999809E+01 0.  1.
       -4    1    3    3    0  502 -0.16993727472E+03  0.31882044174E+03 -0.93250271919E+03  0.10000440418E+04  0.12699999809E+01 0. -1.
</event>
<event>
 5   0  0.8680125E-04  0.1005664E+04  0.7818609E-02  0.9302354E-01
        3   -1    0    0  501    0  0.00000000000E+00  0.00000000000E+00  0.11515629520E+04  0.11515629565E+04  0.10100000352E+00 0.  1.
       -3   -1    0    0    0  501  0.00000000000E+00  0.00000000000E+00 -0.21956262929E+03  0.21956265252E+03  0.10100000352E+00 0. -1.
    10030    2    1    2    0    0  0.00000000000E+00  0.00000000000E+00  0.93200032274E+03  0.13711256090E+04  0.10056643744E+04 0.  0.
        5    1    3    3  502    0 -0.20703740798E+03  0.25716549152E+03 -0.51050531868E+02  0.33410600883E+03  0.46999998093E+01 0. -1.
       -5    1    3    3    0  502  0.20703740798E+03 -0.25716549152E+03  0.98305085461E+03  0.10370196001E+04  0.46999998093E+01 0.  1.
</event>
<event>
 5   0  0.2277570E-03  0.1003864E+04  0.7818609E-02  0.9304317E-01
        2   -1    0    0  501    0  0.00000000000E+00  0.00000000000E+00  0.91100217536E+03  0.91100217537E+03  0.25500000920E-02 0.  1.
       -2   -1    0    0    0  501  0.00000000000E+00  0.00000000000E+00 -0.27654804563E+03  0.27654804565E+03  0.25500000920E-02 0. -1.
    10030    2    1    2    0    0  0.00000000000E+00  0.00000000000E+00  0.63445412973E+03  0.11875502210E+04  0.10038642760E+04 0.  0.
        3    1    3    3  502    0  0.38935250651E+03  0.34274416223E+02 -0.55300006336E+02  0.39475082119E+03  0.10100000352E+00 0. -1.
       -3    1    3    3    0  502 -0.38935250651E+03 -0.34274416223E+02  0.68975413607E+03  0.79279939982E+03  0.10100000352E+00 0.  1.
</event>
<event>
 5   0  0.1293575E-03  0.1014261E+04  0.7818609E-02  0.9293040E-01
        1   -1    0    0  501    0  0.00000000000E+00  0.00000000000E+00  0.10811605969E+04  0.10811605969E+04  0.50400001928E-02 0. -1.
       -1   -1    0    0    0  501  0.00000000000E+00  0.00000000000E+00 -0.23787530464E+03  0.23787530469E+03  0.50400001928E-02 0.  1.
    10030    2    1    2    0    0  0.00000000000E+00  0.00000000000E+00  0.84328529228E+03  0.13190359016E+04  0.10142611230E+04 0.  0.
        4    1    3    3  502    0  0.50372186022E+03 -0.87669862725E+01  0.34617815526E+03  0.61127203486E+03  0.12699999809E+01 0.  1.
       -4    1    3    3    0  502 -0.50372186022E+03  0.87669862725E+01  0.49710713702E+03  0.70776386676E+03  0.12699999809E+01 0. -1.
</event>
<event>
 5   0  0.2277570E-03  0.9978791E+03  0.7818609E-02  0.9310874E-01
        2   -1    0    0  501    0  0.00000000000E+00  0.00000000000E+00  0.98634535002E+03  0.98634535002E+03  0.25500000920E-02 0.  1.
       -2   -1    0    0    0  501  0.00000000000E+00  0.00000000000E+00 -0.25238690657E+03  0.25238690659E+03  0.25500000920E-02 0. -1.
    10030    2    1    2    0    0  0.00000000000E+00  0.00000000000E+00  0.73395844345E+03  0.12387322566E+04  0.99787905423E+03 0.  0.
        3    1    3    3  502    0 -0.37071932352E+03 -0.33390048765E+03  0.36167044023E+03  0.61622063421E+03  0.10100000352E+00 0.  1.
       -3    1    3    3    0  502  0.37071932352E+03  0.33390048765E+03  0.37228800322E+03  0.62251162241E+03  0.10100000352E+00 0. -1.
</event>
<event>
 5   0  0.2255142E-03  0.1021692E+04  0.7818609E-02  0.9285068E-01
        2   -1    0    0  501    0  0.00000000000E+00  0.00000000000E+00  0.35677211211E+03  0.35677211212E+03  0.25500000920E-02 0. -1.
       -2   -1    0    0    0  501  0.00000000000E+00  0.00000000000E+00 -0.73145747014E+03  0.73145747014E+03  0.25500000920E-02 0.  1.
    10030    2    1    2    0    0  0.00000000000E+00  0.00000000000E+00 -0.37468535802E+03  0.10882295823E+04  0.10216919821E+04 0.  0.
        4    1    3    3  502    0 -0.14000209980E+03 -0.48995047205E+03 -0.22589314795E+03  0.55738799790E+03  0.12699999809E+01 0.  1.
       -4    1    3    3    0  502  0.14000209980E+03  0.48995047205E+03 -0.14879221007E+03  0.53084158436E+03  0.12699999809E+01 0. -1.
</event>
<event>
 5   0  0.2284843E-03  0.9936351E+03  0.7818609E-02  0.9315553E-01
        2   -1    0    0  501    0  0.00000000000E+00  0.00000000000E+00  0.12886032459E+04  0.12886032459E+04  0.25500000920E-02 0. -1.
       -2   -1    0    0    0  501  0.00000000000E+00  0.00000000000E+00 -0.19154669102E+03  0.19154669104E+03  0.25500000920E-02 0.  1.
    10030    2    1    2    0    0  0.00000000000E+00  0.00000000000E+00  0.10970565548E+04  0.14801499369E+04  0.99363511974E+03 0.  0.
        2    1    3    3  502    0  0.49358040577E+02 -0.18376650714E+03 -0.13511565897E+03  0.23337220618E+03  0.25500000920E-02 0.  1.
       -2    1    3    3    0  502 -0.49358040577E+02  0.18376650714E+03  0.12321722138E+04  0.12467777307E+04  0.25500000920E-02 0. -1.
</event>
<event>
 5   0  0.2284843E-03  0.1001463E+04  0.7818609E-02  0.9306942E-01
       -2   -1    0    0    0  501  0.00000000000E+00  0.00000000000E+00  0.21291059236E+03  0.21291059238E+03  0.25500000920E-02 0. -1.
        2   -1    0    0  501    0  0.00000000000E+00  0.00000000000E+00 -0.11776402956E+04  0.11776402956E+04  0.25500000920E-02 0.  1.
    10030    2    1    2    0    0  0.00000000000E+00  0.00000000000E+00 -0.96472970319E+03  0.13905508879E+04  0.10014631155E+04 0.  0.
        2    1    3    3  502    0 -0.65034319753E+02 -0.53178904727E+02  0.20305564862E+03  0.21974770783E+03  0.25500000920E-02 0. -1.
       -2    1    3    3    0  502  0.65034319753E+02  0.53178904727E+02 -0.11677853518E+04  0.11708031801E+04  0.25500000920E-02 0.  1.
</event>
<event>
 5   0  0.1249195E-03  0.1008046E+04  0.7818609E-02  0.9299763E-01
       -1   -1    0    0    0  501  0.00000000000E+00  0.00000000000E+00  0.77973586722E+03  0.77973586724E+03  0.50400001928E-02 0.  1.
        1   -1    0    0  501    0  0.00000000000E+00  0.00000000000E+00 -0.32580186928E+03  0.32580186932E+03  0.50400001928E-02 0. -1.
    10030    2    1    2    0    0  0.00000000000E+00  0.00000000000E+00  0.45393399794E+03  0.11055377366E+04  0.10080464337E+04 0.  0.
        2    1    3    3  502    0  0.29330105626E+03 -0.64790040225E+01  0.67644803374E+03  0.73732586381E+03  0.25500000920E-02 0.  1.
       -2    1    3    3    0  502 -0.29330105626E+03  0.64790040225E+01 -0.22251403579E+03  0.36821187274E+03  0.25500000920E-02 0. -1.
</event>
<event>
 5   0  0.2284843E-03  0.1000620E+04  0.7818609E-02  0.9307865E-01
       -2   -1    0    0    0  501  0.00000000000E+00  0.00000000000E+00  0.73082058417E+03  0.73082058417E+03  0.25500000920E-02 0. -1.
        2   -1    0    0  501    0  0.00000000000E+00  0.00000000000E+00 -0.34250533265E+03  0.34250533266E+03  0.25500000920E-02 0.  1.
    10030    2    1    2    0    0  0.00000000000E+00  0.00000000000E+00  0.38831525152E+03  0.10733259168E+04  0.10006197026E+04 0.  0.
        2    1    3    3  502    0 -0.42348051988E+03 -0.18853644607E+03  0.39605800793E+03  0.60970787092E+03  0.25500000920E-02 0. -1.
       -2    1    3    3    0  502  0.42348051988E+03  0.18853644607E+03 -0.77427564154E+01  0.46361804591E+03  0.25500000920E-02 0.  1.
</event>
<event>
 5   0  0.2264577E-03  0.1006901E+04  0.7818609E-02  0.9301008E-01
       -2   -1    0    0    0  501  0.00000000000E+00  0.00000000000E+00  0.20973646849E+03  0.20973646851E+03  0.25500000920E-02 0. -1.
        2   -1    0    0  501    0  0.00000000000E+00  0.00000000000E+00 -0.12084814279E+04  0.12084814279E+04  0.25500000920E-02 0.  1.
    10030    2    1    2    0    0  0.00000000000E+00  0.00000000000E+00 -0.99874495936E+03  0.14182178964E+04  0.10069014389E+04 0.  0.
        5    1    3    3  502    0 -0.69973534412E+02  0.40069651541E+03 -0.81576622227E+02  0.41488652457E+03  0.46999998093E+01 0. -1.
       -5    1    3    3    0  502  0.69973534412E+02 -0.40069651541E+03 -0.91716833713E+03  0.10033313718E+04  0.46999998093E+01 0.  1.
</event>
<event>
 5   0  0.2264577E-03  0.1002398E+04  0.7818609E-02  0.9305918E-01
        2   -1    0    0  501    0  0.00000000000E+00  0.00000000000E+00  0.42886211413E+03  0.42886211414E+03  0.25500000920E-02 0. -1.
       -2   -1    0    0    0  501  0.00000000000E+00  0.00000000000E+00 -0.58573734521E+03  0.58573734521E+03  0.25500000920E-02 0.  1.
    10030    2    1    2    0    0  0.00000000000E+00  0.00000000000E+00 -0.15687523107E+03  0.10145994594E+04  0.10023982366E+04 0.  0.
        5    1    3    3  502    0  0.35588698275E+03  0.14816783818E+03 -0.40260016933E+03  0.55742106087E+03  0.46999998093E+01 0. -1.
       -5    1    3    3    0  502 -0.35588698275E+03 -0.14816783818E+03  0.24572493825E+03  0.45717839848E+03  0.46999998093E+01 0.  1.
</event>
<event>
 5   0  0.2277570E-03  0.9623999E+03  0.7818609E-02  0.9350773E-01
        2   -1    0    0  501    0  0.00000000000E+00  0.00000000000E+00  0.88316189784E+03  0.88316189785E+03  0.25500000920E-02 0. -1.
       -2   -1    0    0    0  501  0.00000000000E+00  0.00000000000E+00 -0.26218679172E+03  0.26218679173E+03  0.25500000920E-02 0.  1.
    10030    2    1    2    0    0  0.00000000000E+00  0.00000000000E+00  0.62097510613E+03  0.11453486896E+04  0.96239988481E+03 0.  0.
        3    1    3    3  502    0 -0.20586851384E+03  0.11449523422E+03  0.80984948743E+03  0.84341401822E+03  0.10100000352E+00 0. -1.
       -3    1    3    3    0  502  0.20586851384E+03 -0.11449523422E+03 -0.18887438130E+03  0.30193467135E+03  0.10100000352E+00 0.  1.
</event>
<event>
 5   0  0.1285769E-03  0.1000720E+04  0.7818609E-02  0.9307756E-01
       -1   -1    0    0    0  501  0.00000000000E+00  0.00000000000E+00  0.20990087143E+03  0.20990087149E+03  0.50400001928E-02 0.  1.
        1   -1    0    0  501    0  0.00000000000E+00  0.00000000000E+00 -0.11927529965E+04  0.11927529965E+04  0.50400001928E-02 0. -1.
    10030    2    1    2    0    0  0.00000000000E+00  0.00000000000E+00 -0.98285212509E+03  0.14026538680E+04  0.10007195280E+04 0.  0.
        5    1    3    3  502    0  0.15849690347E+03  0.32566037352E+03 -0.75804929534E+01  0.36229201090E+03  0.46999998093E+01 0.  1.
       -5    1    3    3    0  502 -0.15849690347E+03 -0.32566037352E+03 -0.97527163214E+03  0.10403618571E+04  0.46999998093E+01 0. -1.
</event>
<event>
 5   0  0.1353789E-03  0.9977637E+03  0.7818609E-02  0.9311001E-01
       -1   -1    0    0    0  501  0.00000000000E+00  0.00000000000E+00  0.40459061149E+03  0.40459061152E+03  0.50400001928E-02 0.  1.
        1   -1    0    0  501    0  0.00000000000E+00  0.00000000000E+00 -0.61514803352E+03  0.61514803354E+03  0.50400001928E-02 0. -1.
    10030    2    1    2    0    0  0.00000000000E+00  0.00000000000E+00 -0.21055742202E+03  0.10197386451E+04  0.99776373769E+03 0.  0.
        1    1    3    3  502    0 -0.22841164681E+03  0.66873265737E+02  0.34282871685E+03  0.41734331574E+03  0.50400001928E-02 0.  1.
       -1    1    3    3    0  502  0.22841164681E+03 -0.66873265737E+02 -0.55338613887E+03  0.60239532932E+03  0.50400001928E-02 0. -1.
</event>
<event>
 5   0  0.2277570E-03  0.1002393E+04  0.7818609E-02  0.9305924E-01
        2   -1    0    0  501    0  0.00000000000E+00  0.00000000000E+00  0.48493224221E+03  0.48493224221E+03  0.25500000920E-02 0.  1.
       -2   -1    0    0    0  501  0.00000000000E+00  0.00000000000E+00 -0.51800639500E+03  0.51800639500E+03  0.25500000920E-02 0. -1.
    10030    2    1    2    0    0  0.00000000000E+00  0.00000000000E+00 -0.33074152792E+02  0.10029386372E+04  0.10023931417E+04 0.  0.
        3    1    3    3  502    0  0.32349481898E+03  0.29542001221E+03  0.22706227451E+03  0.49343608322E+03  0.10100000352E+00 0.  1.
       -3    1    3    3    0  502 -0.32349481898E+03 -0.29542001221E+03 -0.26013642731E+03  0.50950255400E+03  0.10100000352E+00 0. -1.
</event>
<event>
 5   0  0.1249195E-03  0.9996223E+03  0.7818609E-02  0.9308959E-01
        1   -1    0    0  501    0  0.00000000000E+00  0.00000000000E+00  0.63316286817E+03  0.63316286819E+03  0.50400001928E-02 0. -1.
       -1   -1    0    0    0  501  0.00000000000E+00  0.00000000000E+00 -0.39454493158E+03  0.39454493162E+03  0.50400001928E-02 0.  1.
    10030    2    1    2    0    0  0.00000000000E+00  0.00000000000E+00  0.23861793658E+03  0.10277077998E+04  0.99962232974E+03 0.  0.
        2    1    3    3  502    0  0.11278853710E+03 -0.48386382852E+03  0.17529766762E+03  0.52685361432E+03  0.25500000920E-02 0.  1.
       -2    1    3    3    0  502 -0.11278853710E+03  0.48386382852E+03  0.63320268969E+02  0.50085418548E+03  0.25500000920E-02 0. -1.
</event>
<event>
 5   0  0.2255142E-03  0.9974015E+03  0.7818609E-02  0.9311399E-01
       -2   -1    0    0    0  501  0.00000000000E+00  0.00000000000E+00  0.44614339047E+03  0.44614339047E+03  0.25500000920E-02 0. -1.
        2   -1    0    0  501    0  0.00000000000E+00  0.00000000000E+00 -0.55744952522E+03  0.55744952523E+03  0.25500000920E-02 0.  1.
    10030    2    1    2    0    0  0.00000000000E+00  0.00000000000E+00 -0.11130613476E+03  0.10035929157E+04  0.99740146622E+03 0.  0.
        4    1    3    3  502    0  0.26126843572E+03  0.41511732328E+03  0.35001828241E+02  0.49174213615E+03  0.12699999809E+01 0.  1.
       -4    1    3    3    0  502 -0.26126843572E+03 -0.41511732328E+03 -0.14630796300E+03  0.51185077955E+03  0.12699999809E+01 0. -1.
</event>
<event>
 5   0  0.8680125E-04  0.1002068E+04  0.7818609E-02  0.9306279E-01
       -3   -1    0    0    0  501  0.00000000000E+00  0.00000000000E+00  0.59752997302E+03  0.59752998155E+03  0.10100000352E+00 0. -1.
        3   -1    0    0  501    0  0.00000000000E+00  0.00000000000E+00 -0.42012158838E+03  0.42012160052E+03  0.10100000352E+00 0.  1.
    10030    2    1    2    0    0  0.00000000000E+00  0.00000000000E+00  0.17740838464E+03  0.10176515821E+04  0.10020683647E+04 0.  0.
        1    1    3    3  502    0 -0.48646071619E+03  0.86120919292E+02  0.38925408305E+01  0.49404047713E+03  0.50400001928E-02 0.  1.
       -1    1    3    3    0  502  0.48646071619E+03 -0.86120919292E+02  0.17351584381E+03  0.52361110494E+03  0.50400001928E-02 0. -1.
</event>
<event>
 5   0  0.1293575E-03  0.9987883E+03  0.7818609E-02  0.9309875E-01
       -1   -1    0    0    0  501  0.00000000000E+00  0.00000000000E+00  0.65975659061E+03  0.65975659062E+03  0.50400001928E-02 0.  1.
        1   -1    0    0  501    0  0.00000000000E+00  0.00000000000E+00 -0.37800991048E+03  0.37800991051E+03  0.50400001928E-02 0. -1.
    10030    2    1    2    0    0  0.00000000000E+00  0.00000000000E+00  0.28174668013E+03  0.10377665011E+04  0.99878832548E+03 0.  0.
        4    1    3    3  502    0 -0.87697008671E+01 -0.59091565517E+02 -0.37428235353E+03  0.37902191735E+03  0.12699999809E+01 0. -1.
       -4    1    3    3    0  502  0.87697008671E+01  0.59091565517E+02  0.65602903366E+03  0.65874458379E+03  0.12699999809E+01 0.  1.
</event>
<event>
 5   0  0.2255142E-03  0.1001687E+04  0.7818609E-02  0.9306696E-01
        2   -1    0    0  501    0  0.00000000000E+00  0.00000000000E+00  0.41993702623E+03  0.41993702624E+03  0.25500000920E-02 0. -1.
       -2   -1    0    0    0  501  0.00000000000E+00  0.00000000000E+00 -0.59733820734E+03  0.59733820734E+03  0.25500000920E-02 0.  1.
    10030    2    1    2    0    0  0.00000000000E+00  0.00000000000E+00 -0.17740118111E+03  0.10172752336E+04  0.10016874372E+04 0.  0.
        4    1    3    3  502    0  0.19065527484E+03 -0.42312461825E+03 -0.27993635920E+03  0.54198695049E+03  0.12699999809E+01 0.  1.
       -4    1    3    3    0  502 -0.19065527484E+03  0.42312461825E+03  0.10253517809E+03  0.47528828309E+03  0.12699999809E+01 0. -1.
</event>
<event>
 5   0  0.2204862E-03  0.9790132E+03  0.7818609E-02  0.9331867E-01
        2   -1    0    0  501    0  0.00000000000E+00  0.00000000000E+00  0.13194352884E+04  0.13194352884E+04  0.25500000920E-02 0.  1.
       -2   -1    0    0    0  501  0.00000000000E+00  0.00000000000E+00 -0.18160551039E+03  0.18160551041E+03  0.25500000920E-02 0. -1.
    10030    2    1    2    0    0  0.00000000000E+00  0.00000000000E+00  0.11378297780E+04  0.15010407988E+04  0.97901321542E+03 0.  0.
        1    1    3    3  502    0  0.19662891964E+03 -0.36245821481E+03  0.97334118006E+03  0.10570865349E+04  0.50400001928E-02 0.  1.
       -1    1    3    3    0  502 -0.19662891964E+03  0.36245821481E+03  0.16448859792E+03  0.44395426385E+03  0.50400001928E-02 0. -1.
</event>
<event>
 5   0  0.2284843E-03  0.9939966E+03  0.7818609E-02  0.9315154E-01
       -2   -1    0    0    0  501  0.00000000000E+00  0.00000000000E+00  0.40523738813E+03  0.40523738814E+03  0.25500000920E-02 0.  1.
        2   -1    0    0  501    0  0.00000000000E+00  0.00000000000E+00 -0.60953731671E+03  0.60953731671E+03  0.25500000920E-02 0. -1.
    10030    2    1    2    0    0  0.00000000000E+00  0.00000000000E+00 -0.20429992858E+03  0.10147747048E+04  0.99399659998E+03 0.  0.
        2    1    3    3  502    0  0.39516896640E+02  0.17180515487E+03  0.37224485016E+03  0.41187962421E+03  0.25500000920E-02 0.  1.
       -2    1    3    3    0  502 -0.39516896640E+02 -0.17180515487E+03 -0.57654477874E+03  0.60289508064E+03  0.25500000920E-02 0. -1.
</event>
<event>
 5   0  0.1293716E-03  0.1002946E+04  0.7818609E-02  0.9305319E-01
       -1   -1    0    0    0  501  0.00000000000E+00  0.00000000000E+00  0.49780358973E+03  0.49780358976E+03  0.50400001928E-02 0. -1.
        1   -1    0    0  501    0  0.00000000000E+00  0.00000000000E+00 -0.50516985239E+03  0.50516985241E+03  0.50400001928E-02 0.  1.
    10030    2    1    2    0    0  0.00000000000E+00  0.00000000000E+00 -0.73662626553E+01  0.10029734422E+04  0.10029463913E+04 0.  0.
        3    1    3    3  502    0 -0.41965656707E+03  0.19106008425E+03 -0.20081725298E+03  0.50293455775E+03  0.10100000352E+00 0.  1.
       -3    1    3    3    0  502  0.41965656707E+03 -0.19106008425E+03  0.19345099033E+03  0.50003888443E+03  0.10100000352E+00 0. -1.
</event>
<event>
 5   0  0.8680125E-04  0.9850429E+03  0.7818609E-02  0.9325103E-01
        3   -1    0    0  501    0  0.00000000000E+00  0.00000000000E+00  0.51966251927E+03  0.51966252908E+03  0.10100000352E+00 0.  1.
       -3   -1    0    0    0  501  0.00000000000E+00  0.00000000000E+00 -0.46679793549E+03  0.46679794642E+03  0.10100000352E+00 0. -1.
    10030    2    1    2    0    0  0.00000000000E+00  0.00000000000E+00  0.52864583778E+02  0.98646047550E+03  0.98504294602E+03 0.  0.
        1    1    3    3  502    0 -0.22464926201E+01  0.35614110218E+03  0.36712160761E+03  0.51148783582E+03  0.50400001928E-02 0.  1.
       -1    1    3    3    0  502  0.22464926201E+01 -0.35614110218E+03 -0.31425702383E+03  0.47497263968E+03  0.50400001928E-02 0. -1.
</event>
<event>
 5   0  0.1353789E-03  0.1003331E+04  0.7818609E-02  0.9304899E-01
        1   -1    0    0  501    0  0.00000000000E+00  0.00000000000E+00  0.55733717950E+03  0.55733717952E+03  0.50400001928E-02 0. -1.
       -1   -1    0    0    0  501  0.00000000000E+00  0.00000000000E+00 -0.45155473380E+03  0.45155473383E+03  0.50400001928E-02 0.  1.
    10030    2    1    2    0    0  0.00000000000E+00  0.00000000000E+00  0.10578244570E+03  0.10088919133E+04  0.10033309359E+04 0.  0.
        1    1    3    3  502    0 -0.21552366567E+03  0.32609890382E+03  0.36908165846E+03  0.53759856415E+03  0.50400001928E-02 0. -1.
       -1    1    3    3    0  502  0.21552366567E+03 -0.32609890382E+03 -0.26329921276E+03  0.47129334920E+03  0.50400001928E-02 0.  1.
</event>
<event>
 5   0  0.1249195E-03  0.9981492E+03  0.7818609E-02  0.9310577E-01
       -1   -1    0    0    0  501  0.00000000000E+00  0.00000000000E+00  0.25516541945E+03  0.25516541950E+03  0.50400001928E-02 0. -1.
        1   -1    0    0  501    0  0.00000000000E+00  0.00000000000E+00 -0.97613326193E+03  0.97613326194E+03  0.50400001928E-02 0.  1.
    10030    2    1    2    0    0  0.00000000000E+00  0.00000000000E+00 -0.72096784248E+03  0.12312986814E+04  0.99814919377E+03 0.  0.
        2    1    3    3  502    0  0.46186546629E+03  0.12349643887E+03 -0.53712479742E+03  0.71907866564E+03  0.25500000920E-02 0.  1.
       -2    1    3    3    0  502 -0.46186546629E+03 -0.12349643887E+03 -0.18384304506E+03  0.51222001581E+03  0.25500000920E-02 0. -1.
</event>
<event>
 5   0  0.2284843E-03  0.9984222E+03  0.7818609E-02  0.9310277E-01
       -2   -1    0    0    0  501  0.00000000000E+00  0.00000000000E+00  0.40932991882E+03  0.40932991883E+03  0.25500000920E-02 0. -1.
        2   -1    0    0  501    0  0.00000000000E+00  0.00000000000E+00 -0.60882851845E+03  0.60882851845E+03  0.25500000920E-02 0.  1.
    10030    2    1    2    0    0  0.00000000000E+00  0.00000000000E+00 -0.19949859962E+03  0.10181584373E+04  0.99842221137E+03 0.  0.
        2    1    3    3  502    0 -0.26631308606E+03  0.41634992236E+03 -0.17143692094E+03  0.52312573586E+03  0.25500000920E-02 0. -1.
       -2    1    3    3    0  502  0.26631308606E+03 -0.41634992236E+03 -0.28061678683E+02  0.49503270142E+03  0.25500000920E-02 0.  1.
</event>
<event>
 5   0  0.2264577E-03  0.9935469E+03  0.7818609E-02  0.9315651E-01
       -2   -1    0    0    0  501  0.00000000000E+00  0.00000000000E+00  0.19464088079E+03  0.19464088080E+03  0.25500000920E-02 0. -1.
        2   -1    0    0  501    0  0.00000000000E+00  0.00000000000E+00 -0.12678933164E+04  0.12678933164E+04  0.25500000920E-02 0.  1.
    10030    2    1    2    0    0  0.00000000000E+00  0.00000000000E+00 -0.10732524356E+04  0.14625341972E+04  0.99354692260E+03 0.  0.
        5    1    3    3  502    0  0.35224409588E+03  0.35022637856E+03 -0.54432630798E+03  0.73691766085E+03  0.46999998093E+01 0. -1.
       -5    1    3    3    0  502 -0.35224409588E+03 -0.35022637856E+03 -0.52892612759E+03  0.72561653631E+03  0.46999998093E+01 0.  1.
</event>
<event>
 5   0  0.1353789E-03  0.1001132E+04  0.7818609E-02  0.9307304E-01
        1   -1    0    0  501    0  0.00000000000E+00  0.00000000000E+00  0.10563330057E+04  0.10563330057E+04  0.50400001928E-02 0.  1.
       -1   -1    0    0    0  501  0.00000000000E+00  0.00000000000E+00 -0.23720390413E+03  0.23720390418E+03  0.50400001928E-02 0. -1.
    10030    2    1    2    0    0  0.00000000000E+00  0.00000000000E+00  0.81912910157E+03  0.12935369099E+04  0.10011319854E+04 0.  0.
        1    1    3    3  502    0 -0.41680123800E+03  0.26511058354E+03  0.30491913866E+03  0.58050200228E+03  0.50400001928E-02 0. -1.
       -1    1    3    3    0  502  0.41680123800E+03 -0.26511058354E+03  0.51420996291E+03  0.71303490762E+03  0.50400001928E-02 0.  1.
</event>
<event>
 5   0  0.2204862E-03  0.9992575E+03  0.7818609E-02  0.9309360E-01
        2   -1    0    0  501    0  0.00000000000E+00  0.00000000000E+00  0.16443625611E+04  0.16443625611E+04  0.25500000920E-02 0.  1.
       -2   -1    0    0    0  501  0.00000000000E+00  0.00000000000E+00 -0.15180890743E+03  0.15180890745E+03  0.25500000920E-02 0. -1.
    10030    2    1    2    0    0  0.00000000000E+00  0.00000000000E+00  0.14925536536E+04  0.17961714685E+04  0.99925749201E+03 0.  0.
        1    1    3    3  502    0  0.12959171302E+03 -0.44962265331E+03  0.43145995185E+03  0.63648427516E+03  0.50400001928E-02 0. -1.
       -1    1    3    3    0  502 -0.12959171302E+03  0.44962265331E+03  0.10610937018E+04  0.11596871934E+04  0.50400001928E-02 0.  1.
</event>
<event>
 5   0  0.1353789E-03  0.9993031E+03  0.7818609E-02  0.9309309E-01
       -1   -1    0    0    0  501  0.00000000000E+00  0.00000000000E+00  0.75738850210E+03  0.75738850212E+03  0.50400001928E-02 0. -1.
        1   -1    0    0  501    0  0.00000000000E+00  0.00000000000E+00 -0.32962170789E+03  0.32962170792E+03  0.50400001928E-02 0.  1.
    10030    2    1    2    0    0  0.00000000000E+00  0.00000000000E+00  0.42776679422E+03  0.10870102100E+04  0.99930314044E+03 0.  0.
        1    1    3    3  502    0  0.18658046312E+03 -0.87854978084E+02  0.70893259343E+03  0.73831984157E+03  0.50400001928E-02 0. -1.
       -1    1    3    3    0  502 -0.18658046312E+03  0.87854978084E+02 -0.28116579922E+03  0.34869036848E+03  0.50400001928E-02 0.  1.
</event>
<event>
 5   0  0.2264577E-03  0.9995274E+03  0.7818609E-02  0.9309063E-01
       -2   -1    0    0    0  501  0.00000000000E+00  0.00000000000E+00  0.20785079256E+03  0.20785079257E+03  0.25500000920E-02 0.  1.
        2   -1    0    0  501    0  0.00000000000E+00  0.00000000000E+00 -0.12016492700E+04  0.12016492700E+04  0.25500000920E-02 0. -1.
    10030    2    1    2    0    0  0.00000000000E+00  0.00000000000E+00 -0.99379847747E+03  0.14095000626E+04  0.99952739465E+03 0.  0.
        5    1    3    3  502    0  0.46319989744E+03  0.15544910064E+03 -0.34884454551E+03  0.60036087048E+03  0.46999998093E+01 0. -1.
       -5    1    3    3    0  502 -0.46319989744E+03 -0.15544910064E+03 -0.64495393196E+03  0.80913919212E+03  0.46999998093E+01 0.  1.
</event>
<event>
 5   0  0.2204862E-03  0.1000876E+04  0.7818609E-02  0.9307585E-01
        2   -1    0    0  501    0  0.00000000000E+00  0.00000000000E+00  0.68883706175E+03  0.68883706175E+03  0.25500000920E-02 0.  1.
       -2   -1    0    0    0  501  0.00000000000E+00  0.00000000000E+00 -0.36356643850E+03  0.36356643851E+03  0.25500000920E-02 0. -1.
    10030    2    1    2    0    0  0.00000000000E+00  0.00000000000E+00  0.32527062325E+03  0.10524035003E+04  0.10008756911E+04 0.  0.
        1    1    3    3  502    0  0.20417718113E+03 -0.25458259640E+03  0.56155823755E+03  0.64949847873E+03  0.50400001928E-02 0.  1.
       -1    1    3    3    0  502 -0.20417718113E+03  0.25458259640E+03 -0.23628761430E+03  0.40290502154E+03  0.50400001928E-02 0. -1.
</event>
<event>
 5   0  0.2264577E-03  0.9995300E+03  0.7818609E-02  0.9309060E-01
        2   -1    0    0  501    0  0.00000000000E+00  0.00000000000E+00  0.15654191831E+04  0.15654191831E+04  0.25500000920E-02 0. -1.
       -2   -1    0    0    0  501  0.00000000000E+00  0.00000000000E+00 -0.15955154752E+03  0.15955154754E+03  0.25500000920E-02 0.  1.
    10030    2    1    2    0    0  0.00000000000E+00  0.00000000000E+00  0.14058676356E+04  0.17249707307E+04  0.99952999596E+03 0.  0.
        5    1    3    3  502    0  0.43812662132E+03 -0.15162908075E+03  0.38100888904E+03  0.60011347090E+03  0.46999998093E+01 0.  1.
       -5    1    3    3    0  502 -0.43812662132E+03  0.15162908075E+03  0.10248587466E+04  0.11248572598E+04  0.46999998093E+01 0. -1.
</event>
<event>
 5   0  0.2264577E-03  0.1000268E+04  0.7818609E-02  0.9308251E-01
        2   -1    0    0  501    0  0.00000000000E+00  0.00000000000E+00  0.19056477928E+04  0.19056477928E+04  0.25500000920E-02 0. -1.
       -2   -1    0    0    0  501  0.00000000000E+00  0.00000000000E+00 -0.13125930872E+03  0.13125930874E+03  0.25500000920E-02 0.  1.
    10030    2    1    2    0    0  0.00000000000E+00  0.00000000000E+00  0.17743884841E+04  0.20369071016E+04  0.10002679880E+04 0.  0.
        5    1    3    3  502    0  0.20726212981E+03  0.38092664347E+03  0.13944453786E+04  0.14603296553E+04  0.46999998093E+01 0. -1.
       -5    1    3    3    0  502 -0.20726212981E+03 -0.38092664347E+03  0.37994310549E+03  0.57657744629E+03  0.46999998093E+01 0.  1.
</event>
<event>
 5   0  0.8680125E-04  0.1000144E+04  0.7818609E-02  0.9308386E-01
        4   -1    0    0  501    0  0.00000000000E+00  0.00000000000E+00  0.93337457183E+03  0.93337543585E+03  0.12699999809E+01 0. -1.
       -4   -1    0    0    0  501  0.00000000000E+00  0.00000000000E+00 -0.26792016811E+03  0.26792317814E+03  0.12699999809E+01 0.  1.
    10030    2    1    2    0    0  0.00000000000E+00  0.00000000000E+00  0.66545440372E+03  0.12012986140E+04  0.10001443878E+04 0.  0.
        3    1    3    3  502    0  0.16208866731E+03 -0.43845852479E+03  0.11936741992E+03  0.48245953734E+03  0.10100000352E+00 0. -1.
       -3    1    3    3    0  502 -0.16208866731E+03  0.43845852479E+03  0.54608698380E+03  0.71883907664E+03  0.10100000352E+00 0.  1.
</event>
<event>
 5   0  0.2277570E-03  0.1001712E+04  0.7818609E-02  0.9306669E-01
        2   -1    0    0  501    0  0.00000000000E+00  0.00000000000E+00  0.52606223039E+03  0.52606223039E+03  0.25500000920E-02 0. -1.
       -2   -1    0    0    0  501  0.00000000000E+00  0.00000000000E+00 -0.47685742138E+03  0.47685742138E+03  0.25500000920E-02 0.  1.
    10030    2    1    2    0    0  0.00000000000E+00  0.00000000000E+00  0.49204809012E+02  0.10029196518E+04  0.10017118921E+04 0.  0.
        3    1    3    3  502    0  0.13163900788E+03  0.22918042043E+03  0.45056121707E+03  0.52235803242E+03  0.10100000352E+00 0. -1.
       -3    1    3    3    0  502 -0.13163900788E+03 -0.22918042043E+03 -0.40135640806E+03  0.48056161935E+03  0.10100000352E+00 0.  1.
</event>
<event>
 5   0  0.1249195E-03  0.1000968E+04  0.7818609E-02  0.9307484E-01
        1   -1    0    0  501    0  0.00000000000E+00  0.00000000000E+00  0.45910689349E+03  0.45910689351E+03  0.50400001928E-02 0.  1.
       -1   -1    0    0    0  501  0.00000000000E+00  0.00000000000E+00 -0.54559004823E+03  0.54559004825E+03  0.50400001928E-02 0. -1.
    10030    2    1    2    0    0  0.00000000000E+00  0.00000000000E+00 -0.86483154744E+02  0.10046969418E+04  0.10009678360E+04 0.  0.
        2    1    3    3  502    0 -0.16056473734E+03  0.43022002682E+03  0.15653219070E+03  0.48515217518E+03  0.25500000920E-02 0.  1.
       -2    1    3    3    0  502  0.16056473734E+03 -0.43022002682E+03 -0.24301534545E+03  0.51954476658E+03  0.25500000920E-02 0. -1.
</event>
<event>
 5   0  0.2255142E-03  0.9976297E+03  0.7818609E-02  0.9311148E-01
        2   -1    0    0  501    0  0.00000000000E+00  0.00000000000E+00  0.10079664482E+04  0.10079664482E+04  0.25500000920E-02 0. -1.
       -2   -1    0    0    0  501  0.00000000000E+00  0.00000000000E+00 -0.24684975836E+03  0.24684975837E+03  0.25500000920E-02 0.  1.
    10030    2    1    2    0    0  0.00000000000E+00  0.00000000000E+00  0.76111668980E+03  0.12548162065E+04  0.99762973928E+03 0.  0.
        4    1    3    3  502    0  0.22187402397E+03  0.13836084637E+03  0.91485268934E+03  0.95148771007E+03  0.12699999809E+01 0. -1.
       -4    1    3    3    0  502 -0.22187402397E+03 -0.13836084637E+03 -0.15373599953E+03  0.30332849647E+03  0.12699999809E+01 0.  1.
</event>
<event>
 5   0  0.1293716E-03  0.1014849E+04  0.7818609E-02  0.9292406E-01
       -1   -1    0    0    0  501  0.00000000000E+00  0.00000000000E+00  0.44508873596E+03  0.44508873599E+03  0.50400001928E-02 0. -1.
        1   -1    0    0  501    0  0.00000000000E+00  0.00000000000E+00 -0.57849107766E+03  0.57849107768E+03  0.50400001928E-02 0.  1.
    10030    2    1    2    0    0  0.00000000000E+00  0.00000000000E+00 -0.13340234170E+03  0.10235798137E+04  0.10148494717E+04 0.  0.
        3    1    3    3  502    0  0.94928642704E+02 -0.36158531716E+03 -0.41276279567E+03  0.55689184271E+03  0.10100000352E+00 0.  1.
       -3    1    3    3    0  502 -0.94928642704E+02  0.36158531716E+03  0.27936045397E+03  0.46668797095E+03  0.10100000352E+00 0. -1.
</event>
<event>
 5   0  0.2277570E-03  0.9978821E+03  0.7818609E-02  0.9310871E-01
        2   -1    0    0  501    0  0.00000000000E+00  0.00000000000E+00  0.56513711832E+03  0.56513711833E+03  0.25500000920E-02 0. -1.
       -2   -1    0    0    0  501  0.00000000000E+00  0.00000000000E+00 -0.44049869210E+03  0.44049869210E+03  0.25500000920E-02 0.  1.
    10030    2    1    2    0    0  0.00000000000E+00  0.00000000000E+00  0.12463842623E+03  0.10056358104E+04  0.99788208018E+03 0.  0.
        3    1    3    3  502    0  0.48616281149E+03 -0.88525105568E+02 -0.71451635720E+01  0.49420849563E+03  0.10100000352E+00 0. -1.
       -3    1    3    3    0  502 -0.48616281149E+03  0.88525105568E+02  0.13178358980E+03  0.51142731481E+03  0.10100000352E+00 0.  1.
</event>
<event>
 5   0  0.1293575E-03  0.9908961E+03  0.7818609E-02  0.9318587E-01
       -1   -1    0    0    0  501  0.00000000000E+00  0.00000000000E+00  0.51203378649E+03  0.51203378652E+03  0.50400001928E-02 0.  1.
        1   -1    0    0  501    0  0.00000000000E+00  0.00000000000E+00 -0.47939956043E+03  0.47939956046E+03  0.50400001928E-02 0. -1.
    10030    2    1    2    0    0  0.00000000000E+00  0.00000000000E+00  0.32634226057E+02  0.99143334697E+03  0.99089610393E+03 0.  0.
        4    1    3    3  502    0 -0.87286743489E+02  0.24248049780E+03  0.43969117970E+03  0.50965254224E+03  0.12699999809E+01 0.  1.
       -4    1    3    3    0  502  0.87286743489E+02 -0.24248049780E+03 -0.40705695364E+03  0.48178080474E+03  0.12699999809E+01 0. -1.
</event>
<event>
 5   0  0.2204862E-03  0.9979661E+03  0.7818609E-02  0.9310778E-01
        2   -1    0    0  501    0  0.00000000000E+00  0.00000000000E+00  0.14691276909E+04  0.14691276909E+04  0.25500000920E-02 0. -1.
       -2   -1    0    0    0  501  0.00000000000E+00  0.00000000000E+00 -0.16947749185E+03  0.16947749187E+03  0.25500000920E-02 0.  1.
    10030    2    1    2    0    0  0.00000000000E+00  0.00000000000E+00  0.12996501990E+04  0.16386051827E+04  0.99796608413E+03 0.  0.
        1    1    3    3  502    0 -0.44157504152E+03 -0.22829789592E+03  0.57871486857E+03  0.76290192404E+03  0.50400001928E-02 0. -1.
       -1    1    3    3    0  502  0.44157504152E+03  0.22829789592E+03  0.72093533043E+03  0.87570325868E+03  0.50400001928E-02 0.  1.
</event>
<event>
 5   0  0.1285769E-03  0.9850821E+03  0.7818609E-02  0.9325059E-01
       -1   -1    0    0    0  501  0.00000000000E+00  0.00000000000E+00  0.58619846773E+03  0.58619846775E+03  0.50400001928E-02 0.  1.
        1   -1    0    0  501    0  0.00000000000E+00  0.00000000000E+00 -0.41384736958E+03  0.41384736961E+03  0.50400001928E-02 0. -1.
    10030    2    1    2    0    0  0.00000000000E+00  0.00000000000E+00  0.17235109815E+03  0.10000458374E+04  0.98508211627E+03 0.  0.
        5    1    3    3  502    0 -0.31870968058E+03  0.22068618540E+03 -0.22224246573E+03  0.44686917157E+03  0.46999998093E+01 0. -1.
       -5    1    3    3    0  502  0.31870968058E+03 -0.22068618540E+03  0.39459356388E+03  0.55317666579E+03  0.46999998093E+01 0.  1.
</event>
<event>
 5   0  0.1293575E-03  0.1000017E+04  0.7818609E-02  0.9308526E-01
       -1   -1    0    0    0  501  0.00000000000E+00  0.00000000000E+00  0.60194931352E+03  0.60194931354E+03  0.50400001928E-02 0. -1.
        1   -1    0    0  501    0  0.00000000000E+00  0.00000000000E+00 -0.41533133402E+03  0.41533133405E+03  0.50400001928E-02 0.  1.
    10030    2    1    2    0    0  0.00000000000E+00  0.00000000000E+00  0.18661797950E+03  0.10172806476E+04  0.10000168227E+04 0.  0.
        4    1    3    3  502    0  0.25669881660E+03 -0.19519074342E+03 -0.29540428505E+03  0.43733169710E+03  0.12699999809E+01 0.  1.
       -4    1    3    3    0  502 -0.25669881660E+03  0.19519074342E+03  0.48202226455E+03  0.57994895049E+03  0.12699999809E+01 0. -1.
</event>
<event>
 5   0  0.2277570E-03  0.1001001E+04  0.7818609E-02  0.9307447E-01
        2   -1    0    0  501    0  0.00000000000E+00  0.00000000000E+00  0.32750744356E+03  0.32750744357E+03  0.25500000920E-02 0.  1.
       -2   -1    0    0    0  501  0.00000000000E+00  0.00000000000E+00 -0.76487069915E+03  0.76487069916E+03  0.25500000920E-02 0. -1.
    10030    2    1    2    0    0  0.00000000000E+00  0.00000000000E+00 -0.43736325559E+03  0.10923781427E+04  0.10010011935E+04 0.  0.
        3    1    3    3  502    0 -0.35387776810E+03  0.32823395842E+03 -0.36318461125E+03  0.60404476512E+03  0.10100000352E+00 0.  1.
       -3    1    3    3    0  502  0.35387776810E+03 -0.32823395842E+03 -0.74178644341E+02  0.48833337762E+03  0.10100000352E+00 0. -1.
</event>
<event>
 5   0  0.1285769E-03  0.9962536E+03  0.7818609E-02  0.9312663E-01
        1   -1    0    0  501    0  0.00000000000E+00  0.00000000000E+00  0.34122964978E+03  0.34122964982E+03  0.50400001928E-02 0. -1.
       -1   -1    0    0    0  501  0.00000000000E+00  0.00000000000E+00 -0.72716517578E+03  0.72716517579E+03  0.50400001928E-02 0.  1.
    10030    2    1    2    0    0  0.00000000000E+00  0.00000000000E+00 -0.38593552599E+03  0.10683948256E+04  0.99625361890E+03 0.  0.
        5    1    3    3  502    0 -0.14926277728E+03 -0.42288652626E+03  0.39515429530E+02  0.45021766951E+03  0.46999998093E+01 0. -1.
       -5    1    3    3    0  502  0.14926277728E+03  0.42288652626E+03 -0.42545095552E+03  0.61817715610E+03  0.46999998093E+01 0.  1.
</event>
<event>
 5   0  0.1293716E-03  0.9989000E+03  0.7818609E-02  0.9309752E-01
        1   -1    0    0  501    0  0.00000000000E+00  0.00000000000E+00  0.12958481223E+04  0.12958481223E+04  0.50400001928E-02 0.  1.
       -1   -1    0    0    0  501  0.00000000000E+00  0.00000000000E+00 -0.19249964227E+03  0.19249964233E+03  0.50400001928E-02 0. -1.
    10030    2    1    2    0    0  0.00000000000E+00  0.00000000000E+00  0.11033484800E+04  0.14883477646E+04  0.99889999505E+03 0.  0.
        3    1    3    3  502    0  0.29451596449E+03  0.52158680326E+01 -0.49297527796E+02  0.29865886069E+03  0.10100000352E+00 0. -1.
       -3    1    3    3    0  502 -0.29451596449E+03 -0.52158680326E+01  0.11526460078E+04  0.11896889039E+04  0.10100000352E+00 0.  1.
</event>
<event>
 5   0  0.1249195E-03  0.1005727E+04  0.7818609E-02  0.9302286E-01
       -1   -1    0    0    0  501  0.00000000000E+00  0.00000000000E+00  0.40530193850E+03  0.40530193853E+03  0.50400001928E-02 0.  1.
        1   -1    0    0  501    0  0.00000000000E+00  0.00000000000E+00 -0.62390952394E+03  0.62390952396E+03  0.50400001928E-02 0. -1.
    10030    2    1    2    0    0  0.00000000000E+00  0.00000000000E+00 -0.21860758545E+03  0.10292114625E+04  0.10057270793E+04 0.  0.
        2    1    3    3  502    0  0.34312241464E+03  0.11766384312E+03  0.24710144085E+03  0.43890419624E+03  0.25500000920E-02 0.  1.
       -2    1    3    3    0  502 -0.34312241464E+03 -0.11766384312E+03 -0.46570902629E+03  0.59030726625E+03  0.25500000920E-02 0. -1.
</event>
<event>
 5   0  0.2284843E-03  0.1001641E+04  0.7818609E-02  0.9306747E-01
        2   -1    0    0  501    0  0.00000000000E+00  0.00000000000E+00  0.63100213493E+03  0.63100213494E+03  0.25500000920E-02 0. -1.
       -2   -1    0    0    0  501  0.00000000000E+00  0.00000000000E+00 -0.39749657537E+03  0.39749657538E+03  0.25500000920E-02 0.  1.
    10030    2    1    2    0    0  0.00000000000E+00  0.00000000000E+00  0.23350555956E+03  0.10284987103E+04  0.10016410289E+04 0.  0.
        2    1    3    3  502    0 -0.25758140902E+03  0.23467873472E+03  0.48611879382E+03  0.59810849560E+03  0.25500000920E-02 0. -1.
       -2    1    3    3    0  502  0.25758140902E+03 -0.23467873472E+03 -0.25261323425E+03  0.43039021472E+03  0.25500000920E-02 0.  1.
</event>
<event>
 5   0  0.1249195E-03  0.1002786E+04  0.7818609E-02  0.9305494E-01
        1   -1    0    0  501    0  0.00000000000E+00  0.00000000000E+00  0.59086589765E+03  0.59086589767E+03  0.50400001928E-02 0. -1.
       -1   -1    0    0    0  501  0.00000000000E+00  0.00000000000E+00 -0.42546885841E+03  0.42546885844E+03  0.50400001928E-02 0.  1.
    10030    2    1    2    0    0  0.00000000000E+00  0.00000000000E+00  0.16539703924E+03  0.10163347561E+04  0.10027861965E+04 0.  0.
        2    1    3    3  502    0  0.44087116771E+03  0.15625860079E+03 -0.10032623655E+03  0.47838215956E+03  0.25500000920E-02 0. -1.
       -2    1    3    3    0  502 -0.44087116771E+03 -0.15625860079E+03  0.26572327579E+03  0.53795259655E+03  0.25500000920E-02 0.  1.
</event>
<event>
 5   0  0.1249195E-03  0.1001683E+04  0.7818609E-02  0.9306701E-01
        1   -1    0    0  501    0  0.00000000000E+00  0.00000000000E+00  0.37479555636E+03  0.37479555639E+03  0.50400001928E-02 0. -1.
       -1   -1    0    0    0  501  0.00000000000E+00  0.00000000000E+00 -0.66927741335E+03  0.66927741337E+03  0.50400001928E-02 0.  1.
    10030    2    1    2    0    0  0.00000000000E+00  0.00000000000E+00 -0.29448185700E+03  0.10440729698E+04  0.10016829848E+04 0.  0.
        2    1    3    3  502    0  0.43444870261E+03  0.20834390477E+03 -0.47466032809E+01  0.48184581362E+03  0.25500000920E-02 0. -1.
       -2    1    3    3    0  502 -0.43444870261E+03 -0.20834390477E+03 -0.28973525371E+03  0.56222715614E+03  0.25500000920E-02 0.  1.
</event>
<event>
 5   0  0.1293716E-03  0.9967341E+03  0.7818609E-02  0.9312134E-01
       -1   -1    0    0    0  501  0.00000000000E+00  0.00000000000E+00  0.19249487443E+03  0.19249487450E+03  0.50400001928E-02 0. -1.
        1   -1    0    0  501    0  0.00000000000E+00  0.00000000000E+00 -0.12902666349E+04  0.12902666349E+04  0.50400001928E-02 0.  1.
    10030    2    1    2    0    0  0.00000000000E+00  0.00000000000E+00 -0.10977717605E+04  0.14827615094E+04  0.99673409478E+03 0.  0.
        3    1    3    3  502    0 -0.35182694140E+03 -0.42861745401E+02 -0.10700846817E+04  0.11272535482E+04  0.10100000352E+00 0.  1.
       -3    1    3    3    0  502  0.35182694140E+03  0.42861745401E+02 -0.27687078805E+02  0.35550796116E+03  0.10100000352E+00 0. -1.
</event>
<event>
 5   0  0.2204862E-03  0.1000461E+04  0.7818609E-02  0.9308039E-01
        2   -1    0    0  501    0  0.00000000000E+00  0.00000000000E+00  0.14530502103E+04  0.14530502103E+04  0.25500000920E-02 0. -1.
       -2   -1    0    0    0  501  0.00000000000E+00  0.00000000000E+00 -0.17221066055E+03  0.17221066057E+03  0.25500000920E-02 0.  1.
    10030    2    1    2    0    0  0.00000000000E+00  0.00000000000E+00  0.12808395498E+04  0.16252608709E+04  0.10004613667E+04 0.  0.
        1    1    3    3  502    0 -0.54303257703E+02 -0.39824627471E+03  0.15664858607E+03  0.43137885746E+03  0.50400001928E-02 0.  1.
       -1    1    3    3    0  502  0.54303257703E+02  0.39824627471E+03  0.11241909637E+04  0.11938820134E+04  0.50400001928E-02 0. -1.
</event>
<event>
 5   0  0.8680125E-04  0.9979800E+03  0.7818609E-02  0.9310763E-01
        3   -1    0    0  501    0  0.00000000000E+00  0.00000000000E+00  0.60961967922E+03  0.60961968759E+03  0.10100000352E+00 0.  1.
       -3   -1    0    0    0  501  0.00000000000E+00  0.00000000000E+00 -0.40843664379E+03  0.40843665628E+03  0.10100000352E+00 0. -1.
    10030    2    1    2    0    0  0.00000000000E+00  0.00000000000E+00  0.20118303543E+03  0.10180563439E+04  0.99798001260E+03 0.  0.
        5    1    3    3  502    0  0.94361282530E+02 -0.45339027464E+03 -0.88892685719E+02  0.47158328252E+03  0.46999998093E+01 0. -1.
       -5    1    3    3    0  502 -0.94361282530E+02  0.45339027464E+03  0.29007572115E+03  0.54647306135E+03  0.46999998093E+01 0.  1.
</event>
<event>
 5   0  0.2255142E-03  0.9975441E+03  0.7818609E-02  0.9311243E-01
       -2   -1    0    0    0  501  0.00000000000E+00  0.00000000000E+00  0.34032630935E+03  0.34032630936E+03  0.25500000920E-02 0.  1.
        2   -1    0    0  501    0  0.00000000000E+00  0.00000000000E+00 -0.73098531801E+03  0.73098531802E+03  0.25500000920E-02 0. -1.
    10030    2    1    2    0    0  0.00000000000E+00  0.00000000000E+00 -0.39065900866E+03  0.10713116274E+04  0.99754405512E+03 0.  0.
        4    1    3    3  502    0  0.20927714861E+03 -0.40832045332E+03  0.14707625906E+02  0.45906475000E+03  0.12699999809E+01 0.  1.
       -4    1    3    3    0  502 -0.20927714861E+03  0.40832045332E+03 -0.40536663457E+03  0.61224687737E+03  0.12699999809E+01 0. -1.
</event>
<event>
 5   0  0.1353789E-03  0.1000230E+04  0.7818609E-02  0.9308292E-01
       -1   -1    0    0    0  501  0.00000000000E+00  0.00000000000E+00  0.26810328477E+03  0.26810328482E+03  0.50400001928E-02 0. -1.
        1   -1    0    0  501    0  0.00000000000E+00  0.00000000000E+00 -0.93290605462E+03  0.93290605463E+03  0.50400001928E-02 0.  1.
    10030    2    1    2    0    0  0.00000000000E+00  0.00000000000E+00 -0.66480276985E+03  0.12010093394E+04  0.10002303288E+04 0.  0.
        1    1    3    3  502    0  0.48308335732E+03  0.36380815839E+02 -0.18328756556E+03  0.51796469532E+03  0.50400001928E-02 0.  1.
       -1    1    3    3    0  502 -0.48308335732E+03 -0.36380815839E+02 -0.48151520429E+03  0.68304464413E+03  0.50400001928E-02 0. -1.
</event>
<event>
 5   0  0.2204862E-03  0.9884009E+03  0.7818609E-02  0.9321359E-01
       -2   -1    0    0    0  501  0.00000000000E+00  0.00000000000E+00  0.18676050249E+03  0.18676050251E+03  0.25500000920E-02 0.  1.
        2   -1    0    0  501    0  0.00000000000E+00  0.00000000000E+00 -0.13077396131E+04  0.13077396131E+04  0.25500000920E-02 0. -1.
    10030    2    1    2    0    0  0.00000000000E+00  0.00000000000E+00 -0.11209791106E+04  0.14945001156E+04  0.98840094553E+03 0.  0.
        1    1    3    3  502    0 -0.30497118322E+03  0.96720643054E+02 -0.11300119986E+04  0.11744315316E+04  0.50400001928E-02 0. -1.
       -1    1    3    3    0  502  0.30497118322E+03 -0.96720643054E+02  0.90328879879E+01  0.32006858403E+03  0.50400001928E-02 0.  1.
</event>
<event>
 5   0  0.2255142E-03  0.9947108E+03  0.7818609E-02  0.9314365E-01
       -2   -1    0    0    0  501  0.00000000000E+00  0.00000000000E+00  0.18912931465E+03  0.18912931467E+03  0.25500000920E-02 0.  1.
        2   -1    0    0  501    0  0.00000000000E+00  0.00000000000E+00 -0.13079009033E+04  0.13079009033E+04  0.25500000920E-02 0. -1.
    10030    2    1    2    0    0  0.00000000000E+00  0.00000000000E+00 -0.11187715887E+04  0.14970302180E+04  0.99471081525E+03 0.  0.
        4    1    3    3  502    0 -0.35651352503E+03 -0.29660842544E+03 -0.82979172370E+03  0.95059684893E+03  0.12699999809E+01 0. -1.
       -4    1    3    3    0  502  0.35651352503E+03  0.29660842544E+03 -0.28897986496E+03  0.54643336906E+03  0.12699999809E+01 0.  1.
</event>
<event>
 5   0  0.2264577E-03  0.1000145E+04  0.7818609E-02  0.9308386E-01
        2   -1    0    0  501    0  0.00000000000E+00  0.00000000000E+00  0.51301532750E+03  0.51301532750E+03  0.25500000920E-02 0.  1.
       -2   -1    0    0    0  501  0.00000000000E+00  0.00000000000E+00 -0.48745633229E+03  0.48745633230E+03  0.25500000920E-02 0. -1.
    10030    2    1    2    0    0  0.00000000000E+00  0.00000000000E+00  0.25558995205E+02  0.10004716598E+04  0.10001451294E+04 0.  0.
        5    1    3    3  502    0 -0.20311033497E+03  0.44343405984E+03  0.12310107132E+03  0.50305420916E+03  0.46999998093E+01 0.  1.
       -5    1    3    3    0  502  0.20311033497E+03 -0.44343405984E+03 -0.97542076111E+02  0.49741745064E+03  0.46999998093E+01 0. -1.
</event>
<event>
 5   0  0.2204862E-03  0.9988199E+03  0.7818609E-02  0.9309840E-01
       -2   -1    0    0    0  501  0.00000000000E+00  0.00000000000E+00  0.26232458471E+03  0.26232458472E+03  0.25500000920E-02 0. -1.
        2   -1    0    0  501    0  0.00000000000E+00  0.00000000000E+00 -0.95076988276E+03  0.95076988276E+03  0.25500000920E-02 0.  1.
    10030    2    1    2    0    0  0.00000000000E+00  0.00000000000E+00 -0.68844529805E+03  0.12130944675E+04  0.99881993304E+03 0.  0.
        1    1    3    3  502    0 -0.46241174770E+02 -0.47351492528E+03 -0.52863772681E+03  0.71120494721E+03  0.50400001928E-02 0. -1.
       -1    1    3    3    0  502  0.46241174770E+02  0.47351492528E+03 -0.15980757123E+03  0.50188952027E+03  0.50400001928E-02 0.  1.
</event>
<event>
 5   0  0.2264577E-03  0.9984769E+03  0.7818609E-02  0.9310217E-01
       -2   -1    0    0    0  501  0.00000000000E+00  0.00000000000E+00  0.33551263866E+03  0.33551263867E+03  0.25500000920E-02 0. -1.
        2   -1    0    0  501    0  0.00000000000E+00  0.00000000000E+00 -0.74286035497E+03  0.74286035498E+03  0.25500000920E-02 0.  1.
    10030    2    1    2    0    0  0.00000000000E+00  0.00000000000E+00 -0.40734771631E+03  0.10783729936E+04  0.99847691583E+03 0.  0.
        5    1    3    3  502    0 -0.10795330493E+03 -0.16599465673E+03 -0.69861063636E+03  0.72614533899E+03  0.46999998093E+01 0.  1.
       -5    1    3    3    0  502  0.10795330493E+03  0.16599465673E+03  0.29126292005E+03  0.35222765465E+03  0.46999998093E+01 0. -1.
</event>
<event>
 5   0  0.2204862E-03  0.9989305E+03  0.7818609E-02  0.9309719E-01
        2   -1    0    0  501    0  0.00000000000E+00  0.00000000000E+00  0.71533639167E+03  0.71533639168E+03  0.25500000920E-02 0.  1.
       -2   -1    0    0    0  501  0.00000000000E+00  0.00000000000E+00 -0.34873873959E+03  0.34873873959E+03  0.25500000920E-02 0. -1.
    10030    2    1    2    0    0  0.00000000000E+00  0.00000000000E+00  0.36659765209E+03  0.10640751313E+04  0.99893045127E+03 0.  0.
        1    1    3    3  502    0  0.22451999048E+03 -0.42692239617E+03  0.45257749636E+02  0.48447933124E+03  0.50400001928E-02 0.  1.
       -1    1    3    3    0  502 -0.22451999048E+03  0.42692239617E+03  0.32133990245E+03  0.57959580003E+03  0.50400001928E-02 0. -1.
</event>
<event>
 5   0  0.1293575E-03  0.9956951E+03  0.7818609E-02  0.9313279E-01
        1   -1    0    0  501    0  0.00000000000E+00  0.00000000000E+00  0.35405937382E+03  0.35405937386E+03  0.50400001928E-02 0. -1.
       -1   -1    0    0    0  501  0.00000000000E+00  0.00000000000E+00 -0.70002999867E+03  0.70002999869E+03  0.50400001928E-02 0.  1.
    10030    2    1    2    0    0  0.00000000000E+00  0.00000000000E+00 -0.34597062485E+03  0.10540893725E+04  0.99569509995E+03 0.  0.
        4    1    3    3  502    0  0.43953871518E+03  0.51743074764E+02  0.68374402037E+02  0.44782619361E+03  0.12699999809E+01 0. -1.
       -4    1    3    3    0  502 -0.43953871518E+03 -0.51743074764E+02 -0.41434502689E+03  0.60626317894E+03  0.12699999809E+01 0.  1.
</event>
<event>
 5   0  0.1293716E-03  0.9923339E+03  0.7818609E-02  0.9316993E-01
       -1   -1    0    0    0  501  0.00000000000E+00  0.00000000000E+00  0.17048903974E+03  0.17048903981E+03  0.50400001928E-02 0.  1.
        1   -1    0    0  501    0  0.00000000000E+00  0.00000000000E+00 -0.14439733610E+04  0.14439733610E+04  0.50400001928E-02 0. -1.
    10030    2    1    2    0    0  0.00000000000E+00  0.00000000000E+00 -0.12734843213E+04  0.16144624009E+04  0.99233387889E+03 0.  0.
        3    1    3    3  502    0  0.10703159328E+03  0.45247161010E+03 -0.35497087488E+03  0.58497064210E+03  0.10100000352E+00 0. -1.
       -3    1    3    3    0  502 -0.10703159328E+03 -0.45247161010E+03 -0.91851344642E+03  0.10294917588E+04  0.10100000352E+00 0.  1.
</event>
<event>
 5   0  0.2204862E-03  0.9990470E+03  0.7818609E-02  0.9309591E-01
        2   -1    0    0  501    0  0.00000000000E+00  0.00000000000E+00  0.99293585079E+03  0.99293585080E+03  0.25500000920E-02 0.  1.
       -2   -1    0    0    0  501  0.00000000000E+00  0.00000000000E+00 -0.25129891997E+03  0.25129891998E+03  0.25500000920E-02 0. -1.
    10030    2    1    2    0    0  0.00000000000E+00  0.00000000000E+00  0.74163693082E+03  0.12442347708E+04  0.99904695968E+03 0.  0.
        1    1    3    3  502    0  0.24177394160E+03  0.31646855869E+03  0.74634299392E+03  0.84595203888E+03  0.50400001928E-02 0. -1.
       -1    1    3    3    0  502 -0.24177394160E+03 -0.31646855869E+03 -0.47060631006E+01  0.39828273190E+03  0.50400001928E-02 0.  1.
</event>
<event>
 5   0  0.1249195E-03  0.1000276E+04  0.7818609E-02  0.9308242E-01
       -1   -1    0    0    0  501  0.00000000000E+00  0.00000000000E+00  0.25612281461E+03  0.25612281466E+03  0.50400001928E-02 0. -1.
        1   -1    0    0  501    0  0.00000000000E+00  0.00000000000E+00 -0.97663283987E+03  0.97663283988E+03  0.50400001928E-02 0.  1.
    10030    2    1    2    0    0  0.00000000000E+00  0.00000000000E+00 -0.72051002526E+03  0.12327556545E+04  0.10002758656E+04 0.  0.
        2    1    3    3  502    0 -0.18089034373E+02  0.48629386326E+03 -0.50253908185E+03  0.69953875047E+03  0.25500000920E-02 0.  1.
       -2    1    3    3    0  502  0.18089034373E+02 -0.48629386326E+03 -0.21797094341E+03  0.53321690407E+03  0.25500000920E-02 0. -1.
</event>
<event>
 5   0  0.2284843E-03  0.1000114E+04  0.7818609E-02  0.9308420E-01
       -2   -1    0    0    0  501  0.00000000000E+00  0.00000000000E+00  0.59831045112E+03  0.59831045113E+03  0.25500000920E-02 0. -1.
        2   -1    0    0  501    0  0.00000000000E+00  0.00000000000E+00 -0.41793846408E+03  0.41793846409E+03  0.25500000920E-02 0.  1.
    10030    2    1    2    0    0  0.00000000000E+00  0.00000000000E+00  0.18037198704E+03  0.10162489152E+04  0.10001138955E+04 0.  0.
        2    1    3    3  502    0  0.36394291308E+03 -0.24473784552E+03 -0.15391003891E+03  0.46480034111E+03  0.25500000920E-02 0.  1.
       -2    1    3    3    0  502 -0.36394291308E+03  0.24473784552E+03  0.33428202595E+03  0.55144857411E+03  0.25500000920E-02 0. -1.
</event>
<event>
 5   0  0.1293575E-03  0.9968167E+03  0.7818609E-02  0.9312043E-01
        1   -1    0    0  501    0  0.00000000000E+00  0.00000000000E+00  0.11766777660E+04  0.11766777660E+04  0.50400001928E-02 0.  1.
       -1   -1    0    0    0  501  0.00000000000E+00  0.00000000000E+00 -0.21111208660E+03  0.21111208666E+03  0.50400001928E-02 0. -1.
    10030    2    1    2    0    0  0.00000000000E+00  0.00000000000E+00  0.96556567939E+03  0.13877898527E+04  0.99681673036E+03 0.  0.
        4    1    3    3  502    0  0.23459593974E+03 -0.43266587943E+03  0.37338692427E+03  0.61778185979E+03  0.12699999809E+01 0. -1.
       -4    1    3    3    0  502 -0.23459593974E+03  0.43266587943E+03  0.59217875513E+03  0.77000799287E+03  0.12699999809E+01 0.  1.
</event>
<event>
 5   0  0.2264577E-03  0.9958782E+03  0.7818609E-02  0.9313077E-01
        2   -1    0    0  501    0  0.00000000000E+00  0.00000000000E+00  0.82011735408E+03  0.82011735408E+03  0.25500000920E-02 0.  1.
       -2   -1    0    0    0  501  0.00000000000E+00  0.00000000000E+00 -0.30232669594E+03  0.30232669595E+03  0.25500000920E-02 0. -1.
    10030    2    1    2    0    0  0.00000000000E+00  0.00000000000E+00  0.51779065813E+03  0.11224440500E+04  0.99587824547E+03 0.  0.
        5    1    3    3  502    0 -0.34179016298E+03  0.76792867811E+02 -0.13991546048E+03  0.37724804325E+03  0.46999998093E+01 0. -1.
       -5    1    3    3    0  502  0.34179016298E+03 -0.76792867811E+02  0.65770611862E+03  0.74519600678E+03  0.46999998093E+01 0.  1.
</event>
<event>
 5   0  0.1293575E-03  0.9973610E+03  0.7818609E-02  0.9311444E-01
       -1   -1    0    0    0  501  0.00000000000E+00  0.00000000000E+00  0.44018388007E+03  0.44018388010E+03  0.50400001928E-02 0. -1.
        1   -1    0    0  501    0  0.00000000000E+00  0.00000000000E+00 -0.56495082596E+03  0.56495082598E+03  0.50400001928E-02 0.  1.
    10030    2    1    2    0    0  0.00000000000E+00  0.00000000000E+00 -0.12476694589E+03  0.10051347061E+04  0.99736101116E+03 0.  0.
        4    1    3    3  502    0 -0.60837099301E+02 -0.21442066391E+03  0.38719134551E+03  0.44676182100E+03  0.12699999809E+01 0. -1.
       -4    1    3    3    0  502  0.60837099301E+02  0.21442066391E+03 -0.51195829140E+03  0.55837288508E+03  0.12699999809E+01 0.  1.
</event>
<event>
 5   0  0.2204862E-03  0.1033763E+04  0.7818609E-02  0.9272270E-01
       -2   -1    0    0    0  501  0.00000000000E+00  0.00000000000E+00  0.86766288431E+03  0.86766288431E+03  0.25500000920E-02 0.  1.
        2   -1    0    0  501    0  0.00000000000E+00  0.00000000000E+00 -0.30791501274E+03  0.30791501275E+03  0.25500000920E-02 0. -1.
    10030    2    1    2    0    0  0.00000000000E+00  0.00000000000E+00  0.55974787157E+03  0.11755778971E+04  0.10337628898E+04 0.  0.
        1    1    3    3  502    0  0.12520421362E+03  0.25451679274E+03  0.77125232139E+03  0.82175728544E+03  0.50400001928E-02 0.  1.
       -1    1    3    3    0  502 -0.12520421362E+03 -0.25451679274E+03 -0.21150444982E+03  0.35382061163E+03  0.50400001928E-02 0. -1.
</event>
<event>
 5   0  0.1249195E-03  0.1001104E+04  0.7818609E-02  0.9307335E-01
       -1   -1    0    0    0  501  0.00000000000E+00  0.00000000000E+00  0.21831482111E+03  0.21831482116E+03  0.50400001928E-02 0.  1.
        1   -1    0    0  501    0  0.00000000000E+00  0.00000000000E+00 -0.11476645273E+04  0.11476645273E+04  0.50400001928E-02 0. -1.
    10030    2    1    2    0    0  0.00000000000E+00  0.00000000000E+00 -0.92934970617E+03  0.13659793484E+04  0.10011037429E+04 0.  0.
        2    1    3    3  502    0  0.42524175622E+03  0.24806473060E+03 -0.58812398250E+03  0.76697880062E+03  0.25500000920E-02 0.  1.
       -2    1    3    3    0  502 -0.42524175622E+03 -0.24806473060E+03 -0.34122572367E+03  0.59900054783E+03  0.25500000920E-02 0. -1.
</event>
<event>
 5   0  0.1249195E-03  0.1000246E+04  0.7818609E-02  0.9308275E-01
       -1   -1    0    0    0  501  0.00000000000E+00  0.00000000000E+00  0.29073474452E+03  0.29073474457E+03  0.50400001928E-02 0. -1.
        1   -1    0    0  501    0  0.00000000000E+00  0.00000000000E+00 -0.86031374334E+03  0.86031374336E+03  0.50400001928E-02 0.  1.
    10030    2    1    2    0    0  0.00000000000E+00  0.00000000000E+00 -0.56957899882E+03  0.11510484879E+04  0.10002461625E+04 0.  0.
        2    1    3    3  502    0 -0.46059758172E+03  0.12540941779E+03 -0.11315394985E+03  0.49059297868E+03  0.25500000920E-02 0. -1.
       -2    1    3    3    0  502  0.46059758172E+03 -0.12540941779E+03 -0.45642504897E+03  0.66045550925E+03  0.25500000920E-02 0.  1.
</event>
<event>
 5   0  0.1293716E-03  0.9872026E+03  0.7818609E-02  0.9322693E-01
        1   -1    0    0  501    0  0.00000000000E+00  0.00000000000E+00  0.28888538531E+03  0.28888538535E+03  0.50400001928E-02 0.  1.
       -1   -1    0    0    0  501  0.00000000000E+00  0.00000000000E+00 -0.84338722993E+03  0.84338722994E+03  0.50400001928E-02 0. -1.
    10030    2    1    2    0    0  0.00000000000E+00  0.00000000000E+00 -0.55450184462E+03  0.11322726153E+04  0.98720260315E+03 0.  0.
        3    1    3    3  502    0 -0.23586246772E+03  0.41915740023E+03 -0.14995384776E+03  0.50379578850E+03  0.10100000352E+00 0. -1.
       -3    1    3    3    0  502  0.23586246772E+03 -0.41915740023E+03 -0.40454799686E+03  0.62847682679E+03  0.10100000352E+00 0.  1.
</event>
<event>
 5   0  0.1285769E-03  0.1008660E+04  0.7818609E-02  0.9299097E-01
       -1   -1    0    0    0  501  0.00000000000E+00  0.00000000000E+00  0.31995460286E+03  0.31995460290E+03  0.50400001928E-02 0.  1.
        1   -1    0    0  501    0  0.00000000000E+00  0.00000000000E+00 -0.79495336418E+03  0.79495336420E+03  0.50400001928E-02 0. -1.
    10030    2    1    2    0    0  0.00000000000E+00  0.00000000000E+00 -0.47499876132E+03  0.11149079671E+04  0.10086604740E+04 0.  0.
        5    1    3    3  502    0  0.38422535198E+03 -0.31523262034E+03 -0.33210840627E+03  0.59776149888E+03  0.46999998093E+01 0. -1.
       -5    1    3    3    0  502 -0.38422535198E+03  0.31523262034E+03 -0.14289035506E+03  0.51714646822E+03  0.46999998093E+01 0.  1.
</event>
<event>
 5   0  0.1293575E-03  0.9819254E+03  0.7818609E-02  0.9328594E-01
        1   -1    0    0  501    0  0.00000000000E+00  0.00000000000E+00  0.25233678396E+03  0.25233678401E+03  0.50400001928E-02 0.  1.
       -1   -1    0    0    0  501  0.00000000000E+00  0.00000000000E+00 -0.95524873620E+03  0.95524873621E+03  0.50400001928E-02 0. -1.
    10030    2    1    2    0    0  0.00000000000E+00  0.00000000000E+00 -0.70291195224E+03  0.12075855202E+04  0.98192544322E+03 0.  0.
        4    1    3    3  502    0 -0.10588749377E+03  0.36929186551E+03  0.24501435656E+02  0.38495529159E+03  0.12699999809E+01 0.  1.
       -4    1    3    3    0  502  0.10588749377E+03 -0.36929186551E+03 -0.72741338790E+03  0.82263022863E+03  0.12699999809E+01 0. -1.
</event>
<event>
 5   0  0.2255142E-03  0.9991276E+03  0.7818609E-02  0.9309502E-01
        2   -1    0    0  501    0  0.00000000000E+00  0.00000000000E+00  0.14672682835E+04  0.14672682835E+04  0.25500000920E-02 0. -1.
       -2   -1    0    0    0  501  0.00000000000E+00  0.00000000000E+00 -0.17008748643E+03  0.17008748645E+03  0.25500000920E-02 0.  1.
    10030    2    1    2    0    0  0.00000000000E+00  0.00000000000E+00  0.12971807971E+04  0.16373557700E+04  0.99912756799E+03 0.  0.
        4    1    3    3  502    0  0.35013717452E+03 -0.31274620732E+03  0.36876505031E+03  0.59698869872E+03  0.12699999809E+01 0.  1.
       -4    1    3    3    0  502 -0.35013717452E+03  0.31274620732E+03  0.92841574679E+03  0.10403670713E+04  0.12699999809E+01 0. -1.
</event>
<event>
 5   0  0.2204862E-03  0.9991276E+03  0.7818609E-02  0.9309502E-01
       -2   -1    0    0    0  501  0.00000000000E+00  0.00000000000E+00  0.30897444464E+03  0.30897444465E+03  0.25500000920E-02 0.  1.
        2   -1    0    0  501    0  0.00000000000E+00  0.00000000000E+00 -0.80771726673E+03  0.80771726673E+03  0.25500000920E-02 0. -1.
    10030    2    1    2    0    0  0.00000000000E+00  0.00000000000E+00 -0.49874282209E+03  0.11166917114E+04  0.99912760731E+03 0.  0.
        1    1    3    3  502    0  0.17540086718E+03 -0.14096440854E+02  0.27318987677E+03  0.32495673966E+03  0.50400001928E-02 0.  1.
       -1    1    3    3    0  502 -0.17540086718E+03  0.14096440854E+02 -0.77193269886E+03  0.79173497172E+03  0.50400001928E-02 0. -1.
</event>
<event>
 5   0  0.2264577E-03  0.1000977E+04  0.7818609E-02  0.9307474E-01
       -2   -1    0    0    0  501  0.00000000000E+00  0.00000000000E+00  0.11981755344E+03  0.11981755347E+03  0.25500000920E-02 0.  1.
        2   -1    0    0  501    0  0.00000000000E+00  0.00000000000E+00 -0.20905846428E+04  0.20905846428E+04  0.25500000920E-02 0. -1.
    10030    2    1    2    0    0  0.00000000000E+00  0.00000000000E+00 -0.19707670893E+04  0.22104021962E+04  0.10009769971E+04 0.  0.
        5    1    3    3  502    0  0.44633408861E+02  0.45409644149E+03 -0.14393963439E+04  0.15099932596E+04  0.46999998093E+01 0. -1.
       -5    1    3    3    0  502 -0.44633408861E+02 -0.45409644149E+03 -0.53137074544E+03  0.70040893659E+03  0.46999998093E+01 0.  1.
</event>
<event>
 5   0  0.2284843E-03  0.9993750E+03  0.7818609E-02  0.9309231E-01
       -2   -1    0    0    0  501  0.00000000000E+00  0.00000000000E+00  0.83752835951E+03  0.83752835952E+03  0.25500000920E-02 0.  1.
        2   -1    0    0  501    0  0.00000000000E+00  0.00000000000E+00 -0.29812434754E+03  0.29812434755E+03  0.25500000920E-02 0. -1.
    10030    2    1    2    0    0  0.00000000000E+00  0.00000000000E+00  0.53940401197E+03  0.11356527071E+04  0.99937499615E+03 0.  0.
        2    1    3    3  502    0  0.15626378816E+03  0.18816605682E+03 -0.22544818987E+03  0.33264353707E+03  0.25500000920E-02 0. -1.
       -2    1    3    3    0  502 -0.15626378816E+03 -0.18816605682E+03  0.76485220184E+03  0.80300917000E+03  0.25500000920E-02 0.  1.
</event>
<event>
 5   0  0.1249195E-03  0.9827506E+03  0.7818609E-02  0.9327669E-01
       -1   -1    0    0    0  501  0.00000000000E+00  0.00000000000E+00  0.11253664068E+04  0.11253664068E+04  0.50400001928E-02 0.  1.
        1   -1    0    0  501    0  0.00000000000E+00  0.00000000000E+00 -0.21455207141E+03  0.21455207146E+03  0.50400001928E-02 0. -1.
    10030    2    1    2    0    0  0.00000000000E+00  0.00000000000E+00  0.91081433539E+03  0.13399184783E+04  0.98275061682E+03 0.  0.
        2    1    3    3  502    0  0.42786143316E+02 -0.46094668199E+03  0.68005257312E+03  0.82266274980E+03  0.25500000920E-02 0.  1.
       -2    1    3    3    0  502 -0.42786143316E+02  0.46094668199E+03  0.23076176227E+03  0.51725572847E+03  0.25500000920E-02 0. -1.
</event>
<event>
 5   0  0.1353789E-03  0.1000576E+04  0.7818609E-02  0.9307914E-01
        1   -1    0    0  501    0  0.00000000000E+00  0.00000000000E+00  0.41785899101E+03  0.41785899104E+03  0.50400001928E-02 0. -1.
       -1   -1    0    0    0  501  0.00000000000E+00  0.00000000000E+00 -0.59897706545E+03  0.59897706547E+03  0.50400001928E-02 0.  1.
    10030    2    1    2    0    0  0.00000000000E+00  0.00000000000E+00 -0.18111807443E+03  0.10168360565E+04  0.10005757387E+04 0.  0.
        1    1    3    3  502    0 -0.14315358911E+03  0.39624364670E+02 -0.57605150176E+03  0.59489358129E+03  0.50400001928E-02 0.  1.
       -1    1    3    3    0  502  0.14315358911E+03 -0.39624364670E+02  0.39493342733E+03  0.42194247522E+03  0.50400001928E-02 0. -1.
</event>
<event>
 5   0  0.2264577E-03  0.9940766E+03  0.7818609E-02  0.9315065E-01
        2   -1    0    0  501    0  0.00000000000E+00  0.00000000000E+00  0.15995955817E+04  0.15995955817E+04  0.25500000920E-02 0.  1.
       -2   -1    0    0    0  501  0.00000000000E+00  0.00000000000E+00 -0.15444345337E+03  0.15444345339E+03  0.25500000920E-02 0. -1.
    10030    2    1    2    0    0  0.00000000000E+00  0.00000000000E+00  0.14451521284E+04  0.17540390351E+04  0.99407658791E+03 0.  0.
        5    1    3    3  502    0  0.25562250926E+02  0.27743355286E+03  0.14488139382E+04  0.14753666401E+04  0.46999998093E+01 0.  1.
       -5    1    3    3    0  502 -0.25562250926E+02 -0.27743355286E+03 -0.36618098866E+01  0.27867239507E+03  0.46999998093E+01 0. -1.
</event>
<event>
 5   0  0.2204862E-03  0.9993289E+03  0.7818609E-02  0.9309281E-01
        2   -1    0    0  501    0  0.00000000000E+00  0.00000000000E+00  0.80440046144E+03  0.80440046144E+03  0.25500000920E-02 0. -1.
       -2   -1    0    0    0  501  0.00000000000E+00  0.00000000000E+00 -0.31037345426E+03  0.31037345427E+03  0.25500000920E-02 0.  1.
    10030    2    1    2    0    0  0.00000000000E+00  0.00000000000E+00  0.49402700717E+03  0.11147739157E+04  0.99932887447E+03 0.  0.
        1    1    3    3  502    0  0.63610807741E+01  0.26818711485E+03 -0.22322889097E+03  0.34899273590E+03  0.50400001928E-02 0.  1.
       -1    1    3    3    0  502 -0.63610807741E+01 -0.26818711485E+03  0.71725589815E+03  0.76578117982E+03  0.50400001928E-02 0. -1.
</event>
<event>
 5   0  0.1285769E-03  0.1002331E+04  0.7818609E-02  0.9305992E-01
       -1   -1    0    0    0  501  0.00000000000E+00  0.00000000000E+00  0.18956417364E+03  0.18956417371E+03  0.50400001928E-02 0.  1.
        1   -1    0    0  501    0  0.00000000000E+00  0.00000000000E+00 -0.13249694953E+04  0.13249694953E+04  0.50400001928E-02 0. -1.
    10030    2    1    2    0    0  0.00000000000E+00  0.00000000000E+00 -0.11354053216E+04  0.15145336690E+04  0.10023307788E+04 0.  0.
        5    1    3    3  502    0 -0.27264118888E+03 -0.32865387002E+03 -0.96403180007E+03  0.10543841737E+04  0.46999998093E+01 0.  1.
       -5    1    3    3    0  502  0.27264118888E+03  0.32865387002E+03 -0.17137352157E+03  0.46014949533E+03  0.46999998093E+01 0. -1.
</event>
<event>
 5   0  0.1293716E-03  0.9767392E+03  0.7818609E-02  0.9334431E-01
       -1   -1    0    0    0  501  0.00000000000E+00  0.00000000000E+00  0.23656211288E+03  0.23656211293E+03  0.50400001928E-02 0. -1.
        1   -1    0    0  501    0  0.00000000000E+00  0.00000000000E+00 -0.10082124912E+04  0.10082124912E+04  0.50400001928E-02 0.  1.
    10030    2    1    2    0    0  0.00000000000E+00  0.00000000000E+00 -0.77165037833E+03  0.12447746042E+04  0.97673922249E+03 0.  0.
        3    1    3    3  502    0  0.31381256303E+03 -0.37018720986E+03 -0.31616248194E+03  0.57920257272E+03  0.10100000352E+00 0. -1.
       -3    1    3    3    0  502 -0.31381256303E+03  0.37018720986E+03 -0.45548789640E+03  0.66557203143E+03  0.10100000352E+00 0.  1.
</event>
<event>
 5   0  0.2264577E-03  0.9948955E+03  0.7818609E-02  0.9314161E-01
       -2   -1    0    0    0  501  0.00000000000E+00  0.00000000000E+00  0.28825726632E+03  0.28825726633E+03  0.25500000920E-02 0. -1.
        2   -1    0    0  501    0  0.00000000000E+00  0.00000000000E+00 -0.85844938541E+03  0.85844938541E+03  0.25500000920E-02 0.  1.
    10030    2    1    2    0    0  0.00000000000E+00  0.00000000000E+00 -0.57019211909E+03  0.11467066517E+04  0.99489551837E+03 0.  0.
        5    1    3    3  502    0  0.20687740630E+03  0.26353843229E+03 -0.70886912872E+03  0.78407161547E+03  0.46999998093E+01 0.  1.
       -5    1    3    3    0  502 -0.20687740630E+03 -0.26353843229E+03  0.13867700963E+03  0.36263503627E+03  0.46999998093E+01 0. -1.
</event>
<event>
 5   0  0.1293716E-03  0.9995387E+03  0.7818609E-02  0.9309051E-01
        1   -1    0    0  501    0  0.00000000000E+00  0.00000000000E+00  0.45731509338E+03  0.45731509341E+03  0.50400001928E-02 0.  1.
       -1   -1    0    0    0  501  0.00000000000E+00  0.00000000000E+00 -0.54616481472E+03  0.54616481475E+03  0.50400001928E-02 0. -1.
    10030    2    1    2    0    0  0.00000000000E+00  0.00000000000E+00 -0.88849721345E+02  0.10034799082E+04  0.99953872015E+03 0.  0.
        3    1    3    3  502    0 -0.48558760065E+03 -0.95849384715E+02  0.25035957335E+02  0.49558978179E+03  0.10100000352E+00 0.  1.
       -3    1    3    3    0  502  0.48558760065E+03  0.95849384715E+02 -0.11388567868E+03  0.50789012637E+03  0.10100000352E+00 0. -1.
</event>
<event>
 5   0  0.2264577E-03  0.9952121E+03  0.7818609E-02  0.9313812E-01
        2   -1    0    0  501    0  0.00000000000E+00  0.00000000000E+00  0.63181795919E+03  0.63181795919E+03  0.25500000920E-02 0. -1.
       -2   -1    0    0    0  501  0.00000000000E+00  0.00000000000E+00 -0.39190364939E+03  0.39190364940E+03  0.25500000920E-02 0.  1.
    10030    2    1    2    0    0  0.00000000000E+00  0.00000000000E+00  0.23991430980E+03  0.10237216086E+04  0.99521206577E+03 0.  0.
        5    1    3    3  502    0  0.46646847956E+03 -0.14797244878E+03  0.27373317586E+02  0.49016331619E+03  0.46999998093E+01 0.  1.
       -5    1    3    3    0  502 -0.46646847956E+03  0.14797244878E+03  0.21254099221E+03  0.53355829240E+03  0.46999998093E+01 0. -1.
</event>
<event>
 5   0  0.1249195E-03  0.9953375E+03  0.7818609E-02  0.9313673E-01
        1   -1    0    0  501    0  0.00000000000E+00  0.00000000000E+00  0.49771733635E+03  0.49771733638E+03  0.50400001928E-02 0.  1.
       -1   -1    0    0    0  501  0.00000000000E+00  0.00000000000E+00 -0.49762013938E+03  0.49762013941E+03  0.50400001928E-02 0. -1.
    10030    2    1    2    0    0  0.00000000000E+00  0.00000000000E+00  0.97196971631E-01  0.99533747579E+03  0.99533747104E+03 0.  0.
        2    1    3    3  502    0 -0.11791078043E+03  0.32412123178E+03 -0.35872242390E+03  0.49763370309E+03  0.25500000920E-02 0. -1.
       -2    1    3    3    0  502  0.11791078043E+03 -0.32412123178E+03  0.35881962087E+03  0.49770377270E+03  0.25500000920E-02 0.  1.
</event>
<event>
 5   0  0.2204862E-03  0.1001597E+04  0.7818609E-02  0.9306795E-01
        2   -1    0    0  501    0  0.00000000000E+00  0.00000000000E+00  0.17234969925E+04  0.17234969925E+04  0.25500000920E-02 0.  1.
       -2   -1    0    0    0  501  0.00000000000E+00  0.00000000000E+00 -0.14551754725E+03  0.14551754727E+03  0.25500000920E-02 0. -1.
    10030    2    1    2    0    0  0.00000000000E+00  0.00000000000E+00  0.15779794453E+04  0.18690145398E+04  0.10015968352E+04 0.  0.
        1    1    3    3  502    0 -0.31098337046E+03 -0.12613335932E+02  0.15211065457E+04  0.15526219361E+04  0.50400001928E-02 0.  1.
       -1    1    3    3    0  502  0.31098337046E+03  0.12613335932E+02  0.56872899540E+02  0.31639260369E+03  0.50400001928E-02 0. -1.
</event>
<event>
 5   0  0.1249195E-03  0.9977492E+03  0.7818609E-02  0.9311017E-01
       -1   -1    0    0    0  501  0.00000000000E+00  0.00000000000E+00  0.79063284742E+03  0.79063284743E+03  0.50400001928E-02 0. -1.
        1   -1    0    0  501    0  0.00000000000E+00  0.00000000000E+00 -0.31478060689E+03  0.31478060693E+03  0.50400001928E-02 0.  1.
    10030    2    1    2    0    0  0.00000000000E+00  0.00000000000E+00  0.47585224053E+03  0.11054134544E+04  0.99774924218E+03 0.  0.
        2    1    3    3  502    0 -0.23326083701E+03  0.32084670869E+03 -0.97245820577E+02  0.40842377280E+03  0.25500000920E-02 0.  1.
       -2    1    3    3    0  502  0.23326083701E+03 -0.32084670869E+03  0.57309806110E+03  0.69698968156E+03  0.25500000920E-02 0. -1.
</event>
<event>
 5   0  0.2255142E-03  0.9991935E+03  0.7818609E-02  0.9309430E-01
       -2   -1    0    0    0  501  0.00000000000E+00  0.00000000000E+00  0.17058853626E+03  0.17058853628E+03  0.25500000920E-02 0.  1.
        2   -1    0    0  501    0  0.00000000000E+00  0.00000000000E+00 -0.14631516056E+04  0.14631516056E+04  0.25500000920E-02 0. -1.
    10030    2    1    2    0    0  0.00000000000E+00  0.00000000000E+00 -0.12925630693E+04  0.16337401418E+04  0.99919345621E+03 0.  0.
        4    1    3    3  502    0 -0.20127743165E+03 -0.32288531206E+03 -0.11756664086E+04  0.12357024911E+04  0.12699999809E+01 0. -1.
       -4    1    3    3    0  502  0.20127743165E+03  0.32288531206E+03 -0.11689666068E+03  0.39803765074E+03  0.12699999809E+01 0.  1.
</event>
<event>
 5   0  0.1293575E-03  0.9991728E+03  0.7818609E-02  0.9309453E-01
        1   -1    0    0  501    0  0.00000000000E+00  0.00000000000E+00  0.31082793420E+03  0.31082793424E+03  0.50400001928E-02 0.  1.
       -1   -1    0    0    0  501  0.00000000000E+00  0.00000000000E+00 -0.80297344345E+03  0.80297344346E+03  0.50400001928E-02 0. -1.
    10030    2    1    2    0    0  0.00000000000E+00  0.00000000000E+00 -0.49214550925E+03  0.11138013777E+04  0.99917281122E+03 0.  0.
        4    1    3    3  502    0 -0.89556983564E+02 -0.17127473499E+03 -0.75960768975E+03  0.78381180355E+03  0.12699999809E+01 0. -1.
       -4    1    3    3    0  502  0.89556983564E+02  0.17127473499E+03  0.26746218050E+03  0.32998957415E+03  0.12699999809E+01 0.  1.
</event>
<event>
 5   0  0.8680125E-04  0.1002209E+04  0.7818609E-02  0.9306126E-01
        4   -1    0    0  501    0  0.00000000000E+00  0.00000000000E+00  0.36819450472E+03  0.36819669500E+03  0.12699999809E+01 0. -1.
       -4   -1    0    0    0  501  0.00000000000E+00  0.00000000000E+00 -0.68198699686E+03  0.68198817935E+03  0.12699999809E+01 0.  1.
    10030    2    1    2    0    0  0.00000000000E+00  0.00000000000E+00 -0.31379249213E+03  0.10501848744E+04  0.10022088316E+04 0.  0.
        3    1    3    3  502    0  0.30129072015E+03  0.24616154338E+03 -0.48782095822E+03  0.62397187514E+03  0.10100000352E+00 0.  1.
       -3    1    3    3    0  502 -0.30129072015E+03 -0.24616154338E+03  0.17402846608E+03  0.42621299921E+03  0.10100000352E+00 0. -1.
</event>
<event>
 5   0  0.1293716E-03  0.9991344E+03  0.7818609E-02  0.9309495E-01
        1   -1    0    0  501    0  0.00000000000E+00  0.00000000000E+00  0.29035956621E+03  0.29035956625E+03  0.50400001928E-02 0.  1.
       -1   -1    0    0    0  501  0.00000000000E+00  0.00000000000E+00 -0.85951141993E+03  0.85951141994E+03  0.50400001928E-02 0. -1.
    10030    2    1    2    0    0  0.00000000000E+00  0.00000000000E+00 -0.56915185372E+03  0.11498709862E+04  0.99913435148E+03 0.  0.
        3    1    3    3  502    0  0.34940951632E+03  0.10803711185E+03  0.10707135400E+03  0.38108176639E+03  0.10100000352E+00 0.  1.
       -3    1    3    3    0  502 -0.34940951632E+03 -0.10803711185E+03 -0.67622320772E+03  0.76878921980E+03  0.10100000352E+00 0. -1.
</event>
<event>
 5   0  0.1249195E-03  0.1002134E+04  0.7818609E-02  0.9306207E-01
       -1   -1    0    0    0  501  0.00000000000E+00  0.00000000000E+00  0.44811617769E+03  0.44811617772E+03  0.50400001928E-02 0.  1.
        1   -1    0    0  501    0  0.00000000000E+00  0.00000000000E+00 -0.56027478129E+03  0.56027478131E+03  0.50400001928E-02 0. -1.
    10030    2    1    2    0    0  0.00000000000E+00  0.00000000000E+00 -0.11215860360E+03  0.10083909590E+04  0.10021341097E+04 0.  0.
        2    1    3    3  502    0  0.37705455438E+03  0.80966846603E+02  0.26582809278E+03  0.46839122766E+03  0.25500000920E-02 0.  1.
       -2    1    3    3    0  502 -0.37705455438E+03 -0.80966846603E+02 -0.37798669638E+03  0.53999973137E+03  0.25500000920E-02 0. -1.
</event>
<event>
 5   0  0.1293716E-03  0.9990718E+03  0.7818609E-02  0.9309563E-01
       -1   -1    0    0    0  501  0.00000000000E+00  0.00000000000E+00  0.24171257873E+03  0.24171257878E+03  0.50400001928E-02 0.  1.
        1   -1    0    0  501    0  0.00000000000E+00  0.00000000000E+00 -0.10323671380E+04  0.10323671380E+04  0.50400001928E-02 0. -1.
    10030    2    1    2    0    0  0.00000000000E+00  0.00000000000E+00 -0.79065455926E+03  0.12740797168E+04  0.99907181555E+03 0.  0.
        3    1    3    3  502    0  0.34713679140E+03  0.35559291402E+03 -0.33047865618E+03  0.59679680365E+03  0.10100000352E+00 0.  1.
       -3    1    3    3    0  502 -0.34713679140E+03 -0.35559291402E+03 -0.46017590308E+03  0.67728291313E+03  0.10100000352E+00 0. -1.
</event>
<event>
 5   0  0.1285769E-03  0.9979464E+03  0.7818609E-02  0.9310800E-01
        1   -1    0    0  501    0  0.00000000000E+00  0.00000000000E+00  0.16099663585E+04  0.16099663585E+04  0.50400001928E-02 0. -1.
       -1   -1    0    0    0  501  0.00000000000E+00  0.00000000000E+00 -0.15464562378E+03  0.15464562386E+03  0.50400001928E-02 0.  1.
    10030    2    1    2    0    0  0.00000000000E+00  0.00000000000E+00  0.14553207347E+04  0.17646119824E+04  0.99794639504E+03 0.  0.
        5    1    3    3  502    0 -0.67965673649E+02  0.81555225700E+02 -0.13440414602E+03  0.17133928942E+03  0.46999998093E+01 0.  1.
       -5    1    3    3    0  502  0.67965673649E+02 -0.81555225700E+02  0.15897248807E+04  0.15932726929E+04  0.46999998093E+01 0. -1.
</event>
<event>
 5   0  0.1285769E-03  0.1001664E+04  0.7818609E-02  0.9306721E-01
        1   -1    0    0  501    0  0.00000000000E+00  0.00000000000E+00  0.39053894117E+03  0.39053894121E+03  0.50400001928E-02 0. -1.
       -1   -1    0    0    0  501  0.00000000000E+00  0.00000000000E+00 -0.64227355337E+03  0.64227355339E+03  0.50400001928E-02 0.  1.
    10030    2    1    2    0    0  0.00000000000E+00  0.00000000000E+00 -0.25173461220E+03  0.10328124946E+04  0.10016642821E+04 0.  0.
        5    1    3    3  502    0 -0.31984663798E+03 -0.37370055406E+03 -0.22290420732E+03  0.54005772985E+03  0.46999998093E+01 0.  1.
       -5    1    3    3    0  502  0.31984663798E+03  0.37370055406E+03 -0.28830404881E+02  0.49275476474E+03  0.46999998093E+01 0. -1.
</event>
<event>
 5   0  0.1285769E-03  0.1001738E+04  0.7818609E-02  0.9306640E-01
        1   -1    0    0  501    0  0.00000000000E+00  0.00000000000E+00  0.99323503726E+03  0.99323503727E+03  0.50400001928E-02 0. -1.
       -1   -1    0    0    0  501  0.00000000000E+00  0.00000000000E+00 -0.25257853790E+03  0.25257853795E+03  0.50400001928E-02 0.  1.
    10030    2    1    2    0    0  0.00000000000E+00  0.00000000000E+00  0.74065649936E+03  0.12458135752E+04  0.10017381964E+04 0.  0.
        5    1    3    3  502    0  0.42901051655E+03  0.16781930345E+03  0.61477599319E+03  0.76823495997E+03  0.46999998093E+01 0. -1.
       -5    1    3    3    0  502 -0.42901051655E+03 -0.16781930345E+03  0.12588050616E+03  0.47757861526E+03  0.46999998093E+01 0.  1.
</event>
<event>
 5   0  0.2255142E-03  0.9885841E+03  0.7818609E-02  0.9321155E-01
       -2   -1    0    0    0  501  0.00000000000E+00  0.00000000000E+00  0.13117488968E+03  0.13117488971E+03  0.25500000920E-02 0.  1.
        2   -1    0    0  501    0  0.00000000000E+00  0.00000000000E+00 -0.18625868946E+04  0.18625868946E+04  0.25500000920E-02 0. -1.
    10030    2    1    2    0    0  0.00000000000E+00  0.00000000000E+00 -0.17314120050E+04  0.19937617843E+04  0.98858409952E+03 0.  0.
        4    1    3    3  502    0 -0.69076563770E+02  0.11760056798E+03 -0.18238839262E+04  0.18289766686E+04  0.12699999809E+01 0. -1.
       -4    1    3    3    0  502  0.69076563770E+02 -0.11760056798E+03  0.92471921229E+02  0.16478511573E+03  0.12699999809E+01 0.  1.
</event>
<event>
 5   0  0.1293575E-03  0.9965606E+03  0.7818609E-02  0.9312325E-01
        1   -1    0    0  501    0  0.00000000000E+00  0.00000000000E+00  0.94390164950E+03  0.94390164952E+03  0.50400001928E-02 0. -1.
       -1   -1    0    0    0  501  0.00000000000E+00  0.00000000000E+00 -0.26303932657E+03  0.26303932662E+03  0.50400001928E-02 0.  1.
    10030    2    1    2    0    0  0.00000000000E+00  0.00000000000E+00  0.68086232294E+03  0.12069409761E+04  0.99656059378E+03 0.  0.
        4    1    3    3  502    0  0.88799816357E+02  0.36079085349E+03 -0.61660186109E+02  0.37664179109E+03  0.12699999809E+01 0.  1.
       -4    1    3    3    0  502 -0.88799816357E+02 -0.36079085349E+03  0.74252250905E+03  0.83029918504E+03  0.12699999809E+01 0. -1.
</event>
<event>
 5   0  0.2277570E-03  0.9946011E+03  0.7818609E-02  0.9314486E-01
        2   -1    0    0  501    0  0.00000000000E+00  0.00000000000E+00  0.15624961398E+04  0.15624961398E+04  0.25500000920E-02 0.  1.
       -2   -1    0    0    0  501  0.00000000000E+00  0.00000000000E+00 -0.15827740760E+03  0.15827740762E+03  0.25500000920E-02 0. -1.
    10030    2    1    2    0    0  0.00000000000E+00  0.00000000000E+00  0.14042187322E+04  0.17207735475E+04  0.99460110279E+03 0.  0.
        3    1    3    3  502    0  0.27153966329E+03 -0.41652829866E+03  0.71741045284E+03  0.87287306085E+03  0.10100000352E+00 0.  1.
       -3    1    3    3    0  502 -0.27153966329E+03  0.41652829866E+03  0.68680827941E+03  0.84790048661E+03  0.10100000352E+00 0. -1.
</event>
<event>
 5   0  0.2204862E-03  0.1008569E+04  0.7818609E-02  0.9299196E-01
       -2   -1    0    0    0  501  0.00000000000E+00  0.00000000000E+00  0.31517699431E+03  0.31517699432E+03  0.25500000920E-02 0.  1.
        2   -1    0    0  501    0  0.00000000000E+00  0.00000000000E+00 -0.80685717372E+03  0.80685717372E+03  0.25500000920E-02 0. -1.
    10030    2    1    2    0    0  0.00000000000E+00  0.00000000000E+00 -0.49168017941E+03  0.11220341680E+04  0.10085689245E+04 0.  0.
        1    1    3    3  502    0  0.30630211760E+03 -0.23371794403E+03 -0.60780113817E+03  0.71962996616E+03  0.50400001928E-02 0. -1.
       -1    1    3    3    0  502 -0.30630211760E+03  0.23371794403E+03  0.11612095877E+03  0.40240420189E+03  0.50400001928E-02 0.  1.
</event>
<event>
 5   0  0.1293575E-03  0.9885506E+03  0.7818609E-02  0.9321192E-01
        1   -1    0    0  501    0  0.00000000000E+00  0.00000000000E+00  0.10904092573E+04  0.10904092573E+04  0.50400001928E-02 0.  1.
       -1   -1    0    0    0  501  0.00000000000E+00  0.00000000000E+00 -0.22405170251E+03  0.22405170257E+03  0.50400001928E-02 0. -1.
    10030    2    1    2    0    0  0.00000000000E+00  0.00000000000E+00  0.86635755478E+03  0.13144609599E+04  0.98855055627E+03 0.  0.
        4    1    3    3  502    0  0.15048960675E+03  0.16017467704E+03  0.10218605611E+04  0.10452290027E+04  0.12699999809E+01 0.  1.
       -4    1    3    3    0  502 -0.15048960675E+03 -0.16017467704E+03 -0.15550300628E+03  0.26923195718E+03  0.12699999809E+01 0. -1.
</event>
<event>
 5   0  0.2204862E-03  0.1013036E+04  0.7818609E-02  0.9294362E-01
        2   -1    0    0  501    0  0.00000000000E+00  0.00000000000E+00  0.26324429644E+03  0.26324429646E+03  0.25500000920E-02 0. -1.
       -2   -1    0    0    0  501  0.00000000000E+00  0.00000000000E+00 -0.97460973208E+03  0.97460973208E+03  0.25500000920E-02 0.  1.
    10030    2    1    2    0    0  0.00000000000E+00  0.00000000000E+00 -0.71136543563E+03  0.12378540285E+04  0.10130359386E+04 0.  0.
        1    1    3    3  502    0  0.66414160383E+02  0.13826724309E+03 -0.94554708214E+03  0.95790811448E+03  0.50400001928E-02 0.  1.
       -1    1    3    3    0  502 -0.66414160383E+02 -0.13826724309E+03  0.23418164651E+03  0.27994591406E+03  0.50400001928E-02 0. -1.
</event>
<event>
 5   0  0.2277570E-03  0.9989123E+03  0.7818609E-02  0.9309739E-01
        2   -1    0    0  501    0  0.00000000000E+00  0.00000000000E+00  0.78414800415E+03  0.78414800416E+03  0.25500000920E-02 0.  1.
       -2   -1    0    0    0  501  0.00000000000E+00  0.00000000000E+00 -0.31812420049E+03  0.31812420050E+03  0.25500000920E-02 0. -1.
    10030    2    1    2    0    0  0.00000000000E+00  0.00000000000E+00  0.46602380366E+03  0.11022722047E+04  0.99891232227E+03 0.  0.
        3    1    3    3  502    0  0.31170515018E+02 -0.80035806468E+02  0.77593728628E+03  0.78067663841E+03  0.10100000352E+00 0.  1.
       -3    1    3    3    0  502 -0.31170515018E+02  0.80035806468E+02 -0.30991348261E+03  0.32159556625E+03  0.10100000352E+00 0. -1.
</event>
<event>
 5   0  0.1249195E-03  0.9969802E+03  0.7818609E-02  0.9311863E-01
        1   -1    0    0  501    0  0.00000000000E+00  0.00000000000E+00  0.17222440905E+04  0.17222440905E+04  0.50400001928E-02 0. -1.
       -1   -1    0    0    0  501  0.00000000000E+00  0.00000000000E+00 -0.14428405635E+03  0.14428405644E+03  0.50400001928E-02 0.  1.
    10030    2    1    2    0    0  0.00000000000E+00  0.00000000000E+00  0.15779600341E+04  0.18665281469E+04  0.99698016728E+03 0.  0.
        2    1    3    3  502    0 -0.74595239145E+02  0.39631541421E+03  0.13375708425E+04  0.13970419164E+04  0.25500000920E-02 0. -1.
       -2    1    3    3    0  502  0.74595239145E+02 -0.39631541421E+03  0.24038919157E+03  0.46948623055E+03  0.25500000920E-02 0.  1.
</event>
<event>
 5   0  0.2277570E-03  0.1002337E+04  0.7818609E-02  0.9305985E-01
        2   -1    0    0  501    0  0.00000000000E+00  0.00000000000E+00  0.16792923734E+04  0.16792923734E+04  0.25500000920E-02 0.  1.
       -2   -1    0    0    0  501  0.00000000000E+00  0.00000000000E+00 -0.14956887817E+03  0.14956887819E+03  0.25500000920E-02 0. -1.
    10030    2    1    2    0    0  0.00000000000E+00  0.00000000000E+00  0.15297234952E+04  0.18288612516E+04  0.10023370220E+04 0.  0.
        3    1    3    3  502    0  0.12882357214E+03  0.47004485711E+03  0.97789614647E+03  0.10926200455E+04  0.10100000352E+00 0.  1.
       -3    1    3    3    0  502 -0.12882357214E+03 -0.47004485711E+03  0.55182734873E+03  0.73624120602E+03  0.10100000352E+00 0. -1.
</event>
<event>
 5   0  0.1293575E-03  0.9682960E+03  0.7818609E-02  0.9344017E-01
       -1   -1    0    0    0  501  0.00000000000E+00  0.00000000000E+00  0.36695018052E+03  0.36695018056E+03  0.50400001928E-02 0.  1.
        1   -1    0    0  501    0  0.00000000000E+00  0.00000000000E+00 -0.63877688416E+03  0.63877688418E+03  0.50400001928E-02 0. -1.
    10030    2    1    2    0    0  0.00000000000E+00  0.00000000000E+00 -0.27182670364E+03  0.10057270647E+04  0.96829601462E+03 0.  0.
        4    1    3    3  502    0  0.11755134584E+03 -0.32749384919E+03 -0.48556771927E+03  0.59736769503E+03  0.12699999809E+01 0. -1.
       -4    1    3    3    0  502 -0.11755134584E+03  0.32749384919E+03  0.21374101563E+03  0.40835936971E+03  0.12699999809E+01 0.  1.
</event>
<event>
 5   0  0.1249195E-03  0.9830237E+03  0.7818609E-02  0.9327363E-01
        1   -1    0    0  501    0  0.00000000000E+00  0.00000000000E+00  0.57382498438E+03  0.57382498440E+03  0.50400001928E-02 0.  1.
       -1   -1    0    0    0  501  0.00000000000E+00  0.00000000000E+00 -0.42100622407E+03  0.42100622410E+03  0.50400001928E-02 0. -1.
    10030    2    1    2    0    0  0.00000000000E+00  0.00000000000E+00  0.15281876031E+03  0.99483120850E+03  0.98302368227E+03 0.  0.
        2    1    3    3  502    0 -0.12691459880E+03 -0.46372353986E+03  0.17979838805E+03  0.51329747434E+03  0.25500000920E-02 0. -1.
       -2    1    3    3    0  502  0.12691459880E+03  0.46372353986E+03 -0.26979627737E+02  0.48153373416E+03  0.25500000920E-02 0.  1.
</event>
<event>
 5   0  0.1293575E-03  0.1003008E+04  0.7818609E-02  0.9305252E-01
        1   -1    0    0  501    0  0.00000000000E+00  0.00000000000E+00  0.33134041748E+03  0.33134041752E+03  0.50400001928E-02 0. -1.
       -1   -1    0    0    0  501  0.00000000000E+00  0.00000000000E+00 -0.75905627280E+03  0.75905627282E+03  0.50400001928E-02 0.  1.
    10030    2    1    2    0    0  0.00000000000E+00  0.00000000000E+00 -0.42771585532E+03  0.10903966903E+04  0.10030075221E+04 0.  0.
        4    1    3    3  502    0 -0.25125687667E+03  0.41303020268E+03 -0.35881907702E+03  0.60206038678E+03  0.12699999809E+01 0.  1.
       -4    1    3    3    0  502  0.25125687667E+03 -0.41303020268E+03 -0.68896778305E+02  0.48833630355E+03  0.12699999809E+01 0. -1.
</event>
<event>
 5   0  0.2204862E-03  0.9992444E+03  0.7818609E-02  0.9309374E-01
        2   -1    0    0  501    0  0.00000000000E+00  0.00000000000E+00  0.13620745268E+04  0.13620745268E+04  0.25500000920E-02 0. -1.
       -2   -1    0    0    0  501  0.00000000000E+00  0.00000000000E+00 -0.18326628953E+03  0.18326628955E+03  0.25500000920E-02 0.  1.
    10030    2    1    2    0    0  0.00000000000E+00  0.00000000000E+00  0.11788082373E+04  0.15453408164E+04  0.99924440375E+03 0.  0.
        1    1    3    3  502    0 -0.28438372169E+03 -0.23449402112E+03  0.67790568352E+02  0.37477607752E+03  0.50400001928E-02 0.  1.
       -1    1    3    3    0  502  0.28438372169E+03  0.23449402112E+03  0.11110176689E+04  0.11705647388E+04  0.50400001928E-02 0. -1.
</event>
<event>
 5   0  0.1353789E-03  0.9939430E+03  0.7818609E-02  0.9315213E-01
        1   -1    0    0  501    0  0.00000000000E+00  0.00000000000E+00  0.42708631177E+03  0.42708631180E+03  0.50400001928E-02 0. -1.
       -1   -1    0    0    0  501  0.00000000000E+00  0.00000000000E+00 -0.57829219687E+03  0.57829219689E+03  0.50400001928E-02 0.  1.
    10030    2    1    2    0    0  0.00000000000E+00  0.00000000000E+00 -0.15120588510E+03  0.10053785087E+04  0.99394301952E+03 0.  0.
        1    1    3    3  502    0 -0.31776956003E+03 -0.32209724358E+03  0.13232609705E+03  0.47141735605E+03  0.50400001928E-02 0.  1.
       -1    1    3    3    0  502  0.31776956003E+03  0.32209724358E+03 -0.28353198214E+03  0.53396115264E+03  0.50400001928E-02 0. -1.
</event>
<event>
 5   0  0.1249195E-03  0.1006576E+04  0.7818609E-02  0.9301362E-01
       -1   -1    0    0    0  501  0.00000000000E+00  0.00000000000E+00  0.22086683863E+03  0.22086683868E+03  0.50400001928E-02 0.  1.
        1   -1    0    0  501    0  0.00000000000E+00  0.00000000000E+00 -0.11468385262E+04  0.11468385262E+04  0.50400001928E-02 0. -1.
    10030    2    1    2    0    0  0.00000000000E+00  0.00000000000E+00 -0.92597168761E+03  0.13677053649E+04  0.10065755804E+04 0.  0.
        2    1    3    3  502    0 -0.29871550201E+03 -0.20579020196E+03 -0.93703528392E+03  0.10047963384E+04  0.25500000920E-02 0. -1.
       -2    1    3    3    0  502  0.29871550201E+03  0.20579020196E+03  0.11063596309E+02  0.36290902652E+03  0.25500000920E-02 0.  1.
</event>
<event>
 5   0  0.2284843E-03  0.9971734E+03  0.7818609E-02  0.9311650E-01
       -2   -1    0    0    0  501  0.00000000000E+00  0.00000000000E+00  0.49588207488E+03  0.49588207488E+03  0.25500000920E-02 0.  1.
        2   -1    0    0  501    0  0.00000000000E+00  0.00000000000E+00 -0.50130602898E+03  0.50130602899E+03  0.25500000920E-02 0. -1.
    10030    2    1    2    0    0  0.00000000000E+00  0.00000000000E+00 -0.54239541036E+01  0.99718810387E+03  0.99717335264E+03 0.  0.
        2    1    3    3  502    0  0.23130784981E+03  0.21425768737E+02 -0.44388319905E+03  0.50099369193E+03  0.25500000920E-02 0. -1.
       -2    1    3    3    0  502 -0.23130784981E+03 -0.21425768737E+02  0.43845924495E+03  0.49619441194E+03  0.25500000920E-02 0.  1.
</event>
<event>
 5   0  0.2284843E-03  0.1018384E+04  0.7818609E-02  0.9288608E-01
        2   -1    0    0  501    0  0.00000000000E+00  0.00000000000E+00  0.13251682617E+04  0.13251682617E+04  0.25500000920E-02 0.  1.
       -2   -1    0    0    0  501  0.00000000000E+00  0.00000000000E+00 -0.19565548889E+03  0.19565548891E+03  0.25500000920E-02 0. -1.
    10030    2    1    2    0    0  0.00000000000E+00  0.00000000000E+00  0.11295127728E+04  0.15208237506E+04  0.10183839043E+04 0.  0.
        2    1    3    3  502    0  0.45104769020E+03 -0.16616061458E+03  0.81563840073E+03  0.94674144804E+03  0.25500000920E-02 0. -1.
       -2    1    3    3    0  502 -0.45104769020E+03  0.16616061458E+03  0.31387437207E+03  0.57408230257E+03  0.25500000920E-02 0.  1.
</event>
<event>
 5   0  0.8680125E-04  0.9770143E+03  0.7818609E-02  0.9334121E-01
       -4   -1    0    0    0  501  0.00000000000E+00  0.00000000000E+00  0.34299177889E+03  0.34299413011E+03  0.12699999809E+01 0. -1.
        4   -1    0    0  501    0  0.00000000000E+00  0.00000000000E+00 -0.69575263621E+03  0.69575379532E+03  0.12699999809E+01 0.  1.
    10030    2    1    2    0    0  0.00000000000E+00  0.00000000000E+00 -0.35276085732E+03  0.10387479254E+04  0.97701434488E+03 0.  0.
        4    1    3    3  502    0  0.41091091356E+02  0.39132138791E+03 -0.48418467518E+03  0.62390489580E+03  0.12699999809E+01 0. -1.
       -4    1    3    3    0  502 -0.41091091356E+02 -0.39132138791E+03  0.13142381786E+03  0.41484302962E+03  0.12699999809E+01 0.  1.
</event>
<event>
 5   0  0.2204862E-03  0.9817485E+03  0.7818609E-02  0.9328792E-01
        2   -1    0    0  501    0  0.00000000000E+00  0.00000000000E+00  0.19373738888E+04  0.19373738888E+04  0.25500000920E-02 0. -1.
       -2   -1    0    0    0  501  0.00000000000E+00  0.00000000000E+00 -0.12437326176E+03  0.12437326179E+03  0.25500000920E-02 0.  1.
    10030    2    1    2    0    0  0.00000000000E+00  0.00000000000E+00  0.18130006270E+04  0.20617471505E+04  0.98174846030E+03 0.  0.
        1    1    3    3  502    0  0.28234400758E+03  0.79821948860E+02  0.80051848345E+02  0.30413480660E+03  0.50400001928E-02 0.  1.
       -1    1    3    3    0  502 -0.28234400758E+03 -0.79821948860E+02  0.17329487787E+04  0.17576123439E+04  0.50400001928E-02 0. -1.
</event>
<event>
 5   0  0.1293716E-03  0.1000433E+04  0.7818609E-02  0.9308070E-01
        1   -1    0    0  501    0  0.00000000000E+00  0.00000000000E+00  0.11033664576E+04  0.11033664576E+04  0.50400001928E-02 0.  1.
       -1   -1    0    0    0  501  0.00000000000E+00  0.00000000000E+00 -0.22677547591E+03  0.22677547597E+03  0.50400001928E-02 0. -1.
    10030    2    1    2    0    0  0.00000000000E+00  0.00000000000E+00  0.87659098167E+03  0.13301419336E+04  0.10004328135E+04 0.  0.
        3    1    3    3  502    0  0.16685383504E+03  0.41803001592E+03  0.14813562607E+03  0.47384962846E+03  0.10100000352E+00 0. -1.
       -3    1    3    3    0  502 -0.16685383504E+03 -0.41803001592E+03  0.72845535560E+03  0.85629230511E+03  0.10100000352E+00 0.  1.
</event>
<event>
 5   0  0.2255142E-03  0.9981861E+03  0.7818609E-02  0.9310536E-01
        2   -1    0    0  501    0  0.00000000000E+00  0.00000000000E+00  0.26793211822E+04  0.26793211822E+04  0.25500000920E-02 0. -1.
       -2   -1    0    0    0  501  0.00000000000E+00  0.00000000000E+00 -0.92969024453E+02  0.92969024488E+02  0.25500000920E-02 0.  1.
    10030    2    1    2    0    0  0.00000000000E+00  0.00000000000E+00  0.25863521578E+04  0.27722902067E+04  0.99818610802E+03 0.  0.
        4    1    3    3  502    0 -0.16693516906E+03  0.84903523784E+01  0.25992670192E+04  0.26046362676E+04  0.12699999809E+01 0. -1.
       -4    1    3    3    0  502  0.16693516906E+03 -0.84903523784E+01 -0.12914861391E+02  0.16765393910E+03  0.12699999809E+01 0.  1.
</event>
<event>
 5   0  0.2264577E-03  0.9973386E+03  0.7818609E-02  0.9311469E-01
        2   -1    0    0  501    0  0.00000000000E+00  0.00000000000E+00  0.12081019765E+04  0.12081019765E+04  0.25500000920E-02 0.  1.
       -2   -1    0    0    0  501  0.00000000000E+00  0.00000000000E+00 -0.20583615804E+03  0.20583615805E+03  0.25500000920E-02 0. -1.
    10030    2    1    2    0    0  0.00000000000E+00  0.00000000000E+00  0.10022658184E+04  0.14139381345E+04  0.99733859720E+03 0.  0.
        5    1    3    3  502    0  0.44788717038E+03 -0.11797598127E+02  0.19082937725E+03  0.48701133656E+03  0.46999998093E+01 0. -1.
       -5    1    3    3    0  502 -0.44788717038E+03  0.11797598127E+02  0.81143644116E+03  0.92692679795E+03  0.46999998093E+01 0.  1.
</event>
<event>
 5   0  0.2277570E-03  0.1057090E+04  0.7818609E-02  0.9248055E-01
        2   -1    0    0  501    0  0.00000000000E+00  0.00000000000E+00  0.54232698248E+03  0.54232698248E+03  0.25500000920E-02 0. -1.
       -2   -1    0    0    0  501  0.00000000000E+00  0.00000000000E+00 -0.51511291150E+03  0.51511291151E+03  0.25500000920E-02 0.  1.
    10030    2    1    2    0    0  0.00000000000E+00  0.00000000000E+00  0.27214070974E+02  0.10574398940E+04  0.10570896479E+04 0.  0.
        3    1    3    3  502    0 -0.42769084484E+03 -0.13872041250E+03  0.29154223104E+03  0.53587283406E+03  0.10100000352E+00 0. -1.
       -3    1    3    3    0  502  0.42769084484E+03  0.13872041250E+03 -0.26432816006E+03  0.52156705993E+03  0.10100000352E+00 0.  1.
</event>
<event>
 5   0  0.1353789E-03  0.1006391E+04  0.7818609E-02  0.9301563E-01
        1   -1    0    0  501    0  0.00000000000E+00  0.00000000000E+00  0.77875876388E+03  0.77875876389E+03  0.50400001928E-02 0. -1.
       -1   -1    0    0    0  501  0.00000000000E+00  0.00000000000E+00 -0.32514013445E+03  0.32514013449E+03  0.50400001928E-02 0.  1.
    10030    2    1    2    0    0  0.00000000000E+00  0.00000000000E+00  0.45361862943E+03  0.11038988984E+04  0.10063910358E+04 0.  0.
        1    1    3    3  502    0 -0.39897382034E+02 -0.54840412887E+01 -0.32336957503E+03  0.32586769997E+03  0.50400001928E-02 0.  1.
       -1    1    3    3    0  502  0.39897382034E+02  0.54840412887E+01  0.77698820446E+03  0.77803119841E+03  0.50400001928E-02 0. -1.
</event>
<event>
 5   0  0.8680125E-04  0.9845675E+03  0.7818609E-02  0.9325635E-01
       -4   -1    0    0    0  501  0.00000000000E+00  0.00000000000E+00  0.10123203621E+04  0.10123211587E+04  0.12699999809E+01 0. -1.
        4   -1    0    0  501    0  0.00000000000E+00  0.00000000000E+00 -0.23939130228E+03  0.23939467101E+03  0.12699999809E+01 0.  1.
    10030    2    1    2    0    0  0.00000000000E+00  0.00000000000E+00  0.77292905982E+03  0.12517158297E+04  0.98456751263E+03 0.  0.
        5    1    3    3  502    0 -0.28773948694E+03  0.39577324915E+03  0.45481853733E+03  0.66806621602E+03  0.46999998093E+01 0. -1.
       -5    1    3    3    0  502  0.28773948694E+03 -0.39577324915E+03  0.31811052249E+03  0.58364961373E+03  0.46999998093E+01 0.  1.
</event>
<event>
 5   0  0.1249195E-03  0.1005974E+04  0.7818609E-02  0.9302017E-01
        1   -1    0    0  501    0  0.00000000000E+00  0.00000000000E+00  0.55252518306E+03  0.55252518309E+03  0.50400001928E-02 0. -1.
       -1   -1    0    0    0  501  0.00000000000E+00  0.00000000000E+00 -0.45789013690E+03  0.45789013693E+03  0.50400001928E-02 0.  1.
    10030    2    1    2    0    0  0.00000000000E+00  0.00000000000E+00  0.94635046162E+02  0.10104153200E+04  0.10059738202E+04 0.  0.
        2    1    3    3  502    0 -0.29545383694E+03  0.15661453090E+03  0.42470871387E+03  0.54055394985E+03  0.25500000920E-02 0. -1.
       -2    1    3    3    0  502  0.29545383694E+03 -0.15661453090E+03 -0.33007366771E+03  0.46986137017E+03  0.25500000920E-02 0.  1.
</event>
<event>
 5   0  0.2284843E-03  0.9975353E+03  0.7818609E-02  0.9311252E-01
        2   -1    0    0  501    0  0.00000000000E+00  0.00000000000E+00  0.70481059878E+03  0.70481059879E+03  0.25500000920E-02 0.  1.
       -2   -1    0    0    0  501  0.00000000000E+00  0.00000000000E+00 -0.35295892174E+03  0.35295892175E+03  0.25500000920E-02 0. -1.
    10030    2    1    2    0    0  0.00000000000E+00  0.00000000000E+00  0.35185167704E+03  0.10577695205E+04  0.99753534069E+03 0.  0.
        2    1    3    3  502    0 -0.35197495733E+03  0.31510278512E+03  0.34556409790E+03  0.58531246488E+03  0.25500000920E-02 0.  1.
       -2    1    3    3    0  502  0.35197495733E+03 -0.31510278512E+03  0.62875791383E+01  0.47245705565E+03  0.25500000920E-02 0. -1.
</event>
<event>
 5   0  0.2255142E-03  0.9949347E+03  0.7818609E-02  0.9314118E-01
       -2   -1    0    0    0  501  0.00000000000E+00  0.00000000000E+00  0.25339478645E+03  0.25339478647E+03  0.25500000920E-02 0. -1.
        2   -1    0    0  501    0  0.00000000000E+00  0.00000000000E+00 -0.97663323958E+03  0.97663323959E+03  0.25500000920E-02 0.  1.
    10030    2    1    2    0    0  0.00000000000E+00  0.00000000000E+00 -0.72323845313E+03  0.12300280261E+04  0.99493471383E+03 0.  0.
        4    1    3    3  502    0 -0.21780129029E+02  0.86529960026E+02  0.24341865385E+03  0.25926060624E+03  0.12699999809E+01 0. -1.
       -4    1    3    3    0  502  0.21780129029E+02 -0.86529960026E+02 -0.96665710698E+03  0.97076741982E+03  0.12699999809E+01 0.  1.
</event>
<event>
 5   0  0.2264577E-03  0.1008139E+04  0.7818609E-02  0.9299663E-01
       -2   -1    0    0    0  501  0.00000000000E+00  0.00000000000E+00  0.81214796954E+03  0.81214796954E+03  0.25500000920E-02 0.  1.
        2   -1    0    0  501    0  0.00000000000E+00  0.00000000000E+00 -0.31285677703E+03  0.31285677704E+03  0.25500000920E-02 0. -1.
    10030    2    1    2    0    0  0.00000000000E+00  0.00000000000E+00  0.49929119251E+03  0.11250047466E+04  0.10081388718E+04 0.  0.
        5    1    3    3  502    0  0.32910615152E+03 -0.33504849409E+03  0.45387937651E+03  0.65314388214E+03  0.46999998093E+01 0. -1.
       -5    1    3    3    0  502 -0.32910615152E+03  0.33504849409E+03  0.45411815996E+02  0.47186086444E+03  0.46999998093E+01 0.  1.
</event>
<event>
 5   0  0.1293575E-03  0.1032143E+04  0.7818609E-02  0.9273977E-01
        1   -1    0    0  501    0  0.00000000000E+00  0.00000000000E+00  0.11104619630E+04  0.11104619630E+04  0.50400001928E-02 0. -1.
       -1   -1    0    0    0  501  0.00000000000E+00  0.00000000000E+00 -0.23983700893E+03  0.23983700898E+03  0.50400001928E-02 0.  1.
    10030    2    1    2    0    0  0.00000000000E+00  0.00000000000E+00  0.87062495405E+03  0.13502989720E+04  0.10321431602E+04 0.  0.
        4    1    3    3  502    0 -0.20106833454E+03  0.17449462019E+03  0.10136873376E+04  0.10480651120E+04  0.12699999809E+01 0. -1.
       -4    1    3    3    0  502  0.20106833454E+03 -0.17449462019E+03 -0.14306238356E+03  0.30223385998E+03  0.12699999809E+01 0.  1.
</event>
<event>
 5   0  0.1293575E-03  0.9977872E+03  0.7818609E-02  0.9310975E-01
        1   -1    0    0  501    0  0.00000000000E+00  0.00000000000E+00  0.36194654249E+03  0.36194654253E+03  0.50400001928E-02 0.  1.
       -1   -1    0    0    0  501  0.00000000000E+00  0.00000000000E+00 -0.68765626742E+03  0.68765626743E+03  0.50400001928E-02 0. -1.
    10030    2    1    2    0    0  0.00000000000E+00  0.00000000000E+00 -0.32570972493E+03  0.10496028100E+04  0.99778716857E+03 0.  0.
        4    1    3    3  502    0 -0.17773254928E+02 -0.28188600333E+03 -0.59544982526E+03  0.65904302953E+03  0.12699999809E+01 0. -1.
       -4    1    3    3    0  502  0.17773254928E+02  0.28188600333E+03  0.26974010033E+03  0.39055978043E+03  0.12699999809E+01 0.  1.
</event>
<event>
 5   0  0.2284843E-03  0.1001689E+04  0.7818609E-02  0.9306694E-01
        2   -1    0    0  501    0  0.00000000000E+00  0.00000000000E+00  0.28071678422E+03  0.28071678423E+03  0.25500000920E-02 0. -1.
       -2   -1    0    0    0  501  0.00000000000E+00  0.00000000000E+00 -0.89358788745E+03  0.89358788745E+03  0.25500000920E-02 0.  1.
    10030    2    1    2    0    0  0.00000000000E+00  0.00000000000E+00 -0.61287110323E+03  0.11743046717E+04  0.10016888103E+04 0.  0.
        2    1    3    3  502    0  0.28115697204E+03  0.11669780246E+02  0.17928013549E+03  0.33365670035E+03  0.25500000920E-02 0. -1.
       -2    1    3    3    0  502 -0.28115697204E+03 -0.11669780246E+02 -0.79215123872E+03  0.84064797134E+03  0.25500000920E-02 0.  1.
</event>
<event>
 5   0  0.2204862E-03  0.9989177E+03  0.7818609E-02  0.9309733E-01
        2   -1    0    0  501    0  0.00000000000E+00  0.00000000000E+00  0.10814097970E+04  0.10814097970E+04  0.25500000920E-02 0.  1.
       -2   -1    0    0    0  501  0.00000000000E+00  0.00000000000E+00 -0.23067956593E+03  0.23067956595E+03  0.25500000920E-02 0. -1.
    10030    2    1    2    0    0  0.00000000000E+00  0.00000000000E+00  0.85073023103E+03  0.13120893629E+04  0.99891769945E+03 0.  0.
        1    1    3    3  502    0 -0.35711314607E+03  0.22443859982E+03  0.73999926710E+02  0.42822712825E+03  0.50400001928E-02 0. -1.
       -1    1    3    3    0  502  0.35711314607E+03 -0.22443859982E+03  0.77673030432E+03  0.88386223467E+03  0.50400001928E-02 0.  1.
</event>
<event>
 5   0  0.2204862E-03  0.1000817E+04  0.7818609E-02  0.9307649E-01
       -2   -1    0    0    0  501  0.00000000000E+00  0.00000000000E+00  0.20900694502E+03  0.20900694504E+03  0.25500000920E-02 0. -1.
        2   -1    0    0  501    0  0.00000000000E+00  0.00000000000E+00 -0.11980880622E+04  0.11980880622E+04  0.25500000920E-02 0.  1.
    10030    2    1    2    0    0  0.00000000000E+00  0.00000000000E+00 -0.98908111714E+03  0.14070950072E+04  0.10008171177E+04 0.  0.
        1    1    3    3  502    0  0.49491934544E+03  0.48216788211E+02 -0.41577357872E+03  0.64818028815E+03  0.50400001928E-02 0. -1.
       -1    1    3    3    0  502 -0.49491934544E+03 -0.48216788211E+02 -0.57330753841E+03  0.75891471905E+03  0.50400001928E-02 0.  1.
</event>
<event>
 5   0  0.1249195E-03  0.9958007E+03  0.7818609E-02  0.9313163E-01
       -1   -1    0    0    0  501  0.00000000000E+00  0.00000000000E+00  0.30877131578E+03  0.30877131582E+03  0.50400001928E-02 0.  1.
        1   -1    0    0  501    0  0.00000000000E+00  0.00000000000E+00 -0.80287488986E+03  0.80287488988E+03  0.50400001928E-02 0. -1.
    10030    2    1    2    0    0  0.00000000000E+00  0.00000000000E+00 -0.49410357408E+03  0.11116462057E+04  0.99580065512E+03 0.  0.
        2    1    3    3  502    0 -0.35594800544E+03  0.27700062190E+02 -0.63446709718E+03  0.72802113529E+03  0.25500000920E-02 0. -1.
       -2    1    3    3    0  502  0.35594800544E+03 -0.27700062190E+02  0.14036352310E+03  0.38362507041E+03  0.25500000920E-02 0.  1.
</event>
<event>
 5   0  0.2264577E-03  0.9985580E+03  0.7818609E-02  0.9310128E-01
       -2   -1    0    0    0  501  0.00000000000E+00  0.00000000000E+00  0.22823512318E+03  0.22823512320E+03  0.25500000920E-02 0.  1.
        2   -1    0    0  501    0  0.00000000000E+00  0.00000000000E+00 -0.10922049992E+04  0.10922049992E+04  0.25500000920E-02 0. -1.
    10030    2    1    2    0    0  0.00000000000E+00  0.00000000000E+00 -0.86396987603E+03  0.13204401224E+04  0.99855804548E+03 0.  0.
        5    1    3    3  502    0  0.20006509226E+03  0.58099362508E+01 -0.10368016796E+04  0.10559543594E+04  0.46999998093E+01 0. -1.
       -5    1    3    3    0  502 -0.20006509226E+03 -0.58099362508E+01  0.17283180353E+03  0.26448576296E+03  0.46999998093E+01 0.  1.
</event>
<event>
 5   0  0.1293575E-03  0.1001991E+04  0.7818609E-02  0.9306364E-01
       -1   -1    0    0    0  501  0.00000000000E+00  0.00000000000E+00  0.49550054383E+03  0.49550054386E+03  0.50400001928E-02 0. -1.
        1   -1    0    0  501    0  0.00000000000E+00  0.00000000000E+00 -0.50655099189E+03  0.50655099191E+03  0.50400001928E-02 0.  1.
    10030    2    1    2    0    0  0.00000000000E+00  0.00000000000E+00 -0.11050448055E+02  0.10020515358E+04  0.10019906027E+04 0.  0.
        4    1    3    3  502    0 -0.49409211605E+03 -0.47173388303E+02  0.62613575632E+02  0.50027434519E+03  0.12699999809E+01 0. -1.
       -4    1    3    3    0  502  0.49409211605E+03  0.47173388303E+02 -0.73664023686E+02  0.50177719058E+03  0.12699999809E+01 0.  1.
</event>
<event>
 5   0  0.1353789E-03  0.9988815E+03  0.7818609E-02  0.9309772E-01
        1   -1    0    0  501    0  0.00000000000E+00  0.00000000000E+00  0.12660864862E+04  0.12660864862E+04  0.50400001928E-02 0.  1.
       -1   -1    0    0    0  501  0.00000000000E+00  0.00000000000E+00 -0.19701740840E+03  0.19701740846E+03  0.50400001928E-02 0. -1.
    10030    2    1    2    0    0  0.00000000000E+00  0.00000000000E+00  0.10690690778E+04  0.14631038947E+04  0.99888153127E+03 0.  0.
        1    1    3    3  502    0 -0.24412016140E+03 -0.11397959874E+03 -0.81450193329E+02  0.28146071866E+03  0.50400001928E-02 0. -1.
       -1    1    3    3    0  502  0.24412016140E+03  0.11397959874E+03  0.11505192712E+04  0.11816431760E+04  0.50400001928E-02 0.  1.
</event>
<event>
 5   0  0.1353789E-03  0.9983215E+03  0.7818609E-02  0.9310388E-01
        1   -1    0    0  501    0  0.00000000000E+00  0.00000000000E+00  0.19435872992E+04  0.19435872992E+04  0.50400001928E-02 0. -1.
       -1   -1    0    0    0  501  0.00000000000E+00  0.00000000000E+00 -0.12819667932E+03  0.12819667942E+03  0.50400001928E-02 0.  1.
    10030    2    1    2    0    0  0.00000000000E+00  0.00000000000E+00  0.18153906199E+04  0.20717839786E+04  0.99832146694E+03 0.  0.
        1    1    3    3  502    0  0.43685341631E+03  0.20380764077E+03  0.63884623428E+03  0.80031429630E+03  0.50400001928E-02 0. -1.
       -1    1    3    3    0  502 -0.43685341631E+03 -0.20380764077E+03  0.11765443856E+04  0.12714696823E+04  0.50400001928E-02 0.  1.
</event>
<event>
 5   0  0.1249195E-03  0.9738646E+03  0.7818609E-02  0.9337683E-01
        1   -1    0    0  501    0  0.00000000000E+00  0.00000000000E+00  0.17299312683E+04  0.17299312683E+04  0.50400001928E-02 0.  1.
       -1   -1    0    0    0  501  0.00000000000E+00  0.00000000000E+00 -0.13705922877E+03  0.13705922887E+03  0.50400001928E-02 0. -1.
    10030    2    1    2    0    0  0.00000000000E+00  0.00000000000E+00  0.15928720396E+04  0.18669904972E+04  0.97386456053E+03 0.  0.
        2    1    3    3  502    0  0.28216332449E+03  0.55759914862E+02  0.43191676327E+02  0.29084502867E+03  0.25500000920E-02 0. -1.
       -2    1    3    3    0  502 -0.28216332449E+03 -0.55759914862E+02  0.15496803632E+04  0.15761454685E+04  0.25500000920E-02 0.  1.
</event>
<event>
 5   0  0.8680125E-04  0.1001406E+04  0.7818609E-02  0.9307004E-01
       -3   -1    0    0    0  501  0.00000000000E+00  0.00000000000E+00  0.63466200566E+03  0.63466201369E+03  0.10100000352E+00 0.  1.
        3   -1    0    0  501    0  0.00000000000E+00  0.00000000000E+00 -0.39501878163E+03  0.39501879454E+03  0.10100000352E+00 0. -1.
    10030    2    1    2    0    0  0.00000000000E+00  0.00000000000E+00  0.23964322403E+03  0.10296808082E+04  0.10014058578E+04 0.  0.
        5    1    3    3  502    0 -0.15790305660E+03  0.29251382753E+03  0.50480423186E+03  0.60443950655E+03  0.46999998093E+01 0.  1.
       -5    1    3    3    0  502  0.15790305660E+03 -0.29251382753E+03 -0.26516100783E+03  0.42524130168E+03  0.46999998093E+01 0. -1.
</event>
<event>
 5   0  0.1353789E-03  0.1003403E+04  0.7818609E-02  0.9304820E-01
        1   -1    0    0  501    0  0.00000000000E+00  0.00000000000E+00  0.56346873353E+03  0.56346873355E+03  0.50400001928E-02 0.  1.
       -1   -1    0    0    0  501  0.00000000000E+00  0.00000000000E+00 -0.44670507702E+03  0.44670507705E+03  0.50400001928E-02 0. -1.
    10030    2    1    2    0    0  0.00000000000E+00  0.00000000000E+00  0.11676365651E+03  0.10101738106E+04  0.10034028982E+04 0.  0.
        1    1    3    3  502    0 -0.15956987333E+03  0.79788762702E+02 -0.41369124158E+03  0.45052107000E+03  0.50400001928E-02 0. -1.
       -1    1    3    3    0  502  0.15956987333E+03 -0.79788762702E+02  0.53045489809E+03  0.55965274060E+03  0.50400001928E-02 0.  1.
</event>
<event>
 5   0  0.2277570E-03  0.1007583E+04  0.7818609E-02  0.9300267E-01
        2   -1    0    0  501    0  0.00000000000E+00  0.00000000000E+00  0.61461540833E+03  0.61461540834E+03  0.25500000920E-02 0.  1.
       -2   -1    0    0    0  501  0.00000000000E+00  0.00000000000E+00 -0.41295069757E+03  0.41295069758E+03  0.25500000920E-02 0. -1.
    10030    2    1    2    0    0  0.00000000000E+00  0.00000000000E+00  0.20166471076E+03  0.10275661059E+04  0.10075829725E+04 0.  0.
        3    1    3    3  502    0 -0.41929251945E+03 -0.17139962235E+03  0.32570906874E+03  0.55791617208E+03  0.10100000352E+00 0.  1.
       -3    1    3    3    0  502  0.41929251945E+03  0.17139962235E+03 -0.12404435798E+03  0.46964993384E+03  0.10100000352E+00 0. -1.
</event>
<event>
 5   0  0.1293716E-03  0.1000117E+04  0.7818609E-02  0.9308417E-01
       -1   -1    0    0    0  501  0.00000000000E+00  0.00000000000E+00  0.13629192512E+04  0.13629192512E+04  0.50400001928E-02 0.  1.
        1   -1    0    0  501    0  0.00000000000E+00  0.00000000000E+00 -0.18347256789E+03  0.18347256796E+03  0.50400001928E-02 0. -1.
    10030    2    1    2    0    0  0.00000000000E+00  0.00000000000E+00  0.11794466833E+04  0.15463918192E+04  0.10001165830E+04 0.  0.
        3    1    3    3  502    0  0.58327598208E+01  0.29985950975E+03 -0.28971024092E+02  0.30131225848E+03  0.10100000352E+00 0.  1.
       -3    1    3    3    0  502 -0.58327598208E+01 -0.29985950975E+03  0.12084177074E+04  0.12450795607E+04  0.10100000352E+00 0. -1.
</event>
<event>
 5   0  0.2255142E-03  0.9996535E+03  0.7818609E-02  0.9308925E-01
       -2   -1    0    0    0  501  0.00000000000E+00  0.00000000000E+00  0.11499371724E+03  0.11499371727E+03  0.25500000920E-02 0.  1.
        2   -1    0    0  501    0  0.00000000000E+00  0.00000000000E+00 -0.21725256404E+04  0.21725256404E+04  0.25500000920E-02 0. -1.
    10030    2    1    2    0    0  0.00000000000E+00  0.00000000000E+00 -0.20575319231E+04  0.22875193576E+04  0.99965353842E+03 0.  0.
        4    1    3    3  502    0 -0.15428259341E+03 -0.37641324687E+03 -0.36422838517E+03  0.54603477958E+03  0.12699999809E+01 0.  1.
       -4    1    3    3    0  502  0.15428259341E+03  0.37641324687E+03 -0.16933035379E+04  0.17414845780E+04  0.12699999809E+01 0. -1.
</event>
<event>
 5   0  0.2277570E-03  0.9923575E+03  0.7818609E-02  0.9316967E-01
        2   -1    0    0  501    0  0.00000000000E+00  0.00000000000E+00  0.92679788955E+03  0.92679788956E+03  0.25500000920E-02 0.  1.
       -2   -1    0    0    0  501  0.00000000000E+00  0.00000000000E+00 -0.26563864661E+03  0.26563864662E+03  0.25500000920E-02 0. -1.
    10030    2    1    2    0    0  0.00000000000E+00  0.00000000000E+00  0.66115924294E+03  0.11924365362E+04  0.99235747001E+03 0.  0.
        3    1    3    3  502    0 -0.45128215482E+02 -0.45069789134E+03  0.57397272397E+03  0.73117018754E+03  0.10100000352E+00 0. -1.
       -3    1    3    3    0  502  0.45128215482E+02  0.45069789134E+03  0.87186518975E+02  0.46126634864E+03  0.10100000352E+00 0.  1.
</event>
<event>
 5   0  0.2284843E-03  0.9972990E+03  0.7818609E-02  0.9311512E-01
       -2   -1    0    0    0  501  0.00000000000E+00  0.00000000000E+00  0.36502060373E+03  0.36502060374E+03  0.25500000920E-02 0.  1.
        2   -1    0    0  501    0  0.00000000000E+00  0.00000000000E+00 -0.68119806884E+03  0.68119806885E+03  0.25500000920E-02 0. -1.
    10030    2    1    2    0    0  0.00000000000E+00  0.00000000000E+00 -0.31617746511E+03  0.10462186726E+04  0.99729901305E+03 0.  0.
        2    1    3    3  502    0 -0.44130638589E+03 -0.19193165784E+03 -0.29511856830E+03  0.56452108629E+03  0.25500000920E-02 0. -1.
       -2    1    3    3    0  502  0.44130638589E+03  0.19193165784E+03 -0.21058896808E+02  0.48169758630E+03  0.25500000920E-02 0.  1.
</event>
<event>
 5   0  0.1285769E-03  0.1014450E+04  0.7818609E-02  0.9292836E-01
       -1   -1    0    0    0  501  0.00000000000E+00  0.00000000000E+00  0.15441746468E+03  0.15441746476E+03  0.50400001928E-02 0. -1.
        1   -1    0    0  501    0  0.00000000000E+00  0.00000000000E+00 -0.16661156891E+04  0.16661156891E+04  0.50400001928E-02 0.  1.
    10030    2    1    2    0    0  0.00000000000E+00  0.00000000000E+00 -0.15116982244E+04  0.18205331539E+04  0.10144503155E+04 0.  0.
        5    1    3    3  502    0  0.13978797370E+03  0.46548823856E+03 -0.10161298876E+04  0.11263933666E+04  0.46999998093E+01 0.  1.
       -5    1    3    3    0  502 -0.13978797370E+03 -0.46548823856E+03 -0.49556833680E+03  0.69413978726E+03  0.46999998093E+01 0. -1.
</event>
<event>
 5   0  0.1353789E-03  0.1002940E+04  0.7818609E-02  0.9305326E-01
        1   -1    0    0  501    0  0.00000000000E+00  0.00000000000E+00  0.12748269575E+04  0.12748269575E+04  0.50400001928E-02 0. -1.
       -1   -1    0    0    0  501  0.00000000000E+00  0.00000000000E+00 -0.19725995435E+03  0.19725995441E+03  0.50400001928E-02 0.  1.
    10030    2    1    2    0    0  0.00000000000E+00  0.00000000000E+00  0.10775670031E+04  0.14720869119E+04  0.10029402923E+04 0.  0.
        1    1    3    3  502    0  0.66906032803E+02  0.47727995982E+03  0.33540458228E+03  0.58717017219E+03  0.50400001928E-02 0.  1.
       -1    1    3    3    0  502 -0.66906032803E+02 -0.47727995982E+03  0.74216242082E+03  0.88491673969E+03  0.50400001928E-02 0. -1.
</event>
<event>
 5   0  0.2204862E-03  0.9985119E+03  0.7818609E-02  0.9310178E-01
       -2   -1    0    0    0  501  0.00000000000E+00  0.00000000000E+00  0.17961805969E+03  0.17961805971E+03  0.25500000920E-02 0.  1.
        2   -1    0    0  501    0  0.00000000000E+00  0.00000000000E+00 -0.13877028603E+04  0.13877028603E+04  0.25500000920E-02 0. -1.
    10030    2    1    2    0    0  0.00000000000E+00  0.00000000000E+00 -0.12080848006E+04  0.15673209200E+04  0.99851188315E+03 0.  0.
        1    1    3    3  502    0 -0.11981042340E+03  0.47470286024E+03 -0.75750917945E+03  0.90195204975E+03  0.50400001928E-02 0. -1.
       -1    1    3    3    0  502  0.11981042340E+03 -0.47470286024E+03 -0.45057562111E+03  0.66536887021E+03  0.50400001928E-02 0.  1.
</event>
<event>
 5   0  0.2255142E-03  0.9971287E+03  0.7818609E-02  0.9311700E-01
       -2   -1    0    0    0  501  0.00000000000E+00  0.00000000000E+00  0.21712959419E+03  0.21712959421E+03  0.25500000920E-02 0.  1.
        2   -1    0    0  501    0  0.00000000000E+00  0.00000000000E+00 -0.11447835482E+04  0.11447835482E+04  0.25500000920E-02 0. -1.
    10030    2    1    2    0    0  0.00000000000E+00  0.00000000000E+00 -0.92765395397E+03  0.13619131424E+04  0.99712865221E+03 0.  0.
        4    1    3    3  502    0  0.19666641960E+03 -0.17476261769E+03 -0.10422465740E+04  0.10749414807E+04  0.12699999809E+01 0. -1.
       -4    1    3    3    0  502 -0.19666641960E+03  0.17476261769E+03  0.11459261999E+03  0.28697166166E+03  0.12699999809E+01 0.  1.
</event>
<event>
 5   0  0.8680125E-04  0.9849136E+03  0.7818609E-02  0.9325248E-01
        4   -1    0    0  501    0  0.00000000000E+00  0.00000000000E+00  0.28285316204E+03  0.28285601316E+03  0.12699999809E+01 0.  1.
       -4   -1    0    0    0  501  0.00000000000E+00  0.00000000000E+00 -0.85737608011E+03  0.85737702072E+03  0.12699999809E+01 0. -1.
    10030    2    1    2    0    0  0.00000000000E+00  0.00000000000E+00 -0.57452291807E+03  0.11402330339E+04  0.98491359425E+03 0.  0.
        2    1    3    3  502    0  0.44429660318E+03 -0.20487987157E+03 -0.22240487976E+03  0.53743759072E+03  0.25500000920E-02 0. -1.
       -2    1    3    3    0  502 -0.44429660318E+03  0.20487987157E+03 -0.35211803831E+03  0.60279544315E+03  0.25500000920E-02 0.  1.
</event>
<event>
 5   0  0.2277570E-03  0.1014735E+04  0.7818609E-02  0.9292529E-01
        2   -1    0    0  501    0  0.00000000000E+00  0.00000000000E+00  0.35541782998E+03  0.35541782999E+03  0.25500000920E-02 0.  1.
       -2   -1    0    0    0  501  0.00000000000E+00  0.00000000000E+00 -0.72427994202E+03  0.72427994203E+03  0.25500000920E-02 0. -1.
    10030    2    1    2    0    0  0.00000000000E+00  0.00000000000E+00 -0.36886211205E+03  0.10796977720E+04  0.10147354439E+04 0.  0.
        3    1    3    3  502    0 -0.20330316423E+03  0.47080940594E+02 -0.67650181976E+03  0.70795728254E+03  0.10100000352E+00 0. -1.
       -3    1    3    3    0  502  0.20330316423E+03 -0.47080940594E+02  0.30763970772E+03  0.37174048948E+03  0.10100000352E+00 0.  1.
</event>
<event>
 5   0  0.2255142E-03  0.9986786E+03  0.7818609E-02  0.9309995E-01
       -2   -1    0    0    0  501  0.00000000000E+00  0.00000000000E+00  0.40252701095E+03  0.40252701095E+03  0.25500000920E-02 0. -1.
        2   -1    0    0  501    0  0.00000000000E+00  0.00000000000E+00 -0.61943597614E+03  0.61943597615E+03  0.25500000920E-02 0.  1.
    10030    2    1    2    0    0  0.00000000000E+00  0.00000000000E+00 -0.21690896520E+03  0.10219629871E+04  0.99867855080E+03 0.  0.
        4    1    3    3  502    0  0.25799255413E+03 -0.36204354685E+03  0.12422861867E+03  0.46159511523E+03  0.12699999809E+01 0. -1.
       -4    1    3    3    0  502 -0.25799255413E+03  0.36204354685E+03 -0.34113758387E+03  0.56036787188E+03  0.12699999809E+01 0.  1.
</event>
<event>
 5   0  0.8680125E-04  0.1000363E+04  0.7818609E-02  0.9308147E-01
        3   -1    0    0  501    0  0.00000000000E+00  0.00000000000E+00  0.48785814972E+03  0.48785816017E+03  0.10100000352E+00 0. -1.
       -3   -1    0    0    0  501  0.00000000000E+00  0.00000000000E+00 -0.51281602398E+03  0.51281603392E+03  0.10100000352E+00 0.  1.
    10030    2    1    2    0    0  0.00000000000E+00  0.00000000000E+00 -0.24957874262E+02  0.10006741941E+04  0.10003629078E+04 0.  0.
        5    1    3    3  502    0  0.46610414133E+03  0.12340493557E+03 -0.14547725065E+03  0.50365421585E+03  0.46999998093E+01 0. -1.
       -5    1    3    3    0  502 -0.46610414133E+03 -0.12340493557E+03  0.12051937639E+03  0.49701997824E+03  0.46999998093E+01 0.  1.
</event>
<event>
 5   0  0.1285769E-03  0.1007318E+04  0.7818609E-02  0.9300555E-01
       -1   -1    0    0    0  501  0.00000000000E+00  0.00000000000E+00  0.28012891936E+03  0.28012891940E+03  0.50400001928E-02 0.  1.
        1   -1    0    0  501    0  0.00000000000E+00  0.00000000000E+00 -0.90555562295E+03  0.90555562296E+03  0.50400001928E-02 0. -1.
    10030    2    1    2    0    0  0.00000000000E+00  0.00000000000E+00 -0.62542670359E+03  0.11856845424E+04  0.10073178607E+04 0.  0.
        5    1    3    3  502    0  0.32433892323E+03 -0.26879285470E+03 -0.63764652388E+03  0.76423851989E+03  0.46999998093E+01 0. -1.
       -5    1    3    3    0  502 -0.32433892323E+03  0.26879285470E+03  0.12219820288E+02  0.42144602248E+03  0.46999998093E+01 0.  1.
</event>
<event>
 5   0  0.1249195E-03  0.9978629E+03  0.7818609E-02  0.9310892E-01
        1   -1    0    0  501    0  0.00000000000E+00  0.00000000000E+00  0.13688886508E+04  0.13688886508E+04  0.50400001928E-02 0. -1.
       -1   -1    0    0    0  501  0.00000000000E+00  0.00000000000E+00 -0.18185014811E+03  0.18185014818E+03  0.50400001928E-02 0.  1.
    10030    2    1    2    0    0  0.00000000000E+00  0.00000000000E+00  0.11870385026E+04  0.15507387989E+04  0.99786292435E+03 0.  0.
        2    1    3    3  502    0 -0.35222148981E+03 -0.33560739005E+03  0.76545409584E+03  0.90697975225E+03  0.25500000920E-02 0. -1.
       -2    1    3    3    0  502  0.35222148981E+03  0.33560739005E+03  0.42158440680E+03  0.64375904669E+03  0.25500000920E-02 0.  1.
</event>
<event>
 5   0  0.8680125E-04  0.9985108E+03  0.7818609E-02  0.9310180E-01
        3   -1    0    0  501    0  0.00000000000E+00  0.00000000000E+00  0.12895339604E+04  0.12895339644E+04  0.10100000352E+00 0. -1.
       -3   -1    0    0    0  501  0.00000000000E+00  0.00000000000E+00 -0.19329149870E+03  0.19329152509E+03  0.10100000352E+00 0.  1.
    10030    2    1    2    0    0  0.00000000000E+00  0.00000000000E+00  0.10962424617E+04  0.14828254895E+04  0.99851083987E+03 0.  0.
        3    1    3    3  502    0 -0.19367386282E+03  0.36358631112E+02 -0.13309558212E+03  0.23779394311E+03  0.10100000352E+00 0.  1.
       -3    1    3    3    0  502  0.19367386282E+03 -0.36358631112E+02  0.12293380438E+04  0.12450315464E+04  0.10100000352E+00 0. -1.
</event>
<event>
 5   0  0.2255142E-03  0.9990829E+03  0.7818609E-02  0.9309551E-01
        2   -1    0    0  501    0  0.00000000000E+00  0.00000000000E+00  0.75712329973E+03  0.75712329974E+03  0.25500000920E-02 0. -1.
       -2   -1    0    0    0  501  0.00000000000E+00  0.00000000000E+00 -0.32959180670E+03  0.32959180671E+03  0.25500000920E-02 0.  1.
    10030    2    1    2    0    0  0.00000000000E+00  0.00000000000E+00  0.42753149304E+03  0.10867151064E+04  0.99908285194E+03 0.  0.
        4    1    3    3  502    0  0.26203444082E+03 -0.35940576814E+03  0.46109896010E+03  0.64066248388E+03  0.12699999809E+01 0. -1.
       -4    1    3    3    0  502 -0.26203444082E+03  0.35940576814E+03 -0.33567467065E+02  0.44605262256E+03  0.12699999809E+01 0.  1.
</event>
<event>
 5   0  0.2277570E-03  0.9990499E+03  0.7818609E-02  0.9309587E-01
        2   -1    0    0  501    0  0.00000000000E+00  0.00000000000E+00  0.13409973708E+04  0.13409973708E+04  0.25500000920E-02 0. -1.
       -2   -1    0    0    0  501  0.00000000000E+00  0.00000000000E+00 -0.18607432282E+03  0.18607432284E+03  0.25500000920E-02 0.  1.
    10030    2    1    2    0    0  0.00000000000E+00  0.00000000000E+00  0.11549230480E+04  0.15270716936E+04  0.99904990405E+03 0.  0.
        3    1    3    3  502    0 -0.48725407732E+03 -0.10717827144E+01  0.74565113913E+03  0.89073751244E+03  0.10100000352E+00 0. -1.
       -3    1    3    3    0  502  0.48725407732E+03  0.10717827144E+01  0.40927190884E+03  0.63633418119E+03  0.10100000352E+00 0.  1.
</event>
<event>
 5   0  0.1285769E-03  0.1002341E+04  0.7818609E-02  0.9305981E-01
        1   -1    0    0  501    0  0.00000000000E+00  0.00000000000E+00  0.33016257487E+03  0.33016257491E+03  0.50400001928E-02 0. -1.
       -1   -1    0    0    0  501  0.00000000000E+00  0.00000000000E+00 -0.76075181730E+03  0.76075181732E+03  0.50400001928E-02 0.  1.
    10030    2    1    2    0    0  0.00000000000E+00  0.00000000000E+00 -0.43058924243E+03  0.10909143922E+04  0.10023408180E+04 0.  0.
        5    1    3    3  502    0  0.20675763048E+03 -0.22546346386E+03  0.21672966411E+03  0.37493509919E+03  0.46999998093E+01 0. -1.
       -5    1    3    3    0  502 -0.20675763048E+03  0.22546346386E+03 -0.64731890654E+03  0.71597929304E+03  0.46999998093E+01 0.  1.
</event>
<event>
 5   0  0.2284843E-03  0.9980235E+03  0.7818609E-02  0.9310715E-01
        2   -1    0    0  501    0  0.00000000000E+00  0.00000000000E+00  0.91242127973E+03  0.91242127973E+03  0.25500000920E-02 0. -1.
       -2   -1    0    0    0  501  0.00000000000E+00  0.00000000000E+00 -0.27291422947E+03  0.27291422948E+03  0.25500000920E-02 0.  1.
    10030    2    1    2    0    0  0.00000000000E+00  0.00000000000E+00  0.63950705026E+03  0.11853355092E+04  0.99802354785E+03 0.  0.
        2    1    3    3  502    0  0.52777572907E+02  0.25843014140E+02 -0.26879029409E+03  0.27513915713E+03  0.25500000920E-02 0.  1.
       -2    1    3    3    0  502 -0.52777572907E+02 -0.25843014140E+02  0.90829734435E+03  0.91019635208E+03  0.25500000920E-02 0. -1.
</event>
<event>
 5   0  0.2255142E-03  0.9975796E+03  0.7818609E-02  0.9311203E-01
       -2   -1    0    0    0  501  0.00000000000E+00  0.00000000000E+00  0.96972908388E+02  0.96972908421E+02  0.25500000920E-02 0. -1.
        2   -1    0    0  501    0  0.00000000000E+00  0.00000000000E+00 -0.25655749202E+04  0.25655749202E+04  0.25500000920E-02 0.  1.
    10030    2    1    2    0    0  0.00000000000E+00  0.00000000000E+00 -0.24686020118E+04  0.26625478287E+04  0.99757959431E+03 0.  0.
        4    1    3    3  502    0  0.26531937458E+03  0.34447297605E+03 -0.58198298444E+03  0.72647216660E+03  0.12699999809E+01 0. -1.
       -4    1    3    3    0  502 -0.26531937458E+03 -0.34447297605E+03 -0.18866190274E+04  0.19360756621E+04  0.12699999809E+01 0.  1.
</event>
<event>
 5   0  0.1353789E-03  0.1000330E+04  0.7818609E-02  0.9308183E-01
        1   -1    0    0  501    0  0.00000000000E+00  0.00000000000E+00  0.78631604031E+03  0.78631604033E+03  0.50400001928E-02 0. -1.
       -1   -1    0    0    0  501  0.00000000000E+00  0.00000000000E+00 -0.31814795306E+03  0.31814795310E+03  0.50400001928E-02 0.  1.
    10030    2    1    2    0    0  0.00000000000E+00  0.00000000000E+00  0.46816808725E+03  0.11044639934E+04  0.10003296231E+04 0.  0.
        1    1    3    3  502    0 -0.42776642223E+02  0.92756652681E+01  0.78419735086E+03  0.78541795511E+03  0.50400001928E-02 0. -1.
       -1    1    3    3    0  502  0.42776642223E+02 -0.92756652681E+01 -0.31602926361E+03  0.31904603832E+03  0.50400001928E-02 0.  1.
</event>
<event>
 5   0  0.2284843E-03  0.1005938E+04  0.7818609E-02  0.9302056E-01
        2   -1    0    0  501    0  0.00000000000E+00  0.00000000000E+00  0.63205106839E+03  0.63205106839E+03  0.25500000920E-02 0.  1.
       -2   -1    0    0    0  501  0.00000000000E+00  0.00000000000E+00 -0.40024919977E+03  0.40024919978E+03  0.25500000920E-02 0. -1.
    10030    2    1    2    0    0  0.00000000000E+00  0.00000000000E+00  0.23180186862E+03  0.10323002682E+04  0.10059382374E+04 0.  0.
        2    1    3    3  502    0 -0.46045959772E+02  0.49376915161E+03  0.20206395778E+03  0.53549794447E+03  0.25500000920E-02 0.  1.
       -2    1    3    3    0  502  0.46045959772E+02 -0.49376915161E+03  0.29737910834E+02  0.49680232370E+03  0.25500000920E-02 0. -1.
</event>
<event>
 5   0  0.1285769E-03  0.1002430E+04  0.7818609E-02  0.9305883E-01
       -1   -1    0    0    0  501  0.00000000000E+00  0.00000000000E+00  0.64853773523E+03  0.64853773525E+03  0.50400001928E-02 0.  1.
        1   -1    0    0  501    0  0.00000000000E+00  0.00000000000E+00 -0.38735849622E+03  0.38735849625E+03  0.50400001928E-02 0. -1.
    10030    2    1    2    0    0  0.00000000000E+00  0.00000000000E+00  0.26117923901E+03  0.10358962315E+04  0.10024302507E+04 0.  0.
        5    1    3    3  502    0 -0.18170229880E+03 -0.24612510399E+03 -0.27965403870E+03  0.41451388827E+03  0.46999998093E+01 0. -1.
       -5    1    3    3    0  502  0.18170229880E+03  0.24612510399E+03  0.54083327771E+03  0.62138234324E+03  0.46999998093E+01 0.  1.
</event>
<event>
 5   0  0.8680125E-04  0.9968753E+03  0.7818609E-02  0.9311979E-01
        3   -1    0    0  501    0  0.00000000000E+00  0.00000000000E+00  0.15326396488E+04  0.15326396522E+04  0.10100000352E+00 0.  1.
       -3   -1    0    0    0  501  0.00000000000E+00  0.00000000000E+00 -0.16209946592E+03  0.16209949738E+03  0.10100000352E+00 0. -1.
    10030    2    1    2    0    0  0.00000000000E+00  0.00000000000E+00  0.13705401829E+04  0.16947391496E+04  0.99687531418E+03 0.  0.
        1    1    3    3  502    0 -0.13998707435E+03  0.19015063826E+03  0.14315257035E+04  0.14508685282E+04  0.50400001928E-02 0.  1.
       -1    1    3    3    0  502  0.13998707435E+03 -0.19015063826E+03 -0.60985520596E+02  0.24387062136E+03  0.50400001928E-02 0. -1.
</event>
<event>
 5   0  0.1353789E-03  0.1016388E+04  0.7818609E-02  0.9290751E-01
       -1   -1    0    0    0  501  0.00000000000E+00  0.00000000000E+00  0.72604267920E+03  0.72604267922E+03  0.50400001928E-02 0. -1.
        1   -1    0    0  501    0  0.00000000000E+00  0.00000000000E+00 -0.35571087196E+03  0.35571087200E+03  0.50400001928E-02 0.  1.
    10030    2    1    2    0    0  0.00000000000E+00  0.00000000000E+00  0.37033180724E+03  0.10817535512E+04  0.10163882615E+04 0.  0.
        1    1    3    3  502    0 -0.14291880579E+03 -0.16992958499E+02 -0.33356630674E+03  0.36329193041E+03  0.50400001928E-02 0.  1.
       -1    1    3    3    0  502  0.14291880579E+03  0.16992958499E+02  0.70389811398E+03  0.71846162081E+03  0.50400001928E-02 0. -1.
</event>
<event>
 5   0  0.2264577E-03  0.9978775E+03  0.7818609E-02  0.9310876E-01
       -2   -1    0    0    0  501  0.00000000000E+00  0.00000000000E+00  0.13981875098E+03  0.13981875100E+03  0.25500000920E-02 0. -1.
        2   -1    0    0  501    0  0.00000000000E+00  0.00000000000E+00 -0.17804471011E+04  0.17804471011E+04  0.25500000920E-02 0.  1.
    10030    2    1    2    0    0  0.00000000000E+00  0.00000000000E+00 -0.16406283502E+04  0.19202658521E+04  0.99787752734E+03 0.  0.
        5    1    3    3  502    0 -0.64773437605E+02  0.44931310402E+03 -0.42201580919E+03  0.61983650817E+03  0.46999998093E+01 0. -1.
       -5    1    3    3    0  502  0.64773437605E+02 -0.44931310402E+03 -0.12186125410E+04  0.13004293440E+04  0.46999998093E+01 0.  1.
</event>
<event>
 5   0  0.1285769E-03  0.9978455E+03  0.7818609E-02  0.9310911E-01
        1   -1    0    0  501    0  0.00000000000E+00  0.00000000000E+00  0.24829828245E+03  0.24829828250E+03  0.50400001928E-02 0. -1.
       -1   -1    0    0    0  501  0.00000000000E+00  0.00000000000E+00 -0.10025196590E+04  0.10025196590E+04  0.50400001928E-02 0.  1.
    10030    2    1    2    0    0  0.00000000000E+00  0.00000000000E+00 -0.75422137650E+03  0.12508179415E+04  0.99784549803E+03 0.  0.
        5    1    3    3  502    0  0.35555460266E+02  0.28375259267E+03  0.13533487249E+03  0.31641324611E+03  0.46999998093E+01 0. -1.
       -5    1    3    3    0  502 -0.35555460266E+02 -0.28375259267E+03 -0.88955624900E+03  0.93440469537E+03  0.46999998093E+01 0.  1.
</event>
<event>
 5   0  0.2277570E-03  0.9973250E+03  0.7818609E-02  0.9311484E-01
       -2   -1    0    0    0  501  0.00000000000E+00  0.00000000000E+00  0.20401973547E+03  0.20401973549E+03  0.25500000920E-02 0.  1.
        2   -1    0    0  501    0  0.00000000000E+00  0.00000000000E+00 -0.12188246847E+04  0.12188246847E+04  0.25500000920E-02 0. -1.
    10030    2    1    2    0    0  0.00000000000E+00  0.00000000000E+00 -0.10148049492E+04  0.14228444202E+04  0.99732500173E+03 0.  0.
        3    1    3    3  502    0  0.31197875608E+03  0.35080456848E+03 -0.74727540027E+03  0.88250502750E+03  0.10100000352E+00 0.  1.
       -3    1    3    3    0  502 -0.31197875608E+03 -0.35080456848E+03 -0.26752954892E+03  0.54033939266E+03  0.10100000352E+00 0. -1.
</event>
<event>
 5   0  0.1353789E-03  0.9931072E+03  0.7818609E-02  0.9316137E-01
        1   -1    0    0  501    0  0.00000000000E+00  0.00000000000E+00  0.15897287431E+04  0.15897287431E+04  0.50400001928E-02 0.  1.
       -1   -1    0    0    0  501  0.00000000000E+00  0.00000000000E+00 -0.15509910154E+03  0.15509910162E+03  0.50400001928E-02 0. -1.
    10030    2    1    2    0    0  0.00000000000E+00  0.00000000000E+00  0.14346296416E+04  0.17448278447E+04  0.99310724461E+03 0.  0.
        1    1    3    3  502    0 -0.30196925387E+03 -0.12579607397E+03  0.13736561966E+04  0.14120699094E+04  0.50400001928E-02 0.  1.
       -1    1    3    3    0  502  0.30196925387E+03  0.12579607397E+03  0.60973444946E+02  0.33275793533E+03  0.50400001928E-02 0. -1.
</event>
<event>
 5   0  0.1293716E-03  0.1001241E+04  0.7818609E-02  0.9307184E-01
       -1   -1    0    0    0  501  0.00000000000E+00  0.00000000000E+00  0.34790773397E+03  0.34790773401E+03  0.50400001928E-02 0.  1.
        1   -1    0    0  501    0  0.00000000000E+00  0.00000000000E+00 -0.72036653544E+03  0.72036653546E+03  0.50400001928E-02 0. -1.
    10030    2    1    2    0    0  0.00000000000E+00  0.00000000000E+00 -0.37245880147E+03  0.10682742695E+04  0.10012414075E+04 0.  0.
        3    1    3    3  502    0 -0.87658449480E+01 -0.48424617765E+03 -0.32139925216E+03  0.58126473323E+03  0.10100000352E+00 0. -1.
       -3    1    3    3    0  502  0.87658449480E+01  0.48424617765E+03 -0.51059549310E+02  0.48700953624E+03  0.10100000352E+00 0.  1.
</event>
<event>
 5   0  0.2277570E-03  0.9999668E+03  0.7818609E-02  0.9308581E-01
       -2   -1    0    0    0  501  0.00000000000E+00  0.00000000000E+00  0.18240680583E+03  0.18240680584E+03  0.25500000920E-02 0.  1.
        2   -1    0    0  501    0  0.00000000000E+00  0.00000000000E+00 -0.13704719809E+04  0.13704719809E+04  0.25500000920E-02 0. -1.
    10030    2    1    2    0    0  0.00000000000E+00  0.00000000000E+00 -0.11880651751E+04  0.15528787867E+04  0.99996683250E+03 0.  0.
        3    1    3    3  502    0 -0.22723730302E+03  0.32814724412E+03 -0.10616322526E+04  0.11341871343E+04  0.10100000352E+00 0. -1.
       -3    1    3    3    0  502  0.22723730302E+03 -0.32814724412E+03 -0.12643292245E+03  0.41869165240E+03  0.10100000352E+00 0.  1.
</event>
<event>
 5   0  0.2264577E-03  0.9971317E+03  0.7818609E-02  0.9311696E-01
       -2   -1    0    0    0  501  0.00000000000E+00  0.00000000000E+00  0.35322022045E+03  0.35322022046E+03  0.25500000920E-02 0.  1.
        2   -1    0    0  501    0  0.00000000000E+00  0.00000000000E+00 -0.70371930743E+03  0.70371930744E+03  0.25500000920E-02 0. -1.
    10030    2    1    2    0    0  0.00000000000E+00  0.00000000000E+00 -0.35049908698E+03  0.10569395279E+04  0.99713166416E+03 0.  0.
        5    1    3    3  502    0  0.43643534705E+03  0.47280514475E+02 -0.42571572957E+03  0.61152860244E+03  0.46999998093E+01 0. -1.
       -5    1    3    3    0  502 -0.43643534705E+03 -0.47280514475E+02  0.75216642590E+02  0.44541092546E+03  0.46999998093E+01 0.  1.
</event>
<event>
 5   0  0.2264577E-03  0.1003746E+04  0.7818609E-02  0.9304445E-01
        2   -1    0    0  501    0  0.00000000000E+00  0.00000000000E+00  0.11853096841E+04  0.11853096841E+04  0.25500000920E-02 0.  1.
       -2   -1    0    0    0  501  0.00000000000E+00  0.00000000000E+00 -0.21249859799E+03  0.21249859800E+03  0.25500000920E-02 0. -1.
    10030    2    1    2    0    0  0.00000000000E+00  0.00000000000E+00  0.97281108614E+03  0.13978082821E+04  0.10037462749E+04 0.  0.
        5    1    3    3  502    0 -0.40822383397E+03  0.25515626171E+03  0.28895623929E+03  0.56148839234E+03  0.46999998093E+01 0. -1.
       -5    1    3    3    0  502  0.40822383397E+03 -0.25515626171E+03  0.68385484685E+03  0.83631988979E+03  0.46999998093E+01 0.  1.
</event>
<event>
 5   0  0.1293575E-03  0.9895830E+03  0.7818609E-02  0.9320044E-01
        1   -1    0    0  501    0  0.00000000000E+00  0.00000000000E+00  0.83341917756E+03  0.83341917758E+03  0.50400001928E-02 0. -1.
       -1   -1    0    0    0  501  0.00000000000E+00  0.00000000000E+00 -0.29375207588E+03  0.29375207592E+03  0.50400001928E-02 0.  1.
    10030    2    1    2    0    0  0.00000000000E+00  0.00000000000E+00  0.53966710169E+03  0.11271712535E+04  0.98958296977E+03 0.  0.
        4    1    3    3  502    0  0.23887571723E+03 -0.33574224916E+03 -0.42172128788E+02  0.41420353391E+03  0.12699999809E+01 0.  1.
       -4    1    3    3    0  502 -0.23887571723E+03  0.33574224916E+03  0.58183923047E+03  0.71296771959E+03  0.12699999809E+01 0. -1.
</event>
<event>
 5   0  0.1285769E-03  0.9952912E+03  0.7818609E-02  0.9313724E-01
       -1   -1    0    0    0  501  0.00000000000E+00  0.00000000000E+00  0.19553977120E+03  0.19553977126E+03  0.50400001928E-02 0. -1.
        1   -1    0    0  501    0  0.00000000000E+00  0.00000000000E+00 -0.12665001296E+04  0.12665001297E+04  0.50400001928E-02 0.  1.
    10030    2    1    2    0    0  0.00000000000E+00  0.00000000000E+00 -0.10709603585E+04  0.14620399009E+04  0.99529120488E+03 0.  0.
        5    1    3    3  502    0 -0.46966314987E+03 -0.36567844471E+02 -0.77101025065E+03  0.90354832644E+03  0.46999998093E+01 0.  1.
       -5    1    3    3    0  502  0.46966314987E+03  0.36567844471E+02 -0.29995010780E+03  0.55849157448E+03  0.46999998093E+01 0. -1.
</event>
<event>
 5   0  0.1293575E-03  0.1003558E+04  0.7818609E-02  0.9304652E-01
       -1   -1    0    0    0  501  0.00000000000E+00  0.00000000000E+00  0.14970225837E+04  0.14970225837E+04  0.50400001928E-02 0.  1.
        1   -1    0    0  501    0  0.00000000000E+00  0.00000000000E+00 -0.16818846443E+03  0.16818846451E+03  0.50400001928E-02 0. -1.
    10030    2    1    2    0    0  0.00000000000E+00  0.00000000000E+00  0.13288341193E+04  0.16652110482E+04  0.10035575313E+04 0.  0.
        4    1    3    3  502    0  0.55162611804E+02  0.43151542635E+03  0.24948440690E+03  0.50149033800E+03  0.12699999809E+01 0. -1.
       -4    1    3    3    0  502 -0.55162611804E+02 -0.43151542635E+03  0.10793497124E+04  0.11637207102E+04  0.12699999809E+01 0.  1.
</event>
<event>
 5   0  0.1353789E-03  0.1000698E+04  0.7818609E-02  0.9307780E-01
       -1   -1    0    0    0  501  0.00000000000E+00  0.00000000000E+00  0.33290217584E+03  0.33290217588E+03  0.50400001928E-02 0.  1.
        1   -1    0    0  501    0  0.00000000000E+00  0.00000000000E+00 -0.75202000456E+03  0.75202000457E+03  0.50400001928E-02 0. -1.
    10030    2    1    2    0    0  0.00000000000E+00  0.00000000000E+00 -0.41911782872E+03  0.10849221805E+04  0.10006979481E+04 0.  0.
        1    1    3    3  502    0 -0.18197139978E+03  0.59451521106E+02 -0.71074485377E+03  0.73607494244E+03  0.50400001928E-02 0. -1.
       -1    1    3    3    0  502  0.18197139978E+03 -0.59451521106E+02  0.29162702506E+03  0.34884723801E+03  0.50400001928E-02 0.  1.
</event>
<event>
 5   0  0.8680125E-04  0.1000640E+04  0.7818609E-02  0.9307844E-01
        3   -1    0    0  501    0  0.00000000000E+00  0.00000000000E+00  0.18580151573E+03  0.18580154319E+03  0.10100000352E+00 0. -1.
       -3   -1    0    0    0  501  0.00000000000E+00  0.00000000000E+00 -0.13472436398E+04  0.13472436436E+04  0.10100000352E+00 0.  1.
    10030    2    1    2    0    0  0.00000000000E+00  0.00000000000E+00 -0.11614421240E+04  0.15330451867E+04  0.10006396640E+04 0.  0.
        5    1    3    3  502    0  0.11726013048E+03 -0.48414691814E+03 -0.65175451242E+03  0.82033786394E+03  0.46999998093E+01 0.  1.
       -5    1    3    3    0  502 -0.11726013048E+03  0.48414691814E+03 -0.50968761161E+03  0.71270732280E+03  0.46999998093E+01 0. -1.
</event>
<event>
 5   0  0.1293575E-03  0.1000343E+04  0.7818609E-02  0.9308169E-01
       -1   -1    0    0    0  501  0.00000000000E+00  0.00000000000E+00  0.44819011317E+03  0.44819011320E+03  0.50400001928E-02 0.  1.
        1   -1    0    0  501    0  0.00000000000E+00  0.00000000000E+00 -0.55818185524E+03  0.55818185526E+03  0.50400001928E-02 0. -1.
    10030    2    1    2    0    0  0.00000000000E+00  0.00000000000E+00 -0.10999174207E+03  0.10063719685E+04  0.10003431189E+04 0.  0.
        4    1    3    3  502    0 -0.29175894016E+03  0.32772230933E+03  0.18654440230E+03  0.47678676379E+03  0.12699999809E+01 0. -1.
       -4    1    3    3    0  502  0.29175894016E+03 -0.32772230933E+03 -0.29653614436E+03  0.52958520467E+03  0.12699999809E+01 0.  1.
</event>
<event>
 5   0  0.2277570E-03  0.9941496E+03  0.7818609E-02  0.9314985E-01
        2   -1    0    0  501    0  0.00000000000E+00  0.00000000000E+00  0.93972058003E+03  0.93972058003E+03  0.25500000920E-02 0. -1.
       -2   -1    0    0    0  501  0.00000000000E+00  0.00000000000E+00 -0.26293276984E+03  0.26293276986E+03  0.25500000920E-02 0.  1.
    10030    2    1    2    0    0  0.00000000000E+00  0.00000000000E+00  0.67678781018E+03  0.12026533499E+04  0.99414955615E+03 0.  0.
        3    1    3    3  502    0  0.23259454745E+02  0.43289537860E+03  0.44193157296E+02  0.43576651592E+03  0.10100000352E+00 0.  1.
       -3    1    3    3    0  502 -0.23259454745E+02 -0.43289537860E+03  0.63259465289E+03  0.76688683397E+03  0.10100000352E+00 0. -1.
</event>
<event>
 5   0  0.2264577E-03  0.9989202E+03  0.7818609E-02  0.9309730E-01
       -2   -1    0    0    0  501  0.00000000000E+00  0.00000000000E+00  0.47885095329E+03  0.47885095330E+03  0.25500000920E-02 0. -1.
        2   -1    0    0  501    0  0.00000000000E+00  0.00000000000E+00 -0.52095624379E+03  0.52095624380E+03  0.25500000920E-02 0.  1.
    10030    2    1    2    0    0  0.00000000000E+00  0.00000000000E+00 -0.42105290499E+02  0.99980719710E+03  0.99892020496E+03 0.  0.
        5    1    3    3  502    0  0.21292030630E+03  0.12079190200E+03 -0.45676960463E+03  0.51825312554E+03  0.46999998093E+01 0.  1.
       -5    1    3    3    0  502 -0.21292030630E+03 -0.12079190200E+03  0.41466431413E+03  0.48155407156E+03  0.46999998093E+01 0. -1.
</event>
<event>
 5   0  0.2264577E-03  0.9994566E+03  0.7818609E-02  0.9309141E-01
       -2   -1    0    0    0  501  0.00000000000E+00  0.00000000000E+00  0.13560435470E+03  0.13560435472E+03  0.25500000920E-02 0.  1.
        2   -1    0    0  501    0  0.00000000000E+00  0.00000000000E+00 -0.18415956018E+04  0.18415956018E+04  0.25500000920E-02 0. -1.
    10030    2    1    2    0    0  0.00000000000E+00  0.00000000000E+00 -0.17059912471E+04  0.19771999565E+04  0.99945661880E+03 0.  0.
        5    1    3    3  502    0  0.29038280619E+02 -0.48635829500E+03 -0.10725634674E+04  0.11780501239E+04  0.46999998093E+01 0. -1.
       -5    1    3    3    0  502 -0.29038280619E+02  0.48635829500E+03 -0.63342777970E+03  0.79914983261E+03  0.46999998093E+01 0.  1.
</event>
<event>
 5   0  0.1353789E-03  0.1000744E+04  0.7818609E-02  0.9307729E-01
        1   -1    0    0  501    0  0.00000000000E+00  0.00000000000E+00  0.37624269891E+03  0.37624269895E+03  0.50400001928E-02 0.  1.
       -1   -1    0    0    0  501  0.00000000000E+00  0.00000000000E+00 -0.66545410397E+03  0.66545410399E+03  0.50400001928E-02 0. -1.
    10030    2    1    2    0    0  0.00000000000E+00  0.00000000000E+00 -0.28921140506E+03  0.10416968029E+04  0.10007442193E+04 0.  0.
        1    1    3    3  502    0  0.28093511033E+03 -0.36233932781E+03 -0.35320068829E+03  0.57876165296E+03  0.50400001928E-02 0.  1.
       -1    1    3    3    0  502 -0.28093511033E+03  0.36233932781E+03  0.63989283234E+02  0.46293514998E+03  0.50400001928E-02 0. -1.
</event>
<event>
 5   0  0.2204862E-03  0.9986007E+03  0.7818609E-02  0.9310081E-01
        2   -1    0    0  501    0  0.00000000000E+00  0.00000000000E+00  0.79942979184E+03  0.79942979185E+03  0.25500000920E-02 0. -1.
       -2   -1    0    0    0  501  0.00000000000E+00  0.00000000000E+00 -0.31184835232E+03  0.31184835233E+03  0.25500000920E-02 0.  1.
    10030    2    1    2    0    0  0.00000000000E+00  0.00000000000E+00  0.48758143952E+03  0.11112781442E+04  0.99860074783E+03 0.  0.
        1    1    3    3  502    0 -0.29322663281E+03  0.29088698558E+03  0.55598766211E+03  0.69261777122E+03  0.50400001928E-02 0. -1.
       -1    1    3    3    0  502  0.29322663281E+03 -0.29088698558E+03 -0.68406222595E+02  0.41866037296E+03  0.50400001928E-02 0.  1.
</event>
<event>
 5   0  0.2204862E-03  0.9981763E+03  0.7818609E-02  0.9310547E-01
       -2   -1    0    0    0  501  0.00000000000E+00  0.00000000000E+00  0.21953467776E+03  0.21953467777E+03  0.25500000920E-02 0. -1.
        2   -1    0    0  501    0  0.00000000000E+00  0.00000000000E+00 -0.11346225090E+04  0.11346225090E+04  0.25500000920E-02 0.  1.
    10030    2    1    2    0    0  0.00000000000E+00  0.00000000000E+00 -0.91508783121E+03  0.13541571867E+04  0.99817631087E+03 0.  0.
        1    1    3    3  502    0  0.26855341162E+03 -0.30963212293E+03 -0.84387667678E+03  0.93814755347E+03  0.50400001928E-02 0.  1.
       -1    1    3    3    0  502 -0.26855341162E+03  0.30963212293E+03 -0.71211154431E+02  0.41600963328E+03  0.50400001928E-02 0. -1.
</event>
<event>
 5   0  0.1293716E-03  0.9994462E+03  0.7818609E-02  0.9309152E-01
       -1   -1    0    0    0  501  0.00000000000E+00  0.00000000000E+00  0.42695010134E+03  0.42695010137E+03  0.50400001928E-02 0.  1.
        1   -1    0    0  501    0  0.00000000000E+00  0.00000000000E+00 -0.58490013685E+03  0.58490013687E+03  0.50400001928E-02 0. -1.
    10030    2    1    2    0    0  0.00000000000E+00  0.00000000000E+00 -0.15795003550E+03  0.10118502382E+04  0.99944619210E+03 0.  0.
        3    1    3    3  502    0  0.10272216093E+03 -0.39846890962E+03  0.20808204021E+03  0.46111545185E+03  0.10100000352E+00 0.  1.
       -3    1    3    3    0  502 -0.10272216093E+03  0.39846890962E+03 -0.36603207571E+03  0.55073478638E+03  0.10100000352E+00 0. -1.
</event>
<event>
 5   0  0.2255142E-03  0.9981481E+03  0.7818609E-02  0.9310578E-01
        2   -1    0    0  501    0  0.00000000000E+00  0.00000000000E+00  0.13195226604E+04  0.13195226604E+04  0.25500000920E-02 0. -1.
       -2   -1    0    0    0  501  0.00000000000E+00  0.00000000000E+00 -0.18876136226E+03  0.18876136228E+03  0.25500000920E-02 0.  1.
    10030    2    1    2    0    0  0.00000000000E+00  0.00000000000E+00  0.11307612982E+04  0.15082840227E+04  0.99814807506E+03 0.  0.
        4    1    3    3  502    0  0.29259338402E+03 -0.55446527156E+02 -0.39784899638E+02  0.30044909200E+03  0.12699999809E+01 0.  1.
       -4    1    3    3    0  502 -0.29259338402E+03  0.55446527156E+02  0.11705461978E+04  0.12078349307E+04  0.12699999809E+01 0. -1.
</event>
<event>
 5   0  0.1249195E-03  0.9974132E+03  0.7818609E-02  0.9311387E-01
        1   -1    0    0  501    0  0.00000000000E+00  0.00000000000E+00  0.32715994332E+03  0.32715994335E+03  0.50400001928E-02 0.  1.
       -1   -1    0    0    0  501  0.00000000000E+00  0.00000000000E+00 -0.76020389444E+03  0.76020389446E+03  0.50400001928E-02 0. -1.
    10030    2    1    2    0    0  0.00000000000E+00  0.00000000000E+00 -0.43304395112E+03  0.10873638378E+04  0.99741318027E+03 0.  0.
        2    1    3    3  502    0 -0.85411492674E+02 -0.32898576401E+03 -0.61437415846E+03  0.70212702739E+03  0.25500000920E-02 0. -1.
       -2    1    3    3    0  502  0.85411492674E+02  0.32898576401E+03  0.18133020734E+03  0.38523681042E+03  0.25500000920E-02 0.  1.
</event>
<event>
 5   0  0.2284843E-03  0.1004446E+04  0.7818609E-02  0.9303682E-01
       -2   -1    0    0    0  501  0.00000000000E+00  0.00000000000E+00  0.15780754418E+03  0.15780754420E+03  0.25500000920E-02 0. -1.
        2   -1    0    0  501    0  0.00000000000E+00  0.00000000000E+00 -0.15983270302E+04  0.15983270302E+04  0.25500000920E-02 0.  1.
    10030    2    1    2    0    0  0.00000000000E+00  0.00000000000E+00 -0.14405194861E+04  0.17561345744E+04  0.10044462424E+04 0.  0.
        2    1    3    3  502    0  0.11843349851E+03 -0.29206996151E+03 -0.36615499139E+02  0.31728859224E+03  0.25500000920E-02 0. -1.
       -2    1    3    3    0  502 -0.11843349851E+03  0.29206996151E+03 -0.14039039869E+04  0.14388459822E+04  0.25500000920E-02 0.  1.
</event>
<event>
 5   0  0.1353789E-03  0.9984687E+03  0.7818609E-02  0.9310226E-01
        1   -1    0    0  501    0  0.00000000000E+00  0.00000000000E+00  0.64612558549E+03  0.64612558551E+03  0.50400001928E-02 0. -1.
       -1   -1    0    0    0  501  0.00000000000E+00  0.00000000000E+00 -0.38573756869E+03  0.38573756873E+03  0.50400001928E-02 0.  1.
    10030    2    1    2    0    0  0.00000000000E+00  0.00000000000E+00  0.26038801679E+03  0.10318631542E+04  0.99846865238E+03 0.  0.
        1    1    3    3  502    0 -0.38661915653E+03 -0.11152382647E+03  0.43558198570E+03  0.59299544885E+03  0.50400001928E-02 0. -1.
       -1    1    3    3    0  502  0.38661915653E+03  0.11152382647E+03 -0.17519396890E+03  0.43886770539E+03  0.50400001928E-02 0.  1.
</event>
<event>
 5   0  0.2284843E-03  0.9955238E+03  0.7818609E-02  0.9313468E-01
        2   -1    0    0  501    0  0.00000000000E+00  0.00000000000E+00  0.25565503169E+03  0.25565503170E+03  0.25500000920E-02 0.  1.
       -2   -1    0    0    0  501  0.00000000000E+00  0.00000000000E+00 -0.96914535402E+03  0.96914535402E+03  0.25500000920E-02 0. -1.
    10030    2    1    2    0    0  0.00000000000E+00  0.00000000000E+00 -0.71349032233E+03  0.12248003857E+04  0.99552375401E+03 0.  0.
        2    1    3    3  502    0 -0.46387886785E+03  0.62831855891E+02 -0.14855240339E+03  0.49112041569E+03  0.25500000920E-02 0.  1.
       -2    1    3    3    0  502  0.46387886785E+03 -0.62831855891E+02 -0.56493791895E+03  0.73367997003E+03  0.25500000920E-02 0. -1.
</event>
<event>
 5   0  0.2264577E-03  0.1007222E+04  0.7818609E-02  0.9300659E-01
       -2   -1    0    0    0  501  0.00000000000E+00  0.00000000000E+00  0.14142630013E+03  0.14142630015E+03  0.25500000920E-02 0.  1.
        2   -1    0    0  501    0  0.00000000000E+00  0.00000000000E+00 -0.17933317673E+04  0.17933317673E+04  0.25500000920E-02 0. -1.
    10030    2    1    2    0    0  0.00000000000E+00  0.00000000000E+00 -0.16519054672E+04  0.19347580675E+04  0.10072224715E+04 0.  0.
        5    1    3    3  502    0  0.15263851026E+03 -0.29156667232E+03 -0.15581412770E+04  0.15925250291E+04  0.46999998093E+01 0. -1.
       -5    1    3    3    0  502 -0.15263851026E+03  0.29156667232E+03 -0.93764190238E+02  0.34223303842E+03  0.46999998093E+01 0.  1.
</event>
<event>
 5   0  0.2264577E-03  0.1008860E+04  0.7818609E-02  0.9298881E-01
       -2   -1    0    0    0  501  0.00000000000E+00  0.00000000000E+00  0.16058644158E+03  0.16058644160E+03  0.25500000920E-02 0.  1.
        2   -1    0    0  501    0  0.00000000000E+00  0.00000000000E+00 -0.15845017924E+04  0.15845017924E+04  0.25500000920E-02 0. -1.
    10030    2    1    2    0    0  0.00000000000E+00  0.00000000000E+00 -0.14239153509E+04  0.17450882340E+04  0.10088597614E+04 0.  0.
        5    1    3    3  502    0 -0.29337831132E+03 -0.30143123161E+03 -0.23042511920E+03  0.47963470110E+03  0.46999998093E+01 0.  1.
       -5    1    3    3    0  502  0.29337831132E+03  0.30143123161E+03 -0.11934902317E+04  0.12654535329E+04  0.46999998093E+01 0. -1.
</event>
<event>
 5   0  0.8680125E-04  0.9962089E+03  0.7818609E-02  0.9312713E-01
        4   -1    0    0  501    0  0.00000000000E+00  0.00000000000E+00  0.54623070423E+03  0.54623218062E+03  0.12699999809E+01 0.  1.
       -4   -1    0    0    0  501  0.00000000000E+00  0.00000000000E+00 -0.45421542559E+03  0.45421720107E+03  0.12699999809E+01 0. -1.
    10030    2    1    2    0    0  0.00000000000E+00  0.00000000000E+00  0.92015278635E+02  0.10004493817E+04  0.99620889065E+03 0.  0.
        4    1    3    3  502    0  0.22581387959E+03  0.44339995143E+03  0.68709179859E+02  0.50231264114E+03  0.12699999809E+01 0. -1.
       -4    1    3    3    0  502 -0.22581387959E+03 -0.44339995143E+03  0.23306098776E+02  0.49813674055E+03  0.12699999809E+01 0.  1.
</event>
<event>
 5   0  0.1353789E-03  0.1007453E+04  0.7818609E-02  0.9300408E-01
        1   -1    0    0  501    0  0.00000000000E+00  0.00000000000E+00  0.60549063682E+03  0.60549063684E+03  0.50400001928E-02 0. -1.
       -1   -1    0    0    0  501  0.00000000000E+00  0.00000000000E+00 -0.41906547023E+03  0.41906547026E+03  0.50400001928E-02 0.  1.
    10030    2    1    2    0    0  0.00000000000E+00  0.00000000000E+00  0.18642516658E+03  0.10245561071E+04  0.10074526658E+04 0.  0.
        1    1    3    3  502    0 -0.27189465864E+03 -0.18395512181E+03 -0.29533918463E+03  0.44157833534E+03  0.50400001928E-02 0.  1.
       -1    1    3    3    0  502  0.27189465864E+03  0.18395512181E+03  0.48176435122E+03  0.58297777176E+03  0.50400001928E-02 0. -1.
</event>
<event>
 5   0  0.1293716E-03  0.1000790E+04  0.7818609E-02  0.9307679E-01
        1   -1    0    0  501    0  0.00000000000E+00  0.00000000000E+00  0.97713852648E+03  0.97713852650E+03  0.50400001928E-02 0.  1.
       -1   -1    0    0    0  501  0.00000000000E+00  0.00000000000E+00 -0.25625353742E+03  0.25625353747E+03  0.50400001928E-02 0. -1.
    10030    2    1    2    0    0  0.00000000000E+00  0.00000000000E+00  0.72088498906E+03  0.12333920640E+04  0.10007900959E+04 0.  0.
        3    1    3    3  502    0  0.14966081864E+03  0.32504152879E+03 -0.70630657940E+02  0.36474519341E+03  0.10100000352E+00 0. -1.
       -3    1    3    3    0  502 -0.14966081864E+03 -0.32504152879E+03  0.79151564700E+03  0.86864687056E+03  0.10100000352E+00 0.  1.
</event>
<event>
 5   0  0.1293716E-03  0.9971992E+03  0.7818609E-02  0.9311622E-01
       -1   -1    0    0    0  501  0.00000000000E+00  0.00000000000E+00  0.55213093271E+03  0.55213093273E+03  0.50400001928E-02 0.  1.
        1   -1    0    0  501    0  0.00000000000E+00  0.00000000000E+00 -0.45025836538E+03  0.45025836541E+03  0.50400001928E-02 0. -1.
    10030    2    1    2    0    0  0.00000000000E+00  0.00000000000E+00  0.10187256733E+03  0.10023892981E+04  0.99719922035E+03 0.  0.
        3    1    3    3  502    0 -0.32187285899E+03  0.11859238063E+03  0.41466937756E+03  0.53816075013E+03  0.10100000352E+00 0.  1.
       -3    1    3    3    0  502  0.32187285899E+03 -0.11859238063E+03 -0.31279681023E+03  0.46422854801E+03  0.10100000352E+00 0. -1.
</event>
<event>
 5   0  0.2204862E-03  0.9959731E+03  0.7818609E-02  0.9312973E-01
        2   -1    0    0  501    0  0.00000000000E+00  0.00000000000E+00  0.57138206289E+03  0.57138206290E+03  0.25500000920E-02 0. -1.
       -2   -1    0    0    0  501  0.00000000000E+00  0.00000000000E+00 -0.43401886465E+03  0.43401886466E+03  0.25500000920E-02 0.  1.
    10030    2    1    2    0    0  0.00000000000E+00  0.00000000000E+00  0.13736319824E+03  0.10054009276E+04  0.99597308041E+03 0.  0.
        1    1    3    3  502    0 -0.34048535351E+03  0.24800612264E+03 -0.19945141484E+03  0.46606671167E+03  0.50400001928E-02 0.  1.
       -1    1    3    3    0  502  0.34048535351E+03 -0.24800612264E+03  0.33681461308E+03  0.53933421589E+03  0.50400001928E-02 0. -1.
</event>
<event>
 5   0  0.1285769E-03  0.1000256E+04  0.7818609E-02  0.9308264E-01
       -1   -1    0    0    0  501  0.00000000000E+00  0.00000000000E+00  0.31240630731E+03  0.31240630735E+03  0.50400001928E-02 0.  1.
        1   -1    0    0  501    0  0.00000000000E+00  0.00000000000E+00 -0.80065031002E+03  0.80065031004E+03  0.50400001928E-02 0. -1.
    10030    2    1    2    0    0  0.00000000000E+00  0.00000000000E+00 -0.48824400271E+03  0.11130566174E+04  0.10002563808E+04 0.  0.
        5    1    3    3  502    0  0.35398785664E+03 -0.26037744153E+03 -0.50979787865E+03  0.67306744222E+03  0.46999998093E+01 0. -1.
       -5    1    3    3    0  502 -0.35398785664E+03  0.26037744153E+03  0.21553875944E+02  0.43998917517E+03  0.46999998093E+01 0.  1.
</event>
<event>
 5   0  0.2204862E-03  0.9966985E+03  0.7818609E-02  0.9312173E-01
       -2   -1    0    0    0  501  0.00000000000E+00  0.00000000000E+00  0.17397841747E+03  0.17397841749E+03  0.25500000920E-02 0. -1.
        2   -1    0    0  501    0  0.00000000000E+00  0.00000000000E+00 -0.14274871284E+04  0.14274871284E+04  0.25500000920E-02 0.  1.
    10030    2    1    2    0    0  0.00000000000E+00  0.00000000000E+00 -0.12535087110E+04  0.16014655459E+04  0.99669845304E+03 0.  0.
        1    1    3    3  502    0 -0.26643846143E+03  0.89813907282E+02  0.34360799109E+02  0.28326075657E+03  0.50400001928E-02 0. -1.
       -1    1    3    3    0  502  0.26643846143E+03 -0.89813907282E+02 -0.12878695101E+04  0.13182047893E+04  0.50400001928E-02 0.  1.
</event>
<event>
 5   0  0.2277570E-03  0.9985579E+03  0.7818609E-02  0.9310128E-01
        2   -1    0    0  501    0  0.00000000000E+00  0.00000000000E+00  0.20246371479E+04  0.20246371479E+04  0.25500000920E-02 0.  1.
       -2   -1    0    0    0  501  0.00000000000E+00  0.00000000000E+00 -0.12312302390E+03  0.12312302393E+03  0.25500000920E-02 0. -1.
    10030    2    1    2    0    0  0.00000000000E+00  0.00000000000E+00  0.19015141240E+04  0.21477601718E+04  0.99855785608E+03 0.  0.
        3    1    3    3  502    0 -0.34461136961E+03  0.24453221063E+03  0.37874728759E+03  0.56745265543E+03  0.10100000352E+00 0. -1.
       -3    1    3    3    0  502  0.34461136961E+03 -0.24453221063E+03  0.15227668364E+04  0.15803075164E+04  0.10100000352E+00 0.  1.
</event>
<event>
 5   0  0.2284843E-03  0.1001659E+04  0.7818609E-02  0.9306727E-01
        2   -1    0    0  501    0  0.00000000000E+00  0.00000000000E+00  0.95661459318E+03  0.95661459318E+03  0.25500000920E-02 0.  1.
       -2   -1    0    0    0  501  0.00000000000E+00  0.00000000000E+00 -0.26220615176E+03  0.26220615177E+03  0.25500000920E-02 0. -1.
    10030    2    1    2    0    0  0.00000000000E+00  0.00000000000E+00  0.69440844142E+03  0.12188207450E+04  0.10016590861E+04 0.  0.
        2    1    3    3  502    0 -0.14329214918E+03  0.24701553646E+03  0.84784232664E+03  0.89464290424E+03  0.25500000920E-02 0.  1.
       -2    1    3    3    0  502  0.14329214918E+03 -0.24701553646E+03 -0.15343388522E+03  0.32417784071E+03  0.25500000920E-02 0. -1.
</event>
<event>
 5   0  0.1249195E-03  0.9796499E+03  0.7818609E-02  0.9331150E-01
        1   -1    0    0  501    0  0.00000000000E+00  0.00000000000E+00  0.62864913598E+03  0.62864913600E+03  0.50400001928E-02 0.  1.
       -1   -1    0    0    0  501  0.00000000000E+00  0.00000000000E+00 -0.38165719756E+03  0.38165719759E+03  0.50400001928E-02 0. -1.
    10030    2    1    2    0    0  0.00000000000E+00  0.00000000000E+00  0.24699193842E+03  0.10103063336E+04  0.97964987115E+03 0.  0.
        2    1    3    3  502    0 -0.27324327175E+03  0.28358290582E+03 -0.17690494361E+03  0.43171345718E+03  0.25500000920E-02 0. -1.
       -2    1    3    3    0  502  0.27324327175E+03 -0.28358290582E+03  0.42389688203E+03  0.57859287641E+03  0.25500000920E-02 0.  1.
</event>
<event>
 5   0  0.2264577E-03  0.1002501E+04  0.7818609E-02  0.9305806E-01
       -2   -1    0    0    0  501  0.00000000000E+00  0.00000000000E+00  0.38268470505E+03  0.38268470506E+03  0.25500000920E-02 0. -1.
        2   -1    0    0  501    0  0.00000000000E+00  0.00000000000E+00 -0.65655156173E+03  0.65655156173E+03  0.25500000920E-02 0.  1.
    10030    2    1    2    0    0  0.00000000000E+00  0.00000000000E+00 -0.27386685668E+03  0.10392362668E+04  0.10025013531E+04 0.  0.
        5    1    3    3  502    0 -0.16655699384E+03 -0.42106506485E+03  0.85868025630E+02  0.46090392584E+03  0.46999998093E+01 0. -1.
       -5    1    3    3    0  502  0.16655699384E+03  0.42106506485E+03 -0.35973488231E+03  0.57833234094E+03  0.46999998093E+01 0.  1.
</event>
<event>
 5   0  0.8680125E-04  0.1000809E+04  0.7818609E-02  0.9307658E-01
        3   -1    0    0  501    0  0.00000000000E+00  0.00000000000E+00  0.71007388950E+03  0.71007389669E+03  0.10100000352E+00 0. -1.
       -3   -1    0    0    0  501  0.00000000000E+00  0.00000000000E+00 -0.35264596430E+03  0.35264597876E+03  0.10100000352E+00 0.  1.
    10030    2    1    2    0    0  0.00000000000E+00  0.00000000000E+00  0.35742792520E+03  0.10627198754E+04  0.10008090787E+04 0.  0.
        2    1    3    3  502    0  0.48598907171E+03  0.58042876459E+02  0.28932269964E+03  0.56856132287E+03  0.25500000920E-02 0.  1.
       -2    1    3    3    0  502 -0.48598907171E+03 -0.58042876459E+02  0.68105225564E+02  0.49415855258E+03  0.25500000920E-02 0. -1.
</event>
<event>
 5   0  0.2264577E-03  0.9999431E+03  0.7818609E-02  0.9308607E-01
        2   -1    0    0  501    0  0.00000000000E+00  0.00000000000E+00  0.28230267046E+04  0.28230267046E+04  0.25500000920E-02 0.  1.
       -2   -1    0    0    0  501  0.00000000000E+00  0.00000000000E+00 -0.88547350777E+02  0.88547350814E+02  0.25500000920E-02 0. -1.
    10030    2    1    2    0    0  0.00000000000E+00  0.00000000000E+00  0.27344793538E+04  0.29115740554E+04  0.99994307022E+03 0.  0.
        5    1    3    3  502    0  0.42225435060E+03  0.11904012508E+03  0.20653298784E+04  0.21114163219E+04  0.46999998093E+01 0. -1.
       -5    1    3    3    0  502 -0.42225435060E+03 -0.11904012508E+03  0.66914947546E+03  0.80015773350E+03  0.46999998093E+01 0.  1.
</event>
<event>
 5   0  0.2204862E-03  0.1008996E+04  0.7818609E-02  0.9298733E-01
       -2   -1    0    0    0  501  0.00000000000E+00  0.00000000000E+00  0.32915159257E+03  0.32915159258E+03  0.25500000920E-02 0. -1.
        2   -1    0    0  501    0  0.00000000000E+00  0.00000000000E+00 -0.77325574446E+03  0.77325574446E+03  0.25500000920E-02 0.  1.
    10030    2    1    2    0    0  0.00000000000E+00  0.00000000000E+00 -0.44410415189E+03  0.11024073370E+04  0.10089962532E+04 0.  0.
        1    1    3    3  502    0 -0.44171659650E+03  0.22488694015E+03 -0.11938068993E+03  0.50984256063E+03  0.50400001928E-02 0. -1.
       -1    1    3    3    0  502  0.44171659650E+03 -0.22488694015E+03 -0.32472346196E+03  0.59256477641E+03  0.50400001928E-02 0.  1.
</event>
<event>
 5   0  0.2255142E-03  0.1001098E+04  0.7818609E-02  0.9307341E-01
       -2   -1    0    0    0  501  0.00000000000E+00  0.00000000000E+00  0.37056027939E+03  0.37056027940E+03  0.25500000920E-02 0. -1.
        2   -1    0    0  501    0  0.00000000000E+00  0.00000000000E+00 -0.67613624960E+03  0.67613624960E+03  0.25500000920E-02 0.  1.
    10030    2    1    2    0    0  0.00000000000E+00  0.00000000000E+00 -0.30557597021E+03  0.10466965290E+04  0.10010978725E+04 0.  0.
        4    1    3    3  502    0 -0.12546472152E+03  0.48435118259E+03 -0.16794520410E+03  0.52777331204E+03  0.12699999809E+01 0.  1.
       -4    1    3    3    0  502  0.12546472152E+03 -0.48435118259E+03 -0.13763076611E+03  0.51892321696E+03  0.12699999809E+01 0. -1.
</event>
<event>
 5   0  0.1249195E-03  0.1000745E+04  0.7818609E-02  0.9307728E-01
       -1   -1    0    0    0  501  0.00000000000E+00  0.00000000000E+00  0.52957614756E+03  0.52957614758E+03  0.50400001928E-02 0. -1.
        1   -1    0    0  501    0  0.00000000000E+00  0.00000000000E+00 -0.47277936467E+03  0.47277936470E+03  0.50400001928E-02 0.  1.
    10030    2    1    2    0    0  0.00000000000E+00  0.00000000000E+00  0.56796782888E+02  0.10023555123E+04  0.10007450717E+04 0.  0.
        2    1    3    3  502    0  0.21306075313E+03  0.45274472666E+03  0.28347664589E+02  0.50117488179E+03  0.25500000920E-02 0. -1.
       -2    1    3    3    0  502 -0.21306075313E+03 -0.45274472666E+03  0.28449118299E+02  0.50118063049E+03  0.25500000920E-02 0.  1.
</event>
<event>
 5   0  0.1249195E-03  0.9984241E+03  0.7818609E-02  0.9310275E-01
       -1   -1    0    0    0  501  0.00000000000E+00  0.00000000000E+00  0.13631288425E+03  0.13631288434E+03  0.50400001928E-02 0. -1.
        1   -1    0    0  501    0  0.00000000000E+00  0.00000000000E+00 -0.18282399587E+04  0.18282399587E+04  0.50400001928E-02 0.  1.
    10030    2    1    2    0    0  0.00000000000E+00  0.00000000000E+00 -0.16919270745E+04  0.19645528430E+04  0.99842408218E+03 0.  0.
        2    1    3    3  502    0 -0.34551521311E+03 -0.34766036785E+03 -0.65966748018E+03  0.82183312070E+03  0.25500000920E-02 0.  1.
       -2    1    3    3    0  502  0.34551521311E+03  0.34766036785E+03 -0.10322595943E+04  0.11427197223E+04  0.25500000920E-02 0. -1.
</event>
<event>
 5   0  0.2264577E-03  0.1032586E+04  0.7818609E-02  0.9273509E-01
        2   -1    0    0  501    0  0.00000000000E+00  0.00000000000E+00  0.18472222507E+04  0.18472222507E+04  0.25500000920E-02 0. -1.
       -2   -1    0    0    0  501  0.00000000000E+00  0.00000000000E+00 -0.14430242037E+03  0.14430242039E+03  0.25500000920E-02 0.  1.
    10030    2    1    2    0    0  0.00000000000E+00  0.00000000000E+00  0.17029198303E+04  0.19915246711E+04  0.10325863485E+04 0.  0.
        5    1    3    3  502    0  0.61623400510E+01  0.51468809554E+03  0.92848008591E+03  0.10616210106E+04  0.46999998093E+01 0. -1.
       -5    1    3    3    0  502 -0.61623400510E+01 -0.51468809554E+03  0.77443974440E+03  0.92990366051E+03  0.46999998093E+01 0.  1.
</event>
<event>
 5   0  0.2277570E-03  0.1033664E+04  0.7818609E-02  0.9272375E-01
        2   -1    0    0  501    0  0.00000000000E+00  0.00000000000E+00  0.13120961429E+04  0.13120961429E+04  0.25500000920E-02 0.  1.
       -2   -1    0    0    0  501  0.00000000000E+00  0.00000000000E+00 -0.20357895701E+03  0.20357895702E+03  0.25500000920E-02 0. -1.
    10030    2    1    2    0    0  0.00000000000E+00  0.00000000000E+00  0.11085171859E+04  0.15156750999E+04  0.10336637060E+04 0.  0.
        3    1    3    3  502    0 -0.47904901751E+03  0.17637239908E+03  0.43585915565E+03  0.67124391849E+03  0.10100000352E+00 0.  1.
       -3    1    3    3    0  502  0.47904901751E+03 -0.17637239908E+03  0.67265803022E+03  0.84443118142E+03  0.10100000352E+00 0. -1.
</event>
<event>
 5   0  0.1249195E-03  0.9911860E+03  0.7818609E-02  0.9318265E-01
        1   -1    0    0  501    0  0.00000000000E+00  0.00000000000E+00  0.46290298078E+03  0.46290298081E+03  0.50400001928E-02 0. -1.
       -1   -1    0    0    0  501  0.00000000000E+00  0.00000000000E+00 -0.53059157015E+03  0.53059157017E+03  0.50400001928E-02 0.  1.
    10030    2    1    2    0    0  0.00000000000E+00  0.00000000000E+00 -0.67688589370E+02  0.99349455098E+03  0.99118599551E+03 0.  0.
        2    1    3    3  502    0  0.18034969217E+02 -0.33319638328E+03  0.33343420674E+03  0.47172392368E+03  0.25500000920E-02 0. -1.
       -2    1    3    3    0  502 -0.18034969217E+02  0.33319638328E+03 -0.40112279611E+03  0.52177062730E+03  0.25500000920E-02 0.  1.
</event>
<event>
 5   0  0.2255142E-03  0.9987487E+03  0.7818609E-02  0.9309918E-01
       -2   -1    0    0    0  501  0.00000000000E+00  0.00000000000E+00  0.14554587697E+03  0.14554587699E+03  0.25500000920E-02 0.  1.
        2   -1    0    0  501    0  0.00000000000E+00  0.00000000000E+00 -0.17133754008E+04  0.17133754008E+04  0.25500000920E-02 0. -1.
    10030    2    1    2    0    0  0.00000000000E+00  0.00000000000E+00 -0.15678295239E+04  0.18589212778E+04  0.99874866771E+03 0.  0.
        4    1    3    3  502    0 -0.60750031188E+02 -0.23297769605E+03  0.30377337993E+02  0.24267997179E+03  0.12699999809E+01 0.  1.
       -4    1    3    3    0  502  0.60750031188E+02  0.23297769605E+03 -0.15982068618E+04  0.16162413060E+04  0.12699999809E+01 0. -1.
</event>
<event>
 5   0  0.1249195E-03  0.1003040E+04  0.7818609E-02  0.9305216E-01
        1   -1    0    0  501    0  0.00000000000E+00  0.00000000000E+00  0.41921614631E+03  0.41921614634E+03  0.50400001928E-02 0. -1.
       -1   -1    0    0    0  501  0.00000000000E+00  0.00000000000E+00 -0.59998285310E+03  0.59998285312E+03  0.50400001928E-02 0.  1.
    10030    2    1    2    0    0  0.00000000000E+00  0.00000000000E+00 -0.18076670679E+03  0.10191989995E+04  0.10030403772E+04 0.  0.
        2    1    3    3  502    0  0.20795189141E+03 -0.41281966796E+03 -0.28809028003E+03  0.54466510523E+03  0.25500000920E-02 0.  1.
       -2    1    3    3    0  502 -0.20795189141E+03  0.41281966796E+03  0.10732357325E+03  0.47453389423E+03  0.25500000920E-02 0. -1.
</event>
<event>
 5   0  0.1293716E-03  0.9895152E+03  0.7818609E-02  0.9320120E-01
       -1   -1    0    0    0  501  0.00000000000E+00  0.00000000000E+00  0.37126629562E+03  0.37126629566E+03  0.50400001928E-02 0. -1.
        1   -1    0    0  501    0  0.00000000000E+00  0.00000000000E+00 -0.65932481978E+03  0.65932481980E+03  0.50400001928E-02 0.  1.
    10030    2    1    2    0    0  0.00000000000E+00  0.00000000000E+00 -0.28805852416E+03  0.10305911155E+04  0.98951520146E+03 0.  0.
        3    1    3    3  502    0 -0.48789923749E+03  0.77157379549E+02 -0.17323146144E+03  0.52345780784E+03  0.10100000352E+00 0. -1.
       -3    1    3    3    0  502  0.48789923749E+03 -0.77157379549E+02 -0.11482706272E+03  0.50713330761E+03  0.10100000352E+00 0.  1.
</event>
<event>
 5   0  0.2204862E-03  0.9829236E+03  0.7818609E-02  0.9327475E-01
       -2   -1    0    0    0  501  0.00000000000E+00  0.00000000000E+00  0.35786971118E+03  0.35786971119E+03  0.25500000920E-02 0. -1.
        2   -1    0    0  501    0  0.00000000000E+00  0.00000000000E+00 -0.67492352657E+03  0.67492352658E+03  0.25500000920E-02 0.  1.
    10030    2    1    2    0    0  0.00000000000E+00  0.00000000000E+00 -0.31705381539E+03  0.10327932378E+04  0.98292357287E+03 0.  0.
        1    1    3    3  502    0 -0.77726521653E+02 -0.45702476522E+03 -0.32996646342E+03  0.56902628692E+03  0.50400001928E-02 0.  1.
       -1    1    3    3    0  502  0.77726521653E+02  0.45702476522E+03  0.12912648028E+02  0.46376695085E+03  0.50400001928E-02 0. -1.
</event>
<event>
 5   0  0.1249195E-03  0.9962106E+03  0.7818609E-02  0.9312711E-01
       -1   -1    0    0    0  501  0.00000000000E+00  0.00000000000E+00  0.32289515557E+03  0.32289515561E+03  0.50400001928E-02 0. -1.
        1   -1    0    0  501    0  0.00000000000E+00  0.00000000000E+00 -0.76838846173E+03  0.76838846174E+03  0.50400001928E-02 0.  1.
    10030    2    1    2    0    0  0.00000000000E+00  0.00000000000E+00 -0.44549330615E+03  0.10912836174E+04  0.99621064423E+03 0.  0.
        2    1    3    3  502    0 -0.31916519309E+03  0.35448697186E+03 -0.37990039982E+03  0.60979648039E+03  0.25500000920E-02 0. -1.
       -2    1    3    3    0  502  0.31916519309E+03 -0.35448697186E+03 -0.65592906330E+02  0.48148713697E+03  0.25500000920E-02 0.  1.
</event>
<event>
 5   0  0.2204862E-03  0.1000747E+04  0.7818609E-02  0.9307726E-01
        2   -1    0    0  501    0  0.00000000000E+00  0.00000000000E+00  0.52170342514E+03  0.52170342514E+03  0.25500000920E-02 0. -1.
       -2   -1    0    0    0  501  0.00000000000E+00  0.00000000000E+00 -0.47991553608E+03  0.47991553608E+03  0.25500000920E-02 0.  1.
    10030    2    1    2    0    0  0.00000000000E+00  0.00000000000E+00  0.41787889060E+02  0.10016189612E+04  0.10007468790E+04 0.  0.
        1    1    3    3  502    0 -0.25169575364E+03 -0.43104777592E+03 -0.14074180092E+02  0.49935059837E+03  0.50400001928E-02 0. -1.
       -1    1    3    3    0  502  0.25169575364E+03  0.43104777592E+03  0.55862069152E+02  0.50226836285E+03  0.50400001928E-02 0.  1.
</event>
<event>
 5   0  0.2277570E-03  0.1001173E+04  0.7818609E-02  0.9307259E-01
        2   -1    0    0  501    0  0.00000000000E+00  0.00000000000E+00  0.78483564248E+03  0.78483564248E+03  0.25500000920E-02 0. -1.
       -2   -1    0    0    0  501  0.00000000000E+00  0.00000000000E+00 -0.31928593968E+03  0.31928593969E+03  0.25500000920E-02 0.  1.
    10030    2    1    2    0    0  0.00000000000E+00  0.00000000000E+00  0.46554970279E+03  0.11041215822E+04  0.10011732829E+04 0.  0.
        3    1    3    3  502    0  0.26394693974E+03  0.20801870360E+03 -0.17638343383E+03  0.37954037200E+03  0.10100000352E+00 0.  1.
       -3    1    3    3    0  502 -0.26394693974E+03 -0.20801870360E+03  0.64193313663E+03  0.72458121018E+03  0.10100000352E+00 0. -1.
</event>
<event>
 5   0  0.1353789E-03  0.1004021E+04  0.7818609E-02  0.9304146E-01
        1   -1    0    0  501    0  0.00000000000E+00  0.00000000000E+00  0.39633537467E+03  0.39633537470E+03  0.50400001928E-02 0.  1.
       -1   -1    0    0    0  501  0.00000000000E+00  0.00000000000E+00 -0.63586131407E+03  0.63586131409E+03  0.50400001928E-02 0. -1.
    10030    2    1    2    0    0  0.00000000000E+00  0.00000000000E+00 -0.23952593941E+03  0.10321966888E+04  0.10040205818E+04 0.  0.
        1    1    3    3  502    0 -0.41935147603E+03 -0.10925756409E+03 -0.38029427834E+03  0.57655582031E+03  0.50400001928E-02 0. -1.
       -1    1    3    3    0  502  0.41935147603E+03  0.10925756409E+03  0.14076833893E+03  0.45564086849E+03  0.50400001928E-02 0.  1.
</event>
<event>
 5   0  0.1353789E-03  0.9989614E+03  0.7818609E-02  0.9309685E-01
       -1   -1    0    0    0  501  0.00000000000E+00  0.00000000000E+00  0.26701084536E+03  0.26701084540E+03  0.50400001928E-02 0.  1.
        1   -1    0    0  501    0  0.00000000000E+00  0.00000000000E+00 -0.93434764163E+03  0.93434764164E+03  0.50400001928E-02 0. -1.
    10030    2    1    2    0    0  0.00000000000E+00  0.00000000000E+00 -0.66733679627E+03  0.12013584870E+04  0.99896136799E+03 0.  0.
        1    1    3    3  502    0  0.49419611082E+03  0.51984821930E+02 -0.27295474656E+03  0.56695371183E+03  0.50400001928E-02 0.  1.
       -1    1    3    3    0  502 -0.49419611082E+03 -0.51984821930E+02 -0.39438204971E+03  0.63440477522E+03  0.50400001928E-02 0. -1.
</event>
<event>
 5   0  0.2204862E-03  0.9967337E+03  0.7818609E-02  0.9312134E-01
        2   -1    0    0  501    0  0.00000000000E+00  0.00000000000E+00  0.98749901109E+03  0.98749901109E+03  0.25500000920E-02 0. -1.
       -2   -1    0    0    0  501  0.00000000000E+00  0.00000000000E+00 -0.25151370073E+03  0.25151370075E+03  0.25500000920E-02 0.  1.
    10030    2    1    2    0    0  0.00000000000E+00  0.00000000000E+00  0.73598531036E+03  0.12390127118E+04  0.99673372725E+03 0.  0.
        1    1    3    3  502    0 -0.21779496359E+03  0.44813902996E+03  0.35517667588E+03  0.61189354258E+03  0.50400001928E-02 0.  1.
       -1    1    3    3    0  502  0.21779496359E+03 -0.44813902996E+03  0.38080863447E+03  0.62711916926E+03  0.50400001928E-02 0. -1.
</event>
<event>
 5   0  0.1249195E-03  0.1002787E+04  0.7818609E-02  0.9305493E-01
        1   -1    0    0  501    0  0.00000000000E+00  0.00000000000E+00  0.34726114634E+03  0.34726114637E+03  0.50400001928E-02 0. -1.
       -1   -1    0    0    0  501  0.00000000000E+00  0.00000000000E+00 -0.72393775786E+03  0.72393775788E+03  0.50400001928E-02 0.  1.
    10030    2    1    2    0    0  0.00000000000E+00  0.00000000000E+00 -0.37667661152E+03  0.10711989042E+04  0.10027870276E+04 0.  0.
        2    1    3    3  502    0  0.37024367400E+03 -0.56034076645E+02  0.16783838054E+03  0.41035340607E+03  0.25500000920E-02 0. -1.
       -2    1    3    3    0  502 -0.37024367400E+03  0.56034076645E+02 -0.54451499206E+03  0.66084549818E+03  0.25500000920E-02 0.  1.
</event>
<event>
 5   0  0.1353789E-03  0.9998613E+03  0.7818609E-02  0.9308697E-01
        1   -1    0    0  501    0  0.00000000000E+00  0.00000000000E+00  0.11660392605E+04  0.11660392605E+04  0.50400001928E-02 0.  1.
       -1   -1    0    0    0  501  0.00000000000E+00  0.00000000000E+00 -0.21434155964E+03  0.21434155970E+03  0.50400001928E-02 0. -1.
    10030    2    1    2    0    0  0.00000000000E+00  0.00000000000E+00  0.95169770086E+03  0.13803808202E+04  0.99986133788E+03 0.  0.
        1    1    3    3  502    0  0.14631795751E+03  0.34907649108E+03  0.24954433537E+02  0.37932316709E+03  0.50400001928E-02 0. -1.
       -1    1    3    3    0  502 -0.14631795751E+03 -0.34907649108E+03  0.92674326733E+03  0.10010576531E+04  0.50400001928E-02 0.  1.
</event>
<event>
 5   0  0.2277570E-03  0.1001139E+04  0.7818609E-02  0.9307296E-01
        2   -1    0    0  501    0  0.00000000000E+00  0.00000000000E+00  0.75929617548E+03  0.75929617549E+03  0.25500000920E-02 0. -1.
       -2   -1    0    0    0  501  0.00000000000E+00  0.00000000000E+00 -0.33000282357E+03  0.33000282358E+03  0.25500000920E-02 0.  1.
    10030    2    1    2    0    0  0.00000000000E+00  0.00000000000E+00  0.42929335192E+03  0.10892989991E+04  0.10011391149E+04 0.  0.
        3    1    3    3  502    0  0.81636512604E+02 -0.46812385096E+03  0.38587493859E+03  0.61213065473E+03  0.10100000352E+00 0. -1.
       -3    1    3    3    0  502 -0.81636512604E+02  0.46812385096E+03  0.43418413327E+02  0.47716834434E+03  0.10100000352E+00 0.  1.
</event>
<event>
 5   0  0.1293575E-03  0.9980693E+03  0.7818609E-02  0.9310665E-01
       -1   -1    0    0    0  501  0.00000000000E+00  0.00000000000E+00  0.25096195815E+03  0.25096195821E+03  0.50400001928E-02 0.  1.
        1   -1    0    0  501    0  0.00000000000E+00  0.00000000000E+00 -0.99232403485E+03  0.99232403487E+03  0.50400001928E-02 0. -1.
    10030    2    1    2    0    0  0.00000000000E+00  0.00000000000E+00 -0.74136207670E+03  0.12432859931E+04  0.99806930210E+03 0.  0.
        4    1    3    3  502    0 -0.24944297582E+02 -0.43691489409E+03 -0.71930334827E+02  0.44350020138E+03  0.12699999809E+01 0.  1.
       -4    1    3    3    0  502  0.24944297582E+02  0.43691489409E+03 -0.66943174187E+03  0.79978579169E+03  0.12699999809E+01 0. -1.
</event>
<event>
 5   0  0.1293575E-03  0.9959371E+03  0.7818609E-02  0.9313012E-01
       -1   -1    0    0    0  501  0.00000000000E+00  0.00000000000E+00  0.19007121012E+03  0.19007121019E+03  0.50400001928E-02 0.  1.
        1   -1    0    0  501    0  0.00000000000E+00  0.00000000000E+00 -0.13046303419E+04  0.13046303419E+04  0.50400001928E-02 0. -1.
    10030    2    1    2    0    0  0.00000000000E+00  0.00000000000E+00 -0.11145591318E+04  0.14947015521E+04  0.99593708215E+03 0.  0.
        4    1    3    3  502    0  0.52300946505E+02  0.49497356613E+03 -0.53418310848E+03  0.73012836300E+03  0.12699999809E+01 0. -1.
       -4    1    3    3    0  502 -0.52300946505E+02 -0.49497356613E+03 -0.58037602328E+03  0.76457318909E+03  0.12699999809E+01 0.  1.
</event>
<event>
 5   0  0.1293575E-03  0.1002274E+04  0.7818609E-02  0.9306054E-01
       -1   -1    0    0    0  501  0.00000000000E+00  0.00000000000E+00  0.38125416154E+03  0.38125416157E+03  0.50400001928E-02 0. -1.
        1   -1    0    0  501    0  0.00000000000E+00  0.00000000000E+00 -0.65871672428E+03  0.65871672429E+03  0.50400001928E-02 0.  1.
    10030    2    1    2    0    0  0.00000000000E+00  0.00000000000E+00 -0.27746256274E+03  0.10399708859E+04  0.10022743984E+04 0.  0.
        4    1    3    3  502    0  0.49518927297E+03  0.64859047529E+02 -0.95726501836E+02  0.50851183680E+03  0.12699999809E+01 0. -1.
       -4    1    3    3    0  502 -0.49518927297E+03 -0.64859047529E+02 -0.18173606090E+03  0.53145904907E+03  0.12699999809E+01 0.  1.
</event>
<event>
 5   0  0.2284843E-03  0.9982884E+03  0.7818609E-02  0.9310424E-01
       -2   -1    0    0    0  501  0.00000000000E+00  0.00000000000E+00  0.49318578601E+03  0.49318578602E+03  0.25500000920E-02 0.  1.
        2   -1    0    0  501    0  0.00000000000E+00  0.00000000000E+00 -0.50517465014E+03  0.50517465015E+03  0.25500000920E-02 0. -1.
    10030    2    1    2    0    0  0.00000000000E+00  0.00000000000E+00 -0.11988864134E+02  0.99836043616E+03  0.99828844911E+03 0.  0.
        2    1    3    3  502    0  0.35445587508E+03  0.31189892236E+03 -0.16794761696E+03  0.50112504147E+03  0.25500000920E-02 0. -1.
       -2    1    3    3    0  502 -0.35445587508E+03 -0.31189892236E+03  0.15595875283E+03  0.49723539469E+03  0.25500000920E-02 0.  1.
</event>
<event>
 5   0  0.2255142E-03  0.9980002E+03  0.7818609E-02  0.9310741E-01
        2   -1    0    0  501    0  0.00000000000E+00  0.00000000000E+00  0.12551596497E+04  0.12551596497E+04  0.25500000920E-02 0.  1.
       -2   -1    0    0    0  501  0.00000000000E+00  0.00000000000E+00 -0.19838202587E+03  0.19838202588E+03  0.25500000920E-02 0. -1.
    10030    2    1    2    0    0  0.00000000000E+00  0.00000000000E+00  0.10567776238E+04  0.14535416755E+04  0.99800022866E+03 0.  0.
        4    1    3    3  502    0  0.20750509998E+03  0.12655616769E+03 -0.10633901569E+03  0.26530063938E+03  0.12699999809E+01 0. -1.
       -4    1    3    3    0  502 -0.20750509998E+03 -0.12655616769E+03  0.11631166395E+04  0.11882410362E+04  0.12699999809E+01 0.  1.
</event>
<event>
 5   0  0.2277570E-03  0.1003107E+04  0.7818609E-02  0.9305144E-01
        2   -1    0    0  501    0  0.00000000000E+00  0.00000000000E+00  0.56398586925E+03  0.56398586925E+03  0.25500000920E-02 0.  1.
       -2   -1    0    0    0  501  0.00000000000E+00  0.00000000000E+00 -0.44603198374E+03  0.44603198375E+03  0.25500000920E-02 0. -1.
    10030    2    1    2    0    0  0.00000000000E+00  0.00000000000E+00  0.11795388550E+03  0.10100178530E+04  0.10031066465E+04 0.  0.
        3    1    3    3  502    0  0.13861121846E+03 -0.11579996644E+03 -0.41214960806E+03  0.44998890179E+03  0.10100000352E+00 0. -1.
       -3    1    3    3    0  502 -0.13861121846E+03  0.11579996644E+03  0.53010349356E+03  0.56002895122E+03  0.10100000352E+00 0.  1.
</event>
<event>
 5   0  0.1293716E-03  0.1022841E+04  0.7818609E-02  0.9283842E-01
       -1   -1    0    0    0  501  0.00000000000E+00  0.00000000000E+00  0.20746549322E+03  0.20746549328E+03  0.50400001928E-02 0.  1.
        1   -1    0    0  501    0  0.00000000000E+00  0.00000000000E+00 -0.12606948649E+04  0.12606948649E+04  0.50400001928E-02 0. -1.
    10030    2    1    2    0    0  0.00000000000E+00  0.00000000000E+00 -0.10532293717E+04  0.14681603582E+04  0.10228405193E+04 0.  0.
        3    1    3    3  502    0 -0.50085015971E+03  0.81340010849E+02 -0.61833947860E+03  0.79988174178E+03  0.10100000352E+00 0.  1.
       -3    1    3    3    0  502  0.50085015971E+03 -0.81340010849E+02 -0.43488989312E+03  0.66827861644E+03  0.10100000352E+00 0. -1.
</event>
<event>
 5   0  0.2264577E-03  0.9939518E+03  0.7818609E-02  0.9315203E-01
       -2   -1    0    0    0  501  0.00000000000E+00  0.00000000000E+00  0.37393405665E+03  0.37393405666E+03  0.25500000920E-02 0. -1.
        2   -1    0    0  501    0  0.00000000000E+00  0.00000000000E+00 -0.66050429104E+03  0.66050429104E+03  0.25500000920E-02 0.  1.
    10030    2    1    2    0    0  0.00000000000E+00  0.00000000000E+00 -0.28657023439E+03  0.10344383477E+04  0.99395180767E+03 0.  0.
        5    1    3    3  502    0  0.41153198927E+03  0.86081589406E+02 -0.41901912534E+03  0.59360570720E+03  0.46999998093E+01 0.  1.
       -5    1    3    3    0  502 -0.41153198927E+03 -0.86081589406E+02  0.13244889095E+03  0.44083264051E+03  0.46999998093E+01 0. -1.
</event>
<event>
 5   0  0.8680125E-04  0.9876976E+03  0.7818609E-02  0.9322142E-01
        3   -1    0    0  501    0  0.00000000000E+00  0.00000000000E+00  0.20545562155E+03  0.20545564637E+03  0.10100000352E+00 0.  1.
       -3   -1    0    0    0  501  0.00000000000E+00  0.00000000000E+00 -0.11870524827E+04  0.11870524870E+04  0.10100000352E+00 0. -1.
    10030    2    1    2    0    0  0.00000000000E+00  0.00000000000E+00 -0.98159686116E+03  0.13925081334E+04  0.98769757704E+03 0.  0.
        5    1    3    3  502    0 -0.99751291712E+02  0.15823199064E+03  0.15354723257E+03  0.24204653620E+03  0.46999998093E+01 0.  1.
       -5    1    3    3    0  502  0.99751291712E+02 -0.15823199064E+03 -0.11351440937E+04  0.11504615972E+04  0.46999998093E+01 0. -1.
</event>
<event>
 5   0  0.2284843E-03  0.9991614E+03  0.7818609E-02  0.9309465E-01
       -2   -1    0    0    0  501  0.00000000000E+00  0.00000000000E+00  0.11294701236E+03  0.11294701239E+03  0.25500000920E-02 0. -1.
        2   -1    0    0  501    0  0.00000000000E+00  0.00000000000E+00 -0.22097163599E+04  0.22097163599E+04  0.25500000920E-02 0.  1.
    10030    2    1    2    0    0  0.00000000000E+00  0.00000000000E+00 -0.20967693475E+04  0.23226633722E+04  0.99916137044E+03 0.  0.
        2    1    3    3  502    0  0.18513345564E+03 -0.22011921147E+03 -0.98832255547E+02  0.30412937772E+03  0.25500000920E-02 0. -1.
       -2    1    3    3    0  502 -0.18513345564E+03  0.22011921147E+03 -0.19979370920E+04  0.20185339945E+04  0.25500000920E-02 0.  1.
</event>
<event>
 5   0  0.1293716E-03  0.9939777E+03  0.7818609E-02  0.9315175E-01
       -1   -1    0    0    0  501  0.00000000000E+00  0.00000000000E+00  0.20954751153E+03  0.20954751159E+03  0.50400001928E-02 0. -1.
        1   -1    0    0  501    0  0.00000000000E+00  0.00000000000E+00 -0.11787204491E+04  0.11787204491E+04  0.50400001928E-02 0.  1.
    10030    2    1    2    0    0  0.00000000000E+00  0.00000000000E+00 -0.96917293759E+03  0.13882679607E+04  0.99397774009E+03 0.  0.
        3    1    3    3  502    0 -0.28017302232E+03 -0.40433476629E+03 -0.58348871981E+03  0.76317928563E+03  0.10100000352E+00 0. -1.
       -3    1    3    3    0  502  0.28017302232E+03  0.40433476629E+03 -0.38568421778E+03  0.62508867508E+03  0.10100000352E+00 0.  1.
</event>
<event>
 5   0  0.2264577E-03  0.1001466E+04  0.7818609E-02  0.9306939E-01
       -2   -1    0    0    0  501  0.00000000000E+00  0.00000000000E+00  0.99046488103E+03  0.99046488103E+03  0.25500000920E-02 0. -1.
        2   -1    0    0  501    0  0.00000000000E+00  0.00000000000E+00 -0.25314713287E+03  0.25314713288E+03  0.25500000920E-02 0.  1.
    10030    2    1    2    0    0  0.00000000000E+00  0.00000000000E+00  0.73731774816E+03  0.12436120139E+04  0.10014656157E+04 0.  0.
        5    1    3    3  502    0  0.40691403716E+03  0.20901609757E+03  0.11585584268E+03  0.47192311764E+03  0.46999998093E+01 0.  1.
       -5    1    3    3    0  502 -0.40691403716E+03 -0.20901609757E+03  0.62146190547E+03  0.77168889627E+03  0.46999998093E+01 0. -1.
</event>
<event>
 5   0  0.1285769E-03  0.1001462E+04  0.7818609E-02  0.9306943E-01
        1   -1    0    0  501    0  0.00000000000E+00  0.00000000000E+00  0.74048268471E+03  0.74048268473E+03  0.50400001928E-02 0. -1.
       -1   -1    0    0    0  501  0.00000000000E+00  0.00000000000E+00 -0.33860522694E+03  0.33860522698E+03  0.50400001928E-02 0.  1.
    10030    2    1    2    0    0  0.00000000000E+00  0.00000000000E+00  0.40187745777E+03  0.10790879117E+04  0.10014615470E+04 0.  0.
        5    1    3    3  502    0  0.15337578327E+03  0.35412655023E+03  0.54469659763E+03  0.66756738831E+03  0.46999998093E+01 0. -1.
       -5    1    3    3    0  502 -0.15337578327E+03 -0.35412655023E+03 -0.14281913986E+03  0.41152052340E+03  0.46999998093E+01 0.  1.
</event>
<event>
 5   0  0.2264577E-03  0.9984695E+03  0.7818609E-02  0.9310225E-01
       -2   -1    0    0    0  501  0.00000000000E+00  0.00000000000E+00  0.31081107754E+03  0.31081107755E+03  0.25500000920E-02 0.  1.
        2   -1    0    0  501    0  0.00000000000E+00  0.00000000000E+00 -0.80188686385E+03  0.80188686385E+03  0.25500000920E-02 0. -1.
    10030    2    1    2    0    0  0.00000000000E+00  0.00000000000E+00 -0.49107578631E+03  0.11126979414E+04  0.99846946919E+03 0.  0.
        5    1    3    3  502    0 -0.75344766274E+02  0.33839588604E+03  0.15475583945E+03  0.37968417051E+03  0.46999998093E+01 0.  1.
       -5    1    3    3    0  502  0.75344766274E+02 -0.33839588604E+03 -0.64583162576E+03  0.73301377089E+03  0.46999998093E+01 0. -1.
</event>
<event>
 5   0  0.2204862E-03  0.9947883E+03  0.7818609E-02  0.9314279E-01
        2   -1    0    0  501    0  0.00000000000E+00  0.00000000000E+00  0.24569177567E+03  0.24569177569E+03  0.25500000920E-02 0.  1.
       -2   -1    0    0    0  501  0.00000000000E+00  0.00000000000E+00 -0.10069565189E+04  0.10069565189E+04  0.25500000920E-02 0. -1.
    10030    2    1    2    0    0  0.00000000000E+00  0.00000000000E+00 -0.76126474326E+03  0.12526482946E+04  0.99478828938E+03 0.  0.
        1    1    3    3  502    0 -0.19544798307E+03  0.13389513143E+03 -0.93134552894E+03  0.96100588688E+03  0.50400001928E-02 0. -1.
       -1    1    3    3    0  502  0.19544798307E+03 -0.13389513143E+03  0.17008078568E+03  0.29164240774E+03  0.50400001928E-02 0.  1.
</event>
<event>
 5   0  0.2255142E-03  0.9994473E+03  0.7818609E-02  0.9309151E-01
       -2   -1    0    0    0  501  0.00000000000E+00  0.00000000000E+00  0.57909916669E+03  0.57909916669E+03  0.25500000920E-02 0. -1.
        2   -1    0    0  501    0  0.00000000000E+00  0.00000000000E+00 -0.43122791123E+03  0.43122791124E+03  0.25500000920E-02 0.  1.
    10030    2    1    2    0    0  0.00000000000E+00  0.00000000000E+00  0.14787125546E+03  0.10103270779E+04  0.99944729536E+03 0.  0.
        4    1    3    3  502    0 -0.50591032750E+02 -0.36868602582E+03  0.41108274736E+03  0.55450831942E+03  0.12699999809E+01 0. -1.
       -4    1    3    3    0  502  0.50591032750E+02  0.36868602582E+03 -0.26321149190E+03  0.45581875850E+03  0.12699999809E+01 0.  1.
</event>
<event>
 5   0  0.1293716E-03  0.1001681E+04  0.7818609E-02  0.9306702E-01
        1   -1    0    0  501    0  0.00000000000E+00  0.00000000000E+00  0.66889432941E+03  0.66889432943E+03  0.50400001928E-02 0.  1.
       -1   -1    0    0    0  501  0.00000000000E+00  0.00000000000E+00 -0.37500909360E+03  0.37500909363E+03  0.50400001928E-02 0. -1.
    10030    2    1    2    0    0  0.00000000000E+00  0.00000000000E+00  0.29388523581E+03  0.10439034231E+04  0.10016814987E+04 0.  0.
        3    1    3    3  502    0  0.17012132765E+02 -0.33977231340E+03 -0.23611957169E+03  0.41411000948E+03  0.10100000352E+00 0. -1.
       -3    1    3    3    0  502 -0.17012132765E+02  0.33977231340E+03  0.53000480750E+03  0.62979341358E+03  0.10100000352E+00 0.  1.
</event>
<event>
 5   0  0.1293575E-03  0.9948375E+03  0.7818609E-02  0.9314225E-01
       -1   -1    0    0    0  501  0.00000000000E+00  0.00000000000E+00  0.63215725697E+03  0.63215725699E+03  0.50400001928E-02 0. -1.
        1   -1    0    0  501    0  0.00000000000E+00  0.00000000000E+00 -0.39139852726E+03  0.39139852729E+03  0.50400001928E-02 0.  1.
    10030    2    1    2    0    0  0.00000000000E+00  0.00000000000E+00  0.24075872971E+03  0.10235557843E+04  0.99483751317E+03 0.  0.
        4    1    3    3  502    0 -0.13555811313E+03  0.65381998262E+02  0.60816772588E+03  0.62651448781E+03  0.12699999809E+01 0. -1.
       -4    1    3    3    0  502  0.13555811313E+03 -0.65381998262E+02 -0.36740899618E+03  0.39704129647E+03  0.12699999809E+01 0.  1.
</event>
<event>
 5   0  0.2204862E-03  0.1002367E+04  0.7818609E-02  0.9305952E-01
       -2   -1    0    0    0  501  0.00000000000E+00  0.00000000000E+00  0.31564719606E+03  0.31564719607E+03  0.25500000920E-02 0.  1.
        2   -1    0    0  501    0  0.00000000000E+00  0.00000000000E+00 -0.79577769594E+03  0.79577769594E+03  0.25500000920E-02 0. -1.
    10030    2    1    2    0    0  0.00000000000E+00  0.00000000000E+00 -0.48013049988E+03  0.11114248920E+04  0.10023671950E+04 0.  0.
        1    1    3    3  502    0 -0.21262832394E+03  0.44687585693E+03 -0.32790687718E+03  0.59365962957E+03  0.50400001928E-02 0. -1.
       -1    1    3    3    0  502  0.21262832394E+03 -0.44687585693E+03 -0.15222362270E+03  0.51776526244E+03  0.50400001928E-02 0.  1.
</event>
<event>
 5   0  0.1293575E-03  0.9978959E+03  0.7818609E-02  0.9310856E-01
       -1   -1    0    0    0  501  0.00000000000E+00  0.00000000000E+00  0.18711602112E+03  0.18711602119E+03  0.50400001928E-02 0.  1.
        1   -1    0    0  501    0  0.00000000000E+00  0.00000000000E+00 -0.13304528862E+04  0.13304528862E+04  0.50400001928E-02 0. -1.
    10030    2    1    2    0    0  0.00000000000E+00  0.00000000000E+00 -0.11433368651E+04  0.15175689074E+04  0.99789588719E+03 0.  0.
        4    1    3    3  502    0 -0.55006846812E+02  0.28216380677E+03 -0.11918462006E+04  0.12260265682E+04  0.12699999809E+01 0. -1.
       -4    1    3    3    0  502  0.55006846812E+02 -0.28216380677E+03  0.48509335515E+02  0.29154233925E+03  0.12699999809E+01 0.  1.
</event>
<event>
 5   0  0.2255142E-03  0.1000280E+04  0.7818609E-02  0.9308238E-01
       -2   -1    0    0    0  501  0.00000000000E+00  0.00000000000E+00  0.39739721264E+03  0.39739721265E+03  0.25500000920E-02 0.  1.
        2   -1    0    0  501    0  0.00000000000E+00  0.00000000000E+00 -0.62944583877E+03  0.62944583878E+03  0.25500000920E-02 0. -1.
    10030    2    1    2    0    0  0.00000000000E+00  0.00000000000E+00 -0.23204862613E+03  0.10268430514E+04  0.10002800045E+04 0.  0.
        4    1    3    3  502    0 -0.43788102308E+03 -0.11404707544E+03 -0.33473579410E+03  0.56284650709E+03  0.12699999809E+01 0.  1.
       -4    1    3    3    0  502  0.43788102308E+03  0.11404707544E+03  0.10268716796E+03  0.46399654434E+03  0.12699999809E+01 0. -1.
</event>
<event>
 5   0  0.2264577E-03  0.9987491E+03  0.7818609E-02  0.9309918E-01
        2   -1    0    0  501    0  0.00000000000E+00  0.00000000000E+00  0.79600748321E+03  0.79600748322E+03  0.25500000920E-02 0. -1.
       -2   -1    0    0    0  501  0.00000000000E+00  0.00000000000E+00 -0.31328213361E+03  0.31328213362E+03  0.25500000920E-02 0.  1.
    10030    2    1    2    0    0  0.00000000000E+00  0.00000000000E+00  0.48272534960E+03  0.11092896168E+04  0.99874906302E+03 0.  0.
        5    1    3    3  502    0  0.43620627667E+03 -0.22302416909E+02  0.51018260510E+03  0.67162615654E+03  0.46999998093E+01 0. -1.
       -5    1    3    3    0  502 -0.43620627667E+03  0.22302416909E+02 -0.27457255493E+02  0.43766346030E+03  0.46999998093E+01 0.  1.
</event>
<event>
 5   0  0.2264577E-03  0.9743840E+03  0.7818609E-02  0.9337095E-01
        2   -1    0    0  501    0  0.00000000000E+00  0.00000000000E+00  0.92215117219E+03  0.92215117220E+03  0.25500000920E-02 0. -1.
       -2   -1    0    0    0  501  0.00000000000E+00  0.00000000000E+00 -0.25739384728E+03  0.25739384729E+03  0.25500000920E-02 0.  1.
    10030    2    1    2    0    0  0.00000000000E+00  0.00000000000E+00  0.66475732491E+03  0.11795450195E+04  0.97438398590E+03 0.  0.
        5    1    3    3  502    0 -0.25282435944E+03 -0.16165478307E+03  0.79695652959E+03  0.85159510665E+03  0.46999998093E+01 0. -1.
       -5    1    3    3    0  502  0.25282435944E+03  0.16165478307E+03 -0.13219920468E+03  0.32794991284E+03  0.46999998093E+01 0.  1.
</event>
<event>
 5   0  0.1293575E-03  0.1000168E+04  0.7818609E-02  0.9308361E-01
       -1   -1    0    0    0  501  0.00000000000E+00  0.00000000000E+00  0.44482199764E+03  0.44482199767E+03  0.50400001928E-02 0.  1.
        1   -1    0    0  501    0  0.00000000000E+00  0.00000000000E+00 -0.56221146306E+03  0.56221146308E+03  0.50400001928E-02 0. -1.
    10030    2    1    2    0    0  0.00000000000E+00  0.00000000000E+00 -0.11738946542E+03  0.10070334607E+04  0.10001680381E+04 0.  0.
        4    1    3    3  502    0  0.22776449538E+03 -0.24476301122E+03 -0.43313023536E+03  0.54716451886E+03  0.12699999809E+01 0. -1.
       -4    1    3    3    0  502 -0.22776449538E+03  0.24476301122E+03  0.31574076994E+03  0.45986894189E+03  0.12699999809E+01 0.  1.
</event>
<event>
 5   0  0.1293575E-03  0.1005954E+04  0.7818609E-02  0.9302038E-01
       -1   -1    0    0    0  501  0.00000000000E+00  0.00000000000E+00  0.36283949266E+03  0.36283949269E+03  0.50400001928E-02 0. -1.
        1   -1    0    0  501    0  0.00000000000E+00  0.00000000000E+00 -0.69723949759E+03  0.69723949761E+03  0.50400001928E-02 0.  1.
    10030    2    1    2    0    0  0.00000000000E+00  0.00000000000E+00 -0.33440000493E+03  0.10600789903E+04  0.10059543242E+04 0.  0.
        4    1    3    3  502    0  0.50738259917E+01  0.48999386040E+03 -0.28672522381E+03  0.56774351058E+03  0.12699999809E+01 0.  1.
       -4    1    3    3    0  502 -0.50738259917E+01 -0.48999386040E+03 -0.47674781122E+02  0.49233547972E+03  0.12699999809E+01 0. -1.
</event>
<event>
 5   0  0.8680125E-04  0.9998327E+03  0.7818609E-02  0.9308728E-01
       -3   -1    0    0    0  501  0.00000000000E+00  0.00000000000E+00  0.10994041283E+04  0.10994041329E+04  0.10100000352E+00 0. -1.
        3   -1    0    0  501    0  0.00000000000E+00  0.00000000000E+00 -0.22731981838E+03  0.22731984082E+03  0.10100000352E+00 0.  1.
    10030    2    1    2    0    0  0.00000000000E+00  0.00000000000E+00  0.87208430991E+03  0.13267239737E+04  0.99983271547E+03 0.  0.
        3    1    3    3  502    0  0.12154545087E+03  0.21655349415E+03 -0.13968671302E+03  0.28492297284E+03  0.10100000352E+00 0.  1.
       -3    1    3    3    0  502 -0.12154545087E+03 -0.21655349415E+03  0.10117710229E+04  0.10418010009E+04  0.10100000352E+00 0. -1.
</event>
<event>
 5   0  0.1353789E-03  0.9996696E+03  0.7818609E-02  0.9308907E-01
       -1   -1    0    0    0  501  0.00000000000E+00  0.00000000000E+00  0.38161751941E+03  0.38161751944E+03  0.50400001928E-02 0. -1.
        1   -1    0    0  501    0  0.00000000000E+00  0.00000000000E+00 -0.65467340439E+03  0.65467340441E+03  0.50400001928E-02 0.  1.
    10030    2    1    2    0    0  0.00000000000E+00  0.00000000000E+00 -0.27305588498E+03  0.10362909238E+04  0.99966962669E+03 0.  0.
        1    1    3    3  502    0  0.29794734875E+03  0.19456882832E+03  0.22733656668E+03  0.42226954207E+03  0.50400001928E-02 0. -1.
       -1    1    3    3    0  502 -0.29794734875E+03 -0.19456882832E+03 -0.50039245166E+03  0.61402138178E+03  0.50400001928E-02 0.  1.
</event>
<event>
 5   0  0.2264577E-03  0.1014144E+04  0.7818609E-02  0.9293166E-01
        2   -1    0    0  501    0  0.00000000000E+00  0.00000000000E+00  0.25723281660E+03  0.25723281661E+03  0.25500000920E-02 0. -1.
       -2   -1    0    0    0  501  0.00000000000E+00  0.00000000000E+00 -0.99957013503E+03  0.99957013503E+03  0.25500000920E-02 0.  1.
    10030    2    1    2    0    0  0.00000000000E+00  0.00000000000E+00 -0.74233731843E+03  0.12568029516E+04  0.10141444497E+04 0.  0.
        5    1    3    3  502    0  0.27680218165E+03  0.42208302490E+03 -0.43094515253E+03  0.66370877813E+03  0.46999998093E+01 0. -1.
       -5    1    3    3    0  502 -0.27680218165E+03 -0.42208302490E+03 -0.31139216590E+03  0.59309417351E+03  0.46999998093E+01 0.  1.
</event>
<event>
 5   0  0.2204862E-03  0.9835954E+03  0.7818609E-02  0.9326722E-01
       -2   -1    0    0    0  501  0.00000000000E+00  0.00000000000E+00  0.14417185302E+03  0.14417185304E+03  0.25500000920E-02 0.  1.
        2   -1    0    0  501    0  0.00000000000E+00  0.00000000000E+00 -0.16776157200E+04  0.16776157200E+04  0.25500000920E-02 0. -1.
    10030    2    1    2    0    0  0.00000000000E+00  0.00000000000E+00 -0.15334438670E+04  0.18217875731E+04  0.98359537826E+03 0.  0.
        1    1    3    3  502    0  0.20901604370E+03  0.19859614152E+03 -0.15046603359E+04  0.15320348757E+04  0.50400001928E-02 0. -1.
       -1    1    3    3    0  502 -0.20901604370E+03 -0.19859614152E+03 -0.28783531132E+02  0.28975269738E+03  0.50400001928E-02 0.  1.
</event>
<event>
 5   0  0.2204862E-03  0.9997733E+03  0.7818609E-02  0.9308793E-01
       -2   -1    0    0    0  501  0.00000000000E+00  0.00000000000E+00  0.43181141565E+03  0.43181141566E+03  0.25500000920E-02 0. -1.
        2   -1    0    0  501    0  0.00000000000E+00  0.00000000000E+00 -0.57869400346E+03  0.57869400346E+03  0.25500000920E-02 0.  1.
    10030    2    1    2    0    0  0.00000000000E+00  0.00000000000E+00 -0.14688258781E+03  0.10105054191E+04  0.99977332804E+03 0.  0.
        1    1    3    3  502    0 -0.18149019828E+03  0.54287525431E+02  0.39412677954E+03  0.43728908729E+03  0.50400001928E-02 0. -1.
       -1    1    3    3    0  502  0.18149019828E+03 -0.54287525431E+02 -0.54100936735E+03  0.57321633183E+03  0.50400001928E-02 0.  1.
</event>
<event>
 5   0  0.2204862E-03  0.9911133E+03  0.7818609E-02  0.9318346E-01
       -2   -1    0    0    0  501  0.00000000000E+00  0.00000000000E+00  0.13366606440E+03  0.13366606442E+03  0.25500000920E-02 0.  1.
        2   -1    0    0  501    0  0.00000000000E+00  0.00000000000E+00 -0.18372383032E+04  0.18372383032E+04  0.25500000920E-02 0. -1.
    10030    2    1    2    0    0  0.00000000000E+00  0.00000000000E+00 -0.17035722388E+04  0.19709043676E+04  0.99111334039E+03 0.  0.
        1    1    3    3  502    0  0.14369618566E+03 -0.30782715995E+02 -0.17929106354E+04  0.17989232101E+04  0.50400001928E-02 0. -1.
       -1    1    3    3    0  502 -0.14369618566E+03  0.30782715995E+02  0.89338396645E+02  0.17198115745E+03  0.50400001928E-02 0.  1.
</event>
<event>
 5   0  0.1249195E-03  0.9984502E+03  0.7818609E-02  0.9310246E-01
        1   -1    0    0  501    0  0.00000000000E+00  0.00000000000E+00  0.53637618115E+03  0.53637618117E+03  0.50400001928E-02 0.  1.
       -1   -1    0    0    0  501  0.00000000000E+00  0.00000000000E+00 -0.46464717993E+03  0.46464717996E+03  0.50400001928E-02 0. -1.
    10030    2    1    2    0    0  0.00000000000E+00  0.00000000000E+00  0.71729001220E+02  0.10010233611E+04  0.99845015895E+03 0.  0.
        2    1    3    3  502    0  0.18195738954E+03 -0.39018947383E+03  0.28923970635E+03  0.51866745110E+03  0.25500000920E-02 0. -1.
       -2    1    3    3    0  502 -0.18195738954E+03  0.39018947383E+03 -0.21751070513E+03  0.48235591003E+03  0.25500000920E-02 0.  1.
</event>
<event>
 5   0  0.1285769E-03  0.9870552E+03  0.7818609E-02  0.9322858E-01
       -1   -1    0    0    0  501  0.00000000000E+00  0.00000000000E+00  0.29895870926E+03  0.29895870931E+03  0.50400001928E-02 0. -1.
        1   -1    0    0  501    0  0.00000000000E+00  0.00000000000E+00 -0.81472611983E+03  0.81472611985E+03  0.50400001928E-02 0.  1.
    10030    2    1    2    0    0  0.00000000000E+00  0.00000000000E+00 -0.51576741057E+03  0.11136848292E+04  0.98705515392E+03 0.  0.
        5    1    3    3  502    0 -0.12323152456E+03  0.45169327456E+03 -0.81875627860E+02  0.47532991844E+03  0.46999998093E+01 0. -1.
       -5    1    3    3    0  502  0.12323152456E+03 -0.45169327456E+03 -0.43389178271E+03  0.63835491071E+03  0.46999998093E+01 0.  1.
</event>
<event>
 5   0  0.2264577E-03  0.9991314E+03  0.7818609E-02  0.9309498E-01
       -2   -1    0    0    0  501  0.00000000000E+00  0.00000000000E+00  0.28152598469E+03  0.28152598470E+03  0.25500000920E-02 0. -1.
        2   -1    0    0  501    0  0.00000000000E+00  0.00000000000E+00 -0.88647546384E+03  0.88647546385E+03  0.25500000920E-02 0.  1.
    10030    2    1    2    0    0  0.00000000000E+00  0.00000000000E+00 -0.60494947915E+03  0.11680014485E+04  0.99913137849E+03 0.  0.
        5    1    3    3  502    0 -0.13841614150E+02  0.88242918420E+02  0.27208889359E+03  0.28641378973E+03  0.46999998093E+01 0. -1.
       -5    1    3    3    0  502  0.13841614150E+02 -0.88242918420E+02 -0.87703837274E+03  0.88158765882E+03  0.46999998093E+01 0.  1.
</event>
<event>
 5   0  0.1293575E-03  0.9921133E+03  0.7818609E-02  0.9317237E-01
       -1   -1    0    0    0  501  0.00000000000E+00  0.00000000000E+00  0.23520101667E+03  0.23520101672E+03  0.50400001928E-02 0. -1.
        1   -1    0    0  501    0  0.00000000000E+00  0.00000000000E+00 -0.10462208085E+04  0.10462208086E+04  0.50400001928E-02 0.  1.
    10030    2    1    2    0    0  0.00000000000E+00  0.00000000000E+00 -0.81101979188E+03  0.12814218253E+04  0.99211329569E+03 0.  0.
        4    1    3    3  502    0  0.78047859938E+02  0.26560006878E+03 -0.93716909548E+03  0.97720130546E+03  0.12699999809E+01 0.  1.
       -4    1    3    3    0  502 -0.78047859938E+02 -0.26560006878E+03  0.12614930360E+03  0.30422051981E+03  0.12699999809E+01 0. -1.
</event>
<event>
 5   0  0.2284843E-03  0.1000309E+04  0.7818609E-02  0.9308206E-01
        2   -1    0    0  501    0  0.00000000000E+00  0.00000000000E+00  0.99266016871E+03  0.99266016871E+03  0.25500000920E-02 0.  1.
       -2   -1    0    0    0  501  0.00000000000E+00  0.00000000000E+00 -0.25200405521E+03  0.25200405522E+03  0.25500000920E-02 0. -1.
    10030    2    1    2    0    0  0.00000000000E+00  0.00000000000E+00  0.74065611350E+03  0.12446642239E+04  0.10003087283E+04 0.  0.
        2    1    3    3  502    0 -0.29404514461E+03 -0.34750356424E+03  0.11250939978E+03  0.46891325346E+03  0.25500000920E-02 0. -1.
       -2    1    3    3    0  502  0.29404514461E+03  0.34750356424E+03  0.62814671372E+03  0.77575097047E+03  0.25500000920E-02 0.  1.
</event>
<event>
 5   0  0.1353789E-03  0.1001299E+04  0.7818609E-02  0.9307122E-01
       -1   -1    0    0    0  501  0.00000000000E+00  0.00000000000E+00  0.82550294503E+03  0.82550294504E+03  0.50400001928E-02 0.  1.
        1   -1    0    0  501    0  0.00000000000E+00  0.00000000000E+00 -0.30363277894E+03  0.30363277899E+03  0.50400001928E-02 0. -1.
    10030    2    1    2    0    0  0.00000000000E+00  0.00000000000E+00  0.52187016609E+03  0.11291357240E+04  0.10012986633E+04 0.  0.
        1    1    3    3  502    0  0.22141955983E+03 -0.36307309837E+03  0.55886458542E+03  0.70226655986E+03  0.50400001928E-02 0.  1.
       -1    1    3    3    0  502 -0.22141955983E+03  0.36307309837E+03 -0.36994419335E+02  0.42686916417E+03  0.50400001928E-02 0. -1.
</event>
<event>
 5   0  0.2277570E-03  0.9973192E+03  0.7818609E-02  0.9311490E-01
       -2   -1    0    0    0  501  0.00000000000E+00  0.00000000000E+00  0.11204873438E+03  0.11204873441E+03  0.25500000920E-02 0. -1.
        2   -1    0    0  501    0  0.00000000000E+00  0.00000000000E+00 -0.22192252067E+04  0.22192252067E+04  0.25500000920E-02 0.  1.
    10030    2    1    2    0    0  0.00000000000E+00  0.00000000000E+00 -0.21071764723E+04  0.23312739411E+04  0.99731915803E+03 0.  0.
        3    1    3    3  502    0  0.86722321813E+02 -0.21891270299E+03 -0.20810904136E+04  0.20943688434E+04  0.10100000352E+00 0.  1.
       -3    1    3    3    0  502 -0.86722321813E+02  0.21891270299E+03 -0.26086058711E+02  0.23690509765E+03  0.10100000352E+00 0. -1.
</event>
<event>
 5   0  0.2264577E-03  0.9892455E+03  0.7818609E-02  0.9320419E-01
       -2   -1    0    0    0  501  0.00000000000E+00  0.00000000000E+00  0.35198932267E+03  0.35198932268E+03  0.25500000920E-02 0. -1.
        2   -1    0    0  501    0  0.00000000000E+00  0.00000000000E+00 -0.69505419512E+03  0.69505419512E+03  0.25500000920E-02 0.  1.
    10030    2    1    2    0    0  0.00000000000E+00  0.00000000000E+00 -0.34306487244E+03  0.10470435178E+04  0.98924548090E+03 0.  0.
        5    1    3    3  502    0 -0.81062256024E+02 -0.21539766749E+02 -0.68744827638E+03  0.69256210812E+03  0.46999998093E+01 0.  1.
       -5    1    3    3    0  502  0.81062256024E+02  0.21539766749E+02  0.34438340394E+03  0.35448140968E+03  0.46999998093E+01 0. -1.
</event>
<event>
 5   0  0.1353789E-03  0.9919875E+03  0.7818609E-02  0.9317377E-01
        1   -1    0    0  501    0  0.00000000000E+00  0.00000000000E+00  0.84565484606E+03  0.84565484608E+03  0.50400001928E-02 0. -1.
       -1   -1    0    0    0  501  0.00000000000E+00  0.00000000000E+00 -0.29091041651E+03  0.29091041656E+03  0.50400001928E-02 0.  1.
    10030    2    1    2    0    0  0.00000000000E+00  0.00000000000E+00  0.55474442955E+03  0.11365652626E+04  0.99198750703E+03 0.  0.
        1    1    3    3  502    0  0.32717078466E+03  0.35827663631E+03  0.15937192082E+03  0.51068804532E+03  0.50400001928E-02 0.  1.
       -1    1    3    3    0  502 -0.32717078466E+03 -0.35827663631E+03  0.39537250873E+03  0.62587721731E+03  0.50400001928E-02 0. -1.
</event>
<event>
 5   0  0.1293575E-03  0.9944514E+03  0.7818609E-02  0.9314651E-01
        1   -1    0    0  501    0  0.00000000000E+00  0.00000000000E+00  0.15870979507E+03  0.15870979515E+03  0.50400001928E-02 0.  1.
       -1   -1    0    0    0  501  0.00000000000E+00  0.00000000000E+00 -0.15577701314E+04  0.15577701314E+04  0.50400001928E-02 0. -1.
    10030    2    1    2    0    0  0.00000000000E+00  0.00000000000E+00 -0.13990603364E+04  0.17164799266E+04  0.99445136312E+03 0.  0.
        4    1    3    3  502    0  0.49370817190E+03  0.58056895189E+02 -0.71791113103E+03  0.87322183152E+03  0.12699999809E+01 0.  1.
       -4    1    3    3    0  502 -0.49370817190E+03 -0.58056895189E+02 -0.68114920533E+03  0.84325809507E+03  0.12699999809E+01 0. -1.
</event>
<event>
 5   0  0.1285769E-03  0.1002871E+04  0.7818609E-02  0.9305401E-01
        1   -1    0    0  501    0  0.00000000000E+00  0.00000000000E+00  0.64100089737E+03  0.64100089739E+03  0.50400001928E-02 0. -1.
       -1   -1    0    0    0  501  0.00000000000E+00  0.00000000000E+00 -0.39225804873E+03  0.39225804876E+03  0.50400001928E-02 0.  1.
    10030    2    1    2    0    0  0.00000000000E+00  0.00000000000E+00  0.24874284864E+03  0.10332589462E+04  0.10028714001E+04 0.  0.
        5    1    3    3  502    0 -0.33305228148E+03  0.27785956516E+03  0.38356094968E+03  0.57902577859E+03  0.46999998093E+01 0. -1.
       -5    1    3    3    0  502  0.33305228148E+03 -0.27785956516E+03 -0.13481810104E+03  0.45423316756E+03  0.46999998093E+01 0.  1.
</event>
<event>
 5   0  0.1285769E-03  0.9986524E+03  0.7818609E-02  0.9310024E-01
       -1   -1    0    0    0  501  0.00000000000E+00  0.00000000000E+00  0.48054314517E+03  0.48054314520E+03  0.50400001928E-02 0.  1.
        1   -1    0    0  501    0  0.00000000000E+00  0.00000000000E+00 -0.51884347538E+03  0.51884347541E+03  0.50400001928E-02 0. -1.
    10030    2    1    2    0    0  0.00000000000E+00  0.00000000000E+00 -0.38300330211E+02  0.99938662061E+03  0.99865244312E+03 0.  0.
        5    1    3    3  502    0  0.66916371246E+02  0.28041840117E+03 -0.42711677341E+03  0.51532815621E+03  0.46999998093E+01 0. -1.
       -5    1    3    3    0  502 -0.66916371246E+02 -0.28041840117E+03  0.38881644320E+03  0.48405846440E+03  0.46999998093E+01 0.  1.
</event>
<event>
 5   0  0.2264577E-03  0.1001835E+04  0.7818609E-02  0.9306534E-01
        2   -1    0    0  501    0  0.00000000000E+00  0.00000000000E+00  0.55268681699E+03  0.55268681699E+03  0.25500000920E-02 0.  1.
       -2   -1    0    0    0  501  0.00000000000E+00  0.00000000000E+00 -0.45399748729E+03  0.45399748730E+03  0.25500000920E-02 0. -1.
    10030    2    1    2    0    0  0.00000000000E+00  0.00000000000E+00  0.98689329692E+02  0.10066843043E+04  0.10018351684E+04 0.  0.
        5    1    3    3  502    0 -0.47414872217E+03  0.13904376570E+03 -0.33187879803E+02  0.49525115333E+03  0.46999998093E+01 0. -1.
       -5    1    3    3    0  502  0.47414872217E+03 -0.13904376570E+03  0.13187720949E+03  0.51143315096E+03  0.46999998093E+01 0.  1.
</event>
<event>
 5   0  0.2264577E-03  0.9822440E+03  0.7818609E-02  0.9328237E-01
       -2   -1    0    0    0  501  0.00000000000E+00  0.00000000000E+00  0.22345004981E+03  0.22345004983E+03  0.25500000920E-02 0.  1.
        2   -1    0    0  501    0  0.00000000000E+00  0.00000000000E+00 -0.10794394305E+04  0.10794394305E+04  0.25500000920E-02 0. -1.
    10030    2    1    2    0    0  0.00000000000E+00  0.00000000000E+00 -0.85598938069E+03  0.13028894803E+04  0.98224395041E+03 0.  0.
        5    1    3    3  502    0 -0.16103734896E+03 -0.38890756597E+03 -0.76355192306E+03  0.87190352209E+03  0.46999998093E+01 0. -1.
       -5    1    3    3    0  502  0.16103734896E+03  0.38890756597E+03 -0.92437457632E+02  0.43098595824E+03  0.46999998093E+01 0.  1.
</event>
<event>
 5   0  0.2277570E-03  0.9995173E+03  0.7818609E-02  0.9309074E-01
        2   -1    0    0  501    0  0.00000000000E+00  0.00000000000E+00  0.58711753955E+03  0.58711753955E+03  0.25500000920E-02 0. -1.
       -2   -1    0    0    0  501  0.00000000000E+00  0.00000000000E+00 -0.42539812099E+03  0.42539812099E+03  0.25500000920E-02 0.  1.
    10030    2    1    2    0    0  0.00000000000E+00  0.00000000000E+00  0.16171941856E+03  0.10125156605E+04  0.99951727975E+03 0.  0.
        3    1    3    3  502    0  0.16059854788E+03 -0.27508133004E+00  0.56026540129E+03  0.58282870496E+03  0.10100000352E+00 0. -1.
       -3    1    3    3    0  502 -0.16059854788E+03  0.27508133004E+00 -0.39854598273E+03  0.42968695558E+03  0.10100000352E+00 0.  1.
</event>
<event>
 5   0  0.2264577E-03  0.1004421E+04  0.7818609E-02  0.9303710E-01
        2   -1    0    0  501    0  0.00000000000E+00  0.00000000000E+00  0.36222098073E+03  0.36222098074E+03  0.25500000920E-02 0. -1.
       -2   -1    0    0    0  501  0.00000000000E+00  0.00000000000E+00 -0.69630195771E+03  0.69630195771E+03  0.25500000920E-02 0.  1.
    10030    2    1    2    0    0  0.00000000000E+00  0.00000000000E+00 -0.33408097698E+03  0.10585229385E+04  0.10044205852E+04 0.  0.
        5    1    3    3  502    0 -0.27332181280E+03 -0.34987319603E+03 -0.41436655550E+03  0.60732017830E+03  0.46999998093E+01 0.  1.
       -5    1    3    3    0  502  0.27332181280E+03  0.34987319603E+03  0.80285578524E+02  0.45120276015E+03  0.46999998093E+01 0. -1.
</event>
<event>
 5   0  0.1249195E-03  0.1002235E+04  0.7818609E-02  0.9306096E-01
        1   -1    0    0  501    0  0.00000000000E+00  0.00000000000E+00  0.37319920586E+03  0.37319920590E+03  0.50400001928E-02 0.  1.
       -1   -1    0    0    0  501  0.00000000000E+00  0.00000000000E+00 -0.67288188771E+03  0.67288188773E+03  0.50400001928E-02 0. -1.
    10030    2    1    2    0    0  0.00000000000E+00  0.00000000000E+00 -0.29968268185E+03  0.10460810936E+04  0.10022354737E+04 0.  0.
        2    1    3    3  502    0  0.14112768739E+02  0.21116396559E+03 -0.62394831745E+03  0.65886333443E+03  0.25500000920E-02 0. -1.
       -2    1    3    3    0  502 -0.14112768739E+02 -0.21116396559E+03  0.32426563560E+03  0.38721775920E+03  0.25500000920E-02 0.  1.
</event>
<event>
 5   0  0.2277570E-03  0.1001713E+04  0.7818609E-02  0.9306668E-01
       -2   -1    0    0    0  501  0.00000000000E+00  0.00000000000E+00  0.45386041940E+03  0.45386041940E+03  0.25500000920E-02 0. -1.
        2   -1    0    0  501    0  0.00000000000E+00  0.00000000000E+00 -0.55271902416E+03  0.55271902417E+03  0.25500000920E-02 0.  1.
    10030    2    1    2    0    0  0.00000000000E+00  0.00000000000E+00 -0.98858604766E+02  0.10065794436E+04  0.10017131089E+04 0.  0.
        3    1    3    3  502    0 -0.17467586857E+02  0.42277244940E+03  0.21985692924E+03  0.47684246885E+03  0.10100000352E+00 0. -1.
       -3    1    3    3    0  502  0.17467586857E+02 -0.42277244940E+03 -0.31871553401E+03  0.52973697472E+03  0.10100000352E+00 0.  1.
</event>
<event>
 5   0  0.2255142E-03  0.1000601E+04  0.7818609E-02  0.9307886E-01
       -2   -1    0    0    0  501  0.00000000000E+00  0.00000000000E+00  0.17318619406E+03  0.17318619408E+03  0.25500000920E-02 0. -1.
        2   -1    0    0  501    0  0.00000000000E+00  0.00000000000E+00 -0.14452689968E+04  0.14452689968E+04  0.25500000920E-02 0.  1.
    10030    2    1    2    0    0  0.00000000000E+00  0.00000000000E+00 -0.12720828027E+04  0.16184551909E+04  0.10006010933E+04 0.  0.
        4    1    3    3  502    0  0.80944507814E+02 -0.37069708401E+03 -0.11634764768E+04  0.12237840767E+04  0.12699999809E+01 0.  1.
       -4    1    3    3    0  502 -0.80944507814E+02  0.37069708401E+03 -0.10860632596E+03  0.39467111419E+03  0.12699999809E+01 0. -1.
</event>
<event>
 5   0  0.2277570E-03  0.1008462E+04  0.7818609E-02  0.9299312E-01
        2   -1    0    0  501    0  0.00000000000E+00  0.00000000000E+00  0.59292462482E+03  0.59292462483E+03  0.25500000920E-02 0. -1.
       -2   -1    0    0    0  501  0.00000000000E+00  0.00000000000E+00 -0.42880472249E+03  0.42880472250E+03  0.25500000920E-02 0.  1.
    10030    2    1    2    0    0  0.00000000000E+00  0.00000000000E+00  0.16411990233E+03  0.10217293473E+04  0.10084619561E+04 0.  0.
        3    1    3    3  502    0 -0.10454816811E+03 -0.17166469575E+03 -0.38646287506E+03  0.43560607344E+03  0.10100000352E+00 0.  1.
       -3    1    3    3    0  502  0.10454816811E+03  0.17166469575E+03  0.55058277739E+03  0.58612327388E+03  0.10100000352E+00 0. -1.
</event>
<event>
 5   0  0.1249195E-03  0.1000483E+04  0.7818609E-02  0.9308015E-01
       -1   -1    0    0    0  501  0.00000000000E+00  0.00000000000E+00  0.12765109707E+03  0.12765109717E+03  0.50400001928E-02 0. -1.
        1   -1    0    0  501    0  0.00000000000E+00  0.00000000000E+00 -0.19603569201E+04  0.19603569201E+04  0.50400001928E-02 0.  1.
    10030    2    1    2    0    0  0.00000000000E+00  0.00000000000E+00 -0.18327058231E+04  0.20880080173E+04  0.10004833064E+04 0.  0.
        2    1    3    3  502    0 -0.18088052700E+03  0.46508016291E+03 -0.98937965906E+03  0.11081017249E+04  0.25500000920E-02 0.  1.
       -2    1    3    3    0  502  0.18088052700E+03 -0.46508016291E+03 -0.84332616400E+03  0.97990629239E+03  0.25500000920E-02 0. -1.
</event>
<event>
 5   0  0.2284843E-03  0.9935976E+03  0.7818609E-02  0.9315595E-01
       -2   -1    0    0    0  501  0.00000000000E+00  0.00000000000E+00  0.10237090599E+03  0.10237090602E+03  0.25500000920E-02 0.  1.
        2   -1    0    0  501    0  0.00000000000E+00  0.00000000000E+00 -0.24109296074E+04  0.24109296074E+04  0.25500000920E-02 0. -1.
    10030    2    1    2    0    0  0.00000000000E+00  0.00000000000E+00 -0.23085587014E+04  0.25133005135E+04  0.99359760112E+03 0.  0.
        2    1    3    3  502    0  0.13244719820E+03 -0.47426918410E+03 -0.13208332982E+04  0.14096361662E+04  0.25500000920E-02 0. -1.
       -2    1    3    3    0  502 -0.13244719820E+03  0.47426918410E+03 -0.98772540323E+03  0.11036643473E+04  0.25500000920E-02 0.  1.
</event>
<event>
 5   0  0.1293575E-03  0.9971762E+03  0.7818609E-02  0.9311647E-01
        1   -1    0    0  501    0  0.00000000000E+00  0.00000000000E+00  0.21677046997E+04  0.21677046997E+04  0.50400001928E-02 0.  1.
       -1   -1    0    0    0  501  0.00000000000E+00  0.00000000000E+00 -0.11467894496E+03  0.11467894507E+03  0.50400001928E-02 0. -1.
    10030    2    1    2    0    0  0.00000000000E+00  0.00000000000E+00  0.20530257548E+04  0.22823836448E+04  0.99717618921E+03 0.  0.
        4    1    3    3  502    0  0.85584026448E+02  0.25004238684E+03  0.19941908345E+04  0.20116273308E+04  0.12699999809E+01 0.  1.
       -4    1    3    3    0  502 -0.85584026448E+02 -0.25004238684E+03  0.58834920225E+02  0.27075631394E+03  0.12699999809E+01 0. -1.
</event>
<event>
 5   0  0.1293575E-03  0.1003043E+04  0.7818609E-02  0.9305214E-01
       -1   -1    0    0    0  501  0.00000000000E+00  0.00000000000E+00  0.36368128367E+03  0.36368128371E+03  0.50400001928E-02 0. -1.
        1   -1    0    0  501    0  0.00000000000E+00  0.00000000000E+00 -0.69160499282E+03  0.69160499284E+03  0.50400001928E-02 0.  1.
    10030    2    1    2    0    0  0.00000000000E+00  0.00000000000E+00 -0.32792370914E+03  0.10552862765E+04  0.10030429534E+04 0.  0.
        4    1    3    3  502    0 -0.14963003224E+03  0.47865503712E+03 -0.16893985103E+03  0.52919002000E+03  0.12699999809E+01 0. -1.
       -4    1    3    3    0  502  0.14963003224E+03 -0.47865503712E+03 -0.15898385811E+03  0.52609625654E+03  0.12699999809E+01 0.  1.
</event>
<event>
 5   0  0.2255142E-03  0.1000084E+04  0.7818609E-02  0.9308453E-01
       -2   -1    0    0    0  501  0.00000000000E+00  0.00000000000E+00  0.24766752276E+03  0.24766752278E+03  0.25500000920E-02 0.  1.
        2   -1    0    0  501    0  0.00000000000E+00  0.00000000000E+00 -0.10095872102E+04  0.10095872102E+04  0.25500000920E-02 0. -1.
    10030    2    1    2    0    0  0.00000000000E+00  0.00000000000E+00 -0.76191968747E+03  0.12572547330E+04  0.10000839232E+04 0.  0.
        4    1    3    3  502    0 -0.21757386842E+03 -0.31986726839E+03 -0.77927363116E+03  0.87001290951E+03  0.12699999809E+01 0. -1.
       -4    1    3    3    0  502  0.21757386842E+03  0.31986726839E+03  0.17353943686E+02  0.38724182350E+03  0.12699999809E+01 0.  1.
</event>
<event>
 5   0  0.1293716E-03  0.1003051E+04  0.7818609E-02  0.9305205E-01
        1   -1    0    0  501    0  0.00000000000E+00  0.00000000000E+00  0.26895985494E+03  0.26895985499E+03  0.50400001928E-02 0.  1.
       -1   -1    0    0    0  501  0.00000000000E+00  0.00000000000E+00 -0.93518633482E+03  0.93518633484E+03  0.50400001928E-02 0. -1.
    10030    2    1    2    0    0  0.00000000000E+00  0.00000000000E+00 -0.66622647988E+03  0.12041461898E+04  0.10030505092E+04 0.  0.
        3    1    3    3  502    0  0.17829665774E+03 -0.70894666226E+02  0.22315515878E+03  0.29430254323E+03  0.10100000352E+00 0.  1.
       -3    1    3    3    0  502 -0.17829665774E+03  0.70894666226E+02 -0.88938163866E+03  0.90984364659E+03  0.10100000352E+00 0. -1.
</event>
<event>
 5   0  0.8680125E-04  0.9992827E+03  0.7818609E-02  0.9309332E-01
        4   -1    0    0  501    0  0.00000000000E+00  0.00000000000E+00  0.15680849319E+03  0.15681363601E+03  0.12699999809E+01 0.  1.
       -4   -1    0    0    0  501  0.00000000000E+00  0.00000000000E+00 -0.15919834907E+04  0.15919839973E+04  0.12699999809E+01 0. -1.
    10030    2    1    2    0    0  0.00000000000E+00  0.00000000000E+00 -0.14351749975E+04  0.17487976333E+04  0.99928268707E+03 0.  0.
        5    1    3    3  502    0  0.27933028269E+03  0.13914884918E+03 -0.14004032978E+04  0.14347610587E+04  0.46999998093E+01 0. -1.
       -5    1    3    3    0  502 -0.27933028269E+03 -0.13914884918E+03 -0.34771699670E+02  0.31403657455E+03  0.46999998093E+01 0.  1.
</event>
<event>
 5   0  0.2277570E-03  0.1003347E+04  0.7818609E-02  0.9304882E-01
       -2   -1    0    0    0  501  0.00000000000E+00  0.00000000000E+00  0.37793244903E+03  0.37793244903E+03  0.25500000920E-02 0.  1.
        2   -1    0    0  501    0  0.00000000000E+00  0.00000000000E+00 -0.66592920049E+03  0.66592920050E+03  0.25500000920E-02 0. -1.
    10030    2    1    2    0    0  0.00000000000E+00  0.00000000000E+00 -0.28799675146E+03  0.10438616495E+04  0.10033469064E+04 0.  0.
        3    1    3    3  502    0 -0.15153599343E+03 -0.11869689864E+03 -0.62598068999E+03  0.65490758546E+03  0.10100000352E+00 0. -1.
       -3    1    3    3    0  502  0.15153599343E+03  0.11869689864E+03  0.33798393853E+03  0.38895406407E+03  0.10100000352E+00 0.  1.
</event>
<event>
 5   0  0.2277570E-03  0.1001657E+04  0.7818609E-02  0.9306730E-01
        2   -1    0    0  501    0  0.00000000000E+00  0.00000000000E+00  0.41248799128E+03  0.41248799129E+03  0.25500000920E-02 0.  1.
       -2   -1    0    0    0  501  0.00000000000E+00  0.00000000000E+00 -0.60808808400E+03  0.60808808400E+03  0.25500000920E-02 0. -1.
    10030    2    1    2    0    0  0.00000000000E+00  0.00000000000E+00 -0.19560009271E+03  0.10205760753E+04  0.10016566923E+04 0.  0.
        3    1    3    3  502    0 -0.78455893492E+02 -0.81991217438E+02  0.39921596153E+03  0.41503166277E+03  0.10100000352E+00 0.  1.
       -3    1    3    3    0  502  0.78455893492E+02  0.81991217438E+02 -0.59481605424E+03  0.60554441253E+03  0.10100000352E+00 0. -1.
</event>
<event>
 5   0  0.2255142E-03  0.1001225E+04  0.7818609E-02  0.9307203E-01
       -2   -1    0    0    0  501  0.00000000000E+00  0.00000000000E+00  0.29019418794E+03  0.29019418795E+03  0.25500000920E-02 0.  1.
        2   -1    0    0  501    0  0.00000000000E+00  0.00000000000E+00 -0.86360364227E+03  0.86360364228E+03  0.25500000920E-02 0. -1.
    10030    2    1    2    0    0  0.00000000000E+00  0.00000000000E+00 -0.57340945433E+03  0.11537978302E+04  0.10012247653E+04 0.  0.
        4    1    3    3  502    0  0.29535061122E+03  0.40281126413E+03 -0.32530961603E+03  0.59608460577E+03  0.12699999809E+01 0. -1.
       -4    1    3    3    0  502 -0.29535061122E+03 -0.40281126413E+03 -0.24809983831E+03  0.55771322445E+03  0.12699999809E+01 0.  1.
</event>
<event>
 5   0  0.1353789E-03  0.1003750E+04  0.7818609E-02  0.9304441E-01
       -1   -1    0    0    0  501  0.00000000000E+00  0.00000000000E+00  0.29447082022E+03  0.29447082026E+03  0.50400001928E-02 0.  1.
        1   -1    0    0  501    0  0.00000000000E+00  0.00000000000E+00 -0.85535985139E+03  0.85535985140E+03  0.50400001928E-02 0. -1.
    10030    2    1    2    0    0  0.00000000000E+00  0.00000000000E+00 -0.56088903117E+03  0.11498306717E+04  0.10037500028E+04 0.  0.
        1    1    3    3  502    0  0.26279556795E+03  0.41706109518E+03 -0.17251439863E+03  0.52226687182E+03  0.50400001928E-02 0. -1.
       -1    1    3    3    0  502 -0.26279556795E+03 -0.41706109518E+03 -0.38837463254E+03  0.62756379984E+03  0.50400001928E-02 0.  1.
</event>
<event>
 5   0  0.2255142E-03  0.1000113E+04  0.7818609E-02  0.9308421E-01
       -2   -1    0    0    0  501  0.00000000000E+00  0.00000000000E+00  0.19541337725E+03  0.19541337727E+03  0.25500000920E-02 0. -1.
        2   -1    0    0  501    0  0.00000000000E+00  0.00000000000E+00 -0.12796271434E+04  0.12796271434E+04  0.25500000920E-02 0.  1.
    10030    2    1    2    0    0  0.00000000000E+00  0.00000000000E+00 -0.10842137661E+04  0.14750405207E+04  0.10001125171E+04 0.  0.
        4    1    3    3  502    0  0.29315422807E+03  0.32728648983E+03 -0.89422465737E+03  0.99634090482E+03  0.12699999809E+01 0. -1.
       -4    1    3    3    0  502 -0.29315422807E+03 -0.32728648983E+03 -0.18998910877E+03  0.47869961584E+03  0.12699999809E+01 0.  1.
</event>
<event>
 5   0  0.1293716E-03  0.9864418E+03  0.7818609E-02  0.9323541E-01
        1   -1    0    0  501    0  0.00000000000E+00  0.00000000000E+00  0.31062511832E+03  0.31062511836E+03  0.50400001928E-02 0. -1.
       -1   -1    0    0    0  501  0.00000000000E+00  0.00000000000E+00 -0.78315249189E+03  0.78315249191E+03  0.50400001928E-02 0.  1.
    10030    2    1    2    0    0  0.00000000000E+00  0.00000000000E+00 -0.47252737357E+03  0.10937776103E+04  0.98644175802E+03 0.  0.
        3    1    3    3  502    0  0.11821935708E+03  0.17277647781E+03 -0.73144351926E+03  0.76081348552E+03  0.10100000352E+00 0.  1.
       -3    1    3    3    0  502 -0.11821935708E+03 -0.17277647781E+03  0.25891614569E+03  0.33296412475E+03  0.10100000352E+00 0. -1.
</event>
<event>
 5   0  0.2277570E-03  0.1000467E+04  0.7818609E-02  0.9308033E-01
        2   -1    0    0  501    0  0.00000000000E+00  0.00000000000E+00  0.11332675936E+04  0.11332675937E+04  0.25500000920E-02 0. -1.
       -2   -1    0    0    0  501  0.00000000000E+00  0.00000000000E+00 -0.22080700548E+03  0.22080700550E+03  0.25500000920E-02 0.  1.
    10030    2    1    2    0    0  0.00000000000E+00  0.00000000000E+00  0.91246058817E+03  0.13540745991E+04  0.10004667386E+04 0.  0.
        3    1    3    3  502    0 -0.64572732915E+02  0.49470368741E+03  0.40683357018E+03  0.64375068171E+03  0.10100000352E+00 0.  1.
       -3    1    3    3    0  502  0.64572732915E+02 -0.49470368741E+03  0.50562701798E+03  0.71032391744E+03  0.10100000352E+00 0. -1.
</event>
<event>
 5   0  0.2264577E-03  0.1005269E+04  0.7818609E-02  0.9302785E-01
        2   -1    0    0  501    0  0.00000000000E+00  0.00000000000E+00  0.67018953460E+03  0.67018953460E+03  0.25500000920E-02 0. -1.
       -2   -1    0    0    0  501  0.00000000000E+00  0.00000000000E+00 -0.37697011744E+03  0.37697011745E+03  0.25500000920E-02 0.  1.
    10030    2    1    2    0    0  0.00000000000E+00  0.00000000000E+00  0.29321941716E+03  0.10471596521E+04  0.10052689741E+04 0.  0.
        5    1    3    3  502    0  0.25356102798E+03 -0.40400118186E+03  0.31167165153E+03  0.56979948949E+03  0.46999998093E+01 0. -1.
       -5    1    3    3    0  502 -0.25356102798E+03  0.40400118186E+03 -0.18452234379E+02  0.47736016256E+03  0.46999998093E+01 0.  1.
</event>
<event>
 5   0  0.1293575E-03  0.9894994E+03  0.7818609E-02  0.9320137E-01
       -1   -1    0    0    0  501  0.00000000000E+00  0.00000000000E+00  0.24368294934E+03  0.24368294939E+03  0.50400001928E-02 0. -1.
        1   -1    0    0  501    0  0.00000000000E+00  0.00000000000E+00 -0.10044907154E+04  0.10044907154E+04  0.50400001928E-02 0.  1.
    10030    2    1    2    0    0  0.00000000000E+00  0.00000000000E+00 -0.76080776607E+03  0.12481736648E+04  0.98949938889E+03 0.  0.
        4    1    3    3  502    0 -0.33713836331E+03  0.18718151234E+01  0.76344663661E+02  0.34568179049E+03  0.12699999809E+01 0. -1.
       -4    1    3    3    0  502  0.33713836331E+03 -0.18718151234E+01 -0.83715242973E+03  0.90249187432E+03  0.12699999809E+01 0.  1.
</event>
<event>
 5   0  0.1353789E-03  0.1001841E+04  0.7818609E-02  0.9306528E-01
        1   -1    0    0  501    0  0.00000000000E+00  0.00000000000E+00  0.25772373646E+03  0.25772373651E+03  0.50400001928E-02 0.  1.
       -1   -1    0    0    0  501  0.00000000000E+00  0.00000000000E+00 -0.97360658742E+03  0.97360658743E+03  0.50400001928E-02 0. -1.
    10030    2    1    2    0    0  0.00000000000E+00  0.00000000000E+00 -0.71588285096E+03  0.12313303239E+04  0.10018413599E+04 0.  0.
        1    1    3    3  502    0  0.40840695891E+03  0.13716970878E+03 -0.43843807096E+02  0.43305202059E+03  0.50400001928E-02 0.  1.
       -1    1    3    3    0  502 -0.40840695891E+03 -0.13716970878E+03 -0.67203904386E+03  0.79827830335E+03  0.50400001928E-02 0. -1.
</event>
<event>
 5   0  0.2204862E-03  0.1000163E+04  0.7818609E-02  0.9308366E-01
        2   -1    0    0  501    0  0.00000000000E+00  0.00000000000E+00  0.13929042195E+04  0.13929042195E+04  0.25500000920E-02 0. -1.
       -2   -1    0    0    0  501  0.00000000000E+00  0.00000000000E+00 -0.17953971726E+03  0.17953971728E+03  0.25500000920E-02 0.  1.
    10030    2    1    2    0    0  0.00000000000E+00  0.00000000000E+00  0.12133645022E+04  0.15724439367E+04  0.10001632462E+04 0.  0.
        1    1    3    3  502    0  0.30887067697E+02  0.28271209531E+03 -0.40022975097E+02  0.28719675894E+03  0.50400001928E-02 0.  1.
       -1    1    3    3    0  502 -0.30887067697E+02 -0.28271209531E+03  0.12533874773E+04  0.12852471778E+04  0.50400001928E-02 0. -1.
</event>
<event>
 5   0  0.1293575E-03  0.1002469E+04  0.7818609E-02  0.9305841E-01
        1   -1    0    0  501    0  0.00000000000E+00  0.00000000000E+00  0.11220164648E+04  0.11220164648E+04  0.50400001928E-02 0.  1.
       -1   -1    0    0    0  501  0.00000000000E+00  0.00000000000E+00 -0.22391455527E+03  0.22391455532E+03  0.50400001928E-02 0. -1.
    10030    2    1    2    0    0  0.00000000000E+00  0.00000000000E+00  0.89810190949E+03  0.13459310201E+04  0.10024685885E+04 0.  0.
        4    1    3    3  502    0 -0.25010407251E+03  0.42658077251E+03  0.55903906056E+03  0.74635747916E+03  0.12699999809E+01 0.  1.
       -4    1    3    3    0  502  0.25010407251E+03 -0.42658077251E+03  0.33906284893E+03  0.59957354093E+03  0.12699999809E+01 0. -1.
</event>
<event>
 5   0  0.2264577E-03  0.1001772E+04  0.7818609E-02  0.9306604E-01
        2   -1    0    0  501    0  0.00000000000E+00  0.00000000000E+00  0.42013623557E+03  0.42013623558E+03  0.25500000920E-02 0. -1.
       -2   -1    0    0    0  501  0.00000000000E+00  0.00000000000E+00 -0.59715522365E+03  0.59715522366E+03  0.25500000920E-02 0.  1.
    10030    2    1    2    0    0  0.00000000000E+00  0.00000000000E+00 -0.17701898808E+03  0.10172914592E+04  0.10017715263E+04 0.  0.
        5    1    3    3  502    0  0.39396450515E+03 -0.13258975121E+03 -0.37225994564E+03  0.55802117394E+03  0.46999998093E+01 0.  1.
       -5    1    3    3    0  502 -0.39396450515E+03  0.13258975121E+03  0.19524095757E+03  0.45927028529E+03  0.46999998093E+01 0. -1.
</event>
<event>
 5   0  0.1249195E-03  0.9991383E+03  0.7818609E-02  0.9309490E-01
        1   -1    0    0  501    0  0.00000000000E+00  0.00000000000E+00  0.10059255620E+04  0.10059255621E+04  0.50400001928E-02 0.  1.
       -1   -1    0    0    0  501  0.00000000000E+00  0.00000000000E+00 -0.24809920515E+03  0.24809920520E+03  0.50400001928E-02 0. -1.
    10030    2    1    2    0    0  0.00000000000E+00  0.00000000000E+00  0.75782635689E+03  0.12540247673E+04  0.99913829358E+03 0.  0.
        2    1    3    3  502    0  0.60368365938E+02  0.44755887378E+03  0.64697769761E+03  0.78900787469E+03  0.25500000920E-02 0.  1.
       -2    1    3    3    0  502 -0.60368365938E+02 -0.44755887378E+03  0.11084865928E+03  0.46501689257E+03  0.25500000920E-02 0. -1.
</event>
<event>
 5   0  0.1285769E-03  0.9989406E+03  0.7818609E-02  0.9309708E-01
       -1   -1    0    0    0  501  0.00000000000E+00  0.00000000000E+00  0.65898076419E+03  0.65898076421E+03  0.50400001928E-02 0.  1.
        1   -1    0    0  501    0  0.00000000000E+00  0.00000000000E+00 -0.37857034585E+03  0.37857034588E+03  0.50400001928E-02 0. -1.
    10030    2    1    2    0    0  0.00000000000E+00  0.00000000000E+00  0.28041041834E+03  0.10375511101E+04  0.99894059049E+03 0.  0.
        5    1    3    3  502    0  0.19667639083E+03 -0.11811935868E+03 -0.32058007997E+03  0.39424289883E+03  0.46999998093E+01 0. -1.
       -5    1    3    3    0  502 -0.19667639083E+03  0.11811935868E+03  0.60099049832E+03  0.64330821125E+03  0.46999998093E+01 0.  1.
</event>
<event>
 5   0  0.1353789E-03  0.9987480E+03  0.7818609E-02  0.9309919E-01
       -1   -1    0    0    0  501  0.00000000000E+00  0.00000000000E+00  0.21051754603E+03  0.21051754609E+03  0.50400001928E-02 0. -1.
        1   -1    0    0  501    0  0.00000000000E+00  0.00000000000E+00 -0.11845776014E+04  0.11845776014E+04  0.50400001928E-02 0.  1.
    10030    2    1    2    0    0  0.00000000000E+00  0.00000000000E+00 -0.97406005538E+03  0.13950951475E+04  0.99874795575E+03 0.  0.
        1    1    3    3  502    0 -0.27483121111E+03  0.36667770325E+03 -0.76425919117E+03  0.89110989444E+03  0.50400001928E-02 0. -1.
       -1    1    3    3    0  502  0.27483121111E+03 -0.36667770325E+03 -0.20980086421E+03  0.50398525307E+03  0.50400001928E-02 0.  1.
</event>
<event>
 5   0  0.2264577E-03  0.1000063E+04  0.7818609E-02  0.9308476E-01
        2   -1    0    0  501    0  0.00000000000E+00  0.00000000000E+00  0.31245520223E+03  0.31245520224E+03  0.25500000920E-02 0.  1.
       -2   -1    0    0    0  501  0.00000000000E+00  0.00000000000E+00 -0.80021539069E+03  0.80021539070E+03  0.25500000920E-02 0. -1.
    10030    2    1    2    0    0  0.00000000000E+00  0.00000000000E+00 -0.48776018846E+03  0.11126705929E+04  0.10000629215E+04 0.  0.
        5    1    3    3  502    0 -0.48493316096E+03 -0.24550295575E+02 -0.11108160516E+03  0.49812056835E+03  0.46999998093E+01 0.  1.
       -5    1    3    3    0  502  0.48493316096E+03  0.24550295575E+02 -0.37667858330E+03  0.61455002459E+03  0.46999998093E+01 0. -1.
</event>
<event>
 5   0  0.1249195E-03  0.9946011E+03  0.7818609E-02  0.9314486E-01
        1   -1    0    0  501    0  0.00000000000E+00  0.00000000000E+00  0.69152734746E+03  0.69152734748E+03  0.50400001928E-02 0. -1.
       -1   -1    0    0    0  501  0.00000000000E+00  0.00000000000E+00 -0.35762553993E+03  0.35762553997E+03  0.50400001928E-02 0.  1.
    10030    2    1    2    0    0  0.00000000000E+00  0.00000000000E+00  0.33390180753E+03  0.10491528874E+04  0.99460110807E+03 0.  0.
        2    1    3    3  502    0 -0.30294448291E+03 -0.31729800187E+03  0.41400713429E+03  0.60320418513E+03  0.25500000920E-02 0. -1.
       -2    1    3    3    0  502  0.30294448291E+03  0.31729800187E+03 -0.80105326765E+02  0.44594870231E+03  0.25500000920E-02 0.  1.
</event>
<event>
 5   0  0.1293716E-03  0.1005440E+04  0.7818609E-02  0.9302598E-01
        1   -1    0    0  501    0  0.00000000000E+00  0.00000000000E+00  0.40326978690E+03  0.40326978693E+03  0.50400001928E-02 0.  1.
       -1   -1    0    0    0  501  0.00000000000E+00  0.00000000000E+00 -0.62669600841E+03  0.62669600843E+03  0.50400001928E-02 0. -1.
    10030    2    1    2    0    0  0.00000000000E+00  0.00000000000E+00 -0.22342622151E+03  0.10299657954E+04  0.10054403330E+04 0.  0.
        3    1    3    3  502    0 -0.38787539389E+02 -0.89499783039E+02 -0.61690896361E+03  0.62457294526E+03  0.10100000352E+00 0. -1.
       -3    1    3    3    0  502  0.38787539389E+02  0.89499783039E+02  0.39348274210E+03  0.40539285010E+03  0.10100000352E+00 0.  1.
</event>
<event>
 5   0  0.2277570E-03  0.9960113E+03  0.7818609E-02  0.9312930E-01
        2   -1    0    0  501    0  0.00000000000E+00  0.00000000000E+00  0.14099373403E+04  0.14099373403E+04  0.25500000920E-02 0.  1.
       -2   -1    0    0    0  501  0.00000000000E+00  0.00000000000E+00 -0.17590116490E+03  0.17590116492E+03  0.25500000920E-02 0. -1.
    10030    2    1    2    0    0  0.00000000000E+00  0.00000000000E+00  0.12340361754E+04  0.15858385052E+04  0.99601128628E+03 0.  0.
        3    1    3    3  502    0 -0.45397929182E+03 -0.48381029508E+02  0.30028969820E+03  0.54645387222E+03  0.10100000352E+00 0. -1.
       -3    1    3    3    0  502  0.45397929182E+03  0.48381029508E+02  0.93374647717E+03  0.10393846330E+04  0.10100000352E+00 0.  1.
</event>
<event>
 5   0  0.2264577E-03  0.1002433E+04  0.7818609E-02  0.9305880E-01
       -2   -1    0    0    0  501  0.00000000000E+00  0.00000000000E+00  0.19383425863E+03  0.19383425864E+03  0.25500000920E-02 0. -1.
        2   -1    0    0  501    0  0.00000000000E+00  0.00000000000E+00 -0.12960459730E+04  0.12960459730E+04  0.25500000920E-02 0.  1.
    10030    2    1    2    0    0  0.00000000000E+00  0.00000000000E+00 -0.11022117143E+04  0.14898802316E+04  0.10024332603E+04 0.  0.
        5    1    3    3  502    0 -0.12343901005E+03 -0.32744499433E+03 -0.10843797127E+04  0.11394555125E+04  0.46999998093E+01 0.  1.
       -5    1    3    3    0  502  0.12343901005E+03  0.32744499433E+03 -0.17832001618E+02  0.35042471915E+03  0.46999998093E+01 0. -1.
</event>
<event>
 5   0  0.2204862E-03  0.1040451E+04  0.7818609E-02  0.9265259E-01
        2   -1    0    0  501    0  0.00000000000E+00  0.00000000000E+00  0.14578078476E+04  0.14578078476E+04  0.25500000920E-02 0.  1.
       -2   -1    0    0    0  501  0.00000000000E+00  0.00000000000E+00 -0.18564478899E+03  0.18564478901E+03  0.25500000920E-02 0. -1.
    10030    2    1    2    0    0  0.00000000000E+00  0.00000000000E+00  0.12721630586E+04  0.16434526366E+04  0.10404507298E+04 0.  0.
        1    1    3    3  502    0  0.27748304382E+03 -0.41088610301E+03  0.38728127808E+03  0.62913513464E+03  0.50400001928E-02 0. -1.
       -1    1    3    3    0  502 -0.27748304382E+03  0.41088610301E+03  0.88488178053E+03  0.10143175020E+04  0.50400001928E-02 0.  1.
</event>
<event>
 5   0  0.1293575E-03  0.1001698E+04  0.7818609E-02  0.9306684E-01
       -1   -1    0    0    0  501  0.00000000000E+00  0.00000000000E+00  0.18337109810E+03  0.18337109817E+03  0.50400001928E-02 0.  1.
        1   -1    0    0  501    0  0.00000000000E+00  0.00000000000E+00 -0.13679895013E+04  0.13679895013E+04  0.50400001928E-02 0. -1.
    10030    2    1    2    0    0  0.00000000000E+00  0.00000000000E+00 -0.11846184032E+04  0.15513605994E+04  0.10016980325E+04 0.  0.
        4    1    3    3  502    0  0.33308491617E+03 -0.33350950850E+03 -0.33005657047E+03  0.57542428368E+03  0.12699999809E+01 0.  1.
       -4    1    3    3    0  502 -0.33308491617E+03  0.33350950850E+03 -0.85456183268E+03  0.97593631576E+03  0.12699999809E+01 0. -1.
</event>
<event>
 5   0  0.1293716E-03  0.9961131E+03  0.7818609E-02  0.9312818E-01
        1   -1    0    0  501    0  0.00000000000E+00  0.00000000000E+00  0.20989105326E+04  0.20989105326E+04  0.50400001928E-02 0.  1.
       -1   -1    0    0    0  501  0.00000000000E+00  0.00000000000E+00 -0.11818527421E+03  0.11818527432E+03  0.50400001928E-02 0. -1.
    10030    2    1    2    0    0  0.00000000000E+00  0.00000000000E+00  0.19807252584E+04  0.22170958069E+04  0.99611307987E+03 0.  0.
        3    1    3    3  502    0 -0.57179742193E+02 -0.85287837274E+02  0.20750958872E+04  0.20776348306E+04  0.10100000352E+00 0.  1.
       -3    1    3    3    0  502  0.57179742193E+02  0.85287837274E+02 -0.94370628872E+02  0.13946097626E+03  0.10100000352E+00 0. -1.
</event>
<event>
 5   0  0.1353789E-03  0.9979833E+03  0.7818609E-02  0.9310759E-01
       -1   -1    0    0    0  501  0.00000000000E+00  0.00000000000E+00  0.18731739620E+03  0.18731739627E+03  0.50400001928E-02 0. -1.
        1   -1    0    0  501    0  0.00000000000E+00  0.00000000000E+00 -0.13292553455E+04  0.13292553456E+04  0.50400001928E-02 0.  1.
    10030    2    1    2    0    0  0.00000000000E+00  0.00000000000E+00 -0.11419379493E+04  0.15165727418E+04  0.99798326693E+03 0.  0.
        1    1    3    3  502    0  0.35389349162E+03 -0.65973760234E+02 -0.10960680557E+04  0.11536716704E+04  0.50400001928E-02 0.  1.
       -1    1    3    3    0  502 -0.35389349162E+03  0.65973760234E+02 -0.45869893672E+02  0.36290107140E+03  0.50400001928E-02 0. -1.
</event>
<event>
 5   0  0.2284843E-03  0.9866521E+03  0.7818609E-02  0.9323307E-01
        2   -1    0    0  501    0  0.00000000000E+00  0.00000000000E+00  0.14036191601E+04  0.14036191601E+04  0.25500000920E-02 0.  1.
       -2   -1    0    0    0  501  0.00000000000E+00  0.00000000000E+00 -0.17338789899E+03  0.17338789901E+03  0.25500000920E-02 0. -1.
    10030    2    1    2    0    0  0.00000000000E+00  0.00000000000E+00  0.12302312611E+04  0.15770070591E+04  0.98665207074E+03 0.  0.
        2    1    3    3  502    0  0.20602622406E+03 -0.16760369412E+02 -0.10083234084E+03  0.22998886049E+03  0.25500000920E-02 0. -1.
       -2    1    3    3    0  502 -0.20602622406E+03  0.16760369412E+02  0.13310636019E+04  0.13470181986E+04  0.25500000920E-02 0.  1.
</event>
<event>
 5   0  0.1353789E-03  0.9966794E+03  0.7818609E-02  0.9312194E-01
        1   -1    0    0  501    0  0.00000000000E+00  0.00000000000E+00  0.95846342252E+03  0.95846342253E+03  0.50400001928E-02 0. -1.
       -1   -1    0    0    0  501  0.00000000000E+00  0.00000000000E+00 -0.25910477921E+03  0.25910477926E+03  0.50400001928E-02 0.  1.
    10030    2    1    2    0    0  0.00000000000E+00  0.00000000000E+00  0.69935864331E+03  0.12175682018E+04  0.99667939381E+03 0.  0.
        1    1    3    3  502    0 -0.13285439612E+03  0.80220980105E+02 -0.22883030086E+03  0.27649412803E+03  0.50400001928E-02 0.  1.
       -1    1    3    3    0  502  0.13285439612E+03 -0.80220980105E+02  0.92818894416E+03  0.94107407376E+03  0.50400001928E-02 0. -1.
</event>
<event>
 5   0  0.8680125E-04  0.9940322E+03  0.7818609E-02  0.9315115E-01
       -4   -1    0    0    0  501  0.00000000000E+00  0.00000000000E+00  0.52933580560E+03  0.52933732911E+03  0.12699999809E+01 0. -1.
        4   -1    0    0  501    0  0.00000000000E+00  0.00000000000E+00 -0.46666663806E+03  0.46666836617E+03  0.12699999809E+01 0.  1.
    10030    2    1    2    0    0  0.00000000000E+00  0.00000000000E+00  0.62669167536E+02  0.99600569528E+03  0.99403215263E+03 0.  0.
        3    1    3    3  502    0 -0.24962910335E+03  0.82705402093E+02  0.45391839996E+03  0.52459202891E+03  0.10100000352E+00 0. -1.
       -3    1    3    3    0  502  0.24962910335E+03 -0.82705402093E+02 -0.39124923242E+03  0.47141366637E+03  0.10100000352E+00 0.  1.
</event>
<event>
 5   0  0.1293575E-03  0.1003994E+04  0.7818609E-02  0.9304175E-01
        1   -1    0    0  501    0  0.00000000000E+00  0.00000000000E+00  0.56754199270E+03  0.56754199272E+03  0.50400001928E-02 0. -1.
       -1   -1    0    0    0  501  0.00000000000E+00  0.00000000000E+00 -0.44402206884E+03  0.44402206887E+03  0.50400001928E-02 0.  1.
    10030    2    1    2    0    0  0.00000000000E+00  0.00000000000E+00  0.12351992386E+03  0.10115640616E+04  0.10039943621E+04 0.  0.
        4    1    3    3  502    0  0.32338272168E+03 -0.10541986596E+03 -0.31022526799E+03  0.46035971003E+03  0.12699999809E+01 0.  1.
       -4    1    3    3    0  502 -0.32338272168E+03  0.10541986596E+03  0.43374519185E+03  0.55120435155E+03  0.12699999809E+01 0. -1.
</event>
<event>
 5   0  0.2277570E-03  0.9990773E+03  0.7818609E-02  0.9309557E-01
        2   -1    0    0  501    0  0.00000000000E+00  0.00000000000E+00  0.22113546257E+04  0.22113546257E+04  0.25500000920E-02 0.  1.
       -2   -1    0    0    0  501  0.00000000000E+00  0.00000000000E+00 -0.11284435250E+03  0.11284435253E+03  0.25500000920E-02 0. -1.
    10030    2    1    2    0    0  0.00000000000E+00  0.00000000000E+00  0.20985102732E+04  0.23241989783E+04  0.99907733621E+03 0.  0.
        3    1    3    3  502    0 -0.39098947986E+03  0.20936238311E+03  0.15839781161E+04  0.16448988004E+04  0.10100000352E+00 0.  1.
       -3    1    3    3    0  502  0.39098947986E+03 -0.20936238311E+03  0.51453215709E+03  0.67930017790E+03  0.10100000352E+00 0. -1.
</event>
<event>
 5   0  0.2277570E-03  0.1002905E+04  0.7818609E-02  0.9305364E-01
        2   -1    0    0  501    0  0.00000000000E+00  0.00000000000E+00  0.18362138917E+04  0.18362138917E+04  0.25500000920E-02 0.  1.
       -2   -1    0    0    0  501  0.00000000000E+00  0.00000000000E+00 -0.13694186557E+03  0.13694186559E+03  0.25500000920E-02 0. -1.
    10030    2    1    2    0    0  0.00000000000E+00  0.00000000000E+00  0.16992720261E+04  0.19731557573E+04  0.10029048927E+04 0.  0.
        3    1    3    3  502    0 -0.12982161475E+03  0.42335751580E+03  0.38668379788E+03  0.58788570962E+03  0.10100000352E+00 0. -1.
       -3    1    3    3    0  502  0.12982161475E+03 -0.42335751580E+03  0.13125882282E+04  0.13852700476E+04  0.10100000352E+00 0.  1.
</event>
<event>
 5   0  0.1249195E-03  0.1003648E+04  0.7818609E-02  0.9304553E-01
       -1   -1    0    0    0  501  0.00000000000E+00  0.00000000000E+00  0.13678974507E+03  0.13678974516E+03  0.50400001928E-02 0.  1.
        1   -1    0    0  501    0  0.00000000000E+00  0.00000000000E+00 -0.18409804340E+04  0.18409804340E+04  0.50400001928E-02 0. -1.
    10030    2    1    2    0    0  0.00000000000E+00  0.00000000000E+00 -0.17041906890E+04  0.19777701792E+04  0.10036478353E+04 0.  0.
        2    1    3    3  502    0 -0.28414810156E+03  0.36343289176E+03 -0.12412722028E+04  0.13242281872E+04  0.25500000920E-02 0. -1.
       -2    1    3    3    0  502  0.28414810156E+03 -0.36343289176E+03 -0.46291848619E+03  0.65354199199E+03  0.25500000920E-02 0.  1.
</event>
<event>
 5   0  0.8680125E-04  0.9973047E+03  0.7818609E-02  0.9311506E-01
        3   -1    0    0  501    0  0.00000000000E+00  0.00000000000E+00  0.13240015446E+04  0.13240015485E+04  0.10100000352E+00 0.  1.
       -3   -1    0    0    0  501  0.00000000000E+00  0.00000000000E+00 -0.18780502483E+03  0.18780505199E+03  0.10100000352E+00 0. -1.
    10030    2    1    2    0    0  0.00000000000E+00  0.00000000000E+00  0.11361965198E+04  0.15118066005E+04  0.99730470050E+03 0.  0.
        4    1    3    3  502    0 -0.22941969133E+03  0.35518689345E+03  0.16742800254E+03  0.45478002702E+03  0.12699999809E+01 0. -1.
       -4    1    3    3    0  502  0.22941969133E+03 -0.35518689345E+03  0.96876851725E+03  0.10570265734E+04  0.12699999809E+01 0.  1.
</event>
<event>
 5   0  0.1285769E-03  0.9936717E+03  0.7818609E-02  0.9315513E-01
       -1   -1    0    0    0  501  0.00000000000E+00  0.00000000000E+00  0.15619192523E+03  0.15619192531E+03  0.50400001928E-02 0. -1.
        1   -1    0    0  501    0  0.00000000000E+00  0.00000000000E+00 -0.15804010278E+04  0.15804010278E+04  0.50400001928E-02 0.  1.
    10030    2    1    2    0    0  0.00000000000E+00  0.00000000000E+00 -0.14242091026E+04  0.17365929531E+04  0.99367173501E+03 0.  0.
        5    1    3    3  502    0 -0.11432638338E+03  0.46505841629E+03 -0.48108407360E+03  0.67883269541E+03  0.46999998093E+01 0. -1.
       -5    1    3    3    0  502  0.11432638338E+03 -0.46505841629E+03 -0.94312502899E+03  0.10577602577E+04  0.46999998093E+01 0.  1.
</event>
<event>
 5   0  0.2264577E-03  0.1001786E+04  0.7818609E-02  0.9306589E-01
        2   -1    0    0  501    0  0.00000000000E+00  0.00000000000E+00  0.85937843561E+03  0.85937843561E+03  0.25500000920E-02 0.  1.
       -2   -1    0    0    0  501  0.00000000000E+00  0.00000000000E+00 -0.29194775431E+03  0.29194775432E+03  0.25500000920E-02 0. -1.
    10030    2    1    2    0    0  0.00000000000E+00  0.00000000000E+00  0.56743068130E+03  0.11513261899E+04  0.10017856146E+04 0.  0.
        5    1    3    3  502    0  0.21005606209E+02 -0.38047372814E+03  0.65730899416E+03  0.75978858711E+03  0.46999998093E+01 0.  1.
       -5    1    3    3    0  502 -0.21005606209E+02  0.38047372814E+03 -0.89878312862E+02  0.39153760282E+03  0.46999998093E+01 0. -1.
</event>
<event>
 5   0  0.2204862E-03  0.1001064E+04  0.7818609E-02  0.9307379E-01
       -2   -1    0    0    0  501  0.00000000000E+00  0.00000000000E+00  0.30261091500E+03  0.30261091501E+03  0.25500000920E-02 0.  1.
        2   -1    0    0  501    0  0.00000000000E+00  0.00000000000E+00 -0.82790227615E+03  0.82790227615E+03  0.25500000920E-02 0. -1.
    10030    2    1    2    0    0  0.00000000000E+00  0.00000000000E+00 -0.52529136115E+03  0.11305131912E+04  0.10010639646E+04 0.  0.
        1    1    3    3  502    0 -0.13799963243E+03 -0.18782851087E+03 -0.76287951837E+03  0.79768954338E+03  0.50400001928E-02 0. -1.
       -1    1    3    3    0  502  0.13799963243E+03  0.18782851087E+03  0.23758815722E+03  0.33282364778E+03  0.50400001928E-02 0.  1.
</event>
<event>
 5   0  0.1285769E-03  0.1021975E+04  0.7818609E-02  0.9284766E-01
        1   -1    0    0  501    0  0.00000000000E+00  0.00000000000E+00  0.26920780655E+03  0.26920780659E+03  0.50400001928E-02 0.  1.
       -1   -1    0    0    0  501  0.00000000000E+00  0.00000000000E+00 -0.96991414113E+03  0.96991414114E+03  0.50400001928E-02 0. -1.
    10030    2    1    2    0    0  0.00000000000E+00  0.00000000000E+00 -0.70070633458E+03  0.12391219477E+04  0.10219754567E+04 0.  0.
        5    1    3    3  502    0  0.33162761736E+03  0.18759017419E+02 -0.82112793542E+03  0.88577759830E+03  0.46999998093E+01 0. -1.
       -5    1    3    3    0  502 -0.33162761736E+03 -0.18759017419E+02  0.12042160083E+03  0.35334434944E+03  0.46999998093E+01 0.  1.
</event>
<event>
 5   0  0.1293575E-03  0.9871916E+03  0.7818609E-02  0.9322705E-01
       -1   -1    0    0    0  501  0.00000000000E+00  0.00000000000E+00  0.15586750906E+03  0.15586750915E+03  0.50400001928E-02 0.  1.
        1   -1    0    0  501    0  0.00000000000E+00  0.00000000000E+00 -0.15631021443E+04  0.15631021443E+04  0.50400001928E-02 0. -1.
    10030    2    1    2    0    0  0.00000000000E+00  0.00000000000E+00 -0.14072346352E+04  0.17189696534E+04  0.98719164850E+03 0.  0.
        4    1    3    3  502    0 -0.46636796162E+03  0.16134174740E+03 -0.72145917885E+03  0.87409106776E+03  0.12699999809E+01 0. -1.
       -4    1    3    3    0  502  0.46636796162E+03 -0.16134174740E+03 -0.68577545636E+03  0.84487858568E+03  0.12699999809E+01 0.  1.
</event>
<event>
 5   0  0.2255142E-03  0.9976662E+03  0.7818609E-02  0.9311108E-01
       -2   -1    0    0    0  501  0.00000000000E+00  0.00000000000E+00  0.58355340675E+03  0.58355340676E+03  0.25500000920E-02 0. -1.
        2   -1    0    0  501    0  0.00000000000E+00  0.00000000000E+00 -0.42641246077E+03  0.42641246078E+03  0.25500000920E-02 0.  1.
    10030    2    1    2    0    0  0.00000000000E+00  0.00000000000E+00  0.15714094598E+03  0.10099658675E+04  0.99766616495E+03 0.  0.
        4    1    3    3  502    0 -0.22919617190E+03 -0.17402913810E+03  0.49104408619E+03  0.56915984890E+03  0.12699999809E+01 0. -1.
       -4    1    3    3    0  502  0.22919617190E+03  0.17402913810E+03 -0.33390314021E+03  0.44080601863E+03  0.12699999809E+01 0.  1.
</event>
<event>
 5   0  0.2277570E-03  0.9896800E+03  0.7818609E-02  0.9319937E-01
        2   -1    0    0  501    0  0.00000000000E+00  0.00000000000E+00  0.66134742874E+03  0.66134742875E+03  0.25500000920E-02 0.  1.
       -2   -1    0    0    0  501  0.00000000000E+00  0.00000000000E+00 -0.37025416656E+03  0.37025416657E+03  0.25500000920E-02 0. -1.
    10030    2    1    2    0    0  0.00000000000E+00  0.00000000000E+00  0.29109326218E+03  0.10316015953E+04  0.98968003121E+03 0.  0.
        3    1    3    3  502    0  0.28859759797E+03  0.14111172315E+03 -0.24678137084E+03  0.40509523221E+03  0.10100000352E+00 0. -1.
       -3    1    3    3    0  502 -0.28859759797E+03 -0.14111172315E+03  0.53787463302E+03  0.62650636311E+03  0.10100000352E+00 0.  1.
</event>
<event>
 5   0  0.2264577E-03  0.9997492E+03  0.7818609E-02  0.9308820E-01
       -2   -1    0    0    0  501  0.00000000000E+00  0.00000000000E+00  0.17267453661E+03  0.17267453663E+03  0.25500000920E-02 0.  1.
        2   -1    0    0  501    0  0.00000000000E+00  0.00000000000E+00 -0.14470842211E+04  0.14470842211E+04  0.25500000920E-02 0. -1.
    10030    2    1    2    0    0  0.00000000000E+00  0.00000000000E+00 -0.12744096845E+04  0.16197587577E+04  0.99974916322E+03 0.  0.
        5    1    3    3  502    0  0.17079690925E+03  0.36007318587E+03 -0.11260229912E+04  0.11944765172E+04  0.46999998093E+01 0. -1.
       -5    1    3    3    0  502 -0.17079690925E+03 -0.36007318587E+03 -0.14838669331E+03  0.42528224057E+03  0.46999998093E+01 0.  1.
</event>
<event>
 5   0  0.2264577E-03  0.1004711E+04  0.7818609E-02  0.9303393E-01
        2   -1    0    0  501    0  0.00000000000E+00  0.00000000000E+00  0.12263158274E+04  0.12263158274E+04  0.25500000920E-02 0.  1.
       -2   -1    0    0    0  501  0.00000000000E+00  0.00000000000E+00 -0.20578781550E+03  0.20578781551E+03  0.25500000920E-02 0. -1.
    10030    2    1    2    0    0  0.00000000000E+00  0.00000000000E+00  0.10205280119E+04  0.14321036429E+04  0.10047106155E+04 0.  0.
        5    1    3    3  502    0 -0.21114171309E+03  0.45252262497E+03  0.58809098799E+03  0.77151192425E+03  0.46999998093E+01 0.  1.
       -5    1    3    3    0  502  0.21114171309E+03 -0.45252262497E+03  0.43243702392E+03  0.66059171866E+03  0.46999998093E+01 0. -1.
</event>
<event>
 5   0  0.2264577E-03  0.9998296E+03  0.7818609E-02  0.9308732E-01
       -2   -1    0    0    0  501  0.00000000000E+00  0.00000000000E+00  0.18884405403E+03  0.18884405405E+03  0.25500000920E-02 0. -1.
        2   -1    0    0  501    0  0.00000000000E+00  0.00000000000E+00 -0.13233924103E+04  0.13233924103E+04  0.25500000920E-02 0.  1.
    10030    2    1    2    0    0  0.00000000000E+00  0.00000000000E+00 -0.11345483563E+04  0.15122364644E+04  0.99982956119E+03 0.  0.
        5    1    3    3  502    0  0.21679021625E+03 -0.42911740866E+03 -0.77439727257E+03  0.91151136802E+03  0.46999998093E+01 0.  1.
       -5    1    3    3    0  502 -0.21679021625E+03  0.42911740866E+03 -0.36015108373E+03  0.60072509635E+03  0.46999998093E+01 0. -1.
</event>
<event>
 5   0  0.1285769E-03  0.9800357E+03  0.7818609E-02  0.9330716E-01
        1   -1    0    0  501    0  0.00000000000E+00  0.00000000000E+00  0.86911012063E+03  0.86911012065E+03  0.50400001928E-02 0. -1.
       -1   -1    0    0    0  501  0.00000000000E+00  0.00000000000E+00 -0.27627971930E+03  0.27627971934E+03  0.50400001928E-02 0.  1.
    10030    2    1    2    0    0  0.00000000000E+00  0.00000000000E+00  0.59283040133E+03  0.11453898400E+04  0.98003571405E+03 0.  0.
        5    1    3    3  502    0  0.35240743538E+03  0.13800521184E+02  0.69397667591E+03  0.77846462451E+03  0.46999998093E+01 0.  1.
       -5    1    3    3    0  502 -0.35240743538E+03 -0.13800521184E+02 -0.10114627458E+03  0.36692521548E+03  0.46999998093E+01 0. -1.
</event>
<event>
 5   0  0.2204862E-03  0.9916695E+03  0.7818609E-02  0.9317729E-01
       -2   -1    0    0    0  501  0.00000000000E+00  0.00000000000E+00  0.55621689507E+03  0.55621689508E+03  0.25500000920E-02 0.  1.
        2   -1    0    0  501    0  0.00000000000E+00  0.00000000000E+00 -0.44200764344E+03  0.44200764344E+03  0.25500000920E-02 0. -1.
    10030    2    1    2    0    0  0.00000000000E+00  0.00000000000E+00  0.11420925164E+03  0.99822453852E+03  0.99166953979E+03 0.  0.
        1    1    3    3  502    0 -0.21717537473E+03  0.13838714448E+03  0.48362227696E+03  0.54791117158E+03  0.50400001928E-02 0.  1.
       -1    1    3    3    0  502  0.21717537473E+03 -0.13838714448E+03 -0.36941302532E+03  0.45031336694E+03  0.50400001928E-02 0. -1.
</event>
<event>
 5   0  0.1249195E-03  0.9960613E+03  0.7818609E-02  0.9312875E-01
        1   -1    0    0  501    0  0.00000000000E+00  0.00000000000E+00  0.57083330376E+03  0.57083330378E+03  0.50400001928E-02 0.  1.
       -1   -1    0    0    0  501  0.00000000000E+00  0.00000000000E+00 -0.43451310790E+03  0.43451310793E+03  0.50400001928E-02 0. -1.
    10030    2    1    2    0    0  0.00000000000E+00  0.00000000000E+00  0.13632019586E+03  0.10053464117E+04  0.99606134939E+03 0.  0.
        2    1    3    3  502    0  0.25177697191E+03  0.37588179003E+03  0.27832161378E+03  0.53117010868E+03  0.25500000920E-02 0.  1.
       -2    1    3    3    0  502 -0.25177697191E+03 -0.37588179003E+03 -0.14200141792E+03  0.47417630303E+03  0.25500000920E-02 0. -1.
</event>
<event>
 5   0  0.1249195E-03  0.9991485E+03  0.7818609E-02  0.9309479E-01
       -1   -1    0    0    0  501  0.00000000000E+00  0.00000000000E+00  0.35068750347E+03  0.35068750351E+03  0.50400001928E-02 0.  1.
        1   -1    0    0  501    0  0.00000000000E+00  0.00000000000E+00 -0.71167193907E+03  0.71167193909E+03  0.50400001928E-02 0. -1.
    10030    2    1    2    0    0  0.00000000000E+00  0.00000000000E+00 -0.36098443560E+03  0.10623594426E+04  0.99914854878E+03 0.  0.
        2    1    3    3  502    0 -0.19831863414E+03 -0.32330272819E+03  0.16522341141E+03  0.41370727621E+03  0.25500000920E-02 0.  1.
       -2    1    3    3    0  502  0.19831863414E+03  0.32330272819E+03 -0.52620784701E+03  0.64865216639E+03  0.25500000920E-02 0. -1.
</event>
<event>
 5   0  0.1293716E-03  0.1000727E+04  0.7818609E-02  0.9307748E-01
        1   -1    0    0  501    0  0.00000000000E+00  0.00000000000E+00  0.14756389608E+04  0.14756389608E+04  0.50400001928E-02 0. -1.
       -1   -1    0    0    0  501  0.00000000000E+00  0.00000000000E+00 -0.16966444553E+03  0.16966444560E+03  0.50400001928E-02 0.  1.
    10030    2    1    2    0    0  0.00000000000E+00  0.00000000000E+00  0.13059745153E+04  0.16453034064E+04  0.10007266683E+04 0.  0.
        3    1    3    3  502    0  0.39091630215E+03  0.11216100186E+03  0.11322324189E+04  0.12030569006E+04  0.10100000352E+00 0. -1.
       -3    1    3    3    0  502 -0.39091630215E+03 -0.11216100186E+03  0.17374209643E+03  0.44224650581E+03  0.10100000352E+00 0.  1.
</event>
<event>
 5   0  0.2204862E-03  0.9970563E+03  0.7818609E-02  0.9311779E-01
        2   -1    0    0  501    0  0.00000000000E+00  0.00000000000E+00  0.14016260923E+04  0.14016260923E+04  0.25500000920E-02 0.  1.
       -2   -1    0    0    0  501  0.00000000000E+00  0.00000000000E+00 -0.17731568683E+03  0.17731568684E+03  0.25500000920E-02 0. -1.
    10030    2    1    2    0    0  0.00000000000E+00  0.00000000000E+00  0.12243104055E+04  0.15789417791E+04  0.99705625366E+03 0.  0.
        1    1    3    3  502    0 -0.20908950216E+03  0.42338402992E+03  0.35898738474E+03  0.59316473186E+03  0.50400001928E-02 0. -1.
       -1    1    3    3    0  502  0.20908950216E+03 -0.42338402992E+03  0.86532302072E+03  0.98577704726E+03  0.50400001928E-02 0.  1.
</event>
<event>
 5   0  0.1293575E-03  0.9979876E+03  0.7818609E-02  0.9310755E-01
       -1   -1    0    0    0  501  0.00000000000E+00  0.00000000000E+00  0.69043317200E+03  0.69043317202E+03  0.50400001928E-02 0.  1.
        1   -1    0    0  501    0  0.00000000000E+00  0.00000000000E+00 -0.36063566829E+03  0.36063566832E+03  0.50400001928E-02 0. -1.
    10030    2    1    2    0    0  0.00000000000E+00  0.00000000000E+00  0.32979750371E+03  0.10510688403E+04  0.99798763203E+03 0.  0.
        4    1    3    3  502    0 -0.21774365391E+03 -0.41723910324E+03  0.33952627888E+03  0.58032790303E+03  0.12699999809E+01 0.  1.
       -4    1    3    3    0  502  0.21774365391E+03  0.41723910324E+03 -0.97287751640E+01  0.47074093731E+03  0.12699999809E+01 0. -1.
</event>
<event>
 5   0  0.1293575E-03  0.1001541E+04  0.7818609E-02  0.9306856E-01
       -1   -1    0    0    0  501  0.00000000000E+00  0.00000000000E+00  0.16576323031E+03  0.16576323039E+03  0.50400001928E-02 0. -1.
        1   -1    0    0  501    0  0.00000000000E+00  0.00000000000E+00 -0.15128280693E+04  0.15128280693E+04  0.50400001928E-02 0.  1.
    10030    2    1    2    0    0  0.00000000000E+00  0.00000000000E+00 -0.13470648390E+04  0.16785912997E+04  0.10015413476E+04 0.  0.
        4    1    3    3  502    0 -0.31685147607E+03 -0.30797576135E+03 -0.27859961196E+03  0.52236317266E+03  0.12699999809E+01 0. -1.
       -4    1    3    3    0  502  0.31685147607E+03  0.30797576135E+03 -0.10684652270E+04  0.11562281270E+04  0.12699999809E+01 0.  1.
</event>
<event>
 5   0  0.1285769E-03  0.9965968E+03  0.7818609E-02  0.9312285E-01
        1   -1    0    0  501    0  0.00000000000E+00  0.00000000000E+00  0.33332535187E+03  0.33332535190E+03  0.50400001928E-02 0.  1.
       -1   -1    0    0    0  501  0.00000000000E+00  0.00000000000E+00 -0.74492175639E+03  0.74492175640E+03  0.50400001928E-02 0. -1.
    10030    2    1    2    0    0  0.00000000000E+00  0.00000000000E+00 -0.41159640452E+03  0.10782471083E+04  0.99659682237E+03 0.  0.
        5    1    3    3  502    0 -0.16093308877E+03  0.35508340552E+02  0.30296038376E+03  0.34491649052E+03  0.46999998093E+01 0.  1.
       -5    1    3    3    0  502  0.16093308877E+03 -0.35508340552E+02 -0.71455678828E+03  0.73333061779E+03  0.46999998093E+01 0. -1.
</event>
<event>
 5   0  0.2284843E-03  0.1000498E+04  0.7818609E-02  0.9307999E-01
       -2   -1    0    0    0  501  0.00000000000E+00  0.00000000000E+00  0.40964286874E+03  0.40964286875E+03  0.25500000920E-02 0. -1.
        2   -1    0    0  501    0  0.00000000000E+00  0.00000000000E+00 -0.61089514679E+03  0.61089514680E+03  0.25500000920E-02 0.  1.
    10030    2    1    2    0    0  0.00000000000E+00  0.00000000000E+00 -0.20125227805E+03  0.10205380156E+04  0.10004975571E+04 0.  0.
        2    1    3    3  502    0 -0.48164983476E+02  0.38319384379E+03  0.22369135350E+03  0.44631290503E+03  0.25500000920E-02 0. -1.
       -2    1    3    3    0  502  0.48164983476E+02 -0.38319384379E+03 -0.42494363155E+03  0.57422511053E+03  0.25500000920E-02 0.  1.
</event>
<event>
 5   0  0.2255142E-03  0.1014964E+04  0.7818609E-02  0.9292283E-01
       -2   -1    0    0    0  501  0.00000000000E+00  0.00000000000E+00  0.11803244442E+04  0.11803244442E+04  0.25500000920E-02 0.  1.
        2   -1    0    0  501    0  0.00000000000E+00  0.00000000000E+00 -0.21819249359E+03  0.21819249360E+03  0.25500000920E-02 0. -1.
    10030    2    1    2    0    0  0.00000000000E+00  0.00000000000E+00  0.96213195056E+03  0.13985169378E+04  0.10149639082E+04 0.  0.
        4    1    3    3  502    0  0.38629088015E+03  0.23831685281E+02  0.28771595632E+02  0.38809536318E+03  0.12699999809E+01 0. -1.
       -4    1    3    3    0  502 -0.38629088015E+03 -0.23831685281E+02  0.93336035493E+03  0.10104215746E+04  0.12699999809E+01 0.  1.
</event>
<event>
 5   0  0.2264577E-03  0.9972984E+03  0.7818609E-02  0.9311513E-01
        2   -1    0    0  501    0  0.00000000000E+00  0.00000000000E+00  0.89570830675E+03  0.89570830675E+03  0.25500000920E-02 0.  1.
       -2   -1    0    0    0  501  0.00000000000E+00  0.00000000000E+00 -0.27760269509E+03  0.27760269510E+03  0.25500000920E-02 0. -1.
    10030    2    1    2    0    0  0.00000000000E+00  0.00000000000E+00  0.61810561166E+03  0.11733110019E+04  0.99729843071E+03 0.  0.
        5    1    3    3  502    0  0.38980936862E+03 -0.12083209899E+03 -0.28001050085E+02  0.40909398531E+03  0.46999998093E+01 0. -1.
       -5    1    3    3    0  502 -0.38980936862E+03  0.12083209899E+03  0.64610666175E+03  0.76421701654E+03  0.46999998093E+01 0.  1.
</event>
<event>
 5   0  0.2277570E-03  0.1000434E+04  0.7818609E-02  0.9308069E-01
        2   -1    0    0  501    0  0.00000000000E+00  0.00000000000E+00  0.69553838413E+03  0.69553838414E+03  0.25500000920E-02 0. -1.
       -2   -1    0    0    0  501  0.00000000000E+00  0.00000000000E+00 -0.35974586362E+03  0.35974586363E+03  0.25500000920E-02 0.  1.
    10030    2    1    2    0    0  0.00000000000E+00  0.00000000000E+00  0.33579252051E+03  0.10552842478E+04  0.10004340192E+04 0.  0.
        3    1    3    3  502    0 -0.59528768299E+02 -0.36326167342E+03 -0.18936821864E+03  0.41396020348E+03  0.10100000352E+00 0.  1.
       -3    1    3    3    0  502  0.59528768299E+02  0.36326167342E+03  0.52516073915E+03  0.64132404429E+03  0.10100000352E+00 0. -1.
</event>
<event>
 5   0  0.2264577E-03  0.9826141E+03  0.7818609E-02  0.9327822E-01
       -2   -1    0    0    0  501  0.00000000000E+00  0.00000000000E+00  0.74132823020E+03  0.74132823020E+03  0.25500000920E-02 0. -1.
        2   -1    0    0  501    0  0.00000000000E+00  0.00000000000E+00 -0.32560826647E+03  0.32560826648E+03  0.25500000920E-02 0.  1.
    10030    2    1    2    0    0  0.00000000000E+00  0.00000000000E+00  0.41571996372E+03  0.10669364967E+04  0.98261406448E+03 0.  0.
        5    1    3    3  502    0  0.28074634238E+03 -0.20741714129E+03 -0.16752433548E+03  0.38720391558E+03  0.46999998093E+01 0.  1.
       -5    1    3    3    0  502 -0.28074634238E+03  0.20741714129E+03  0.58324429921E+03  0.67973258111E+03  0.46999998093E+01 0. -1.
</event>
<event>
 5   0  0.2284843E-03  0.1003171E+04  0.7818609E-02  0.9305074E-01
        2   -1    0    0  501    0  0.00000000000E+00  0.00000000000E+00  0.83850464215E+03  0.83850464216E+03  0.25500000920E-02 0.  1.
       -2   -1    0    0    0  501  0.00000000000E+00  0.00000000000E+00 -0.30004353931E+03  0.30004353932E+03  0.25500000920E-02 0. -1.
    10030    2    1    2    0    0  0.00000000000E+00  0.00000000000E+00  0.53846110284E+03  0.11385481815E+04  0.10031707742E+04 0.  0.
        2    1    3    3  502    0  0.24586720960E+03  0.25088647778E+03 -0.13712764303E+03  0.37709242896E+03  0.25500000920E-02 0. -1.
       -2    1    3    3    0  502 -0.24586720960E+03 -0.25088647778E+03  0.67558874588E+03  0.76145575252E+03  0.25500000920E-02 0.  1.
</event>
<event>
 5   0  0.1353789E-03  0.1003968E+04  0.7818609E-02  0.9304203E-01
       -1   -1    0    0    0  501  0.00000000000E+00  0.00000000000E+00  0.38168768408E+03  0.38168768411E+03  0.50400001928E-02 0.  1.
        1   -1    0    0  501    0  0.00000000000E+00  0.00000000000E+00 -0.66019401070E+03  0.66019401072E+03  0.50400001928E-02 0. -1.
    10030    2    1    2    0    0  0.00000000000E+00  0.00000000000E+00 -0.27850632662E+03  0.10418816948E+04  0.10039679736E+04 0.  0.
        1    1    3    3  502    0 -0.17150757132E+03 -0.46891576422E+03 -0.85418498029E+02  0.50655025494E+03  0.50400001928E-02 0.  1.
       -1    1    3    3    0  502  0.17150757132E+03  0.46891576422E+03 -0.19308782859E+03  0.53533143988E+03  0.50400001928E-02 0. -1.
</event>
<event>
 5   0  0.1293575E-03  0.1000047E+04  0.7818609E-02  0.9308493E-01
        1   -1    0    0  501    0  0.00000000000E+00  0.00000000000E+00  0.13218416792E+04  0.13218416792E+04  0.50400001928E-02 0.  1.
       -1   -1    0    0    0  501  0.00000000000E+00  0.00000000000E+00 -0.18914788218E+03  0.18914788225E+03  0.50400001928E-02 0. -1.
    10030    2    1    2    0    0  0.00000000000E+00  0.00000000000E+00  0.11326937970E+04  0.15109895614E+04  0.10000471074E+04 0.  0.
        4    1    3    3  502    0  0.21671145096E+03  0.23578553889E+03  0.11465538572E+04  0.11904394289E+04  0.12699999809E+01 0.  1.
       -4    1    3    3    0  502 -0.21671145096E+03 -0.23578553889E+03 -0.13860060241E+02  0.32055013258E+03  0.12699999809E+01 0. -1.
</event>
<event>
 5   0  0.2255142E-03  0.1043105E+04  0.7818609E-02  0.9262492E-01
        2   -1    0    0  501    0  0.00000000000E+00  0.00000000000E+00  0.10973755316E+04  0.10973755316E+04  0.25500000920E-02 0.  1.
       -2   -1    0    0    0  501  0.00000000000E+00  0.00000000000E+00 -0.24787945766E+03  0.24787945767E+03  0.25500000920E-02 0. -1.
    10030    2    1    2    0    0  0.00000000000E+00  0.00000000000E+00  0.84949607395E+03  0.13452549893E+04  0.10431046959E+04 0.  0.
        4    1    3    3  502    0 -0.17646588627E+03  0.44496579142E+03  0.69180659551E+03  0.84126853207E+03  0.12699999809E+01 0.  1.
       -4    1    3    3    0  502  0.17646588627E+03 -0.44496579142E+03  0.15768947844E+03  0.50398645722E+03  0.12699999809E+01 0. -1.
</event>
<event>
 5   0  0.2255142E-03  0.1004948E+04  0.7818609E-02  0.9303135E-01
        2   -1    0    0  501    0  0.00000000000E+00  0.00000000000E+00  0.78245724903E+03  0.78245724904E+03  0.25500000920E-02 0. -1.
       -2   -1    0    0    0  501  0.00000000000E+00  0.00000000000E+00 -0.32267591690E+03  0.32267591691E+03  0.25500000920E-02 0.  1.
    10030    2    1    2    0    0  0.00000000000E+00  0.00000000000E+00  0.45978133213E+03  0.11051331659E+04  0.10049479793E+04 0.  0.
        4    1    3    3  502    0 -0.46308209317E+03  0.27060430025E+02  0.44227988368E+03  0.64092932551E+03  0.12699999809E+01 0. -1.
       -4    1    3    3    0  502  0.46308209317E+03 -0.27060430025E+02  0.17501448449E+02  0.46420384044E+03  0.12699999809E+01 0.  1.
</event>
<event>
 5   0  0.1249195E-03  0.1000497E+04  0.7818609E-02  0.9308000E-01
        1   -1    0    0  501    0  0.00000000000E+00  0.00000000000E+00  0.70023986712E+03  0.70023986714E+03  0.50400001928E-02 0. -1.
       -1   -1    0    0    0  501  0.00000000000E+00  0.00000000000E+00 -0.35737546410E+03  0.35737546414E+03  0.50400001928E-02 0.  1.
    10030    2    1    2    0    0  0.00000000000E+00  0.00000000000E+00  0.34286440302E+03  0.10576153313E+04  0.10004969716E+04 0.  0.
        2    1    3    3  502    0 -0.22533094094E+03 -0.19212335930E+03  0.59764156327E+03  0.66697890244E+03  0.25500000920E-02 0. -1.
       -2    1    3    3    0  502  0.22533094094E+03  0.19212335930E+03 -0.25477716026E+03  0.39063642884E+03  0.25500000920E-02 0.  1.
</event>
<event>
 5   0  0.1249195E-03  0.1003584E+04  0.7818609E-02  0.9304623E-01
        1   -1    0    0  501    0  0.00000000000E+00  0.00000000000E+00  0.34378994971E+03  0.34378994975E+03  0.50400001928E-02 0.  1.
       -1   -1    0    0    0  501  0.00000000000E+00  0.00000000000E+00 -0.73241003226E+03  0.73241003228E+03  0.50400001928E-02 0. -1.
    10030    2    1    2    0    0  0.00000000000E+00  0.00000000000E+00 -0.38862008255E+03  0.10761999820E+04  0.10035839939E+04 0.  0.
        2    1    3    3  502    0 -0.49730145283E+02  0.47404017850E+03 -0.26090022133E+02  0.47735507481E+03  0.25500000920E-02 0.  1.
       -2    1    3    3    0  502  0.49730145283E+02 -0.47404017850E+03 -0.36253006042E+03  0.59884490722E+03  0.25500000920E-02 0. -1.
</event>
<event>
 5   0  0.2284843E-03  0.1001057E+04  0.7818609E-02  0.9307386E-01
        2   -1    0    0  501    0  0.00000000000E+00  0.00000000000E+00  0.53823474534E+03  0.53823474535E+03  0.25500000920E-02 0. -1.
       -2   -1    0    0    0  501  0.00000000000E+00  0.00000000000E+00 -0.46546374630E+03  0.46546374630E+03  0.25500000920E-02 0.  1.
    10030    2    1    2    0    0  0.00000000000E+00  0.00000000000E+00  0.72770999044E+02  0.10036984917E+04  0.10010569633E+04 0.  0.
        2    1    3    3  502    0 -0.28099266317E+03  0.17808527296E+02  0.45130684895E+03  0.53193222530E+03  0.25500000920E-02 0. -1.
       -2    1    3    3    0  502  0.28099266317E+03 -0.17808527296E+02 -0.37853584990E+03  0.47176626635E+03  0.25500000920E-02 0.  1.
</event>
<event>
 5   0  0.2277570E-03  0.1003326E+04  0.7818609E-02  0.9304905E-01
        2   -1    0    0  501    0  0.00000000000E+00  0.00000000000E+00  0.11259789955E+04  0.11259789955E+04  0.25500000920E-02 0.  1.
       -2   -1    0    0    0  501  0.00000000000E+00  0.00000000000E+00 -0.22350825435E+03  0.22350825436E+03  0.25500000920E-02 0. -1.
    10030    2    1    2    0    0  0.00000000000E+00  0.00000000000E+00  0.90247074119E+03  0.13494872499E+04  0.10033256694E+04 0.  0.
        3    1    3    3  502    0 -0.97283272671E+02  0.36615622526E+03  0.89352048140E+03  0.97052216735E+03  0.10100000352E+00 0.  1.
       -3    1    3    3    0  502  0.97283272671E+02 -0.36615622526E+03  0.89502597877E+01  0.37896508255E+03  0.10100000352E+00 0. -1.
</event>
<event>
 5   0  0.8680125E-04  0.1009760E+04  0.7818609E-02  0.9297905E-01
       -3   -1    0    0    0  501  0.00000000000E+00  0.00000000000E+00  0.38764604355E+03  0.38764605671E+03  0.10100000352E+00 0. -1.
        3   -1    0    0  501    0  0.00000000000E+00  0.00000000000E+00 -0.65756843854E+03  0.65756844630E+03  0.10100000352E+00 0.  1.
    10030    2    1    2    0    0  0.00000000000E+00  0.00000000000E+00 -0.26992239500E+03  0.10452145030E+04  0.10097600002E+04 0.  0.
        5    1    3    3  502    0 -0.27703950759E+03  0.31877971754E+03 -0.42127830273E+03  0.59654747961E+03  0.46999998093E+01 0.  1.
       -5    1    3    3    0  502  0.27703950759E+03 -0.31877971754E+03  0.15135590774E+03  0.44866702340E+03  0.46999998093E+01 0. -1.
</event>
<event>
 5   0  0.2284843E-03  0.9997136E+03  0.7818609E-02  0.9308859E-01
        2   -1    0    0  501    0  0.00000000000E+00  0.00000000000E+00  0.10395816328E+04  0.10395816328E+04  0.25500000920E-02 0.  1.
       -2   -1    0    0    0  501  0.00000000000E+00  0.00000000000E+00 -0.24034361862E+03  0.24034361863E+03  0.25500000920E-02 0. -1.
    10030    2    1    2    0    0  0.00000000000E+00  0.00000000000E+00  0.79923801422E+03  0.12799252515E+04  0.99971358198E+03 0.  0.
        2    1    3    3  502    0 -0.41403022278E+03 -0.65960904382E+02  0.51142105338E+02  0.42235930347E+03  0.25500000920E-02 0. -1.
       -2    1    3    3    0  502  0.41403022278E+03  0.65960904382E+02  0.74809590888E+03  0.85756594800E+03  0.25500000920E-02 0.  1.
</event>
<event>
 5   0  0.2204862E-03  0.1001354E+04  0.7818609E-02  0.9307061E-01
       -2   -1    0    0    0  501  0.00000000000E+00  0.00000000000E+00  0.16127637731E+03  0.16127637733E+03  0.25500000920E-02 0. -1.
        2   -1    0    0  501    0  0.00000000000E+00  0.00000000000E+00 -0.15543353215E+04  0.15543353215E+04  0.25500000920E-02 0.  1.
    10030    2    1    2    0    0  0.00000000000E+00  0.00000000000E+00 -0.13930589442E+04  0.17156116989E+04  0.10013542226E+04 0.  0.
        1    1    3    3  502    0 -0.15350093553E+02  0.27881561725E+02 -0.15526003381E+04  0.15529265329E+04  0.50400001928E-02 0.  1.
       -1    1    3    3    0  502  0.15350093553E+02 -0.27881561725E+02  0.15954139382E+03  0.16268516597E+03  0.50400001928E-02 0. -1.
</event>
<event>
 5   0  0.1293716E-03  0.9664730E+03  0.7818609E-02  0.9346101E-01
        1   -1    0    0  501    0  0.00000000000E+00  0.00000000000E+00  0.42225033725E+03  0.42225033728E+03  0.50400001928E-02 0. -1.
       -1   -1    0    0    0  501  0.00000000000E+00  0.00000000000E+00 -0.55303095115E+03  0.55303095117E+03  0.50400001928E-02 0.  1.
    10030    2    1    2    0    0  0.00000000000E+00  0.00000000000E+00 -0.13078061390E+03  0.97528128845E+03  0.96647298081E+03 0.  0.
        3    1    3    3  502    0 -0.36277039841E+03 -0.10999788295E+03 -0.36781417286E+03  0.52819425610E+03  0.10100000352E+00 0.  1.
       -3    1    3    3    0  502  0.36277039841E+03  0.10999788295E+03  0.23703355896E+03  0.44708703235E+03  0.10100000352E+00 0. -1.
</event>
<event>
 5   0  0.2264577E-03  0.1015530E+04  0.7818609E-02  0.9291674E-01
        2   -1    0    0  501    0  0.00000000000E+00  0.00000000000E+00  0.49673555050E+03  0.49673555051E+03  0.25500000920E-02 0.  1.
       -2   -1    0    0    0  501  0.00000000000E+00  0.00000000000E+00 -0.51903919118E+03  0.51903919119E+03  0.25500000920E-02 0. -1.
    10030    2    1    2    0    0  0.00000000000E+00  0.00000000000E+00 -0.22303640679E+02  0.10157747417E+04  0.10155298486E+04 0.  0.
        5    1    3    3  502    0 -0.39908026223E+03  0.21946350173E+03 -0.23564712568E+03  0.51281667498E+03  0.46999998093E+01 0. -1.
       -5    1    3    3    0  502  0.39908026223E+03 -0.21946350173E+03  0.21334348500E+03  0.50295806673E+03  0.46999998093E+01 0.  1.
</event>
<event>
 5   0  0.2255142E-03  0.9988486E+03  0.7818609E-02  0.9309809E-01
       -2   -1    0    0    0  501  0.00000000000E+00  0.00000000000E+00  0.41018527722E+03  0.41018527723E+03  0.25500000920E-02 0.  1.
        2   -1    0    0  501    0  0.00000000000E+00  0.00000000000E+00 -0.60807797681E+03  0.60807797681E+03  0.25500000920E-02 0. -1.
    10030    2    1    2    0    0  0.00000000000E+00  0.00000000000E+00 -0.19789269959E+03  0.10182632540E+04  0.99884860414E+03 0.  0.
        4    1    3    3  502    0  0.20968558671E+03  0.32320185702E+03 -0.42292134462E+03  0.57209401525E+03  0.12699999809E+01 0. -1.
       -4    1    3    3    0  502 -0.20968558671E+03 -0.32320185702E+03  0.22502864503E+03  0.44616923879E+03  0.12699999809E+01 0.  1.
</event>
<event>
 5   0  0.2284843E-03  0.9975056E+03  0.7818609E-02  0.9311285E-01
       -2   -1    0    0    0  501  0.00000000000E+00  0.00000000000E+00  0.10414397261E+04  0.10414397261E+04  0.25500000920E-02 0.  1.
        2   -1    0    0  501    0  0.00000000000E+00  0.00000000000E+00 -0.23885621035E+03  0.23885621037E+03  0.25500000920E-02 0. -1.
    10030    2    1    2    0    0  0.00000000000E+00  0.00000000000E+00  0.80258351575E+03  0.12802959365E+04  0.99750558154E+03 0.  0.
        2    1    3    3  502    0  0.16235367973E+03  0.17349702670E+03 -0.16153970006E+03  0.28732387701E+03  0.25500000920E-02 0. -1.
       -2    1    3    3    0  502 -0.16235367973E+03 -0.17349702670E+03  0.96412321581E+03  0.99297205946E+03  0.25500000920E-02 0.  1.
</event>
<event>
 5   0  0.1293716E-03  0.9965213E+03  0.7818609E-02  0.9312368E-01
       -1   -1    0    0    0  501  0.00000000000E+00  0.00000000000E+00  0.96769870254E+02  0.96769870385E+02  0.50400001928E-02 0.  1.
        1   -1    0    0  501    0  0.00000000000E+00  0.00000000000E+00 -0.25655057660E+04  0.25655057660E+04  0.50400001928E-02 0. -1.
    10030    2    1    2    0    0  0.00000000000E+00  0.00000000000E+00 -0.24687358957E+04  0.26622756364E+04  0.99652126980E+03 0.  0.
        3    1    3    3  502    0 -0.28746592263E+03  0.40488411651E+03 -0.13443848979E+04  0.14331568540E+04  0.10100000352E+00 0.  1.
       -3    1    3    3    0  502  0.28746592263E+03 -0.40488411651E+03 -0.11243509978E+04  0.12291187823E+04  0.10100000352E+00 0. -1.
</event>
<event>
 5   0  0.1285769E-03  0.9986963E+03  0.7818609E-02  0.9309976E-01
       -1   -1    0    0    0  501  0.00000000000E+00  0.00000000000E+00  0.33471984413E+03  0.33471984417E+03  0.50400001928E-02 0. -1.
        1   -1    0    0  501    0  0.00000000000E+00  0.00000000000E+00 -0.74494713087E+03  0.74494713089E+03  0.50400001928E-02 0.  1.
    10030    2    1    2    0    0  0.00000000000E+00  0.00000000000E+00 -0.41022728674E+03  0.10796669751E+04  0.99869632534E+03 0.  0.
        5    1    3    3  502    0 -0.34215816727E+01 -0.11908339955E+03 -0.72933416800E+03  0.73901487257E+03  0.46999998093E+01 0.  1.
       -5    1    3    3    0  502  0.34215816727E+01  0.11908339955E+03  0.31910688126E+03  0.34065210249E+03  0.46999998093E+01 0. -1.
</event>
<event>
 5   0  0.2204862E-03  0.9481450E+03  0.7818609E-02  0.9367321E-01
        2   -1    0    0  501    0  0.00000000000E+00  0.00000000000E+00  0.16571758936E+03  0.16571758938E+03  0.25500000920E-02 0.  1.
       -2   -1    0    0    0  501  0.00000000000E+00  0.00000000000E+00 -0.13561911074E+04  0.13561911074E+04  0.25500000920E-02 0. -1.
    10030    2    1    2    0    0  0.00000000000E+00  0.00000000000E+00 -0.11904735181E+04  0.15219086968E+04  0.94814497003E+03 0.  0.
        1    1    3    3  502    0  0.39367772622E+03 -0.13127880345E+03 -0.96312094907E+03  0.10487221934E+04  0.50400001928E-02 0. -1.
       -1    1    3    3    0  502 -0.39367772622E+03  0.13127880345E+03 -0.22735256902E+03  0.47318650343E+03  0.50400001928E-02 0.  1.
</event>
<event>
 5   0  0.2264577E-03  0.1007978E+04  0.7818609E-02  0.9299838E-01
        2   -1    0    0  501    0  0.00000000000E+00  0.00000000000E+00  0.69356108891E+03  0.69356108891E+03  0.25500000920E-02 0. -1.
       -2   -1    0    0    0  501  0.00000000000E+00  0.00000000000E+00 -0.36623265631E+03  0.36623265632E+03  0.25500000920E-02 0.  1.
    10030    2    1    2    0    0  0.00000000000E+00  0.00000000000E+00  0.32732843259E+03  0.10597937452E+04  0.10079776186E+04 0.  0.
        5    1    3    3  502    0 -0.45246415295E+03 -0.20066754177E+03  0.63966983271E+02  0.49910433476E+03  0.46999998093E+01 0.  1.
       -5    1    3    3    0  502  0.45246415295E+03  0.20066754177E+03  0.26336144932E+03  0.56068941047E+03  0.46999998093E+01 0. -1.
</event>
<event>
 5   0  0.2264577E-03  0.1000730E+04  0.7818609E-02  0.9307744E-01
        2   -1    0    0  501    0  0.00000000000E+00  0.00000000000E+00  0.11793697269E+04  0.11793697269E+04  0.25500000920E-02 0. -1.
       -2   -1    0    0    0  501  0.00000000000E+00  0.00000000000E+00 -0.21228725212E+03  0.21228725213E+03  0.25500000920E-02 0.  1.
    10030    2    1    2    0    0  0.00000000000E+00  0.00000000000E+00  0.96708247474E+03  0.13916569790E+04  0.10007300506E+04 0.  0.
        5    1    3    3  502    0  0.23408072966E+03 -0.36440668928E+03  0.13516661986E+03  0.45373795116E+03  0.46999998093E+01 0. -1.
       -5    1    3    3    0  502 -0.23408072966E+03  0.36440668928E+03  0.83191585488E+03  0.93791902785E+03  0.46999998093E+01 0.  1.
</event>
<event>
 5   0  0.1293575E-03  0.9931190E+03  0.7818609E-02  0.9316124E-01
        1   -1    0    0  501    0  0.00000000000E+00  0.00000000000E+00  0.10874374647E+04  0.10874374648E+04  0.50400001928E-02 0. -1.
       -1   -1    0    0    0  501  0.00000000000E+00  0.00000000000E+00 -0.22674529215E+03  0.22674529220E+03  0.50400001928E-02 0.  1.
    10030    2    1    2    0    0  0.00000000000E+00  0.00000000000E+00  0.86069217259E+03  0.13141827570E+04  0.99311897712E+03 0.  0.
        4    1    3    3  502    0 -0.72561666441E+01  0.40884809720E+03  0.80312910307E+03  0.90123658805E+03  0.12699999809E+01 0. -1.
       -4    1    3    3    0  502  0.72561666441E+01 -0.40884809720E+03  0.57563069526E+02  0.41294616891E+03  0.12699999809E+01 0.  1.
</event>
<event>
 5   0  0.1293575E-03  0.9986675E+03  0.7818609E-02  0.9310008E-01
       -1   -1    0    0    0  501  0.00000000000E+00  0.00000000000E+00  0.14056418373E+03  0.14056418382E+03  0.50400001928E-02 0. -1.
        1   -1    0    0  501    0  0.00000000000E+00  0.00000000000E+00 -0.17738101240E+04  0.17738101240E+04  0.50400001928E-02 0.  1.
    10030    2    1    2    0    0  0.00000000000E+00  0.00000000000E+00 -0.16332459403E+04  0.19143743078E+04  0.99866745670E+03 0.  0.
        4    1    3    3  502    0  0.43309067031E+03 -0.18467075313E+03 -0.49780283981E+03  0.68518617615E+03  0.12699999809E+01 0. -1.
       -4    1    3    3    0  502 -0.43309067031E+03  0.18467075313E+03 -0.11354431005E+04  0.12291881317E+04  0.12699999809E+01 0.  1.
</event>
<event>
 5   0  0.1249195E-03  0.9952299E+03  0.7818609E-02  0.9313792E-01
       -1   -1    0    0    0  501  0.00000000000E+00  0.00000000000E+00  0.49246711281E+03  0.49246711284E+03  0.50400001928E-02 0.  1.
        1   -1    0    0  501    0  0.00000000000E+00  0.00000000000E+00 -0.50281658673E+03  0.50281658676E+03  0.50400001928E-02 0. -1.
    10030    2    1    2    0    0  0.00000000000E+00  0.00000000000E+00 -0.10349473921E+02  0.99528369959E+03  0.99522988855E+03 0.  0.
        2    1    3    3  502    0  0.36575116818E+03  0.32619100515E+03  0.81120970525E+02  0.49674450246E+03  0.25500000920E-02 0.  1.
       -2    1    3    3    0  502 -0.36575116818E+03 -0.32619100515E+03 -0.91470444446E+02  0.49853919713E+03  0.25500000920E-02 0. -1.
</event>
<event>
 5   0  0.2204862E-03  0.1002796E+04  0.7818609E-02  0.9305483E-01
       -2   -1    0    0    0  501  0.00000000000E+00  0.00000000000E+00  0.55524828943E+03  0.55524828944E+03  0.25500000920E-02 0. -1.
        2   -1    0    0  501    0  0.00000000000E+00  0.00000000000E+00 -0.45277034470E+03  0.45277034471E+03  0.25500000920E-02 0.  1.
    10030    2    1    2    0    0  0.00000000000E+00  0.00000000000E+00  0.10247794473E+03  0.10080186341E+04  0.10027960100E+04 0.  0.
        1    1    3    3  502    0 -0.10194687395E+03  0.45721488769E+03 -0.12846946089E+03  0.48573966385E+03  0.50400001928E-02 0.  1.
       -1    1    3    3    0  502  0.10194687395E+03 -0.45721488769E+03  0.23094740562E+03  0.52227897030E+03  0.50400001928E-02 0. -1.
</event>
<event>
 5   0  0.2264577E-03  0.1002843E+04  0.7818609E-02  0.9305432E-01
        2   -1    0    0  501    0  0.00000000000E+00  0.00000000000E+00  0.19152690508E+04  0.19152690508E+04  0.25500000920E-02 0. -1.
       -2   -1    0    0    0  501  0.00000000000E+00  0.00000000000E+00 -0.13127322987E+03  0.13127322989E+03  0.25500000920E-02 0.  1.
    10030    2    1    2    0    0  0.00000000000E+00  0.00000000000E+00  0.17839958210E+04  0.20465422807E+04  0.10028430673E+04 0.  0.
        5    1    3    3  502    0 -0.47208937461E+03 -0.11513239923E+03  0.63975697980E+03  0.80338965028E+03  0.46999998093E+01 0.  1.
       -5    1    3    3    0  502  0.47208937461E+03  0.11513239923E+03  0.11442388412E+04  0.12431526304E+04  0.46999998093E+01 0. -1.
</event>
<event>
 5   0  0.2277570E-03  0.9969742E+03  0.7818609E-02  0.9311870E-01
       -2   -1    0    0    0  501  0.00000000000E+00  0.00000000000E+00  0.20272721263E+03  0.20272721264E+03  0.25500000920E-02 0. -1.
        2   -1    0    0  501    0  0.00000000000E+00  0.00000000000E+00 -0.12257326954E+04  0.12257326954E+04  0.25500000920E-02 0.  1.
    10030    2    1    2    0    0  0.00000000000E+00  0.00000000000E+00 -0.10230054827E+04  0.14284599080E+04  0.99697416771E+03 0.  0.
        3    1    3    3  502    0  0.14729762563E+03 -0.35169708313E+03 -0.97156600466E+03  0.10437087431E+04  0.10100000352E+00 0.  1.
       -3    1    3    3    0  502 -0.14729762563E+03  0.35169708313E+03 -0.51439478072E+02  0.38475116491E+03  0.10100000352E+00 0. -1.
</event>
<event>
 5   0  0.1293575E-03  0.1001436E+04  0.7818609E-02  0.9306972E-01
       -1   -1    0    0    0  501  0.00000000000E+00  0.00000000000E+00  0.36873580849E+03  0.36873580853E+03  0.50400001928E-02 0. -1.
        1   -1    0    0  501    0  0.00000000000E+00  0.00000000000E+00 -0.67994016275E+03  0.67994016277E+03  0.50400001928E-02 0.  1.
    10030    2    1    2    0    0  0.00000000000E+00  0.00000000000E+00 -0.31120435426E+03  0.10486759713E+04  0.10014355409E+04 0.  0.
        4    1    3    3  502    0  0.24896562677E+02  0.10721663009E+03 -0.66711301027E+03  0.67613358589E+03  0.12699999809E+01 0.  1.
       -4    1    3    3    0  502 -0.24896562677E+02 -0.10721663009E+03  0.35590865601E+03  0.37254238540E+03  0.12699999809E+01 0. -1.
</event>
<event>
 5   0  0.2204862E-03  0.9998794E+03  0.7818609E-02  0.9308677E-01
        2   -1    0    0  501    0  0.00000000000E+00  0.00000000000E+00  0.84074573867E+03  0.84074573867E+03  0.25500000920E-02 0. -1.
       -2   -1    0    0    0  501  0.00000000000E+00  0.00000000000E+00 -0.29728335055E+03  0.29728335056E+03  0.25500000920E-02 0.  1.
    10030    2    1    2    0    0  0.00000000000E+00  0.00000000000E+00  0.54346238812E+03  0.11380290892E+04  0.99987941304E+03 0.  0.
        1    1    3    3  502    0 -0.49933355421E+03 -0.23283166561E+02  0.26265393943E+03  0.56467972881E+03  0.50400001928E-02 0. -1.
       -1    1    3    3    0  502  0.49933355421E+03  0.23283166561E+02  0.28080844869E+03  0.57334936042E+03  0.50400001928E-02 0.  1.
</event>
<event>
 5   0  0.1293575E-03  0.9698304E+03  0.7818609E-02  0.9342268E-01
        1   -1    0    0  501    0  0.00000000000E+00  0.00000000000E+00  0.13587548150E+04  0.13587548150E+04  0.50400001928E-02 0.  1.
       -1   -1    0    0    0  501  0.00000000000E+00  0.00000000000E+00 -0.17305754205E+03  0.17305754212E+03  0.50400001928E-02 0. -1.
    10030    2    1    2    0    0  0.00000000000E+00  0.00000000000E+00  0.11856972730E+04  0.15318123572E+04  0.96983043590E+03 0.  0.
        4    1    3    3  502    0  0.47349484486E+03  0.84828691674E+02  0.49615394405E+03  0.69105978333E+03  0.12699999809E+01 0. -1.
       -4    1    3    3    0  502 -0.47349484486E+03 -0.84828691674E+02  0.68954332894E+03  0.84075257384E+03  0.12699999809E+01 0.  1.
</event>
<event>
 5   0  0.2277570E-03  0.1031832E+04  0.7818609E-02  0.9274304E-01
       -2   -1    0    0    0  501  0.00000000000E+00  0.00000000000E+00  0.21766281260E+03  0.21766281262E+03  0.25500000920E-02 0.  1.
        2   -1    0    0  501    0  0.00000000000E+00  0.00000000000E+00 -0.12228527658E+04  0.12228527658E+04  0.25500000920E-02 0. -1.
    10030    2    1    2    0    0  0.00000000000E+00  0.00000000000E+00 -0.10051899532E+04  0.14405155784E+04  0.10318324911E+04 0.  0.
        3    1    3    3  502    0  0.40866822174E+03 -0.16047238885E+03 -0.12434247027E+03  0.45631366751E+03  0.10100000352E+00 0.  1.
       -3    1    3    3    0  502 -0.40866822174E+03  0.16047238885E+03 -0.88084748288E+03  0.98420191086E+03  0.10100000352E+00 0. -1.
</event>
<event>
 5   0  0.2255142E-03  0.1012195E+04  0.7818609E-02  0.9295270E-01
       -2   -1    0    0    0  501  0.00000000000E+00  0.00000000000E+00  0.17781964818E+03  0.17781964820E+03  0.25500000920E-02 0.  1.
        2   -1    0    0  501    0  0.00000000000E+00  0.00000000000E+00 -0.14404188564E+04  0.14404188564E+04  0.25500000920E-02 0. -1.
    10030    2    1    2    0    0  0.00000000000E+00  0.00000000000E+00 -0.12625992082E+04  0.16182385046E+04  0.10121951873E+04 0.  0.
        4    1    3    3  502    0  0.33234094049E+03  0.37817892620E+03 -0.71380706749E+03  0.87349410041E+03  0.12699999809E+01 0. -1.
       -4    1    3    3    0  502 -0.33234094049E+03 -0.37817892620E+03 -0.54879214072E+03  0.74474440418E+03  0.12699999809E+01 0.  1.
</event>
<event>
 5   0  0.1353789E-03  0.1001629E+04  0.7818609E-02  0.9306760E-01
        1   -1    0    0  501    0  0.00000000000E+00  0.00000000000E+00  0.67766722461E+03  0.67766722463E+03  0.50400001928E-02 0.  1.
       -1   -1    0    0    0  501  0.00000000000E+00  0.00000000000E+00 -0.37011541097E+03  0.37011541101E+03  0.50400001928E-02 0. -1.
    10030    2    1    2    0    0  0.00000000000E+00  0.00000000000E+00  0.30755181364E+03  0.10477826356E+04  0.10016288402E+04 0.  0.
        1    1    3    3  502    0  0.11858008159E+02  0.39469152324E+03  0.47601752541E+03  0.61847772425E+03  0.50400001928E-02 0.  1.
       -1    1    3    3    0  502 -0.11858008159E+02 -0.39469152324E+03 -0.16846571176E+03  0.42930491139E+03  0.50400001928E-02 0. -1.
</event>
<event>
 5   0  0.2204862E-03  0.9982979E+03  0.7818609E-02  0.9310414E-01
       -2   -1    0    0    0  501  0.00000000000E+00  0.00000000000E+00  0.10330979099E+03  0.10330979102E+03  0.25500000920E-02 0. -1.
        2   -1    0    0  501    0  0.00000000000E+00  0.00000000000E+00 -0.24116755210E+04  0.24116755210E+04  0.25500000920E-02 0.  1.
    10030    2    1    2    0    0  0.00000000000E+00  0.00000000000E+00 -0.23083657300E+04  0.25149853120E+04  0.99829793961E+03 0.  0.
        1    1    3    3  502    0  0.16957083388E+03 -0.97393190745E+02 -0.23111575502E+04  0.23194156426E+04  0.50400001928E-02 0.  1.
       -1    1    3    3    0  502 -0.16957083388E+03  0.97393190745E+02  0.27918202005E+01  0.19556966941E+03  0.50400001928E-02 0. -1.
</event>
<event>
 5   0  0.1285769E-03  0.1061662E+04  0.7818609E-02  0.9243386E-01
       -1   -1    0    0    0  501  0.00000000000E+00  0.00000000000E+00  0.35228910791E+03  0.35228910794E+03  0.50400001928E-02 0. -1.
        1   -1    0    0  501    0  0.00000000000E+00  0.00000000000E+00 -0.79985921844E+03  0.79985921846E+03  0.50400001928E-02 0.  1.
    10030    2    1    2    0    0  0.00000000000E+00  0.00000000000E+00 -0.44757011054E+03  0.11521483264E+04  0.10616622637E+04 0.  0.
        5    1    3    3  502    0 -0.40713084882E+02  0.45521135998E+02  0.34844114915E+03  0.35378390795E+03  0.46999998093E+01 0. -1.
       -5    1    3    3    0  502  0.40713084882E+02 -0.45521135998E+02 -0.79601125969E+03  0.79836441845E+03  0.46999998093E+01 0.  1.
</event>
<event>
 5   0  0.1285769E-03  0.1001445E+04  0.7818609E-02  0.9306961E-01
       -1   -1    0    0    0  501  0.00000000000E+00  0.00000000000E+00  0.10956230082E+04  0.10956230082E+04  0.50400001928E-02 0.  1.
        1   -1    0    0  501    0  0.00000000000E+00  0.00000000000E+00 -0.22884064733E+03  0.22884064739E+03  0.50400001928E-02 0. -1.
    10030    2    1    2    0    0  0.00000000000E+00  0.00000000000E+00  0.86678236087E+03  0.13244636556E+04  0.10014451128E+04 0.  0.
        5    1    3    3  502    0  0.25367116947E+03  0.22594603030E+03 -0.53085808162E+02  0.34386169292E+03  0.46999998093E+01 0. -1.
       -5    1    3    3    0  502 -0.25367116947E+03 -0.22594603030E+03  0.91986816903E+03  0.98060196269E+03  0.46999998093E+01 0.  1.
</event>
<event>
 5   0  0.1293575E-03  0.1005406E+04  0.7818609E-02  0.9302636E-01
        1   -1    0    0  501    0  0.00000000000E+00  0.00000000000E+00  0.36103123671E+03  0.36103123675E+03  0.50400001928E-02 0.  1.
       -1   -1    0    0    0  501  0.00000000000E+00  0.00000000000E+00 -0.69996775320E+03  0.69996775322E+03  0.50400001928E-02 0. -1.
    10030    2    1    2    0    0  0.00000000000E+00  0.00000000000E+00 -0.33893651649E+03  0.10609989900E+04  0.10054058357E+04 0.  0.
        4    1    3    3  502    0 -0.13682547211E+03 -0.23739278831E+03  0.27530047684E+03  0.38841795943E+03  0.12699999809E+01 0.  1.
       -4    1    3    3    0  502  0.13682547211E+03  0.23739278831E+03 -0.61423699333E+03  0.67258103054E+03  0.12699999809E+01 0. -1.
</event>
<event>
 5   0  0.1293716E-03  0.1002918E+04  0.7818609E-02  0.9305351E-01
       -1   -1    0    0    0  501  0.00000000000E+00  0.00000000000E+00  0.29130402869E+03  0.29130402874E+03  0.50400001928E-02 0. -1.
        1   -1    0    0  501    0  0.00000000000E+00  0.00000000000E+00 -0.86322485985E+03  0.86322485986E+03  0.50400001928E-02 0.  1.
    10030    2    1    2    0    0  0.00000000000E+00  0.00000000000E+00 -0.57192083115E+03  0.11545288886E+04  0.10029175028E+04 0.  0.
        3    1    3    3  502    0 -0.29856359507E+03  0.18187496499E+03 -0.69980919050E+03  0.78227337709E+03  0.10100000352E+00 0.  1.
       -3    1    3    3    0  502  0.29856359507E+03 -0.18187496499E+03  0.12788835935E+03  0.37225551151E+03  0.10100000352E+00 0. -1.
</event>
<event>
 5   0  0.1293716E-03  0.1000464E+04  0.7818609E-02  0.9308036E-01
       -1   -1    0    0    0  501  0.00000000000E+00  0.00000000000E+00  0.15903406870E+03  0.15903406878E+03  0.50400001928E-02 0. -1.
        1   -1    0    0  501    0  0.00000000000E+00  0.00000000000E+00 -0.15734488962E+04  0.15734488962E+04  0.50400001928E-02 0.  1.
    10030    2    1    2    0    0  0.00000000000E+00  0.00000000000E+00 -0.14144148275E+04  0.17324829650E+04  0.10004638523E+04 0.  0.
        3    1    3    3  502    0 -0.61677525049E+02  0.29603808093E+03 -0.17161166638E+02  0.30288145915E+03  0.10100000352E+00 0. -1.
       -3    1    3    3    0  502  0.61677525049E+02 -0.29603808093E+03 -0.13972536608E+04  0.14296015058E+04  0.10100000352E+00 0.  1.
</event>
<event>
 5   0  0.1293575E-03  0.9998526E+03  0.7818609E-02  0.9308706E-01
       -1   -1    0    0    0  501  0.00000000000E+00  0.00000000000E+00  0.14833584444E+03  0.14833584453E+03  0.50400001928E-02 0. -1.
        1   -1    0    0  501    0  0.00000000000E+00  0.00000000000E+00 -0.16848680029E+04  0.16848680029E+04  0.50400001928E-02 0.  1.
    10030    2    1    2    0    0  0.00000000000E+00  0.00000000000E+00 -0.15365321585E+04  0.18332038474E+04  0.99985262527E+03 0.  0.
        4    1    3    3  502    0 -0.23349057332E+03  0.43960770564E+03 -0.68321338409E+03  0.84531350621E+03  0.12699999809E+01 0. -1.
       -4    1    3    3    0  502  0.23349057332E+03 -0.43960770564E+03 -0.85331877438E+03  0.98789034123E+03  0.12699999809E+01 0.  1.
</event>
<event>
 5   0  0.1293716E-03  0.1001487E+04  0.7818609E-02  0.9306916E-01
        1   -1    0    0  501    0  0.00000000000E+00  0.00000000000E+00  0.60336978339E+03  0.60336978341E+03  0.50400001928E-02 0.  1.
       -1   -1    0    0    0  501  0.00000000000E+00  0.00000000000E+00 -0.41557254300E+03  0.41557254303E+03  0.50400001928E-02 0. -1.
    10030    2    1    2    0    0  0.00000000000E+00  0.00000000000E+00  0.18779724039E+03  0.10189423264E+04  0.10014867254E+04 0.  0.
        3    1    3    3  502    0 -0.21778451446E+02  0.39811359386E+03 -0.21432577278E+03  0.45266354132E+03  0.10100000352E+00 0. -1.
       -3    1    3    3    0  502  0.21778451446E+02 -0.39811359386E+03  0.40212301317E+03  0.56627878513E+03  0.10100000352E+00 0.  1.
</event>
<event>
 5   0  0.1353789E-03  0.1003670E+04  0.7818609E-02  0.9304529E-01
       -1   -1    0    0    0  501  0.00000000000E+00  0.00000000000E+00  0.53530377882E+03  0.53530377885E+03  0.50400001928E-02 0.  1.
        1   -1    0    0  501    0  0.00000000000E+00  0.00000000000E+00 -0.47045853957E+03  0.47045853959E+03  0.50400001928E-02 0. -1.
    10030    2    1    2    0    0  0.00000000000E+00  0.00000000000E+00  0.64845239255E+02  0.10057623184E+04  0.10036697346E+04 0.  0.
        1    1    3    3  502    0  0.24767132831E+03 -0.23590857329E+03  0.40039973970E+03  0.52660601345E+03  0.50400001928E-02 0.  1.
       -1    1    3    3    0  502 -0.24767132831E+03  0.23590857329E+03 -0.33555450045E+03  0.47915630499E+03  0.50400001928E-02 0. -1.
</event>
<event>
 5   0  0.1285769E-03  0.9986674E+03  0.7818609E-02  0.9310008E-01
       -1   -1    0    0    0  501  0.00000000000E+00  0.00000000000E+00  0.44244163985E+03  0.44244163988E+03  0.50400001928E-02 0.  1.
        1   -1    0    0  501    0  0.00000000000E+00  0.00000000000E+00 -0.56354129599E+03  0.56354129602E+03  0.50400001928E-02 0. -1.
    10030    2    1    2    0    0  0.00000000000E+00  0.00000000000E+00 -0.12109965614E+03  0.10059829359E+04  0.99866738236E+03 0.  0.
        5    1    3    3  502    0 -0.18478771182E+03  0.36660696869E+03 -0.34682324192E+03  0.53745289939E+03  0.46999998093E+01 0. -1.
       -5    1    3    3    0  502  0.18478771182E+03 -0.36660696869E+03  0.22572358578E+03  0.46853003650E+03  0.46999998093E+01 0.  1.
</event>
<event>
 5   0  0.2277570E-03  0.9725100E+03  0.7818609E-02  0.9339220E-01
        2   -1    0    0  501    0  0.00000000000E+00  0.00000000000E+00  0.72725247466E+03  0.72725247466E+03  0.25500000920E-02 0.  1.
       -2   -1    0    0    0  501  0.00000000000E+00  0.00000000000E+00 -0.32511945956E+03  0.32511945957E+03  0.25500000920E-02 0. -1.
    10030    2    1    2    0    0  0.00000000000E+00  0.00000000000E+00  0.40213301510E+03  0.10523719342E+04  0.97251001338E+03 0.  0.
        3    1    3    3  502    0 -0.12635109987E+03  0.49001720620E+02 -0.30427067545E+03  0.33308620986E+03  0.10100000352E+00 0. -1.
       -3    1    3    3    0  502  0.12635109987E+03 -0.49001720620E+02  0.70640369055E+03  0.71928572437E+03  0.10100000352E+00 0.  1.
</event>
<event>
 5   0  0.2284843E-03  0.9935161E+03  0.7818609E-02  0.9315685E-01
        2   -1    0    0  501    0  0.00000000000E+00  0.00000000000E+00  0.78977349128E+03  0.78977349129E+03  0.25500000920E-02 0.  1.
       -2   -1    0    0    0  501  0.00000000000E+00  0.00000000000E+00 -0.31245483285E+03  0.31245483286E+03  0.25500000920E-02 0. -1.
    10030    2    1    2    0    0  0.00000000000E+00  0.00000000000E+00  0.47731865844E+03  0.11022283241E+04  0.99351606774E+03 0.  0.
        2    1    3    3  502    0 -0.21668857933E+03 -0.79983629257E+01 -0.25717974799E+03  0.33639164229E+03  0.25500000920E-02 0. -1.
       -2    1    3    3    0  502  0.21668857933E+03  0.79983629257E+01  0.73449840643E+03  0.76583668185E+03  0.25500000920E-02 0.  1.
</event>
<event>
 5   0  0.1285769E-03  0.1002739E+04  0.7818609E-02  0.9305546E-01
        1   -1    0    0  501    0  0.00000000000E+00  0.00000000000E+00  0.10816659723E+04  0.10816659723E+04  0.50400001928E-02 0.  1.
       -1   -1    0    0    0  501  0.00000000000E+00  0.00000000000E+00 -0.23239269827E+03  0.23239269832E+03  0.50400001928E-02 0. -1.
    10030    2    1    2    0    0  0.00000000000E+00  0.00000000000E+00  0.84927327404E+03  0.13140586706E+04  0.10027387974E+04 0.  0.
        5    1    3    3  502    0 -0.42633775386E+03  0.10940898252E+03  0.11008305276E+03  0.45373403479E+03  0.46999998093E+01 0. -1.
       -5    1    3    3    0  502  0.42633775386E+03 -0.10940898252E+03  0.73919022128E+03  0.86032463585E+03  0.46999998093E+01 0.  1.
</event>
<event>
 5   0  0.2277570E-03  0.9952220E+03  0.7818609E-02  0.9313801E-01
       -2   -1    0    0    0  501  0.00000000000E+00  0.00000000000E+00  0.10439621669E+04  0.10439621669E+04  0.25500000920E-02 0. -1.
        2   -1    0    0  501    0  0.00000000000E+00  0.00000000000E+00 -0.23718935556E+03  0.23718935558E+03  0.25500000920E-02 0.  1.
    10030    2    1    2    0    0  0.00000000000E+00  0.00000000000E+00  0.80677281130E+03  0.12811515224E+04  0.99522201263E+03 0.  0.
        3    1    3    3  502    0 -0.28464851963E+03 -0.29730159853E+03  0.43393346405E+02  0.41387922505E+03  0.10100000352E+00 0.  1.
       -3    1    3    3    0  502  0.28464851963E+03  0.29730159853E+03  0.76337946490E+03  0.86727229740E+03  0.10100000352E+00 0. -1.
</event>
<event>
 5   0  0.2204862E-03  0.1000416E+04  0.7818609E-02  0.9308089E-01
       -2   -1    0    0    0  501  0.00000000000E+00  0.00000000000E+00  0.42311889595E+03  0.42311889596E+03  0.25500000920E-02 0.  1.
        2   -1    0    0  501    0  0.00000000000E+00  0.00000000000E+00 -0.59134160527E+03  0.59134160528E+03  0.25500000920E-02 0. -1.
    10030    2    1    2    0    0  0.00000000000E+00  0.00000000000E+00 -0.16822270932E+03  0.10144605012E+04  0.10004155280E+04 0.  0.
        1    1    3    3  502    0 -0.42471480076E+03 -0.79789517062E+02 -0.33955821601E+03  0.54958967521E+03  0.50400001928E-02 0. -1.
       -1    1    3    3    0  502  0.42471480076E+03  0.79789517062E+02  0.17133550669E+03  0.46487082603E+03  0.50400001928E-02 0.  1.
</event>
<event>
 5   0  0.2255142E-03  0.1001076E+04  0.7818609E-02  0.9307365E-01
       -2   -1    0    0    0  501  0.00000000000E+00  0.00000000000E+00  0.51088468316E+03  0.51088468316E+03  0.25500000920E-02 0. -1.
        2   -1    0    0  501    0  0.00000000000E+00  0.00000000000E+00 -0.49040094366E+03  0.49040094366E+03  0.25500000920E-02 0.  1.
    10030    2    1    2    0    0  0.00000000000E+00  0.00000000000E+00  0.20483739500E+02  0.10012856268E+04  0.10010760825E+04 0.  0.
        4    1    3    3  502    0 -0.18541348585E+03 -0.25867405998E+03 -0.37616306619E+03  0.49273795806E+03  0.12699999809E+01 0.  1.
       -4    1    3    3    0  502  0.18541348585E+03  0.25867405998E+03  0.39664680569E+03  0.50854766877E+03  0.12699999809E+01 0. -1.
</event>
<event>
 5   0  0.2284843E-03  0.9998578E+03  0.7818609E-02  0.9308701E-01
        2   -1    0    0  501    0  0.00000000000E+00  0.00000000000E+00  0.64190015755E+03  0.64190015756E+03  0.25500000920E-02 0.  1.
       -2   -1    0    0    0  501  0.00000000000E+00  0.00000000000E+00 -0.38935787661E+03  0.38935787662E+03  0.25500000920E-02 0. -1.
    10030    2    1    2    0    0  0.00000000000E+00  0.00000000000E+00  0.25254228094E+03  0.10312580342E+04  0.99985775458E+03 0.  0.
        2    1    3    3  502    0 -0.14202210101E+03  0.32647385373E+03  0.48825369450E+03  0.60427404755E+03  0.25500000920E-02 0.  1.
       -2    1    3    3    0  502  0.14202210101E+03 -0.32647385373E+03 -0.23571141356E+03  0.42698398663E+03  0.25500000920E-02 0. -1.
</event>
<event>
 5   0  0.1285769E-03  0.9992475E+03  0.7818609E-02  0.9309370E-01
        1   -1    0    0  501    0  0.00000000000E+00  0.00000000000E+00  0.94012355685E+03  0.94012355687E+03  0.50400001928E-02 0.  1.
       -1   -1    0    0    0  501  0.00000000000E+00  0.00000000000E+00 -0.26552243743E+03  0.26552243748E+03  0.50400001928E-02 0. -1.
    10030    2    1    2    0    0  0.00000000000E+00  0.00000000000E+00  0.67460111942E+03  0.12056459943E+04  0.99924751356E+03 0.  0.
        5    1    3    3  502    0  0.40904791664E+03 -0.27858051339E+03  0.41979309962E+03  0.64898045967E+03  0.46999998093E+01 0. -1.
       -5    1    3    3    0  502 -0.40904791664E+03  0.27858051339E+03  0.25480801980E+03  0.55666553468E+03  0.46999998093E+01 0.  1.
</event>
<event>
 5   0  0.2284843E-03  0.1000820E+04  0.7818609E-02  0.9307646E-01
       -2   -1    0    0    0  501  0.00000000000E+00  0.00000000000E+00  0.64190265019E+03  0.64190265020E+03  0.25500000920E-02 0. -1.
        2   -1    0    0  501    0  0.00000000000E+00  0.00000000000E+00 -0.39010640482E+03  0.39010640483E+03  0.25500000920E-02 0.  1.
    10030    2    1    2    0    0  0.00000000000E+00  0.00000000000E+00  0.25179624537E+03  0.10320090550E+04  0.10008203338E+04 0.  0.
        2    1    3    3  502    0 -0.70479919053E+02 -0.22204821200E+03  0.58257362349E+03  0.62742717046E+03  0.25500000920E-02 0. -1.
       -2    1    3    3    0  502  0.70479919053E+02  0.22204821200E+03 -0.33077737811E+03  0.40458188456E+03  0.25500000920E-02 0.  1.
</event>
<event>
 5   0  0.1285769E-03  0.1003574E+04  0.7818609E-02  0.9304634E-01
        1   -1    0    0  501    0  0.00000000000E+00  0.00000000000E+00  0.77322833944E+03  0.77322833945E+03  0.50400001928E-02 0.  1.
       -1   -1    0    0    0  501  0.00000000000E+00  0.00000000000E+00 -0.32563501778E+03  0.32563501782E+03  0.50400001928E-02 0. -1.
    10030    2    1    2    0    0  0.00000000000E+00  0.00000000000E+00  0.44759332165E+03  0.10988633573E+04  0.10035740612E+04 0.  0.
        5    1    3    3  502    0  0.25170705002E+03 -0.12998578501E+03 -0.22967046923E+03  0.36472367317E+03  0.46999998093E+01 0. -1.
       -5    1    3    3    0  502 -0.25170705002E+03  0.12998578501E+03  0.67726379088E+03  0.73413968410E+03  0.46999998093E+01 0.  1.
</event>
<event>
 5   0  0.1249195E-03  0.9995207E+03  0.7818609E-02  0.9309071E-01
       -1   -1    0    0    0  501  0.00000000000E+00  0.00000000000E+00  0.23000647624E+03  0.23000647630E+03  0.50400001928E-02 0.  1.
        1   -1    0    0  501    0  0.00000000000E+00  0.00000000000E+00 -0.10858842642E+04  0.10858842642E+04  0.50400001928E-02 0. -1.
    10030    2    1    2    0    0  0.00000000000E+00  0.00000000000E+00 -0.85587778799E+03  0.13158907405E+04  0.99952071168E+03 0.  0.
        2    1    3    3  502    0 -0.48769192508E+02 -0.23931492781E+03  0.14608623850E+03  0.28458963069E+03  0.25500000920E-02 0.  1.
       -2    1    3    3    0  502  0.48769192508E+02  0.23931492781E+03 -0.10019640265E+04  0.10313011099E+04  0.25500000920E-02 0. -1.
</event>
<event>
 5   0  0.1249195E-03  0.9747103E+03  0.7818609E-02  0.9336725E-01
        1   -1    0    0  501    0  0.00000000000E+00  0.00000000000E+00  0.86619681705E+03  0.86619681706E+03  0.50400001928E-02 0. -1.
       -1   -1    0    0    0  501  0.00000000000E+00  0.00000000000E+00 -0.27420447414E+03  0.27420447419E+03  0.50400001928E-02 0.  1.
    10030    2    1    2    0    0  0.00000000000E+00  0.00000000000E+00  0.59199234290E+03  0.11404012913E+04  0.97471030108E+03 0.  0.
        2    1    3    3  502    0 -0.46907806753E+03 -0.10354267318E+03  0.39218987175E+03  0.62013564171E+03  0.25500000920E-02 0. -1.
       -2    1    3    3    0  502  0.46907806753E+03  0.10354267318E+03  0.19980247115E+03  0.52026564954E+03  0.25500000920E-02 0.  1.
</event>
<event>
 5   0  0.1249195E-03  0.9999727E+03  0.7818609E-02  0.9308575E-01
       -1   -1    0    0    0  501  0.00000000000E+00  0.00000000000E+00  0.28242867881E+03  0.28242867886E+03  0.50400001928E-02 0. -1.
        1   -1    0    0  501    0  0.00000000000E+00  0.00000000000E+00 -0.88513091010E+03  0.88513091012E+03  0.50400001928E-02 0.  1.
    10030    2    1    2    0    0  0.00000000000E+00  0.00000000000E+00 -0.60270223129E+03  0.11675595890E+04  0.99997270673E+03 0.  0.
        2    1    3    3  502    0  0.26637899885E+03  0.41367296442E+03 -0.19755190014E+03  0.53019793076E+03  0.25500000920E-02 0. -1.
       -2    1    3    3    0  502 -0.26637899885E+03 -0.41367296442E+03 -0.40515033115E+03  0.63736165821E+03  0.25500000920E-02 0.  1.
</event>
<event>
 5   0  0.2204862E-03  0.1002274E+04  0.7818609E-02  0.9306054E-01
       -2   -1    0    0    0  501  0.00000000000E+00  0.00000000000E+00  0.24505222250E+03  0.24505222251E+03  0.25500000920E-02 0.  1.
        2   -1    0    0  501    0  0.00000000000E+00  0.00000000000E+00 -0.10248366131E+04  0.10248366131E+04  0.25500000920E-02 0. -1.
    10030    2    1    2    0    0  0.00000000000E+00  0.00000000000E+00 -0.77978439055E+03  0.12698888356E+04  0.10022743930E+04 0.  0.
        1    1    3    3  502    0 -0.20275364976E+03  0.13029803772E+03  0.16680120806E+03  0.29310282182E+03  0.50400001928E-02 0.  1.
       -1    1    3    3    0  502  0.20275364976E+03 -0.13029803772E+03 -0.94658559862E+03  0.97678601375E+03  0.50400001928E-02 0. -1.
</event>
<event>
 5   0  0.2255142E-03  0.1000595E+04  0.7818609E-02  0.9307893E-01
       -2   -1    0    0    0  501  0.00000000000E+00  0.00000000000E+00  0.23134460193E+03  0.23134460194E+03  0.25500000920E-02 0.  1.
        2   -1    0    0  501    0  0.00000000000E+00  0.00000000000E+00 -0.10819249559E+04  0.10819249559E+04  0.25500000920E-02 0. -1.
    10030    2    1    2    0    0  0.00000000000E+00  0.00000000000E+00 -0.85058035393E+03  0.13132695578E+04  0.10005948196E+04 0.  0.
        4    1    3    3  502    0  0.40022075473E+02  0.11399747872E+02  0.22906702322E+03  0.23281974746E+03  0.12699999809E+01 0.  1.
       -4    1    3    3    0  502 -0.40022075473E+02 -0.11399747872E+02 -0.10796473772E+04  0.10804498103E+04  0.12699999809E+01 0. -1.
</event>
<event>
 5   0  0.1293716E-03  0.1001367E+04  0.7818609E-02  0.9307047E-01
        1   -1    0    0  501    0  0.00000000000E+00  0.00000000000E+00  0.24081032426E+04  0.24081032426E+04  0.50400001928E-02 0. -1.
       -1   -1    0    0    0  501  0.00000000000E+00  0.00000000000E+00 -0.10410014054E+03  0.10410014066E+03  0.50400001928E-02 0.  1.
    10030    2    1    2    0    0  0.00000000000E+00  0.00000000000E+00  0.23040031021E+04  0.25122033833E+04  0.10013668382E+04 0.  0.
        3    1    3    3  502    0 -0.26449670769E+03  0.26589175486E+03  0.31983335644E+03  0.49289990848E+03  0.10100000352E+00 0.  1.
       -3    1    3    3    0  502  0.26449670769E+03 -0.26589175486E+03  0.19841697457E+04  0.20193034748E+04  0.10100000352E+00 0. -1.
</event>
<event>
 5   0  0.2277570E-03  0.1018162E+04  0.7818609E-02  0.9288846E-01
       -2   -1    0    0    0  501  0.00000000000E+00  0.00000000000E+00  0.40602056540E+03  0.40602056541E+03  0.25500000920E-02 0.  1.
        2   -1    0    0  501    0  0.00000000000E+00  0.00000000000E+00 -0.63830142703E+03  0.63830142704E+03  0.25500000920E-02 0. -1.
    10030    2    1    2    0    0  0.00000000000E+00  0.00000000000E+00 -0.23228086163E+03  0.10443219924E+04  0.10181620820E+04 0.  0.
        3    1    3    3  502    0 -0.24010111183E+03 -0.44888406715E+03 -0.11178316987E+03  0.52119184271E+03  0.10100000352E+00 0. -1.
       -3    1    3    3    0  502  0.24010111183E+03  0.44888406715E+03 -0.12049769176E+03  0.52313014973E+03  0.10100000352E+00 0.  1.
</event>
<event>
 5   0  0.1293716E-03  0.1000970E+04  0.7818609E-02  0.9307481E-01
        1   -1    0    0  501    0  0.00000000000E+00  0.00000000000E+00  0.13821988018E+04  0.13821988018E+04  0.50400001928E-02 0.  1.
       -1   -1    0    0    0  501  0.00000000000E+00  0.00000000000E+00 -0.18122240712E+03  0.18122240719E+03  0.50400001928E-02 0. -1.
    10030    2    1    2    0    0  0.00000000000E+00  0.00000000000E+00  0.12009763947E+04  0.15634212090E+04  0.10009703173E+04 0.  0.
        3    1    3    3  502    0  0.15223275068E+03 -0.35307282744E+03  0.10006826665E+03  0.39730202623E+03  0.10100000352E+00 0. -1.
       -3    1    3    3    0  502 -0.15223275068E+03  0.35307282744E+03  0.11009081280E+04  0.11661191827E+04  0.10100000352E+00 0.  1.
</event>
<event>
 5   0  0.1249195E-03  0.1003225E+04  0.7818609E-02  0.9305015E-01
       -1   -1    0    0    0  501  0.00000000000E+00  0.00000000000E+00  0.46059281821E+03  0.46059281824E+03  0.50400001928E-02 0. -1.
        1   -1    0    0  501    0  0.00000000000E+00  0.00000000000E+00 -0.54628541945E+03  0.54628541947E+03  0.50400001928E-02 0.  1.
    10030    2    1    2    0    0  0.00000000000E+00  0.00000000000E+00 -0.85692601234E+02  0.10068782377E+04  0.10032250813E+04 0.  0.
        2    1    3    3  502    0  0.35550357982E+03  0.16609067398E+03  0.27077555591E+03  0.47674763653E+03  0.25500000920E-02 0. -1.
       -2    1    3    3    0  502 -0.35550357982E+03 -0.16609067398E+03 -0.35646815714E+03  0.53013060119E+03  0.25500000920E-02 0.  1.
</event>
<event>
 5   0  0.2284843E-03  0.1002544E+04  0.7818609E-02  0.9305759E-01
       -2   -1    0    0    0  501  0.00000000000E+00  0.00000000000E+00  0.17593016912E+04  0.17593016912E+04  0.25500000920E-02 0. -1.
        2   -1    0    0  501    0  0.00000000000E+00  0.00000000000E+00 -0.14282577358E+03  0.14282577360E+03  0.25500000920E-02 0.  1.
    10030    2    1    2    0    0  0.00000000000E+00  0.00000000000E+00  0.16164759177E+04  0.19021274648E+04  0.10025440141E+04 0.  0.
        2    1    3    3  502    0 -0.35949731095E+03 -0.26455738314E+03  0.12410750011E+04  0.13188995731E+04  0.25500000920E-02 0. -1.
       -2    1    3    3    0  502  0.35949731095E+03  0.26455738314E+03  0.37540091660E+03  0.58322789178E+03  0.25500000920E-02 0.  1.
</event>
<event>
 5   0  0.1285769E-03  0.1003941E+04  0.7818609E-02  0.9304232E-01
       -1   -1    0    0    0  501  0.00000000000E+00  0.00000000000E+00  0.20743357402E+03  0.20743357408E+03  0.50400001928E-02 0. -1.
        1   -1    0    0  501    0  0.00000000000E+00  0.00000000000E+00 -0.12147242048E+04  0.12147242048E+04  0.50400001928E-02 0.  1.
    10030    2    1    2    0    0  0.00000000000E+00  0.00000000000E+00 -0.10072906308E+04  0.14221577789E+04  0.10039413993E+04 0.  0.
        5    1    3    3  502    0 -0.32751518905E+03  0.37002020254E+03 -0.62852376061E+03  0.79952820901E+03  0.46999998093E+01 0.  1.
       -5    1    3    3    0  502  0.32751518905E+03 -0.37002020254E+03 -0.37876687016E+03  0.62262956987E+03  0.46999998093E+01 0. -1.
</event>
<event>
 5   0  0.1353789E-03  0.9973634E+03  0.7818609E-02  0.9311441E-01
        1   -1    0    0  501    0  0.00000000000E+00  0.00000000000E+00  0.63879900583E+03  0.63879900585E+03  0.50400001928E-02 0.  1.
       -1   -1    0    0    0  501  0.00000000000E+00  0.00000000000E+00 -0.38929842610E+03  0.38929842613E+03  0.50400001928E-02 0. -1.
    10030    2    1    2    0    0  0.00000000000E+00  0.00000000000E+00  0.24950057973E+03  0.10280974320E+04  0.99736341940E+03 0.  0.
        1    1    3    3  502    0  0.10896834868E+03  0.28568922951E+03 -0.28133206574E+03  0.41549990146E+03  0.50400001928E-02 0. -1.
       -1    1    3    3    0  502 -0.10896834868E+03 -0.28568922951E+03  0.53083264547E+03  0.61259753052E+03  0.50400001928E-02 0.  1.
</event>
<event>
 5   0  0.2255142E-03  0.1000600E+04  0.7818609E-02  0.9307887E-01
       -2   -1    0    0    0  501  0.00000000000E+00  0.00000000000E+00  0.12893018373E+03  0.12893018376E+03  0.25500000920E-02 0. -1.
        2   -1    0    0  501    0  0.00000000000E+00  0.00000000000E+00 -0.19413630919E+04  0.19413630919E+04  0.25500000920E-02 0.  1.
    10030    2    1    2    0    0  0.00000000000E+00  0.00000000000E+00 -0.18124329082E+04  0.20702932757E+04  0.10006004201E+04 0.  0.
        4    1    3    3  502    0 -0.46041623100E+03  0.88481783597E+02 -0.54495188546E+03  0.71887850306E+03  0.12699999809E+01 0. -1.
       -4    1    3    3    0  502  0.46041623100E+03 -0.88481783597E+02 -0.12674810227E+04  0.13514147726E+04  0.12699999809E+01 0.  1.
</event>
<event>
 5   0  0.1353789E-03  0.9996818E+03  0.7818609E-02  0.9308894E-01
       -1   -1    0    0    0  501  0.00000000000E+00  0.00000000000E+00  0.17139752012E+03  0.17139752020E+03  0.50400001928E-02 0. -1.
        1   -1    0    0  501    0  0.00000000000E+00  0.00000000000E+00 -0.14576695008E+04  0.14576695008E+04  0.50400001928E-02 0.  1.
    10030    2    1    2    0    0  0.00000000000E+00  0.00000000000E+00 -0.12862719807E+04  0.16290670210E+04  0.99968182471E+03 0.  0.
        1    1    3    3  502    0  0.31861687216E+03 -0.10613223419E+03 -0.39836724159E+02  0.33818297855E+03  0.50400001928E-02 0. -1.
       -1    1    3    3    0  502 -0.31861687216E+03  0.10613223419E+03 -0.12464352565E+04  0.12908840425E+04  0.50400001928E-02 0.  1.
</event>
<event>
 5   0  0.2255142E-03  0.9905137E+03  0.7818609E-02  0.9319011E-01
        2   -1    0    0  501    0  0.00000000000E+00  0.00000000000E+00  0.39596419887E+03  0.39596419888E+03  0.25500000920E-02 0. -1.
       -2   -1    0    0    0  501  0.00000000000E+00  0.00000000000E+00 -0.61944824077E+03  0.61944824077E+03  0.25500000920E-02 0.  1.
    10030    2    1    2    0    0  0.00000000000E+00  0.00000000000E+00 -0.22348404189E+03  0.10154124397E+04  0.99051365747E+03 0.  0.
        4    1    3    3  502    0  0.34670876576E+03  0.42164001219E+02  0.24821539033E+03  0.42848251324E+03  0.12699999809E+01 0. -1.
       -4    1    3    3    0  502 -0.34670876576E+03 -0.42164001219E+02 -0.47169943223E+03  0.58692992641E+03  0.12699999809E+01 0.  1.
</event>
<event>
 5   0  0.2264577E-03  0.9969644E+03  0.7818609E-02  0.9311880E-01
        2   -1    0    0  501    0  0.00000000000E+00  0.00000000000E+00  0.65337562056E+03  0.65337562056E+03  0.25500000920E-02 0. -1.
       -2   -1    0    0    0  501  0.00000000000E+00  0.00000000000E+00 -0.38030879181E+03  0.38030879181E+03  0.25500000920E-02 0.  1.
    10030    2    1    2    0    0  0.00000000000E+00  0.00000000000E+00  0.27306682875E+03  0.10336844124E+04  0.99696437821E+03 0.  0.
        5    1    3    3  502    0  0.27810522122E+03 -0.20806051835E+03  0.50723626515E+03  0.61477021077E+03  0.46999998093E+01 0. -1.
       -5    1    3    3    0  502 -0.27810522122E+03  0.20806051835E+03 -0.23416943640E+03  0.41891420161E+03  0.46999998093E+01 0.  1.
</event>
<event>
 5   0  0.1293575E-03  0.1000317E+04  0.7818609E-02  0.9308197E-01
        1   -1    0    0  501    0  0.00000000000E+00  0.00000000000E+00  0.12983099785E+04  0.12983099785E+04  0.50400001928E-02 0.  1.
       -1   -1    0    0    0  501  0.00000000000E+00  0.00000000000E+00 -0.19268005604E+03  0.19268005610E+03  0.50400001928E-02 0. -1.
    10030    2    1    2    0    0  0.00000000000E+00  0.00000000000E+00  0.11056299224E+04  0.14909900346E+04  0.10003168287E+04 0.  0.
        4    1    3    3  502    0 -0.51938651564E+02 -0.35798257346E+03  0.10676538760E+04  0.11272690709E+04  0.12699999809E+01 0.  1.
       -4    1    3    3    0  502  0.51938651564E+02  0.35798257346E+03  0.37976046478E+02  0.36372096370E+03  0.12699999809E+01 0. -1.
</event>
<event>
 5   0  0.2264577E-03  0.1003171E+04  0.7818609E-02  0.9305073E-01
       -2   -1    0    0    0  501  0.00000000000E+00  0.00000000000E+00  0.48525138329E+03  0.48525138329E+03  0.25500000920E-02 0. -1.
        2   -1    0    0  501    0  0.00000000000E+00  0.00000000000E+00 -0.51846975516E+03  0.51846975516E+03  0.25500000920E-02 0.  1.
    10030    2    1    2    0    0  0.00000000000E+00  0.00000000000E+00 -0.33218371871E+02  0.10037211385E+04  0.10031713032E+04 0.  0.
        5    1    3    3  502    0  0.55819847308E+02 -0.11918709552E+03  0.46764436830E+03  0.48583409133E+03  0.46999998093E+01 0. -1.
       -5    1    3    3    0  502 -0.55819847308E+02  0.11918709552E+03 -0.50086274017E+03  0.51788704713E+03  0.46999998093E+01 0.  1.
</event>
<event>
 5   0  0.1249195E-03  0.9939197E+03  0.7818609E-02  0.9315239E-01
        1   -1    0    0  501    0  0.00000000000E+00  0.00000000000E+00  0.42798617203E+03  0.42798617206E+03  0.50400001928E-02 0. -1.
       -1   -1    0    0    0  501  0.00000000000E+00  0.00000000000E+00 -0.57704918820E+03  0.57704918822E+03  0.50400001928E-02 0.  1.
    10030    2    1    2    0    0  0.00000000000E+00  0.00000000000E+00 -0.14906301617E+03  0.10050353603E+04  0.99391966105E+03 0.  0.
        2    1    3    3  502    0 -0.49438910002E+03 -0.43213826347E+02 -0.10092042208E+03  0.50643158334E+03  0.25500000920E-02 0. -1.
       -2    1    3    3    0  502  0.49438910002E+03  0.43213826347E+02 -0.48142594085E+02  0.49860377694E+03  0.25500000920E-02 0.  1.
</event>
<event>
 5   0  0.2284843E-03  0.9999400E+03  0.7818609E-02  0.9308611E-01
        2   -1    0    0  501    0  0.00000000000E+00  0.00000000000E+00  0.23064278353E+04  0.23064278353E+04  0.25500000920E-02 0. -1.
       -2   -1    0    0    0  501  0.00000000000E+00  0.00000000000E+00 -0.10837971046E+03  0.10837971049E+03  0.25500000920E-02 0.  1.
    10030    2    1    2    0    0  0.00000000000E+00  0.00000000000E+00  0.21980481248E+04  0.24148075457E+04  0.99993996022E+03 0.  0.
        2    1    3    3  502    0  0.44969086333E+03 -0.13826105082E+03  0.69039018471E+03  0.83544993740E+03  0.25500000920E-02 0.  1.
       -2    1    3    3    0  502 -0.44969086333E+03  0.13826105082E+03  0.15076579401E+04  0.15793576083E+04  0.25500000920E-02 0. -1.
</event>
<event>
 5   0  0.1285769E-03  0.9984164E+03  0.7818609E-02  0.9310283E-01
        1   -1    0    0  501    0  0.00000000000E+00  0.00000000000E+00  0.51089118772E+03  0.51089118775E+03  0.50400001928E-02 0.  1.
       -1   -1    0    0    0  501  0.00000000000E+00  0.00000000000E+00 -0.48779237714E+03  0.48779237716E+03  0.50400001928E-02 0. -1.
    10030    2    1    2    0    0  0.00000000000E+00  0.00000000000E+00  0.23098810584E+02  0.99868356491E+03  0.99841639999E+03 0.  0.
        5    1    3    3  502    0  0.46790198185E+03  0.10982942799E+03  0.14646310478E+03  0.50246223632E+03  0.46999998093E+01 0.  1.
       -5    1    3    3    0  502 -0.46790198185E+03 -0.10982942799E+03 -0.12336429420E+03  0.49622132859E+03  0.46999998093E+01 0. -1.
</event>
</LesHouchesEvents>
