<LesHouchesEvents version="3.0">
<header>
<!--
#*********************************************************************
#                                                                    *
#                        MadGraph5_aMC@NLO                           *
#                                                                    *
#                           Going Beyond                             *
#                                                                    *
#                   http://madgraph.hep.uiuc.edu                     *
#                   http://madgraph.phys.ucl.ac.be                   *
#                   http://amcatnlo.cern.ch                          *
#                                                                    *
#                     The MadGraph5_aMC@NLO team                     *
#                                                                    *
#....................................................................*
#                                                                    *
# This file contains all the information necessary to reproduce      *
# the events generated:                                              *
#                                                                    *
# 1. software version                                                *
# 2. proc_card          : code generation info including model       *
# 3. param_card         : model primary parameters in the LH format  *
# 4. run_card           : running parameters (collider and cuts)     *
# 5. pythia_card        : present only if pythia has been run        *
# 6. pgs_card           : present only if pgs has been run           *
# 7. delphes_cards      : present only if delphes has been run       *
#                                                                    *
#                                                                    *
#*********************************************************************
-->
<MGVersion>
#5.2.2.3
</MGVersion>
<MG5ProcCard>
#************************************************************
#*                     MadGraph5_aMC@NLO                    *
#*                                                          *
#*                *                       *                 *
#*                  *        * *        *                   *
#*                    * * * * 5 * * * *                     *
#*                  *        * *        *                   *
#*                *                       *                 *
#*                                                          *
#*                                                          *
#*         VERSION 2.2.3                 2015-02-10         *
#*                                                          *
#*    The MadGraph5_aMC@NLO Development Team - Find us at   *
#*    https://server06.fynu.ucl.ac.be/projects/madgraph     *
#*                                                          *
#************************************************************
#*                                                          *
#*               Command File for MadGraph5_aMC@NLO         *
#*                                                          *
#*     run as ./bin/mg5_aMC  filename                       *
#*                                                          *
#************************************************************
set group_subprocesses Auto
set ignore_six_quark_processes False
set loop_optimized_output True
set gauge unitary
set complex_mass_scheme False
import model sm
define p = g u c d s u~ c~ d~ s~
define j = g u c d s u~ c~ d~ s~
define l+ = e+ mu+
define l- = e- mu-
define vl = ve vm vt
define vl~ = ve~ vm~ vt~
import model Zprime_UFO
generate p p > zph, zph > j j
add process p p > zph, zph > b b~
output Dijet_signal
</MG5ProcCard>
<MGProcCard>
#*********************************************************************
#                        MadGraph/MadEvent                           *
#                   http://madgraph.hep.uiuc.edu                     *
#                                                                    *
#                          proc_card.dat                             *
#*********************************************************************
#                                                                    *
#            This Files is generated by MADGRAPH 5                   *
#                                                                    *
# WARNING: This Files is generated for MADEVENT (compatibility issue)*
#          This files is NOT a valid MG4 proc_card.dat               *
#          Running this in MG4 will NEVER reproduce the result of MG5*
#                                                                    *
#*********************************************************************
#*********************************************************************
# Process(es) requested : mg2 input                                  *
#*********************************************************************
# Begin PROCESS # This is TAG. Do not modify this line
p p > zph , zph > j j           #Process
# Be carefull the coupling are here in MG5 convention
          
end_coup           # End the couplings input

done               # this tells MG there are no more procs
# End PROCESS  # This is TAG. Do not modify this line
#*********************************************************************
# Model information                                                  *
#*********************************************************************
# Begin MODEL  # This is TAG. Do not modify this line
Zprime_UFO
# End   MODEL  # This is TAG. Do not modify this line
#*********************************************************************
# Start multiparticle definitions                                    *
#*********************************************************************
# Begin MULTIPARTICLES # This is TAG. Do not modify this line

# End  MULTIPARTICLES # This is TAG. Do not modify this line
</MGProcCard>
<MGRunCard>
#*********************************************************************
#                       MadGraph5_aMC@NLO                            *
#                                                                    *
#                     run_card.dat MadEvent                          *
#                                                                    *
#  This file is used to set the parameters of the run.               *
#                                                                    *
#  Some notation/conventions:                                        *
#                                                                    *
#   Lines starting with a '# ' are info or comments                  *
#                                                                    *
#   mind the format:   value    = variable     ! comment             *
#*********************************************************************
#
#*******************                                                 
# Running parameters
#*******************                                                 
#                                                                    
#*********************************************************************
# Tag name for the run (one word)                                    *
#*********************************************************************
  tag_1     = run_tag ! name of the run 
#*********************************************************************
# Run to generate the grid pack                                      *
#*********************************************************************
  .false.     = gridpack  !True = setting up the grid pack
#*********************************************************************
# Number of events and rnd seed                                      *
# Warning: Do not generate more than 1M events in a single run       *
# If you want to run Pythia, avoid more than 50k events in a run.    *
#*********************************************************************
  2000 = nevents ! Number of unweighted events requested 
 1677 = iseed   ! rnd seed (0=assigned automatically=default))
#*********************************************************************
# Collider type and energy                                           *
# lpp: 0=No PDF, 1=proton, -1=antiproton, 2=photon from proton,      *
#                                         3=photon from electron     *
#*********************************************************************
        1     = lpp1    ! beam 1 type 
        1     = lpp2    ! beam 2 type
     4000     = ebeam1  ! beam 1 total energy in GeV
     4000     = ebeam2  ! beam 2 total energy in GeV
#*********************************************************************
# Beam polarization from -100 (left-handed) to 100 (right-handed)    *
#*********************************************************************
        0     = polbeam1 ! beam polarization for beam 1
        0     = polbeam2 ! beam polarization for beam 2
#*********************************************************************
# PDF CHOICE: this automatically fixes also alpha_s and its evol.    *
#*********************************************************************
 'nn23lo1'    = pdlabel     ! PDF set                                     
 230000    = lhaid     ! if pdlabel=lhapdf, this is the lhapdf number
#*********************************************************************
# Renormalization and factorization scales                           *
#*********************************************************************
 F        = fixed_ren_scale  ! if .true. use fixed ren scale
 F        = fixed_fac_scale  ! if .true. use fixed fac scale
 91.1880  = scale            ! fixed ren scale
 91.1880  = dsqrt_q2fact1    ! fixed fact scale for pdf1
 91.1880  = dsqrt_q2fact2    ! fixed fact scale for pdf2
 1        = scalefact        ! scale factor for event-by-event scales
#*********************************************************************
# Matching - Warning! ickkw > 1 is still beta
#*********************************************************************
 0        = ickkw            ! 0 no matching, 1 MLM, 2 CKKW matching
 1        = highestmult      ! for ickkw=2, highest mult group
 1        = ktscheme         ! for ickkw=1, 1 Durham kT, 2 Pythia pTE
 1        = alpsfact         ! scale factor for QCD emission vx
 F        = chcluster        ! cluster only according to channel diag
 T        = pdfwgt           ! for ickkw=1, perform pdf reweighting
 5        = asrwgtflavor     ! highest quark flavor for a_s reweight
 T        = clusinfo         ! include clustering tag in output
 3.0      = lhe_version       ! Change the way clustering information pass to shower.        
#*********************************************************************
#**********************************************************
#
#**********************************************************
# Automatic ptj and mjj cuts if xqcut > 0
# (turn off for VBF and single top processes)
#**********************************************************
   T  = auto_ptj_mjj  ! Automatic setting of ptj and mjj
#**********************************************************
#                                                                    
#**********************************
# BW cutoff (M+/-bwcutoff*Gamma)
#**********************************
  15  = bwcutoff      ! (M+/-bwcutoff*Gamma)
#**********************************************************
# Apply pt/E/eta/dr/mij cuts on decay products or not
# (note that etmiss/ptll/ptheavy/ht/sorted cuts always apply)
#**********************************************************
   T  = cut_decays    ! Cut decay products 
#*************************************************************
# Number of helicities to sum per event (0 = all helicities)
# 0 gives more stable result, but longer run time (needed for
# long decay chains e.g.).
# Use >=2 if most helicities contribute, e.g. pure QCD.
#*************************************************************
   0  = nhel          ! Number of helicities used per event
#*******************                                                 
# Standard Cuts
#*******************                                                 
#                                                                    
#*********************************************************************
# Minimum and maximum pt's (for max, -1 means no cut)                *
#*********************************************************************
 20  = ptj       ! minimum pt for the jets 
  0  = ptb       ! minimum pt for the b 
 10  = pta       ! minimum pt for the photons 
 10  = ptl       ! minimum pt for the charged leptons 
  0  = misset    ! minimum missing Et (sum of neutrino's momenta)
  0  = ptheavy   ! minimum pt for one heavy final state
 1.0 = ptonium   ! minimum pt for the quarkonium states
 -1  = ptjmax    ! maximum pt for the jets
 -1  = ptbmax    ! maximum pt for the b
 -1  = ptamax    ! maximum pt for the photons
 -1  = ptlmax    ! maximum pt for the charged leptons
 -1  = missetmax ! maximum missing Et (sum of neutrino's momenta)
#*********************************************************************
# Minimum and maximum E's (in the center of mass frame)              *
#*********************************************************************
  0  = ej     ! minimum E for the jets 
  0  = eb     ! minimum E for the b 
  0  = ea     ! minimum E for the photons 
  0  = el     ! minimum E for the charged leptons 
 -1   = ejmax ! maximum E for the jets
 -1   = ebmax ! maximum E for the b
 -1   = eamax ! maximum E for the photons
 -1   = elmax ! maximum E for the charged leptons
#*********************************************************************
# Maximum and minimum absolute rapidity (for max, -1 means no cut)   *
#*********************************************************************
   5  = etaj    ! max rap for the jets 
  -1  = etab    ! max rap for the b
 2.5  = etaa    ! max rap for the photons 
 2.5  = etal    ! max rap for the charged leptons 
 0.6  = etaonium ! max rap for the quarkonium states
   0  = etajmin ! min rap for the jets
   0  = etabmin ! min rap for the b
   0  = etaamin ! min rap for the photons
   0  = etalmin ! main rap for the charged leptons
#*********************************************************************
# Minimum and maximum DeltaR distance                                *
#*********************************************************************
 0.4 = drjj    ! min distance between jets 
 0   = drbb    ! min distance between b's 
 0.4 = drll    ! min distance between leptons 
 0.4 = draa    ! min distance between gammas 
 0   = drbj    ! min distance between b and jet 
 0.4 = draj    ! min distance between gamma and jet 
 0.4 = drjl    ! min distance between jet and lepton 
 0   = drab    ! min distance between gamma and b 
 0   = drbl    ! min distance between b and lepton 
 0.4 = dral    ! min distance between gamma and lepton 
 -1  = drjjmax ! max distance between jets
 -1  = drbbmax ! max distance between b's
 -1  = drllmax ! max distance between leptons
 -1  = draamax ! max distance between gammas
 -1  = drbjmax ! max distance between b and jet
 -1  = drajmax ! max distance between gamma and jet
 -1  = drjlmax ! max distance between jet and lepton
 -1  = drabmax ! max distance between gamma and b
 -1  = drblmax ! max distance between b and lepton
 -1  = dralmax ! maxdistance between gamma and lepton
#*********************************************************************
# Minimum and maximum invariant mass for pairs                       *
# WARNING: for four lepton final state mmll cut require to have      *
#          different lepton masses for each flavor!                  *           
#*********************************************************************
 0   = mmjj    ! min invariant mass of a jet pair 
 0   = mmbb    ! min invariant mass of a b pair 
 0   = mmaa    ! min invariant mass of gamma gamma pair
 0   = mmll    ! min invariant mass of l+l- (same flavour) lepton pair
 -1  = mmjjmax ! max invariant mass of a jet pair
 -1  = mmbbmax ! max invariant mass of a b pair
 -1  = mmaamax ! max invariant mass of gamma gamma pair
 -1  = mmllmax ! max invariant mass of l+l- (same flavour) lepton pair
#*********************************************************************
# Minimum and maximum invariant mass for all letpons                 *
#*********************************************************************
 0   = mmnl    ! min invariant mass for all letpons (l+- and vl) 
 -1  = mmnlmax ! max invariant mass for all letpons (l+- and vl) 
#*********************************************************************
# Minimum and maximum pt for 4-momenta sum of leptons                *
#*********************************************************************
 0   = ptllmin  ! Minimum pt for 4-momenta sum of leptons(l and vl)
 -1  = ptllmax  ! Maximum pt for 4-momenta sum of leptons(l and vl)
#*********************************************************************
# Inclusive cuts                                                     *
#*********************************************************************
 0  = xptj ! minimum pt for at least one jet  
 0  = xptb ! minimum pt for at least one b 
 0  = xpta ! minimum pt for at least one photon 
 0  = xptl ! minimum pt for at least one charged lepton 
#*********************************************************************
# Control the pt's of the jets sorted by pt                          *
#*********************************************************************
 0   = ptj1min ! minimum pt for the leading jet in pt
 0   = ptj2min ! minimum pt for the second jet in pt
 0   = ptj3min ! minimum pt for the third jet in pt
 0   = ptj4min ! minimum pt for the fourth jet in pt
 -1  = ptj1max ! maximum pt for the leading jet in pt 
 -1  = ptj2max ! maximum pt for the second jet in pt
 -1  = ptj3max ! maximum pt for the third jet in pt
 -1  = ptj4max ! maximum pt for the fourth jet in pt
 0   = cutuse  ! reject event if fails any (0) / all (1) jet pt cuts
#*********************************************************************
# Control the pt's of leptons sorted by pt                           *
#*********************************************************************
 0   = ptl1min ! minimum pt for the leading lepton in pt
 0   = ptl2min ! minimum pt for the second lepton in pt
 0   = ptl3min ! minimum pt for the third lepton in pt
 0   = ptl4min ! minimum pt for the fourth lepton in pt
 -1  = ptl1max ! maximum pt for the leading lepton in pt 
 -1  = ptl2max ! maximum pt for the second lepton in pt
 -1  = ptl3max ! maximum pt for the third lepton in pt
 -1  = ptl4max ! maximum pt for the fourth lepton in pt
#*********************************************************************
# Control the Ht(k)=Sum of k leading jets                            *
#*********************************************************************
 0   = htjmin ! minimum jet HT=Sum(jet pt)
 -1  = htjmax ! maximum jet HT=Sum(jet pt)
 0   = ihtmin  !inclusive Ht for all partons (including b)
 -1  = ihtmax  !inclusive Ht for all partons (including b)
 0   = ht2min ! minimum Ht for the two leading jets
 0   = ht3min ! minimum Ht for the three leading jets
 0   = ht4min ! minimum Ht for the four leading jets
 -1  = ht2max ! maximum Ht for the two leading jets
 -1  = ht3max ! maximum Ht for the three leading jets
 -1  = ht4max ! maximum Ht for the four leading jets
#***********************************************************************
# Photon-isolation cuts, according to hep-ph/9801442                   *
# When ptgmin=0, all the other parameters are ignored                  *
# When ptgmin>0, pta and draj are not going to be used                 *
#***********************************************************************
   0 = ptgmin ! Min photon transverse momentum
 0.4 = R0gamma ! Radius of isolation code
 1.0 = xn ! n parameter of eq.(3.4) in hep-ph/9801442
 1.0 = epsgamma ! epsilon_gamma parameter of eq.(3.4) in hep-ph/9801442
 .true. = isoEM ! isolate photons from EM energy (photons and leptons)
#*********************************************************************
# WBF cuts                                                           *
#*********************************************************************
 0   = xetamin ! minimum rapidity for two jets in the WBF case  
 0   = deltaeta ! minimum rapidity for two jets in the WBF case 
#*********************************************************************
# KT DURHAM CUT                                                      *
#*********************************************************************
 -1    =  ktdurham        
 0.4  =  dparameter 
#*********************************************************************
# maximal pdg code for quark to be considered as a light jet         *
# (otherwise b cuts are applied)                                     *
#*********************************************************************
 4 = maxjetflavor    ! Maximum jet pdg code
#*********************************************************************
# Jet measure cuts                                                   *
#*********************************************************************
 0   = xqcut   ! minimum kt jet measure between partons
#*********************************************************************
#
#*********************************************************************
# Store info for systematics studies                                 *
# WARNING: If use_syst is T, matched Pythia output is                *
#          meaningful ONLY if plotted taking matchscale              *
#          reweighting into account!                                 *
#*********************************************************************
   F  = use_syst      ! Enable systematics studies
#
#**************************************
# Parameter of the systematics study
#  will be used by SysCalc (if installed)
#**************************************                                  
#
0.5 1 2 = sys_scalefact  # factorization/renormalization scale factor
0.5 1 2 = sys_alpsfact  # \alpha_s emission scale factors
30 50 = sys_matchscale # variation of merging scale
# PDF sets and number of members (0 or none for all members).
CT10nlo.LHgrid = sys_pdf # matching scales
# MSTW2008nlo68cl.LHgrid 1  = sys_pdf
</MGRunCard>
<slha>
######################################################################
## PARAM_CARD AUTOMATICALY GENERATED BY MG5 FOLLOWING UFO MODEL   ####
######################################################################
##                                                                  ##
##  Width set on Auto will be computed following the information    ##
##        present in the decay.py files of the model.               ##
##        See  arXiv:1402.1178 for more details.                    ##
##                                                                  ##
######################################################################

###################################
## INFORMATION FOR CKMBLOCK
###################################
Block ckmblock 
    1 2.277360e-01 # cabi 

###################################
## INFORMATION FOR FRBLOCK
###################################
Block frblock 
    1 8.000000e-01 # gz 

###################################
## INFORMATION FOR MASS
###################################
Block mass 
    1 5.040000e-03 # MD 
    2 2.550000e-03 # MU 
    3 1.010000e-01 # MS 
    4 1.270000e+00 # MC 
    5 4.700000e+00 # MB 
    6 1.720000e+02 # MT 
   11 5.110000e-04 # Me 
   13 1.056600e-01 # MM 
   15 1.777000e+00 # MTA 
   23 9.118760e+01 # MZ 
   25 1.200000e+02 # MH 
  10030 2.800000e+03 # MZph 
  10031 3.000000e+02 # MZpl 
## Dependent parameters, given by model restrictions.
## Those values should be edited following the 
## analytical expression. MG5 ignores those values 
## but they are important for interfacing the output of MG5
## to external program such as Pythia.
  12 0.000000 # ve : 0.0 
  14 0.000000 # vm : 0.0 
  16 0.000000 # vt : 0.0 
  21 0.000000 # g : 0.0 
  22 0.000000 # a : 0.0 
  24 79.824360 # w+ : cmath.sqrt(MZ__exp__2/2. + cmath.sqrt(MZ__exp__4/4. - (aEW*cmath.pi*MZ__exp__2)/(Gf*sqrt__2))) 

###################################
## INFORMATION FOR SMINPUTS
###################################
Block sminputs 
    1 1.279000e+02 # aEWM1 
    2 1.166370e-05 # Gf 
    3 1.184000e-01 # aS 

###################################
## INFORMATION FOR YUKAWA
###################################
Block yukawa 
    1 5.040000e-03 # ymdo 
    2 2.550000e-03 # ymup 
    3 1.010000e-01 # yms 
    4 1.270000e+00 # ymc 
    5 4.700000e+00 # ymb 
    6 1.720000e+02 # ymt 
   11 5.110000e-04 # yme 
   13 1.056600e-01 # ymm 
   15 1.777000e+00 # ymtau 

###################################
## INFORMATION FOR DECAY
###################################
DECAY   6 1.508336e+00 # WT 
DECAY  23 2.495200e+00 # WZ 
DECAY  24 2.085000e+00 # WW 
DECAY  25 5.753088e-03 # WH 
## Dependent parameters, given by model restrictions.
## Those values should be edited following the 
## analytical expression. MG5 ignores those values 
## but they are important for interfacing the output of MG5
## to external program such as Pythia.
DECAY  1 0.000000 # d : 0.0 
DECAY  2 0.000000 # u : 0.0 
DECAY  3 0.000000 # s : 0.0 
DECAY  4 0.000000 # c : 0.0 
DECAY  5 0.000000 # b : 0.0 
DECAY  11 0.000000 # e- : 0.0 
DECAY  12 0.000000 # ve : 0.0 
DECAY  13 0.000000 # mu- : 0.0 
DECAY  14 0.000000 # vm : 0.0 
DECAY  15 0.000000 # ta- : 0.0 
DECAY  16 0.000000 # vt : 0.0 
DECAY  21 0.000000 # g : 0.0 
DECAY  22 0.000000 # a : 0.0 
DECAY  10030 0.308725 # zph : (gz__exp__2*MZph*(5 + cmath.sqrt(1 - (4*MT__exp__2)/MZph__exp__2)))/(144.*cmath.pi) 
DECAY  10031 0.132629 # zpl : (5*gz__exp__2*MZpl)/(144.*cmath.pi) 
#===========================================================
# QUANTUM NUMBERS OF NEW STATE(S) (NON SM PDG CODE)
#===========================================================

Block QNUMBERS 10030  # zph 
        1 0  # 3 times electric charge
        2 3  # number of spin states (2S+1)
        3 1  # colour rep (1: singlet, 3: triplet, 8: octet)
        4 0  # Particle/Antiparticle distinction (0=own anti)
Block QNUMBERS 10031  # zpl 
        1 0  # 3 times electric charge
        2 3  # number of spin states (2S+1)
        3 1  # colour rep (1: singlet, 3: triplet, 8: octet)
        4 0  # Particle/Antiparticle distinction (0=own anti)
</slha>
## END BANNER##
<MGGenerationInfo>
#  Number of Events        :         3874
#  Integrated weight (pb)  :  0.15211E-02
#  Max wgt                 :  0.59166E-06
#  Average wgt             :  0.39264E-06
</MGGenerationInfo>
</header>
<init>
     2212     2212  0.40000000000E+04  0.40000000000E+04 0 0  247000  247000 2   1
  0.15231546498E-02  0.31488476180E-05  0.59166030000E-06   0
</init>
<event>
 5   0  0.5584205E-06  0.2772087E+04  0.7818609E-02  0.8311987E-01
        2   -1    0    0  501    0  0.00000000000E+00  0.00000000000E+00  0.23730838949E+04  0.23730838949E+04  0.25500000920E-02 0.  1.
       -2   -1    0    0    0  501  0.00000000000E+00  0.00000000000E+00 -0.80954419137E+03  0.80954419137E+03  0.25500000920E-02 0. -1.
    10030    2    1    2    0    0  0.00000000000E+00  0.00000000000E+00  0.15635397035E+04  0.31826280862E+04  0.27720867827E+04 0.  0.
        1    1    3    3  502    0  0.12415024294E+04  0.57995014325E+03  0.10210755981E+04  0.17088785293E+04  0.50400001928E-02 0.  1.
       -1    1    3    3    0  502 -0.12415024294E+04 -0.57995014325E+03  0.54246410541E+03  0.14737495569E+04  0.50400001928E-02 0. -1.
</event>
<event>
 5   0  0.5584205E-06  0.2815019E+04  0.7818609E-02  0.8298621E-01
       -2   -1    0    0    0  501  0.00000000000E+00  0.00000000000E+00  0.12345016539E+04  0.12345016539E+04  0.25500000920E-02 0.  1.
        2   -1    0    0  501    0  0.00000000000E+00  0.00000000000E+00 -0.16047638920E+04  0.16047638920E+04  0.25500000920E-02 0. -1.
    10030    2    1    2    0    0  0.00000000000E+00  0.00000000000E+00 -0.37026223813E+03  0.28392655459E+04  0.28150194875E+04 0.  0.
        1    1    3    3  502    0  0.36595266539E+03  0.63659641847E+03 -0.13962681437E+04  0.15775744301E+04  0.50400001928E-02 0. -1.
       -1    1    3    3    0  502 -0.36595266539E+03 -0.63659641847E+03  0.10260059056E+04  0.12616911158E+04  0.50400001928E-02 0.  1.
</event>
<event>
 5   0  0.5625245E-06  0.2799041E+04  0.7818609E-02  0.8303566E-01
       -2   -1    0    0    0  501  0.00000000000E+00  0.00000000000E+00  0.95831782746E+03  0.95831782746E+03  0.25500000920E-02 0. -1.
        2   -1    0    0  501    0  0.00000000000E+00  0.00000000000E+00 -0.20438493933E+04  0.20438493933E+04  0.25500000920E-02 0.  1.
    10030    2    1    2    0    0  0.00000000000E+00  0.00000000000E+00 -0.10855315658E+04  0.30021672207E+04  0.27990407715E+04 0.  0.
        3    1    3    3  502    0 -0.12120150571E+04  0.60136754564E+02 -0.12905404734E+04  0.17714659612E+04  0.10100000352E+00 0.  1.
       -3    1    3    3    0  502  0.12120150571E+04 -0.60136754564E+02  0.20500890759E+03  0.12307012596E+04  0.10100000352E+00 0. -1.
</event>
<event>
 5   0  0.5584205E-06  0.2804859E+04  0.7818609E-02  0.8301761E-01
       -2   -1    0    0    0  501  0.00000000000E+00  0.00000000000E+00  0.35142052009E+04  0.35142052009E+04  0.25500000920E-02 0.  1.
        2   -1    0    0  501    0  0.00000000000E+00  0.00000000000E+00 -0.55967380456E+03  0.55967380457E+03  0.25500000920E-02 0. -1.
    10030    2    1    2    0    0  0.00000000000E+00  0.00000000000E+00  0.29545313964E+04  0.40738790055E+04  0.28048590658E+04 0.  0.
        1    1    3    3  502    0  0.49807690331E+03 -0.12388980258E+04  0.85447756933E+03  0.15852699570E+04  0.50400001928E-02 0.  1.
       -1    1    3    3    0  502 -0.49807690331E+03  0.12388980258E+04  0.21000538270E+04  0.24886090485E+04  0.50400001928E-02 0. -1.
</event>
<event>
 5   0  0.5625245E-06  0.2754848E+04  0.7818609E-02  0.8317425E-01
        2   -1    0    0  501    0  0.00000000000E+00  0.00000000000E+00  0.24683146466E+04  0.24683146466E+04  0.25500000920E-02 0. -1.
       -2   -1    0    0    0  501  0.00000000000E+00  0.00000000000E+00 -0.76866064224E+03  0.76866064224E+03  0.25500000920E-02 0.  1.
    10030    2    1    2    0    0  0.00000000000E+00  0.00000000000E+00  0.16996540044E+04  0.32369752889E+04  0.27548475976E+04 0.  0.
        3    1    3    3  502    0  0.83153883314E+03  0.75839869190E+03 -0.83305257314E+02  0.11285234526E+04  0.10100000352E+00 0.  1.
       -3    1    3    3    0  502 -0.83153883314E+03 -0.75839869190E+03  0.17829592617E+04  0.21084518363E+04  0.10100000352E+00 0. -1.
</event>
<event>
 5   0  0.2277133E-06  0.2778346E+04  0.7818609E-02  0.8310023E-01
       -1   -1    0    0    0  501  0.00000000000E+00  0.00000000000E+00  0.13975314023E+04  0.13975314023E+04  0.50400001928E-02 0. -1.
        1   -1    0    0  501    0  0.00000000000E+00  0.00000000000E+00 -0.13808642634E+04  0.13808642634E+04  0.50400001928E-02 0.  1.
    10030    2    1    2    0    0  0.00000000000E+00  0.00000000000E+00  0.16667138906E+02  0.27783956656E+04  0.27783456735E+04 0.  0.
        1    1    3    3  502    0 -0.10787812273E+04  0.23007948296E+03  0.85279868292E+03  0.13942636402E+04  0.50400001928E-02 0. -1.
       -1    1    3    3    0  502  0.10787812273E+04 -0.23007948296E+03 -0.83613154402E+03  0.13841320254E+04  0.50400001928E-02 0.  1.
</event>
<event>
 5   0  0.2234068E-06  0.2847449E+04  0.7818609E-02  0.8288687E-01
        1   -1    0    0  501    0  0.00000000000E+00  0.00000000000E+00  0.13994516225E+04  0.13994516225E+04  0.50400001928E-02 0.  1.
       -1   -1    0    0    0  501  0.00000000000E+00  0.00000000000E+00 -0.14484181628E+04  0.14484181629E+04  0.50400001928E-02 0. -1.
    10030    2    1    2    0    0  0.00000000000E+00  0.00000000000E+00 -0.48966540330E+02  0.28478697854E+04  0.28474487866E+04 0.  0.
        3    1    3    3  502    0  0.16622997212E+03 -0.14111026317E+04  0.65796885848E+02  0.14223826072E+04  0.10100000352E+00 0.  1.
       -3    1    3    3    0  502 -0.16622997212E+03  0.14111026317E+04 -0.11476342618E+03  0.14254871782E+04  0.10100000352E+00 0. -1.
</event>
<event>
 5   0  0.5584205E-06  0.2810582E+04  0.7818609E-02  0.8299991E-01
        2   -1    0    0  501    0  0.00000000000E+00  0.00000000000E+00  0.19221624401E+04  0.19221624401E+04  0.25500000920E-02 0.  1.
       -2   -1    0    0    0  501  0.00000000000E+00  0.00000000000E+00 -0.10274065336E+04  0.10274065336E+04  0.25500000920E-02 0. -1.
    10030    2    1    2    0    0  0.00000000000E+00  0.00000000000E+00  0.89475590649E+03  0.29495689737E+04  0.28105816122E+04 0.  0.
        1    1    3    3  502    0 -0.11859271131E+04 -0.64603736065E+03  0.39500491332E+02  0.13510542838E+04  0.50400001928E-02 0. -1.
       -1    1    3    3    0  502  0.11859271131E+04  0.64603736065E+03  0.85525541516E+03  0.15985146900E+04  0.50400001928E-02 0.  1.
</event>
<event>
 5   0  0.2190865E-06  0.2807319E+04  0.7818609E-02  0.8301000E-01
       -1   -1    0    0    0  501  0.00000000000E+00  0.00000000000E+00  0.26518330329E+04  0.26518330329E+04  0.50400001928E-02 0.  1.
        1   -1    0    0  501    0  0.00000000000E+00  0.00000000000E+00 -0.74298022058E+03  0.74298022060E+03  0.50400001928E-02 0. -1.
    10030    2    1    2    0    0  0.00000000000E+00  0.00000000000E+00  0.19088528123E+04  0.33948132535E+04  0.28073186437E+04 0.  0.
        2    1    3    3  502    0  0.25774047206E+03 -0.12397316807E+04  0.22194787744E+03  0.12855448850E+04  0.25500000920E-02 0.  1.
       -2    1    3    3    0  502 -0.25774047206E+03  0.12397316807E+04  0.16869049349E+04  0.21092683685E+04  0.25500000920E-02 0. -1.
</event>
<event>
 5   0  0.5584205E-06  0.2797405E+04  0.7818609E-02  0.8304074E-01
        2   -1    0    0  501    0  0.00000000000E+00  0.00000000000E+00  0.17968448100E+04  0.17968448100E+04  0.25500000920E-02 0.  1.
       -2   -1    0    0    0  501  0.00000000000E+00  0.00000000000E+00 -0.10887800718E+04  0.10887800718E+04  0.25500000920E-02 0. -1.
    10030    2    1    2    0    0  0.00000000000E+00  0.00000000000E+00  0.70806473815E+03  0.28856248818E+04  0.27974050985E+04 0.  0.
        1    1    3    3  502    0 -0.10370051841E+04  0.83449271256E+03 -0.89181435028E+02  0.13340581575E+04  0.50400001928E-02 0. -1.
       -1    1    3    3    0  502  0.10370051841E+04 -0.83449271256E+03  0.79724617318E+03  0.15515667243E+04  0.50400001928E-02 0.  1.
</event>
<event>
 5   0  0.1901375E-06  0.2747994E+04  0.7818609E-02  0.8319598E-01
        4   -1    0    0  501    0  0.00000000000E+00  0.00000000000E+00  0.12405306508E+04  0.12405313009E+04  0.12699999809E+01 0. -1.
       -4   -1    0    0    0  501  0.00000000000E+00  0.00000000000E+00 -0.15218215795E+04  0.15218221094E+04  0.12699999809E+01 0.  1.
    10030    2    1    2    0    0  0.00000000000E+00  0.00000000000E+00 -0.28129092867E+03  0.27623534102E+04  0.27479941369E+04 0.  0.
        5    1    3    3  502    0  0.37791220465E+03 -0.12983570550E+04  0.10413708254E+03  0.13562504558E+04  0.46999998093E+01 0. -1.
       -5    1    3    3    0  502 -0.37791220465E+03  0.12983570550E+04 -0.38542801122E+03  0.14061029545E+04  0.46999998093E+01 0.  1.
</event>
<event>
 5   0  0.5866136E-06  0.2813710E+04  0.7818609E-02  0.8299024E-01
        2   -1    0    0  501    0  0.00000000000E+00  0.00000000000E+00  0.11190935170E+04  0.11190935170E+04  0.25500000920E-02 0.  1.
       -2   -1    0    0    0  501  0.00000000000E+00  0.00000000000E+00 -0.17686113708E+04  0.17686113709E+04  0.25500000920E-02 0. -1.
    10030    2    1    2    0    0  0.00000000000E+00  0.00000000000E+00 -0.64951785385E+03  0.28877048878E+04  0.28137103754E+04 0.  0.
        5    1    3    3  502    0 -0.73364518503E+03 -0.93623459842E+03  0.44629676963E+03  0.12704225192E+04  0.46999998093E+01 0.  1.
       -5    1    3    3    0  502  0.73364518503E+03  0.93623459842E+03 -0.10958146235E+04  0.16172823686E+04  0.46999998093E+01 0. -1.
</event>
<event>
 5   0  0.2206967E-06  0.2803813E+04  0.7818609E-02  0.8302086E-01
        1   -1    0    0  501    0  0.00000000000E+00  0.00000000000E+00  0.16123076871E+04  0.16123076871E+04  0.50400001928E-02 0.  1.
       -1   -1    0    0    0  501  0.00000000000E+00  0.00000000000E+00 -0.12189619912E+04  0.12189619912E+04  0.50400001928E-02 0. -1.
    10030    2    1    2    0    0  0.00000000000E+00  0.00000000000E+00  0.39334569587E+03  0.28312696784E+04  0.28038129672E+04 0.  0.
        5    1    3    3  502    0  0.77229192145E+03  0.70365427135E+02 -0.98263940538E+03  0.12517940710E+04  0.46999998093E+01 0. -1.
       -5    1    3    3    0  502 -0.77229192145E+03 -0.70365427135E+02  0.13759851012E+04  0.15794756073E+04  0.46999998093E+01 0.  1.
</event>
<event>
 5   0  0.2277133E-06  0.2778285E+04  0.7818609E-02  0.8310042E-01
        1   -1    0    0  501    0  0.00000000000E+00  0.00000000000E+00  0.19141377141E+04  0.19141377141E+04  0.50400001928E-02 0. -1.
       -1   -1    0    0    0  501  0.00000000000E+00  0.00000000000E+00 -0.10081390923E+04  0.10081390923E+04  0.50400001928E-02 0.  1.
    10030    2    1    2    0    0  0.00000000000E+00  0.00000000000E+00  0.90599862183E+03  0.29222768065E+04  0.27782851241E+04 0.  0.
        1    1    3    3  502    0  0.64538640020E+03  0.12144916465E+04  0.65858651124E+03  0.15248769648E+04  0.50400001928E-02 0. -1.
       -1    1    3    3    0  502 -0.64538640020E+03 -0.12144916465E+04  0.24741211059E+03  0.13973998417E+04  0.50400001928E-02 0.  1.
</event>
<event>
 5   0  0.2234068E-06  0.2740642E+04  0.7818609E-02  0.8321937E-01
       -1   -1    0    0    0  501  0.00000000000E+00  0.00000000000E+00  0.13626144122E+04  0.13626144122E+04  0.50400001928E-02 0.  1.
        1   -1    0    0  501    0  0.00000000000E+00  0.00000000000E+00 -0.13780710142E+04  0.13780710142E+04  0.50400001928E-02 0. -1.
    10030    2    1    2    0    0  0.00000000000E+00  0.00000000000E+00 -0.15456602001E+02  0.27406854264E+04  0.27406418409E+04 0.  0.
        3    1    3    3  502    0 -0.17666247086E+02  0.26521308119E+03  0.13365881869E+04  0.13627611919E+04  0.10100000352E+00 0.  1.
       -3    1    3    3    0  502  0.17666247086E+02 -0.26521308119E+03 -0.13520447889E+04  0.13779242345E+04  0.10100000352E+00 0. -1.
</event>
<event>
 5   0  0.2234068E-06  0.2747334E+04  0.7818609E-02  0.8319808E-01
       -1   -1    0    0    0  501  0.00000000000E+00  0.00000000000E+00  0.26238067706E+04  0.26238067706E+04  0.50400001928E-02 0. -1.
        1   -1    0    0  501    0  0.00000000000E+00  0.00000000000E+00 -0.71916918189E+03  0.71916918190E+03  0.50400001928E-02 0.  1.
    10030    2    1    2    0    0  0.00000000000E+00  0.00000000000E+00  0.19046375887E+04  0.33429759525E+04  0.27473339576E+04 0.  0.
        3    1    3    3  502    0 -0.92695623036E+03 -0.84796679255E+03  0.16283485162E+04  0.20566512672E+04  0.10100000352E+00 0. -1.
       -3    1    3    3    0  502  0.92695623036E+03  0.84796679255E+03  0.27628907246E+03  0.12863246853E+04  0.10100000352E+00 0.  1.
</event>
<event>
 5   0  0.5584205E-06  0.2781925E+04  0.7818609E-02  0.8308902E-01
        2   -1    0    0  501    0  0.00000000000E+00  0.00000000000E+00  0.13052904234E+04  0.13052904234E+04  0.25500000920E-02 0. -1.
       -2   -1    0    0    0  501  0.00000000000E+00  0.00000000000E+00 -0.14822581156E+04  0.14822581156E+04  0.25500000920E-02 0.  1.
    10030    2    1    2    0    0  0.00000000000E+00  0.00000000000E+00 -0.17696769222E+03  0.27875485390E+04  0.27819254650E+04 0.  0.
        1    1    3    3  502    0  0.11606240881E+04  0.70056899495E+03  0.22348471678E+03  0.13739689259E+04  0.50400001928E-02 0. -1.
       -1    1    3    3    0  502 -0.11606240881E+04 -0.70056899495E+03 -0.40045240900E+03  0.14135796131E+04  0.50400001928E-02 0.  1.
</event>
<event>
 5   0  0.2267565E-06  0.2814154E+04  0.7818609E-02  0.8298888E-01
       -1   -1    0    0    0  501  0.00000000000E+00  0.00000000000E+00  0.12696613652E+04  0.12696613652E+04  0.50400001928E-02 0.  1.
        1   -1    0    0  501    0  0.00000000000E+00  0.00000000000E+00 -0.15593649299E+04  0.15593649299E+04  0.50400001928E-02 0. -1.
    10030    2    1    2    0    0  0.00000000000E+00  0.00000000000E+00 -0.28970356474E+03  0.28290262951E+04  0.28141538023E+04 0.  0.
        4    1    3    3  502    0  0.45249204541E+03 -0.12467608445E+04 -0.61712402950E+03  0.14628757074E+04  0.12699999809E+01 0. -1.
       -4    1    3    3    0  502 -0.45249204541E+03  0.12467608445E+04  0.32742046476E+03  0.13661505877E+04  0.12699999809E+01 0.  1.
</event>
<event>
 5   0  0.2277133E-06  0.2816039E+04  0.7818609E-02  0.8298306E-01
       -1   -1    0    0    0  501  0.00000000000E+00  0.00000000000E+00  0.14885447228E+04  0.14885447228E+04  0.50400001928E-02 0.  1.
        1   -1    0    0  501    0  0.00000000000E+00  0.00000000000E+00 -0.13318502242E+04  0.13318502242E+04  0.50400001928E-02 0. -1.
    10030    2    1    2    0    0  0.00000000000E+00  0.00000000000E+00  0.15669449864E+03  0.28203949470E+04  0.28160387943E+04 0.  0.
        1    1    3    3  502    0  0.87870688876E+02  0.11573420225E+04 -0.71997850192E+03  0.13658443755E+04  0.50400001928E-02 0. -1.
       -1    1    3    3    0  502 -0.87870688876E+02 -0.11573420225E+04  0.87667300056E+03  0.14545505714E+04  0.50400001928E-02 0.  1.
</event>
<event>
 5   0  0.5916603E-06  0.2795803E+04  0.7818609E-02  0.8304572E-01
        2   -1    0    0  501    0  0.00000000000E+00  0.00000000000E+00  0.15892147465E+04  0.15892147465E+04  0.25500000920E-02 0. -1.
       -2   -1    0    0    0  501  0.00000000000E+00  0.00000000000E+00 -0.12296191998E+04  0.12296191998E+04  0.25500000920E-02 0.  1.
    10030    2    1    2    0    0  0.00000000000E+00  0.00000000000E+00  0.35959554663E+03  0.28188339463E+04  0.27958032584E+04 0.  0.
        2    1    3    3  502    0  0.57144406499E+03 -0.11767389349E+04 -0.31707632481E+03  0.13460312909E+04  0.25500000920E-02 0. -1.
       -2    1    3    3    0  502 -0.57144406499E+03  0.11767389349E+04  0.67667187144E+03  0.14728026554E+04  0.25500000920E-02 0.  1.
</event>
<event>
 5   0  0.2234068E-06  0.2792851E+04  0.7818609E-02  0.8305491E-01
       -1   -1    0    0    0  501  0.00000000000E+00  0.00000000000E+00  0.96852916411E+03  0.96852916412E+03  0.50400001928E-02 0.  1.
        1   -1    0    0  501    0  0.00000000000E+00  0.00000000000E+00 -0.20133659679E+04  0.20133659679E+04  0.50400001928E-02 0. -1.
    10030    2    1    2    0    0  0.00000000000E+00  0.00000000000E+00 -0.10448368038E+04  0.29818951320E+04  0.27928506282E+04 0.  0.
        3    1    3    3  502    0 -0.77577284770E+03  0.84403575063E+03 -0.13737512333E+04  0.17892490941E+04  0.10100000352E+00 0. -1.
       -3    1    3    3    0  502  0.77577284770E+03 -0.84403575063E+03  0.32891442952E+03  0.11926460379E+04  0.10100000352E+00 0.  1.
</event>
<event>
 5   0  0.5625245E-06  0.2801147E+04  0.7818609E-02  0.8302912E-01
        2   -1    0    0  501    0  0.00000000000E+00  0.00000000000E+00  0.24872040979E+04  0.24872040979E+04  0.25500000920E-02 0.  1.
       -2   -1    0    0    0  501  0.00000000000E+00  0.00000000000E+00 -0.78867935224E+03  0.78867935224E+03  0.25500000920E-02 0. -1.
    10030    2    1    2    0    0  0.00000000000E+00  0.00000000000E+00  0.16985247456E+04  0.32758834501E+04  0.28011472769E+04 0.  0.
        3    1    3    3  502    0 -0.52499327445E+03  0.11952530253E+04  0.14425454872E+04  0.19455552486E+04  0.10100000352E+00 0.  1.
       -3    1    3    3    0  502  0.52499327445E+03 -0.11952530253E+04  0.25597925840E+03  0.13303282015E+04  0.10100000352E+00 0. -1.
</event>
<event>
 5   0  0.2277133E-06  0.2781087E+04  0.7818609E-02  0.8309164E-01
        1   -1    0    0  501    0  0.00000000000E+00  0.00000000000E+00  0.14314457753E+04  0.14314457753E+04  0.50400001928E-02 0.  1.
       -1   -1    0    0    0  501  0.00000000000E+00  0.00000000000E+00 -0.13508098339E+04  0.13508098339E+04  0.50400001928E-02 0. -1.
    10030    2    1    2    0    0  0.00000000000E+00  0.00000000000E+00  0.80635941390E+02  0.27822556092E+04  0.27810868594E+04 0.  0.
        1    1    3    3  502    0  0.10968594987E+04  0.68987634466E+03  0.54509011614E+03  0.14057572214E+04  0.50400001928E-02 0.  1.
       -1    1    3    3    0  502 -0.10968594987E+04 -0.68987634466E+03 -0.46445417475E+03  0.13764983877E+04  0.50400001928E-02 0. -1.
</event>
<event>
 5   0  0.5916603E-06  0.2815287E+04  0.7818609E-02  0.8298538E-01
        2   -1    0    0  501    0  0.00000000000E+00  0.00000000000E+00  0.22262315281E+04  0.22262315281E+04  0.25500000920E-02 0.  1.
       -2   -1    0    0    0  501  0.00000000000E+00  0.00000000000E+00 -0.89005115273E+03  0.89005115273E+03  0.25500000920E-02 0. -1.
    10030    2    1    2    0    0  0.00000000000E+00  0.00000000000E+00  0.13361803754E+04  0.31162826809E+04  0.28152867974E+04 0.  0.
        2    1    3    3  502    0 -0.65154121568E+03  0.10236626122E+02  0.20492294630E+04  0.21503376796E+04  0.25500000920E-02 0.  1.
       -2    1    3    3    0  502  0.65154121568E+03 -0.10236626122E+02 -0.71304908757E+03  0.96594500130E+03  0.25500000920E-02 0. -1.
</event>
<event>
 5   0  0.2190865E-06  0.2813134E+04  0.7818609E-02  0.8299202E-01
       -1   -1    0    0    0  501  0.00000000000E+00  0.00000000000E+00  0.12846914606E+04  0.12846914606E+04  0.50400001928E-02 0. -1.
        1   -1    0    0  501    0  0.00000000000E+00  0.00000000000E+00 -0.15400047763E+04  0.15400047763E+04  0.50400001928E-02 0.  1.
    10030    2    1    2    0    0  0.00000000000E+00  0.00000000000E+00 -0.25531331573E+03  0.28246962370E+04  0.28131341849E+04 0.  0.
        2    1    3    3  502    0  0.10794883179E+04 -0.37230033214E+03 -0.95232899981E+03  0.14868870467E+04  0.25500000920E-02 0.  1.
       -2    1    3    3    0  502 -0.10794883179E+04  0.37230033214E+03  0.69701568409E+03  0.13378091903E+04  0.25500000920E-02 0. -1.
</event>
<event>
 5   0  0.5625245E-06  0.2600853E+04  0.7818609E-02  0.8367912E-01
       -2   -1    0    0    0  501  0.00000000000E+00  0.00000000000E+00  0.80336795236E+03  0.80336795236E+03  0.25500000920E-02 0. -1.
        2   -1    0    0  501    0  0.00000000000E+00  0.00000000000E+00 -0.21050240553E+04  0.21050240553E+04  0.25500000920E-02 0.  1.
    10030    2    1    2    0    0  0.00000000000E+00  0.00000000000E+00 -0.13016561030E+04  0.29083920077E+04  0.26008528332E+04 0.  0.
        3    1    3    3  502    0  0.99609424666E+03  0.81440245182E+03 -0.43967868163E+03  0.13596957215E+04  0.10100000352E+00 0.  1.
       -3    1    3    3    0  502 -0.99609424666E+03 -0.81440245182E+03 -0.86197742132E+03  0.15486962862E+04  0.10100000352E+00 0. -1.
</event>
<event>
 5   0  0.5866136E-06  0.2802444E+04  0.7818609E-02  0.8302510E-01
       -2   -1    0    0    0  501  0.00000000000E+00  0.00000000000E+00  0.12866490736E+04  0.12866490736E+04  0.25500000920E-02 0. -1.
        2   -1    0    0  501    0  0.00000000000E+00  0.00000000000E+00 -0.15259977877E+04  0.15259977877E+04  0.25500000920E-02 0.  1.
    10030    2    1    2    0    0  0.00000000000E+00  0.00000000000E+00 -0.23934871410E+03  0.28126468613E+04  0.28024443901E+04 0.  0.
        5    1    3    3  502    0 -0.10538473510E+04 -0.70919371981E+03 -0.71331021142E+03  0.14568402518E+04  0.46999998093E+01 0.  1.
       -5    1    3    3    0  502  0.10538473510E+04  0.70919371981E+03  0.47396149732E+03  0.13558066095E+04  0.46999998093E+01 0. -1.
</event>
<event>
 5   0  0.2190865E-06  0.2842086E+04  0.7818609E-02  0.8290320E-01
       -1   -1    0    0    0  501  0.00000000000E+00  0.00000000000E+00  0.12437642332E+04  0.12437642332E+04  0.50400001928E-02 0.  1.
        1   -1    0    0  501    0  0.00000000000E+00  0.00000000000E+00 -0.16235902873E+04  0.16235902873E+04  0.50400001928E-02 0. -1.
    10030    2    1    2    0    0  0.00000000000E+00  0.00000000000E+00 -0.37982605404E+03  0.28673545205E+04  0.28420862258E+04 0.  0.
        2    1    3    3  502    0  0.11454297780E+04  0.23930318786E+03 -0.10033619025E+04  0.15414313152E+04  0.25500000920E-02 0. -1.
       -2    1    3    3    0  502 -0.11454297780E+04 -0.23930318786E+03  0.62353584845E+03  0.13259232053E+04  0.25500000920E-02 0.  1.
</event>
<event>
 5   0  0.5625245E-06  0.2788103E+04  0.7818609E-02  0.8306971E-01
        2   -1    0    0  501    0  0.00000000000E+00  0.00000000000E+00  0.22944383623E+04  0.22944383623E+04  0.25500000920E-02 0.  1.
       -2   -1    0    0    0  501  0.00000000000E+00  0.00000000000E+00 -0.84699590805E+03  0.84699590805E+03  0.25500000920E-02 0. -1.
    10030    2    1    2    0    0  0.00000000000E+00  0.00000000000E+00  0.14474424543E+04  0.31414342704E+04  0.27881032292E+04 0.  0.
        3    1    3    3  502    0 -0.81966357267E+03 -0.40614732859E+03 -0.46152812193E+03  0.10246034562E+04  0.10100000352E+00 0. -1.
       -3    1    3    3    0  502  0.81966357267E+03  0.40614732859E+03  0.19089705762E+04  0.21168308142E+04  0.10100000352E+00 0.  1.
</event>
<event>
 5   0  0.5584205E-06  0.2809726E+04  0.7818609E-02  0.8300255E-01
        2   -1    0    0  501    0  0.00000000000E+00  0.00000000000E+00  0.94485347239E+03  0.94485347239E+03  0.25500000920E-02 0.  1.
       -2   -1    0    0    0  501  0.00000000000E+00  0.00000000000E+00 -0.20888324562E+04  0.20888324562E+04  0.25500000920E-02 0. -1.
    10030    2    1    2    0    0  0.00000000000E+00  0.00000000000E+00 -0.11439789838E+04  0.30336859286E+04  0.28097263920E+04 0.  0.
        1    1    3    3  502    0 -0.69697387693E+03  0.97735693496E+03 -0.13599855784E+04  0.18139900598E+04  0.50400001928E-02 0. -1.
       -1    1    3    3    0  502  0.69697387693E+03 -0.97735693496E+03  0.21600659461E+03  0.12196958688E+04  0.50400001928E-02 0.  1.
</event>
<event>
 5   0  0.2206967E-06  0.2700166E+04  0.7818609E-02  0.8334951E-01
       -1   -1    0    0    0  501  0.00000000000E+00  0.00000000000E+00  0.15000731185E+04  0.15000731185E+04  0.50400001928E-02 0.  1.
        1   -1    0    0  501    0  0.00000000000E+00  0.00000000000E+00 -0.12150904898E+04  0.12150904898E+04  0.50400001928E-02 0. -1.
    10030    2    1    2    0    0  0.00000000000E+00  0.00000000000E+00  0.28498262870E+03  0.27151636084E+04  0.27001663507E+04 0.  0.
        5    1    3    3  502    0  0.66896142240E+03 -0.54216489870E+02 -0.10354473713E+04  0.12339457691E+04  0.46999998093E+01 0. -1.
       -5    1    3    3    0  502 -0.66896142240E+03  0.54216489870E+02  0.13204300000E+04  0.14812178392E+04  0.46999998093E+01 0.  1.
</event>
<event>
 5   0  0.5625245E-06  0.2824323E+04  0.7818609E-02  0.8295757E-01
        2   -1    0    0  501    0  0.00000000000E+00  0.00000000000E+00  0.30640972426E+04  0.30640972426E+04  0.25500000920E-02 0. -1.
       -2   -1    0    0    0  501  0.00000000000E+00  0.00000000000E+00 -0.65082805620E+03  0.65082805621E+03  0.25500000920E-02 0.  1.
    10030    2    1    2    0    0  0.00000000000E+00  0.00000000000E+00  0.24132691864E+04  0.37149252988E+04  0.28243232481E+04 0.  0.
        3    1    3    3  502    0 -0.58424660264E+03  0.43025599647E+03  0.28001625107E+04  0.28926414246E+04  0.10100000352E+00 0. -1.
       -3    1    3    3    0  502  0.58424660264E+03 -0.43025599647E+03 -0.38689332425E+03  0.82228387418E+03  0.10100000352E+00 0.  1.
</event>
<event>
 5   0  0.2267565E-06  0.2791261E+04  0.7818609E-02  0.8305987E-01
        1   -1    0    0  501    0  0.00000000000E+00  0.00000000000E+00  0.14216136205E+04  0.14216136205E+04  0.50400001928E-02 0.  1.
       -1   -1    0    0    0  501  0.00000000000E+00  0.00000000000E+00 -0.13701224418E+04  0.13701224418E+04  0.50400001928E-02 0. -1.
    10030    2    1    2    0    0  0.00000000000E+00  0.00000000000E+00  0.51491178657E+02  0.27917360623E+04  0.27912611665E+04 0.  0.
        4    1    3    3  502    0  0.14371182620E+03  0.97294588594E+03  0.10161192534E+04  0.14141346244E+04  0.12699999809E+01 0.  1.
       -4    1    3    3    0  502 -0.14371182620E+03 -0.97294588594E+03 -0.96462807477E+03  0.13776014378E+04  0.12699999809E+01 0. -1.
</event>
<event>
 5   0  0.2277133E-06  0.2796347E+04  0.7818609E-02  0.8304403E-01
        1   -1    0    0  501    0  0.00000000000E+00  0.00000000000E+00  0.11143203216E+04  0.11143203216E+04  0.50400001928E-02 0. -1.
       -1   -1    0    0    0  501  0.00000000000E+00  0.00000000000E+00 -0.17543329154E+04  0.17543329154E+04  0.50400001928E-02 0.  1.
    10030    2    1    2    0    0  0.00000000000E+00  0.00000000000E+00 -0.64001259376E+03  0.28686532370E+04  0.27963467728E+04 0.  0.
        1    1    3    3  502    0 -0.29174126170E+03 -0.62574788103E+03  0.92725054400E+03  0.11560566361E+04  0.50400001928E-02 0. -1.
       -1    1    3    3    0  502  0.29174126170E+03  0.62574788103E+03 -0.15672631378E+04  0.17125966009E+04  0.50400001928E-02 0.  1.
</event>
<event>
 5   0  0.2234068E-06  0.2522933E+04  0.7818609E-02  0.8394861E-01
       -1   -1    0    0    0  501  0.00000000000E+00  0.00000000000E+00  0.68706418757E+03  0.68706418759E+03  0.50400001928E-02 0. -1.
        1   -1    0    0  501    0  0.00000000000E+00  0.00000000000E+00 -0.23160824071E+04  0.23160824072E+04  0.50400001928E-02 0.  1.
    10030    2    1    2    0    0  0.00000000000E+00  0.00000000000E+00 -0.16290182196E+04  0.30031465947E+04  0.25229326408E+04 0.  0.
        3    1    3    3  502    0 -0.70573725634E+02  0.60160741655E+03 -0.21316429274E+04  0.22160355851E+04  0.10100000352E+00 0.  1.
       -3    1    3    3    0  502  0.70573725634E+02 -0.60160741655E+03  0.50262470780E+03  0.78711100963E+03  0.10100000352E+00 0. -1.
</event>
<event>
 5   0  0.5546570E-06  0.2809633E+04  0.7818609E-02  0.8300284E-01
       -2   -1    0    0    0  501  0.00000000000E+00  0.00000000000E+00  0.72677281803E+03  0.72677281803E+03  0.25500000920E-02 0.  1.
        2   -1    0    0  501    0  0.00000000000E+00  0.00000000000E+00 -0.27154424494E+04  0.27154424494E+04  0.25500000920E-02 0. -1.
    10030    2    1    2    0    0  0.00000000000E+00  0.00000000000E+00 -0.19886696314E+04  0.34422152674E+04  0.28096332580E+04 0.  0.
        4    1    3    3  502    0 -0.29659059176E+03  0.81542832428E+03 -0.23478976522E+04  0.25031009427E+04  0.12699999809E+01 0. -1.
       -4    1    3    3    0  502  0.29659059176E+03 -0.81542832428E+03  0.35922802080E+03  0.93911432477E+03  0.12699999809E+01 0.  1.
</event>
<event>
 5   0  0.5546570E-06  0.2824994E+04  0.7818609E-02  0.8295551E-01
        2   -1    0    0  501    0  0.00000000000E+00  0.00000000000E+00  0.12771118099E+04  0.12771118099E+04  0.25500000920E-02 0.  1.
       -2   -1    0    0    0  501  0.00000000000E+00  0.00000000000E+00 -0.15622338828E+04  0.15622338828E+04  0.25500000920E-02 0. -1.
    10030    2    1    2    0    0  0.00000000000E+00  0.00000000000E+00 -0.28512207286E+03  0.28393456927E+04  0.28249936931E+04 0.  0.
        4    1    3    3  502    0 -0.28913751825E+03 -0.16363670435E+03  0.12372822595E+04  0.12811114229E+04  0.12699999809E+01 0.  1.
       -4    1    3    3    0  502  0.28913751825E+03  0.16363670435E+03 -0.15224043323E+04  0.15582342698E+04  0.12699999809E+01 0. -1.
</event>
<event>
 5   0  0.2190865E-06  0.2808577E+04  0.7818609E-02  0.8300610E-01
        1   -1    0    0  501    0  0.00000000000E+00  0.00000000000E+00  0.11938625187E+04  0.11938625187E+04  0.50400001928E-02 0. -1.
       -1   -1    0    0    0  501  0.00000000000E+00  0.00000000000E+00 -0.16518039550E+04  0.16518039550E+04  0.50400001928E-02 0.  1.
    10030    2    1    2    0    0  0.00000000000E+00  0.00000000000E+00 -0.45794143627E+03  0.28456664737E+04  0.28085774550E+04 0.  0.
        2    1    3    3  502    0 -0.16260781758E+02  0.74608945041E+03 -0.14342651338E+04  0.16167963246E+04  0.25500000920E-02 0.  1.
       -2    1    3    3    0  502  0.16260781758E+02 -0.74608945041E+03  0.97632369756E+03  0.12288701491E+04  0.25500000920E-02 0. -1.
</event>
<event>
 5   0  0.2206967E-06  0.2807273E+04  0.7818609E-02  0.8301014E-01
       -1   -1    0    0    0  501  0.00000000000E+00  0.00000000000E+00  0.86045501100E+03  0.86045501101E+03  0.50400001928E-02 0. -1.
        1   -1    0    0  501    0  0.00000000000E+00  0.00000000000E+00 -0.22897140852E+04  0.22897140852E+04  0.50400001928E-02 0.  1.
    10030    2    1    2    0    0  0.00000000000E+00  0.00000000000E+00 -0.14292590742E+04  0.31501690962E+04  0.28072733806E+04 0.  0.
        5    1    3    3  502    0  0.71781803918E+03 -0.36048408512E+03 -0.20062976214E+04  0.21611255744E+04  0.46999998093E+01 0.  1.
       -5    1    3    3    0  502 -0.71781803918E+03  0.36048408512E+03  0.57703854718E+03  0.98904352175E+03  0.46999998093E+01 0. -1.
</event>
<event>
 5   0  0.2206967E-06  0.2802794E+04  0.7818609E-02  0.8302401E-01
       -1   -1    0    0    0  501  0.00000000000E+00  0.00000000000E+00  0.11309368913E+04  0.11309368913E+04  0.50400001928E-02 0.  1.
        1   -1    0    0  501    0  0.00000000000E+00  0.00000000000E+00 -0.17365367509E+04  0.17365367509E+04  0.50400001928E-02 0. -1.
    10030    2    1    2    0    0  0.00000000000E+00  0.00000000000E+00 -0.60559985964E+03  0.28674736422E+04  0.28027939451E+04 0.  0.
        5    1    3    3  502    0 -0.85547516360E+03 -0.86512761012E+03 -0.10142672127E+04  0.15839960878E+04  0.46999998093E+01 0. -1.
       -5    1    3    3    0  502  0.85547516360E+03  0.86512761012E+03  0.40866735304E+03  0.12834775545E+04  0.46999998093E+01 0.  1.
</event>
<event>
 5   0  0.5916603E-06  0.2772930E+04  0.7818609E-02  0.8311722E-01
        2   -1    0    0  501    0  0.00000000000E+00  0.00000000000E+00  0.14641533230E+04  0.14641533230E+04  0.25500000920E-02 0. -1.
       -2   -1    0    0    0  501  0.00000000000E+00  0.00000000000E+00 -0.13128986328E+04  0.13128986328E+04  0.25500000920E-02 0.  1.
    10030    2    1    2    0    0  0.00000000000E+00  0.00000000000E+00  0.15125469022E+03  0.27770519557E+04  0.27729297834E+04 0.  0.
        2    1    3    3  502    0 -0.97779312186E+03  0.62476440542E+03  0.83561970128E+03  0.14299196609E+04  0.25500000920E-02 0. -1.
       -2    1    3    3    0  502  0.97779312186E+03 -0.62476440542E+03 -0.68436501106E+03  0.13471322948E+04  0.25500000920E-02 0.  1.
</event>
<event>
 5   0  0.5625245E-06  0.2793826E+04  0.7818609E-02  0.8305188E-01
       -2   -1    0    0    0  501  0.00000000000E+00  0.00000000000E+00  0.12188953580E+04  0.12188953580E+04  0.25500000920E-02 0.  1.
        2   -1    0    0  501    0  0.00000000000E+00  0.00000000000E+00 -0.16009301682E+04  0.16009301682E+04  0.25500000920E-02 0. -1.
    10030    2    1    2    0    0  0.00000000000E+00  0.00000000000E+00 -0.38203481017E+03  0.28198255262E+04  0.27938263013E+04 0.  0.
        3    1    3    3  502    0 -0.86856596218E+02  0.59124570869E+03  0.10833690759E+04  0.12372566917E+04  0.10100000352E+00 0.  1.
       -3    1    3    3    0  502  0.86856596218E+02 -0.59124570869E+03 -0.14654038861E+04  0.15825688345E+04  0.10100000352E+00 0. -1.
</event>
<event>
 5   0  0.5584205E-06  0.2795846E+04  0.7818609E-02  0.8304559E-01
       -2   -1    0    0    0  501  0.00000000000E+00  0.00000000000E+00  0.62713381041E+03  0.62713381042E+03  0.25500000920E-02 0. -1.
        2   -1    0    0  501    0  0.00000000000E+00  0.00000000000E+00 -0.31160624760E+04  0.31160624760E+04  0.25500000920E-02 0.  1.
    10030    2    1    2    0    0  0.00000000000E+00  0.00000000000E+00 -0.24889286656E+04  0.37431962864E+04  0.27958455852E+04 0.  0.
        1    1    3    3  502    0  0.74101612526E+03  0.11484728582E+04 -0.16373029496E+04  0.21328046682E+04  0.50400001928E-02 0.  1.
       -1    1    3    3    0  502 -0.74101612526E+03 -0.11484728582E+04 -0.85162571596E+03  0.16103916182E+04  0.50400001928E-02 0. -1.
</event>
<event>
 5   0  0.5916603E-06  0.2804638E+04  0.7818609E-02  0.8301830E-01
       -2   -1    0    0    0  501  0.00000000000E+00  0.00000000000E+00  0.60187258016E+03  0.60187258017E+03  0.25500000920E-02 0. -1.
        2   -1    0    0  501    0  0.00000000000E+00  0.00000000000E+00 -0.32673006446E+04  0.32673006446E+04  0.25500000920E-02 0.  1.
    10030    2    1    2    0    0  0.00000000000E+00  0.00000000000E+00 -0.26654280644E+04  0.38691732247E+04  0.28046380652E+04 0.  0.
        2    1    3    3  502    0 -0.12978804477E+04  0.50675716599E+03 -0.15517222785E+04  0.20854588252E+04  0.25500000920E-02 0. -1.
       -2    1    3    3    0  502  0.12978804477E+04 -0.50675716599E+03 -0.11137057859E+04  0.17837143996E+04  0.25500000920E-02 0.  1.
</event>
<event>
 5   0  0.5625245E-06  0.2777626E+04  0.7818609E-02  0.8310248E-01
        2   -1    0    0  501    0  0.00000000000E+00  0.00000000000E+00  0.21638341587E+04  0.21638341587E+04  0.25500000920E-02 0.  1.
       -2   -1    0    0    0  501  0.00000000000E+00  0.00000000000E+00 -0.89138127334E+03  0.89138127334E+03  0.25500000920E-02 0. -1.
    10030    2    1    2    0    0  0.00000000000E+00  0.00000000000E+00  0.12724528854E+04  0.30552154321E+04  0.27776257831E+04 0.  0.
        3    1    3    3  502    0 -0.13319333232E+04 -0.20665547759E+03  0.26803738043E+03  0.13742623153E+04  0.10100000352E+00 0. -1.
       -3    1    3    3    0  502  0.13319333232E+04  0.20665547759E+03  0.10044155050E+04  0.16809531167E+04  0.10100000352E+00 0.  1.
</event>
<event>
 5   0  0.2206967E-06  0.2814675E+04  0.7818609E-02  0.8298727E-01
       -1   -1    0    0    0  501  0.00000000000E+00  0.00000000000E+00  0.10209348957E+04  0.10209348957E+04  0.50400001928E-02 0. -1.
        1   -1    0    0  501    0  0.00000000000E+00  0.00000000000E+00 -0.19399861141E+04  0.19399861141E+04  0.50400001928E-02 0.  1.
    10030    2    1    2    0    0  0.00000000000E+00  0.00000000000E+00 -0.91905121840E+03  0.29609210097E+04  0.28146754847E+04 0.  0.
        5    1    3    3  502    0  0.57827047135E+03 -0.12614498259E+04 -0.21298773807E+03  0.14039367036E+04  0.46999998093E+01 0. -1.
       -5    1    3    3    0  502 -0.57827047135E+03  0.12614498259E+04 -0.70606348033E+03  0.15569843061E+04  0.46999998093E+01 0.  1.
</event>
<event>
 5   0  0.5866136E-06  0.2819955E+04  0.7818609E-02  0.8297100E-01
        2   -1    0    0  501    0  0.00000000000E+00  0.00000000000E+00  0.17283405503E+04  0.17283405503E+04  0.25500000920E-02 0.  1.
       -2   -1    0    0    0  501  0.00000000000E+00  0.00000000000E+00 -0.11502573899E+04  0.11502573899E+04  0.25500000920E-02 0. -1.
    10030    2    1    2    0    0  0.00000000000E+00  0.00000000000E+00  0.57808316040E+03  0.28785979402E+04  0.28199549573E+04 0.  0.
        5    1    3    3  502    0 -0.88883018159E+03 -0.73181480137E+03  0.11198729798E+04  0.16061474329E+04  0.46999998093E+01 0.  1.
       -5    1    3    3    0  502  0.88883018159E+03  0.73181480137E+03 -0.54178981942E+03  0.12724505073E+04  0.46999998093E+01 0. -1.
</event>
<event>
 5   0  0.2206967E-06  0.2830575E+04  0.7818609E-02  0.8293838E-01
       -1   -1    0    0    0  501  0.00000000000E+00  0.00000000000E+00  0.93267513025E+03  0.93267513027E+03  0.50400001928E-02 0. -1.
        1   -1    0    0  501    0  0.00000000000E+00  0.00000000000E+00 -0.21476281536E+04  0.21476281536E+04  0.50400001928E-02 0.  1.
    10030    2    1    2    0    0  0.00000000000E+00  0.00000000000E+00 -0.12149530234E+04  0.30803032839E+04  0.28305754665E+04 0.  0.
        5    1    3    3  502    0  0.78930298161E+02 -0.14124696676E+04 -0.65256534313E+03  0.15579358687E+04  0.46999998093E+01 0.  1.
       -5    1    3    3    0  502 -0.78930298161E+02  0.14124696676E+04 -0.56238768022E+03  0.15223674152E+04  0.46999998093E+01 0. -1.
</event>
<event>
 5   0  0.2234068E-06  0.2819189E+04  0.7818609E-02  0.8297335E-01
        1   -1    0    0  501    0  0.00000000000E+00  0.00000000000E+00  0.15884097364E+04  0.15884097364E+04  0.50400001928E-02 0. -1.
       -1   -1    0    0    0  501  0.00000000000E+00  0.00000000000E+00 -0.12509097040E+04  0.12509097040E+04  0.50400001928E-02 0.  1.
    10030    2    1    2    0    0  0.00000000000E+00  0.00000000000E+00  0.33750003245E+03  0.28393194404E+04  0.28191893538E+04 0.  0.
        3    1    3    3  502    0  0.18617915668E+03 -0.64748791045E+03  0.14157565163E+04  0.15678870483E+04  0.10100000352E+00 0. -1.
       -3    1    3    3    0  502 -0.18617915668E+03  0.64748791045E+03 -0.10782564838E+04  0.12714323921E+04  0.10100000352E+00 0.  1.
</event>
<event>
 5   0  0.5625245E-06  0.2688136E+04  0.7818609E-02  0.8338865E-01
        2   -1    0    0  501    0  0.00000000000E+00  0.00000000000E+00  0.20346047194E+04  0.20346047194E+04  0.25500000920E-02 0.  1.
       -2   -1    0    0    0  501  0.00000000000E+00  0.00000000000E+00 -0.88789688658E+03  0.88789688659E+03  0.25500000920E-02 0. -1.
    10030    2    1    2    0    0  0.00000000000E+00  0.00000000000E+00  0.11467078328E+04  0.29225016060E+04  0.26881363029E+04 0.  0.
        3    1    3    3  502    0  0.43091648443E+02  0.43674582846E+03 -0.80780563836E+03  0.91932245073E+03  0.10100000352E+00 0. -1.
       -3    1    3    3    0  502 -0.43091648443E+02 -0.43674582846E+03  0.19545134712E+04  0.20031791552E+04  0.10100000352E+00 0.  1.
</event>
<event>
 5   0  0.2277133E-06  0.2807822E+04  0.7818609E-02  0.8300844E-01
       -1   -1    0    0    0  501  0.00000000000E+00  0.00000000000E+00  0.12891982909E+04  0.12891982909E+04  0.50400001928E-02 0.  1.
        1   -1    0    0  501    0  0.00000000000E+00  0.00000000000E+00 -0.15288310665E+04  0.15288310666E+04  0.50400001928E-02 0. -1.
    10030    2    1    2    0    0  0.00000000000E+00  0.00000000000E+00 -0.23963277561E+03  0.28180293575E+04  0.28078222153E+04 0.  0.
        1    1    3    3  502    0  0.44969948513E+03  0.61531529488E+03 -0.13031376171E+04  0.15096390920E+04  0.50400001928E-02 0. -1.
       -1    1    3    3    0  502 -0.44969948513E+03 -0.61531529488E+03  0.10635048415E+04  0.13083902655E+04  0.50400001928E-02 0.  1.
</event>
<event>
 5   0  0.2234068E-06  0.2981461E+04  0.7818609E-02  0.8249045E-01
       -1   -1    0    0    0  501  0.00000000000E+00  0.00000000000E+00  0.26478055602E+04  0.26478055602E+04  0.50400001928E-02 0.  1.
        1   -1    0    0  501    0  0.00000000000E+00  0.00000000000E+00 -0.83929013985E+03  0.83929013987E+03  0.50400001928E-02 0. -1.
    10030    2    1    2    0    0  0.00000000000E+00  0.00000000000E+00  0.18085154204E+04  0.34870957001E+04  0.29814607822E+04 0.  0.
        3    1    3    3  502    0 -0.14893065353E+04 -0.61055898230E+02  0.87770743696E+03  0.17297780592E+04  0.10100000352E+00 0.  1.
       -3    1    3    3    0  502  0.14893065353E+04  0.61055898230E+02  0.93080798342E+03  0.17573176409E+04  0.10100000352E+00 0. -1.
</event>
<event>
 5   0  0.2267565E-06  0.2818556E+04  0.7818609E-02  0.8297531E-01
       -1   -1    0    0    0  501  0.00000000000E+00  0.00000000000E+00  0.13544277018E+04  0.13544277018E+04  0.50400001928E-02 0. -1.
        1   -1    0    0  501    0  0.00000000000E+00  0.00000000000E+00 -0.14663494957E+04  0.14663494957E+04  0.50400001928E-02 0.  1.
    10030    2    1    2    0    0  0.00000000000E+00  0.00000000000E+00 -0.11192179390E+03  0.28207771974E+04  0.28185559263E+04 0.  0.
        4    1    3    3  502    0 -0.10691239540E+04  0.77900750607E+03  0.43040980071E+03  0.13910905552E+04  0.12699999809E+01 0. -1.
       -4    1    3    3    0  502  0.10691239540E+04 -0.77900750607E+03 -0.54233159461E+03  0.14296866422E+04  0.12699999809E+01 0.  1.
</event>
<event>
 5   0  0.2206967E-06  0.2834950E+04  0.7818609E-02  0.8292499E-01
        1   -1    0    0  501    0  0.00000000000E+00  0.00000000000E+00  0.16866783091E+04  0.16866783091E+04  0.50400001928E-02 0. -1.
       -1   -1    0    0    0  501  0.00000000000E+00  0.00000000000E+00 -0.11912382889E+04  0.11912382889E+04  0.50400001928E-02 0.  1.
    10030    2    1    2    0    0  0.00000000000E+00  0.00000000000E+00  0.49544002018E+03  0.28779165981E+04  0.28349502874E+04 0.  0.
        5    1    3    3  502    0  0.75931415820E+03  0.59980282600E+03 -0.80378371321E+03  0.12579394932E+04  0.46999998093E+01 0.  1.
       -5    1    3    3    0  502 -0.75931415820E+03 -0.59980282600E+03  0.12992237334E+04  0.16199771049E+04  0.46999998093E+01 0. -1.
</event>
<event>
 5   0  0.5546570E-06  0.2776280E+04  0.7818609E-02  0.8310671E-01
        2   -1    0    0  501    0  0.00000000000E+00  0.00000000000E+00  0.16185649250E+04  0.16185649250E+04  0.25500000920E-02 0. -1.
       -2   -1    0    0    0  501  0.00000000000E+00  0.00000000000E+00 -0.11905189112E+04  0.11905189112E+04  0.25500000920E-02 0.  1.
    10030    2    1    2    0    0  0.00000000000E+00  0.00000000000E+00  0.42804601382E+03  0.28090838361E+04  0.27762796344E+04 0.  0.
        4    1    3    3  502    0  0.39579215669E+03  0.84615736650E+02  0.15575374555E+04  0.16092656066E+04  0.12699999809E+01 0. -1.
       -4    1    3    3    0  502 -0.39579215669E+03 -0.84615736650E+02 -0.11294914417E+04  0.11998182296E+04  0.12699999809E+01 0.  1.
</event>
<event>
 5   0  0.5584205E-06  0.2795003E+04  0.7818609E-02  0.8304822E-01
       -2   -1    0    0    0  501  0.00000000000E+00  0.00000000000E+00  0.96877634704E+03  0.96877634704E+03  0.25500000920E-02 0. -1.
        2   -1    0    0  501    0  0.00000000000E+00  0.00000000000E+00 -0.20159553608E+04  0.20159553608E+04  0.25500000920E-02 0.  1.
    10030    2    1    2    0    0  0.00000000000E+00  0.00000000000E+00 -0.10471790138E+04  0.29847317079E+04  0.27950025905E+04 0.  0.
        1    1    3    3  502    0  0.11379523888E+04 -0.65634043722E+03 -0.10327030443E+04  0.16709859325E+04  0.50400001928E-02 0. -1.
       -1    1    3    3    0  502 -0.11379523888E+04  0.65634043722E+03 -0.14475969440E+02  0.13137457754E+04  0.50400001928E-02 0.  1.
</event>
<event>
 5   0  0.2267565E-06  0.2786661E+04  0.7818609E-02  0.8307422E-01
        1   -1    0    0  501    0  0.00000000000E+00  0.00000000000E+00  0.15481617663E+04  0.15481617663E+04  0.50400001928E-02 0. -1.
       -1   -1    0    0    0  501  0.00000000000E+00  0.00000000000E+00 -0.12539838301E+04  0.12539838301E+04  0.50400001928E-02 0.  1.
    10030    2    1    2    0    0  0.00000000000E+00  0.00000000000E+00  0.29417793619E+03  0.28021455964E+04  0.27866609563E+04 0.  0.
        4    1    3    3  502    0  0.65405169656E+03 -0.94705171352E+03  0.93674083156E+03  0.14839729001E+04  0.12699999809E+01 0. -1.
       -4    1    3    3    0  502 -0.65405169656E+03  0.94705171352E+03 -0.64256289537E+03  0.13181726963E+04  0.12699999809E+01 0.  1.
</event>
<event>
 5   0  0.5916603E-06  0.2774300E+04  0.7818609E-02  0.8311292E-01
        2   -1    0    0  501    0  0.00000000000E+00  0.00000000000E+00  0.17750297918E+04  0.17750297918E+04  0.25500000920E-02 0. -1.
       -2   -1    0    0    0  501  0.00000000000E+00  0.00000000000E+00 -0.10840295972E+04  0.10840295972E+04  0.25500000920E-02 0.  1.
    10030    2    1    2    0    0  0.00000000000E+00  0.00000000000E+00  0.69100019467E+03  0.28590593890E+04  0.27742997893E+04 0.  0.
        2    1    3    3  502    0 -0.74657549719E+03  0.99819169624E+03 -0.28171842409E+03  0.12779385376E+04  0.25500000920E-02 0.  1.
       -2    1    3    3    0  502  0.74657549719E+03 -0.99819169624E+03  0.97271861877E+03  0.15811208514E+04  0.25500000920E-02 0. -1.
</event>
<event>
 5   0  0.2206967E-06  0.2815558E+04  0.7818609E-02  0.8298454E-01
       -1   -1    0    0    0  501  0.00000000000E+00  0.00000000000E+00  0.12127713269E+04  0.12127713269E+04  0.50400001928E-02 0.  1.
        1   -1    0    0  501    0  0.00000000000E+00  0.00000000000E+00 -0.16341435139E+04  0.16341435139E+04  0.50400001928E-02 0. -1.
    10030    2    1    2    0    0  0.00000000000E+00  0.00000000000E+00 -0.42137218701E+03  0.28469148408E+04  0.28155584865E+04 0.  0.
        5    1    3    3  502    0  0.55207573992E+03  0.18565345037E+03 -0.15065854348E+04  0.16152636282E+04  0.46999998093E+01 0. -1.
       -5    1    3    3    0  502 -0.55207573992E+03 -0.18565345037E+03  0.10852132478E+04  0.12316512126E+04  0.46999998093E+01 0.  1.
</event>
<event>
 5   0  0.5916603E-06  0.2800337E+04  0.7818609E-02  0.8303164E-01
       -2   -1    0    0    0  501  0.00000000000E+00  0.00000000000E+00  0.10575188924E+04  0.10575188924E+04  0.25500000920E-02 0. -1.
        2   -1    0    0  501    0  0.00000000000E+00  0.00000000000E+00 -0.18538410772E+04  0.18538410772E+04  0.25500000920E-02 0.  1.
    10030    2    1    2    0    0  0.00000000000E+00  0.00000000000E+00 -0.79632218480E+03  0.29113599697E+04  0.28003370960E+04 0.  0.
        2    1    3    3  502    0  0.12319255541E+03 -0.15774617939E+03  0.10425694546E+04  0.10616078987E+04  0.25500000920E-02 0. -1.
       -2    1    3    3    0  502 -0.12319255541E+03  0.15774617939E+03 -0.18388916394E+04  0.18497520710E+04  0.25500000920E-02 0.  1.
</event>
<event>
 5   0  0.2267565E-06  0.2736466E+04  0.7818609E-02  0.8323269E-01
       -1   -1    0    0    0  501  0.00000000000E+00  0.00000000000E+00  0.25995354802E+04  0.25995354802E+04  0.50400001928E-02 0.  1.
        1   -1    0    0  501    0  0.00000000000E+00  0.00000000000E+00 -0.72015246501E+03  0.72015246503E+03  0.50400001928E-02 0. -1.
    10030    2    1    2    0    0  0.00000000000E+00  0.00000000000E+00  0.18793830152E+04  0.33196879453E+04  0.27364662498E+04 0.  0.
        4    1    3    3  502    0 -0.73622807801E+03  0.12583535688E+03 -0.45101951634E+03  0.87251735622E+03  0.12699999809E+01 0. -1.
       -4    1    3    3    0  502  0.73622807801E+03 -0.12583535688E+03  0.23304025316E+04  0.24471705890E+04  0.12699999809E+01 0.  1.
</event>
<event>
 5   0  0.2267565E-06  0.2813995E+04  0.7818609E-02  0.8298937E-01
       -1   -1    0    0    0  501  0.00000000000E+00  0.00000000000E+00  0.13026035501E+04  0.13026035501E+04  0.50400001928E-02 0. -1.
        1   -1    0    0  501    0  0.00000000000E+00  0.00000000000E+00 -0.15197580212E+04  0.15197580212E+04  0.50400001928E-02 0.  1.
    10030    2    1    2    0    0  0.00000000000E+00  0.00000000000E+00 -0.21715447109E+03  0.28223615713E+04  0.28139951625E+04 0.  0.
        4    1    3    3  502    0  0.46659218309E+03  0.13270423760E+04 -0.78641422911E+02  0.14088775033E+04  0.12699999809E+01 0.  1.
       -4    1    3    3    0  502 -0.46659218309E+03 -0.13270423760E+04 -0.13851304818E+03  0.14134840680E+04  0.12699999809E+01 0. -1.
</event>
<event>
 5   0  0.2190865E-06  0.2792756E+04  0.7818609E-02  0.8305521E-01
        1   -1    0    0  501    0  0.00000000000E+00  0.00000000000E+00  0.13918316881E+04  0.13918316882E+04  0.50400001928E-02 0.  1.
       -1   -1    0    0    0  501  0.00000000000E+00  0.00000000000E+00 -0.14009396289E+04  0.14009396289E+04  0.50400001928E-02 0. -1.
    10030    2    1    2    0    0  0.00000000000E+00  0.00000000000E+00 -0.91079407554E+01  0.27927713171E+04  0.27927564654E+04 0.  0.
        2    1    3    3  502    0  0.80375040465E+03 -0.10663905694E+04  0.40369887022E+03  0.13950542417E+04  0.25500000920E-02 0.  1.
       -2    1    3    3    0  502 -0.80375040465E+03  0.10663905694E+04 -0.41280681097E+03  0.13977170753E+04  0.25500000920E-02 0. -1.
</event>
<event>
 5   0  0.5546570E-06  0.2605434E+04  0.7818609E-02  0.8366358E-01
        2   -1    0    0  501    0  0.00000000000E+00  0.00000000000E+00  0.18259172625E+04  0.18259172625E+04  0.25500000920E-02 0.  1.
       -2   -1    0    0    0  501  0.00000000000E+00  0.00000000000E+00 -0.92943513556E+03  0.92943513557E+03  0.25500000920E-02 0. -1.
    10030    2    1    2    0    0  0.00000000000E+00  0.00000000000E+00  0.89648212694E+03  0.27553523981E+04  0.26054340586E+04 0.  0.
        4    1    3    3  502    0 -0.27034244220E+03  0.12063452000E+04  0.88262678888E+03  0.15190080444E+04  0.12699999809E+01 0.  1.
       -4    1    3    3    0  502  0.27034244220E+03 -0.12063452000E+04  0.13855338059E+02  0.12363443537E+04  0.12699999809E+01 0. -1.
</event>
<event>
 5   0  0.1901375E-06  0.2777946E+04  0.7818609E-02  0.8310148E-01
       -3   -1    0    0    0  501  0.00000000000E+00  0.00000000000E+00  0.19652346642E+04  0.19652346668E+04  0.10100000352E+00 0.  1.
        3   -1    0    0  501    0  0.00000000000E+00  0.00000000000E+00 -0.98168710742E+03  0.98168711261E+03  0.10100000352E+00 0. -1.
    10030    2    1    2    0    0  0.00000000000E+00  0.00000000000E+00  0.98354755676E+03  0.29469217794E+04  0.27779456757E+04 0.  0.
        5    1    3    3  502    0  0.10443997227E+04 -0.50918418976E+03 -0.31556012039E+03  0.12040098004E+04  0.46999998093E+01 0. -1.
       -5    1    3    3    0  502 -0.10443997227E+04  0.50918418976E+03  0.12991076771E+04  0.17429119790E+04  0.46999998093E+01 0.  1.
</event>
<event>
 5   0  0.5866136E-06  0.2782323E+04  0.7818609E-02  0.8308777E-01
        2   -1    0    0  501    0  0.00000000000E+00  0.00000000000E+00  0.15333892288E+04  0.15333892288E+04  0.25500000920E-02 0. -1.
       -2   -1    0    0    0  501  0.00000000000E+00  0.00000000000E+00 -0.12621262077E+04  0.12621262077E+04  0.25500000920E-02 0.  1.
    10030    2    1    2    0    0  0.00000000000E+00  0.00000000000E+00  0.27126302115E+03  0.27955154365E+04  0.27823232970E+04 0.  0.
        5    1    3    3  502    0  0.21520757780E+03  0.46121056034E+03  0.14364822716E+04  0.15239858560E+04  0.46999998093E+01 0. -1.
       -5    1    3    3    0  502 -0.21520757780E+03 -0.46121056034E+03 -0.11652192505E+04  0.12715295805E+04  0.46999998093E+01 0.  1.
</event>
<event>
 5   0  0.5866136E-06  0.2798401E+04  0.7818609E-02  0.8303765E-01
        2   -1    0    0  501    0  0.00000000000E+00  0.00000000000E+00  0.20270509478E+04  0.20270509478E+04  0.25500000920E-02 0. -1.
       -2   -1    0    0    0  501  0.00000000000E+00  0.00000000000E+00 -0.96581763647E+03  0.96581763647E+03  0.25500000920E-02 0.  1.
    10030    2    1    2    0    0  0.00000000000E+00  0.00000000000E+00  0.10612333113E+04  0.29928685842E+04  0.27984006542E+04 0.  0.
        5    1    3    3  502    0  0.10145701530E+04 -0.88676168462E+03  0.12754340336E+03  0.13535096196E+04  0.46999998093E+01 0.  1.
       -5    1    3    3    0  502 -0.10145701530E+04  0.88676168462E+03  0.93368990792E+03  0.16393589646E+04  0.46999998093E+01 0. -1.
</event>
<event>
 5   0  0.5546570E-06  0.2891479E+04  0.7818609E-02  0.8275417E-01
       -2   -1    0    0    0  501  0.00000000000E+00  0.00000000000E+00  0.28700972794E+04  0.28700972794E+04  0.25500000920E-02 0.  1.
        2   -1    0    0  501    0  0.00000000000E+00  0.00000000000E+00 -0.72825500161E+03  0.72825500162E+03  0.25500000920E-02 0. -1.
    10030    2    1    2    0    0  0.00000000000E+00  0.00000000000E+00  0.21418422778E+04  0.35983522810E+04  0.28914789979E+04 0.  0.
        4    1    3    3  502    0  0.50593779404E+03  0.98478985190E+03  0.22279261323E+04  0.24878586310E+04  0.12699999809E+01 0.  1.
       -4    1    3    3    0  502 -0.50593779404E+03 -0.98478985190E+03 -0.86083854524E+02  0.11104936500E+04  0.12699999809E+01 0. -1.
</event>
<event>
 5   0  0.2267565E-06  0.2717519E+04  0.7818609E-02  0.8329343E-01
        1   -1    0    0  501    0  0.00000000000E+00  0.00000000000E+00  0.96554238643E+03  0.96554238644E+03  0.50400001928E-02 0.  1.
       -1   -1    0    0    0  501  0.00000000000E+00  0.00000000000E+00 -0.19121144363E+04  0.19121144363E+04  0.50400001928E-02 0. -1.
    10030    2    1    2    0    0  0.00000000000E+00  0.00000000000E+00 -0.94657204987E+03  0.28776568227E+04  0.27175191156E+04 0.  0.
        4    1    3    3  502    0 -0.58882581423E+03 -0.43043835360E+03 -0.16872409504E+04  0.18381448945E+04  0.12699999809E+01 0. -1.
       -4    1    3    3    0  502  0.58882581423E+03  0.43043835360E+03  0.74066890053E+03  0.10395119282E+04  0.12699999809E+01 0.  1.
</event>
<event>
 5   0  0.2190865E-06  0.2779515E+04  0.7818609E-02  0.8309656E-01
       -1   -1    0    0    0  501  0.00000000000E+00  0.00000000000E+00  0.22250423879E+04  0.22250423879E+04  0.50400001928E-02 0.  1.
        1   -1    0    0  501    0  0.00000000000E+00  0.00000000000E+00 -0.86804019583E+03  0.86804019585E+03  0.50400001928E-02 0. -1.
    10030    2    1    2    0    0  0.00000000000E+00  0.00000000000E+00  0.13570021921E+04  0.30930825838E+04  0.27795152312E+04 0.  0.
        2    1    3    3  502    0 -0.18702284011E+03 -0.55370492430E+03  0.20816437812E+04  0.21621303193E+04  0.25500000920E-02 0.  1.
       -2    1    3    3    0  502  0.18702284011E+03  0.55370492430E+03 -0.72464158914E+03  0.93095226442E+03  0.25500000920E-02 0. -1.
</event>
<event>
 5   0  0.5916603E-06  0.2683588E+04  0.7818609E-02  0.8340350E-01
       -2   -1    0    0    0  501  0.00000000000E+00  0.00000000000E+00  0.15179268600E+04  0.15179268600E+04  0.25500000920E-02 0.  1.
        2   -1    0    0  501    0  0.00000000000E+00  0.00000000000E+00 -0.11860987117E+04  0.11860987117E+04  0.25500000920E-02 0. -1.
    10030    2    1    2    0    0  0.00000000000E+00  0.00000000000E+00  0.33182814825E+03  0.27040255717E+04  0.26835879662E+04 0.  0.
        2    1    3    3  502    0  0.57813608470E+03  0.44705353376E+03  0.12997898417E+04  0.14911578813E+04  0.25500000920E-02 0.  1.
       -2    1    3    3    0  502 -0.57813608470E+03 -0.44705353376E+03 -0.96796169343E+03  0.12128676904E+04  0.25500000920E-02 0. -1.
</event>
<event>
 5   0  0.2190865E-06  0.2804236E+04  0.7818609E-02  0.8301954E-01
       -1   -1    0    0    0  501  0.00000000000E+00  0.00000000000E+00  0.10919331086E+04  0.10919331086E+04  0.50400001928E-02 0.  1.
        1   -1    0    0  501    0  0.00000000000E+00  0.00000000000E+00 -0.18004168128E+04  0.18004168128E+04  0.50400001928E-02 0. -1.
    10030    2    1    2    0    0  0.00000000000E+00  0.00000000000E+00 -0.70848370420E+03  0.28923499213E+04  0.28042358867E+04 0.  0.
        2    1    3    3  502    0 -0.10986332904E+03  0.85509881946E+03 -0.14947307401E+04  0.17255387354E+04  0.25500000920E-02 0. -1.
       -2    1    3    3    0  502  0.10986332904E+03 -0.85509881946E+03  0.78624703589E+03  0.11668111859E+04  0.25500000920E-02 0.  1.
</event>
<event>
 5   0  0.5625245E-06  0.2769615E+04  0.7818609E-02  0.8312764E-01
        2   -1    0    0  501    0  0.00000000000E+00  0.00000000000E+00  0.16248828324E+04  0.16248828324E+04  0.25500000920E-02 0.  1.
       -2   -1    0    0    0  501  0.00000000000E+00  0.00000000000E+00 -0.11802028834E+04  0.11802028834E+04  0.25500000920E-02 0. -1.
    10030    2    1    2    0    0  0.00000000000E+00  0.00000000000E+00  0.44467994902E+03  0.28050857158E+04  0.27696147053E+04 0.  0.
        3    1    3    3  502    0 -0.18520541628E+03 -0.10558429301E+04  0.11102583225E+04  0.15433012966E+04  0.10100000352E+00 0.  1.
       -3    1    3    3    0  502  0.18520541628E+03  0.10558429301E+04 -0.66557837345E+03  0.12617844192E+04  0.10100000352E+00 0. -1.
</event>
<event>
 5   0  0.5866136E-06  0.2789027E+04  0.7818609E-02  0.8306683E-01
        2   -1    0    0  501    0  0.00000000000E+00  0.00000000000E+00  0.21340159198E+04  0.21340159198E+04  0.25500000920E-02 0.  1.
       -2   -1    0    0    0  501  0.00000000000E+00  0.00000000000E+00 -0.91127145468E+03  0.91127145469E+03  0.25500000920E-02 0. -1.
    10030    2    1    2    0    0  0.00000000000E+00  0.00000000000E+00  0.12227444651E+04  0.30452873745E+04  0.27890269210E+04 0.  0.
        5    1    3    3  502    0 -0.18864759417E+02 -0.10810903738E+04  0.15729310090E+04  0.19087289814E+04  0.46999998093E+01 0.  1.
       -5    1    3    3    0  502  0.18864759417E+02  0.10810903738E+04 -0.35018654387E+03  0.11365583931E+04  0.46999998093E+01 0. -1.
</event>
<event>
 5   0  0.2206967E-06  0.2848412E+04  0.7818609E-02  0.8288394E-01
        1   -1    0    0  501    0  0.00000000000E+00  0.00000000000E+00  0.27522339579E+04  0.27522339579E+04  0.50400001928E-02 0.  1.
       -1   -1    0    0    0  501  0.00000000000E+00  0.00000000000E+00 -0.73698784539E+03  0.73698784541E+03  0.50400001928E-02 0. -1.
    10030    2    1    2    0    0  0.00000000000E+00  0.00000000000E+00  0.20152461125E+04  0.34892218033E+04  0.28484121715E+04 0.  0.
        5    1    3    3  502    0  0.12170750584E+04 -0.60680104277E+03  0.48955788152E+03  0.14453955212E+04  0.46999998093E+01 0.  1.
       -5    1    3    3    0  502 -0.12170750584E+04  0.60680104277E+03  0.15256882310E+04  0.20438262822E+04  0.46999998093E+01 0. -1.
</event>
<event>
 5   0  0.2234068E-06  0.2798539E+04  0.7818609E-02  0.8303722E-01
       -1   -1    0    0    0  501  0.00000000000E+00  0.00000000000E+00  0.94039826776E+03  0.94039826777E+03  0.50400001928E-02 0. -1.
        1   -1    0    0  501    0  0.00000000000E+00  0.00000000000E+00 -0.20820486001E+04  0.20820486001E+04  0.50400001928E-02 0.  1.
    10030    2    1    2    0    0  0.00000000000E+00  0.00000000000E+00 -0.11416503324E+04  0.30224468679E+04  0.27985388309E+04 0.  0.
        3    1    3    3  502    0 -0.10135274210E+04  0.55992473633E+03 -0.14193035236E+04  0.18317139640E+04  0.10100000352E+00 0.  1.
       -3    1    3    3    0  502  0.10135274210E+04 -0.55992473633E+03  0.27765319128E+03  0.11907329039E+04  0.10100000352E+00 0. -1.
</event>
<event>
 5   0  0.5625245E-06  0.2811991E+04  0.7818609E-02  0.8299555E-01
        2   -1    0    0  501    0  0.00000000000E+00  0.00000000000E+00  0.12473042423E+04  0.12473042423E+04  0.25500000920E-02 0. -1.
       -2   -1    0    0    0  501  0.00000000000E+00  0.00000000000E+00 -0.15848762259E+04  0.15848762259E+04  0.25500000920E-02 0.  1.
    10030    2    1    2    0    0  0.00000000000E+00  0.00000000000E+00 -0.33757198364E+03  0.28321804682E+04  0.28119906401E+04 0.  0.
        3    1    3    3  502    0 -0.64786407678E+03  0.44765297216E+03  0.10043524083E+04  0.12762620482E+04  0.10100000352E+00 0. -1.
       -3    1    3    3    0  502  0.64786407678E+03 -0.44765297216E+03 -0.13419243920E+04  0.15559184199E+04  0.10100000352E+00 0.  1.
</event>
<event>
 5   0  0.5584205E-06  0.2778166E+04  0.7818609E-02  0.8310079E-01
        2   -1    0    0  501    0  0.00000000000E+00  0.00000000000E+00  0.10917884953E+04  0.10917884953E+04  0.25500000920E-02 0.  1.
       -2   -1    0    0    0  501  0.00000000000E+00  0.00000000000E+00 -0.17673305604E+04  0.17673305604E+04  0.25500000920E-02 0. -1.
    10030    2    1    2    0    0  0.00000000000E+00  0.00000000000E+00 -0.67554206503E+03  0.28591190557E+04  0.27781657065E+04 0.  0.
        1    1    3    3  502    0 -0.23709949156E+03 -0.37080329042E+02 -0.17458349916E+04  0.17622516670E+04  0.50400001928E-02 0. -1.
       -1    1    3    3    0  502  0.23709949156E+03  0.37080329042E+02  0.10702929266E+04  0.10968673887E+04  0.50400001928E-02 0.  1.
</event>
<event>
 5   0  0.5584205E-06  0.2807672E+04  0.7818609E-02  0.8300890E-01
       -2   -1    0    0    0  501  0.00000000000E+00  0.00000000000E+00  0.86473764655E+03  0.86473764655E+03  0.25500000920E-02 0. -1.
        2   -1    0    0  501    0  0.00000000000E+00  0.00000000000E+00 -0.22790212173E+04  0.22790212173E+04  0.25500000920E-02 0.  1.
    10030    2    1    2    0    0  0.00000000000E+00  0.00000000000E+00 -0.14142835707E+04  0.31437588638E+04  0.28076719494E+04 0.  0.
        1    1    3    3  502    0 -0.84906571433E+01  0.46351408243E+03  0.77655478101E+03  0.90440849389E+03  0.50400001928E-02 0. -1.
       -1    1    3    3    0  502  0.84906571433E+01 -0.46351408243E+03 -0.21908383517E+04  0.22393503699E+04  0.50400001928E-02 0.  1.
</event>
<event>
 5   0  0.5916603E-06  0.2677695E+04  0.7818609E-02  0.8342279E-01
       -2   -1    0    0    0  501  0.00000000000E+00  0.00000000000E+00  0.95962837910E+03  0.95962837911E+03  0.25500000920E-02 0.  1.
        2   -1    0    0  501    0  0.00000000000E+00  0.00000000000E+00 -0.18679233738E+04  0.18679233738E+04  0.25500000920E-02 0. -1.
    10030    2    1    2    0    0  0.00000000000E+00  0.00000000000E+00 -0.90829499473E+03  0.28275517529E+04  0.26776947395E+04 0.  0.
        2    1    3    3  502    0 -0.96626884929E+03  0.92649158516E+03 -0.43174378759E+03  0.14065791285E+04  0.25500000920E-02 0.  1.
       -2    1    3    3    0  502  0.96626884929E+03 -0.92649158516E+03 -0.47655120713E+03  0.14209726245E+04  0.25500000920E-02 0. -1.
</event>
<event>
 5   0  0.2277133E-06  0.2800094E+04  0.7818609E-02  0.8303239E-01
       -1   -1    0    0    0  501  0.00000000000E+00  0.00000000000E+00  0.15766860550E+04  0.15766860550E+04  0.50400001928E-02 0. -1.
        1   -1    0    0  501    0  0.00000000000E+00  0.00000000000E+00 -0.12431974417E+04  0.12431974417E+04  0.50400001928E-02 0.  1.
    10030    2    1    2    0    0  0.00000000000E+00  0.00000000000E+00  0.33348861332E+03  0.28198834966E+04  0.28000943340E+04 0.  0.
        1    1    3    3  502    0  0.27921831052E+03  0.62385441544E+03 -0.10637645739E+04  0.12644177574E+04  0.50400001928E-02 0.  1.
       -1    1    3    3    0  502 -0.27921831052E+03 -0.62385441544E+03  0.13972531872E+04  0.15554657392E+04  0.50400001928E-02 0. -1.
</event>
<event>
 5   0  0.5584205E-06  0.2642355E+04  0.7818609E-02  0.8353955E-01
       -2   -1    0    0    0  501  0.00000000000E+00  0.00000000000E+00  0.59804504155E+03  0.59804504156E+03  0.25500000920E-02 0. -1.
        2   -1    0    0  501    0  0.00000000000E+00  0.00000000000E+00 -0.29186924304E+04  0.29186924304E+04  0.25500000920E-02 0.  1.
    10030    2    1    2    0    0  0.00000000000E+00  0.00000000000E+00 -0.23206473888E+04  0.35167374719E+04  0.26423546589E+04 0.  0.
        1    1    3    3  502    0 -0.31668185951E+03  0.12711810249E+04 -0.93242713613E+03  0.16079828863E+04  0.50400001928E-02 0. -1.
       -1    1    3    3    0  502  0.31668185951E+03 -0.12711810249E+04 -0.13882202527E+04  0.19087545857E+04  0.50400001928E-02 0.  1.
</event>
<event>
 5   0  0.5546570E-06  0.2802574E+04  0.7818609E-02  0.8302470E-01
       -2   -1    0    0    0  501  0.00000000000E+00  0.00000000000E+00  0.18008451107E+04  0.18008451107E+04  0.25500000920E-02 0.  1.
        2   -1    0    0  501    0  0.00000000000E+00  0.00000000000E+00 -0.10903796353E+04  0.10903796353E+04  0.25500000920E-02 0. -1.
    10030    2    1    2    0    0  0.00000000000E+00  0.00000000000E+00  0.71046547531E+03  0.28912247460E+04  0.28025736994E+04 0.  0.
        4    1    3    3  502    0  0.13037850179E+04 -0.44343521506E+03  0.62248926961E+03  0.15112857660E+04  0.12699999809E+01 0. -1.
       -4    1    3    3    0  502 -0.13037850179E+04  0.44343521506E+03  0.87976205699E+02  0.13799389800E+04  0.12699999809E+01 0.  1.
</event>
<event>
 5   0  0.5625245E-06  0.2794233E+04  0.7818609E-02  0.8305061E-01
        2   -1    0    0  501    0  0.00000000000E+00  0.00000000000E+00  0.16391195763E+04  0.16391195763E+04  0.25500000920E-02 0. -1.
       -2   -1    0    0    0  501  0.00000000000E+00  0.00000000000E+00 -0.11908429180E+04  0.11908429180E+04  0.25500000920E-02 0.  1.
    10030    2    1    2    0    0  0.00000000000E+00  0.00000000000E+00  0.44827665830E+03  0.28299624943E+04  0.27942325882E+04 0.  0.
        3    1    3    3  502    0 -0.38517637118E+03 -0.73681542037E+03 -0.91301726221E+03  0.12348515425E+04  0.10100000352E+00 0.  1.
       -3    1    3    3    0  502  0.38517637118E+03  0.73681542037E+03  0.13612939205E+04  0.15951109519E+04  0.10100000352E+00 0. -1.
</event>
<event>
 5   0  0.2206967E-06  0.2838642E+04  0.7818609E-02  0.8291371E-01
        1   -1    0    0  501    0  0.00000000000E+00  0.00000000000E+00  0.67371239964E+03  0.67371239966E+03  0.50400001928E-02 0. -1.
       -1   -1    0    0    0  501  0.00000000000E+00  0.00000000000E+00 -0.29901077476E+04  0.29901077476E+04  0.50400001928E-02 0.  1.
    10030    2    1    2    0    0  0.00000000000E+00  0.00000000000E+00 -0.23163953479E+04  0.36638201472E+04  0.28386423979E+04 0.  0.
        5    1    3    3  502    0 -0.14726130217E+03  0.12982052445E+04 -0.44255694443E+03  0.13794569536E+04  0.46999998093E+01 0. -1.
       -5    1    3    3    0  502  0.14726130217E+03 -0.12982052445E+04 -0.18738384035E+04  0.22843631936E+04  0.46999998093E+01 0.  1.
</event>
<event>
 5   0  0.2190865E-06  0.2900670E+04  0.7818609E-02  0.8272678E-01
        1   -1    0    0  501    0  0.00000000000E+00  0.00000000000E+00  0.13817038721E+04  0.13817038721E+04  0.50400001928E-02 0.  1.
       -1   -1    0    0    0  501  0.00000000000E+00  0.00000000000E+00 -0.15223755124E+04  0.15223755125E+04  0.50400001928E-02 0. -1.
    10030    2    1    2    0    0  0.00000000000E+00  0.00000000000E+00 -0.14067164035E+03  0.29040793846E+04  0.29006703641E+04 0.  0.
        2    1    3    3  502    0 -0.27638931920E+03 -0.82159177387E+03 -0.12344869926E+04  0.15084303874E+04  0.25500000920E-02 0. -1.
       -2    1    3    3    0  502  0.27638931920E+03  0.82159177387E+03  0.10938153522E+04  0.13956489972E+04  0.25500000920E-02 0.  1.
</event>
<event>
 5   0  0.5584205E-06  0.2807646E+04  0.7818609E-02  0.8300899E-01
        2   -1    0    0  501    0  0.00000000000E+00  0.00000000000E+00  0.14506379163E+04  0.14506379163E+04  0.25500000920E-02 0.  1.
       -2   -1    0    0    0  501  0.00000000000E+00  0.00000000000E+00 -0.13585184445E+04  0.13585184445E+04  0.25500000920E-02 0. -1.
    10030    2    1    2    0    0  0.00000000000E+00  0.00000000000E+00  0.92119471853E+02  0.28091563608E+04  0.28076455372E+04 0.  0.
        1    1    3    3  502    0  0.10377848301E+04 -0.93928356210E+03 -0.61083843903E+02  0.14010646665E+04  0.50400001928E-02 0.  1.
       -1    1    3    3    0  502 -0.10377848301E+04  0.93928356210E+03  0.15320331576E+03  0.14080916943E+04  0.50400001928E-02 0. -1.
</event>
<event>
 5   0  0.5546570E-06  0.2797849E+04  0.7818609E-02  0.8303937E-01
        2   -1    0    0  501    0  0.00000000000E+00  0.00000000000E+00  0.28457807193E+04  0.28457807193E+04  0.25500000920E-02 0.  1.
       -2   -1    0    0    0  501  0.00000000000E+00  0.00000000000E+00 -0.68768099266E+03  0.68768099266E+03  0.25500000920E-02 0. -1.
    10030    2    1    2    0    0  0.00000000000E+00  0.00000000000E+00  0.21580997267E+04  0.35334617120E+04  0.27978486807E+04 0.  0.
        4    1    3    3  502    0 -0.92801809773E+03 -0.74918329938E+03  0.20023603841E+04  0.23306526825E+04  0.12699999809E+01 0.  1.
       -4    1    3    3    0  502  0.92801809773E+03  0.74918329938E+03  0.15573934263E+03  0.12028090295E+04  0.12699999809E+01 0. -1.
</event>
<event>
 5   0  0.5625245E-06  0.2800977E+04  0.7818609E-02  0.8302965E-01
        2   -1    0    0  501    0  0.00000000000E+00  0.00000000000E+00  0.13442182357E+04  0.13442182357E+04  0.25500000920E-02 0.  1.
       -2   -1    0    0    0  501  0.00000000000E+00  0.00000000000E+00 -0.14591146700E+04  0.14591146700E+04  0.25500000920E-02 0. -1.
    10030    2    1    2    0    0  0.00000000000E+00  0.00000000000E+00 -0.11489643433E+03  0.28033329057E+04  0.28009773632E+04 0.  0.
        3    1    3    3  502    0  0.12180191394E+04  0.60851700107E+03  0.27070702934E+03  0.13882167952E+04  0.10100000352E+00 0.  1.
       -3    1    3    3    0  502 -0.12180191394E+04 -0.60851700107E+03 -0.38560346366E+03  0.14151161104E+04  0.10100000352E+00 0. -1.
</event>
<event>
 5   0  0.2234068E-06  0.2798980E+04  0.7818609E-02  0.8303585E-01
        1   -1    0    0  501    0  0.00000000000E+00  0.00000000000E+00  0.18988759367E+04  0.18988759367E+04  0.50400001928E-02 0.  1.
       -1   -1    0    0    0  501  0.00000000000E+00  0.00000000000E+00 -0.10314380717E+04  0.10314380717E+04  0.50400001928E-02 0. -1.
    10030    2    1    2    0    0  0.00000000000E+00  0.00000000000E+00  0.86743786504E+03  0.29303140084E+04  0.27989804819E+04 0.  0.
        3    1    3    3  502    0 -0.13553093313E+04  0.18923339651E+03  0.12687924162E+03  0.13743256579E+04  0.10100000352E+00 0. -1.
       -3    1    3    3    0  502  0.13553093313E+04 -0.18923339651E+03  0.74055862342E+03  0.15559883505E+04  0.10100000352E+00 0.  1.
</event>
<event>
 5   0  0.5916603E-06  0.2802530E+04  0.7818609E-02  0.8302483E-01
        2   -1    0    0  501    0  0.00000000000E+00  0.00000000000E+00  0.11184357796E+04  0.11184357796E+04  0.25500000920E-02 0. -1.
       -2   -1    0    0    0  501  0.00000000000E+00  0.00000000000E+00 -0.17556157121E+04  0.17556157121E+04  0.25500000920E-02 0.  1.
    10030    2    1    2    0    0  0.00000000000E+00  0.00000000000E+00 -0.63717993245E+03  0.28740514917E+04  0.28025298768E+04 0.  0.
        2    1    3    3  502    0  0.10591537646E+04  0.78066164586E+03  0.17568971118E+03  0.13274434741E+04  0.25500000920E-02 0. -1.
       -2    1    3    3    0  502 -0.10591537646E+04 -0.78066164586E+03 -0.81286964363E+03  0.15466080175E+04  0.25500000920E-02 0.  1.
</event>
<event>
 5   0  0.2277133E-06  0.2803399E+04  0.7818609E-02  0.8302214E-01
        1   -1    0    0  501    0  0.00000000000E+00  0.00000000000E+00  0.18168997546E+04  0.18168997546E+04  0.50400001928E-02 0. -1.
       -1   -1    0    0    0  501  0.00000000000E+00  0.00000000000E+00 -0.10813814820E+04  0.10813814820E+04  0.50400001928E-02 0.  1.
    10030    2    1    2    0    0  0.00000000000E+00  0.00000000000E+00  0.73551827255E+03  0.28982812366E+04  0.28033991862E+04 0.  0.
        1    1    3    3  502    0  0.15636345643E+02 -0.79303108605E+03 -0.82704541572E+03  0.11459262273E+04  0.50400001928E-02 0.  1.
       -1    1    3    3    0  502 -0.15636345643E+02  0.79303108605E+03  0.15625636883E+04  0.17523550093E+04  0.50400001928E-02 0. -1.
</event>
<event>
 5   0  0.2190865E-06  0.2804618E+04  0.7818609E-02  0.8301836E-01
        1   -1    0    0  501    0  0.00000000000E+00  0.00000000000E+00  0.21880023075E+04  0.21880023075E+04  0.50400001928E-02 0. -1.
       -1   -1    0    0    0  501  0.00000000000E+00  0.00000000000E+00 -0.89875186758E+03  0.89875186759E+03  0.50400001928E-02 0.  1.
    10030    2    1    2    0    0  0.00000000000E+00  0.00000000000E+00  0.12892504400E+04  0.30867541751E+04  0.28046184483E+04 0.  0.
        2    1    3    3  502    0 -0.11324278383E+04 -0.53157756575E+03  0.13420108636E+04  0.18346554651E+04  0.25500000920E-02 0. -1.
       -2    1    3    3    0  502  0.11324278383E+04  0.53157756575E+03 -0.52760423678E+02  0.12520987101E+04  0.25500000920E-02 0.  1.
</event>
<event>
 5   0  0.5866136E-06  0.2795733E+04  0.7818609E-02  0.8304594E-01
        2   -1    0    0  501    0  0.00000000000E+00  0.00000000000E+00  0.92342475124E+03  0.92342475124E+03  0.25500000920E-02 0.  1.
       -2   -1    0    0    0  501  0.00000000000E+00  0.00000000000E+00 -0.21160689566E+04  0.21160689566E+04  0.25500000920E-02 0. -1.
    10030    2    1    2    0    0  0.00000000000E+00  0.00000000000E+00 -0.11926442054E+04  0.30394937078E+04  0.27957327840E+04 0.  0.
        5    1    3    3  502    0 -0.56958651919E+03 -0.11220432584E+04 -0.12581688035E+04  0.17794439313E+04  0.46999998093E+01 0. -1.
       -5    1    3    3    0  502  0.56958651919E+03  0.11220432584E+04  0.65524598114E+02  0.12600497766E+04  0.46999998093E+01 0.  1.
</event>
<event>
 5   0  0.2277133E-06  0.2866894E+04  0.7818609E-02  0.8282796E-01
        1   -1    0    0  501    0  0.00000000000E+00  0.00000000000E+00  0.24934520588E+04  0.24934520588E+04  0.50400001928E-02 0. -1.
       -1   -1    0    0    0  501  0.00000000000E+00  0.00000000000E+00 -0.82406655286E+03  0.82406655287E+03  0.50400001928E-02 0.  1.
    10030    2    1    2    0    0  0.00000000000E+00  0.00000000000E+00  0.16693855059E+04  0.33175186117E+04  0.28668940984E+04 0.  0.
        1    1    3    3  502    0 -0.12816555074E+04  0.63612164834E+03  0.93476627309E+03  0.17091166071E+04  0.50400001928E-02 0. -1.
       -1    1    3    3    0  502  0.12816555074E+04 -0.63612164834E+03  0.73461923283E+03  0.16084020046E+04  0.50400001928E-02 0.  1.
</event>
<event>
 5   0  0.5546570E-06  0.2779923E+04  0.7818609E-02  0.8309529E-01
       -2   -1    0    0    0  501  0.00000000000E+00  0.00000000000E+00  0.10810303858E+04  0.10810303858E+04  0.25500000920E-02 0.  1.
        2   -1    0    0  501    0  0.00000000000E+00  0.00000000000E+00 -0.17871774384E+04  0.17871774384E+04  0.25500000920E-02 0. -1.
    10030    2    1    2    0    0  0.00000000000E+00  0.00000000000E+00 -0.70614705261E+03  0.28682078243E+04  0.27799231038E+04 0.  0.
        4    1    3    3  502    0  0.12923720079E+04  0.12546136800E+03  0.15868835145E+03  0.13081091573E+04  0.12699999809E+01 0.  1.
       -4    1    3    3    0  502 -0.12923720079E+04 -0.12546136800E+03 -0.86483540406E+03  0.15600986670E+04  0.12699999809E+01 0. -1.
</event>
<event>
 5   0  0.1901375E-06  0.2804137E+04  0.7818609E-02  0.8301985E-01
       -3   -1    0    0    0  501  0.00000000000E+00  0.00000000000E+00  0.14050527627E+04  0.14050527663E+04  0.10100000352E+00 0.  1.
        3   -1    0    0  501    0  0.00000000000E+00  0.00000000000E+00 -0.13990908450E+04  0.13990908487E+04  0.10100000352E+00 0. -1.
    10030    2    1    2    0    0  0.00000000000E+00  0.00000000000E+00  0.59619176784E+01  0.28041436150E+04  0.28041372772E+04 0.  0.
        5    1    3    3  502    0  0.12696458929E+04  0.57637594404E+03  0.14982969958E+03  0.14023840241E+04  0.46999998093E+01 0.  1.
       -5    1    3    3    0  502 -0.12696458929E+04 -0.57637594404E+03 -0.14386778190E+03  0.14017595909E+04  0.46999998093E+01 0. -1.
</event>
<event>
 5   0  0.5625245E-06  0.2795537E+04  0.7818609E-02  0.8304655E-01
       -2   -1    0    0    0  501  0.00000000000E+00  0.00000000000E+00  0.11451770880E+04  0.11451770880E+04  0.25500000920E-02 0.  1.
        2   -1    0    0  501    0  0.00000000000E+00  0.00000000000E+00 -0.17060739325E+04  0.17060739325E+04  0.25500000920E-02 0. -1.
    10030    2    1    2    0    0  0.00000000000E+00  0.00000000000E+00 -0.56089684450E+03  0.28512510206E+04  0.27955369989E+04 0.  0.
        3    1    3    3  502    0  0.13623475051E+04 -0.31149869043E+03 -0.30809226063E+03  0.14310635940E+04  0.10100000352E+00 0. -1.
       -3    1    3    3    0  502 -0.13623475051E+04  0.31149869043E+03 -0.25280458387E+03  0.14201874266E+04  0.10100000352E+00 0.  1.
</event>
<event>
 5   0  0.5625245E-06  0.2789766E+04  0.7818609E-02  0.8306453E-01
       -2   -1    0    0    0  501  0.00000000000E+00  0.00000000000E+00  0.93037476345E+03  0.93037476346E+03  0.25500000920E-02 0.  1.
        2   -1    0    0  501    0  0.00000000000E+00  0.00000000000E+00 -0.20913069701E+04  0.20913069701E+04  0.25500000920E-02 0. -1.
    10030    2    1    2    0    0  0.00000000000E+00  0.00000000000E+00 -0.11609322066E+04  0.30216817335E+04  0.27897664616E+04 0.  0.
        3    1    3    3  502    0  0.16532195811E+03  0.12939908525E+02 -0.20805925304E+04  0.20871904749E+04  0.10100000352E+00 0. -1.
       -3    1    3    3    0  502 -0.16532195811E+03 -0.12939908525E+02  0.91966032376E+03  0.93449125858E+03  0.10100000352E+00 0.  1.
</event>
<event>
 5   0  0.2234068E-06  0.2745019E+04  0.7818609E-02  0.8320544E-01
       -1   -1    0    0    0  501  0.00000000000E+00  0.00000000000E+00  0.10663161728E+04  0.10663161728E+04  0.50400001928E-02 0.  1.
        1   -1    0    0  501    0  0.00000000000E+00  0.00000000000E+00 -0.17666265109E+04  0.17666265109E+04  0.50400001928E-02 0. -1.
    10030    2    1    2    0    0  0.00000000000E+00  0.00000000000E+00 -0.70031033816E+03  0.28329426837E+04  0.27450190672E+04 0.  0.
        3    1    3    3  502    0  0.10544850421E+04 -0.53826772380E+03 -0.10667376668E+04  0.15936122823E+04  0.10100000352E+00 0. -1.
       -3    1    3    3    0  502 -0.10544850421E+04  0.53826772380E+03  0.36642732862E+03  0.12393304014E+04  0.10100000352E+00 0.  1.
</event>
<event>
 5   0  0.5916603E-06  0.2835792E+04  0.7818609E-02  0.8292242E-01
       -2   -1    0    0    0  501  0.00000000000E+00  0.00000000000E+00  0.11160311992E+04  0.11160311992E+04  0.25500000920E-02 0. -1.
        2   -1    0    0  501    0  0.00000000000E+00  0.00000000000E+00 -0.18014089585E+04  0.18014089585E+04  0.25500000920E-02 0.  1.
    10030    2    1    2    0    0  0.00000000000E+00  0.00000000000E+00 -0.68537775925E+03  0.29174401577E+04  0.28357916709E+04 0.  0.
        2    1    3    3  502    0  0.13148074987E+03 -0.14059012238E+04 -0.21020553002E+03  0.14275965128E+04  0.25500000920E-02 0.  1.
       -2    1    3    3    0  502 -0.13148074987E+03  0.14059012238E+04 -0.47517222924E+03  0.14898436448E+04  0.25500000920E-02 0. -1.
</event>
<event>
 5   0  0.5546570E-06  0.2764071E+04  0.7818609E-02  0.8314510E-01
       -2   -1    0    0    0  501  0.00000000000E+00  0.00000000000E+00  0.22588831711E+04  0.22588831711E+04  0.25500000920E-02 0.  1.
        2   -1    0    0  501    0  0.00000000000E+00  0.00000000000E+00 -0.84556058448E+03  0.84556058448E+03  0.25500000920E-02 0. -1.
    10030    2    1    2    0    0  0.00000000000E+00  0.00000000000E+00  0.14133225866E+04  0.31044437556E+04  0.27640713264E+04 0.  0.
        4    1    3    3  502    0  0.36535448285E+03  0.13068191886E+04  0.10011743853E+04  0.16863012935E+04  0.12699999809E+01 0.  1.
       -4    1    3    3    0  502 -0.36535448285E+03 -0.13068191886E+04  0.41214820125E+03  0.14181424620E+04  0.12699999809E+01 0. -1.
</event>
<event>
 5   0  0.5546570E-06  0.2805066E+04  0.7818609E-02  0.8301697E-01
        2   -1    0    0  501    0  0.00000000000E+00  0.00000000000E+00  0.22047526926E+04  0.22047526926E+04  0.25500000920E-02 0. -1.
       -2   -1    0    0    0  501  0.00000000000E+00  0.00000000000E+00 -0.89220822318E+03  0.89220822319E+03  0.25500000920E-02 0.  1.
    10030    2    1    2    0    0  0.00000000000E+00  0.00000000000E+00  0.13125444694E+04  0.30969609158E+04  0.28050657621E+04 0.  0.
        4    1    3    3  502    0  0.34416298273E+03  0.13553459657E+04  0.77562323549E+03  0.15990634327E+04  0.12699999809E+01 0.  1.
       -4    1    3    3    0  502 -0.34416298273E+03 -0.13553459657E+04  0.53692123392E+03  0.14978974831E+04  0.12699999809E+01 0. -1.
</event>
<event>
 5   0  0.2267565E-06  0.2810939E+04  0.7818609E-02  0.8299880E-01
       -1   -1    0    0    0  501  0.00000000000E+00  0.00000000000E+00  0.15167607007E+04  0.15167607007E+04  0.50400001928E-02 0.  1.
        1   -1    0    0  501    0  0.00000000000E+00  0.00000000000E+00 -0.13023439429E+04  0.13023439429E+04  0.50400001928E-02 0. -1.
    10030    2    1    2    0    0  0.00000000000E+00  0.00000000000E+00  0.21441675776E+03  0.28191046436E+04  0.28109387125E+04 0.  0.
        4    1    3    3  502    0  0.54422820945E+03 -0.12938786350E+04  0.17838095743E+03  0.14149655985E+04  0.12699999809E+01 0.  1.
       -4    1    3    3    0  502 -0.54422820945E+03  0.12938786350E+04  0.36035800324E+02  0.14041390451E+04  0.12699999809E+01 0. -1.
</event>
<event>
 5   0  0.2206967E-06  0.2801815E+04  0.7818609E-02  0.8302705E-01
        1   -1    0    0  501    0  0.00000000000E+00  0.00000000000E+00  0.18135504465E+04  0.18135504465E+04  0.50400001928E-02 0. -1.
       -1   -1    0    0    0  501  0.00000000000E+00  0.00000000000E+00 -0.10821548534E+04  0.10821548534E+04  0.50400001928E-02 0.  1.
    10030    2    1    2    0    0  0.00000000000E+00  0.00000000000E+00  0.73139559308E+03  0.28957052999E+04  0.28018154240E+04 0.  0.
        5    1    3    3  502    0  0.11762488127E+03 -0.50978427190E+03  0.17087860634E+04  0.17870891183E+04  0.46999998093E+01 0. -1.
       -5    1    3    3    0  502 -0.11762488127E+03  0.50978427190E+03 -0.97739047028E+03  0.11086161815E+04  0.46999998093E+01 0.  1.
</event>
<event>
 5   0  0.2277133E-06  0.2817808E+04  0.7818609E-02  0.8297761E-01
       -1   -1    0    0    0  501  0.00000000000E+00  0.00000000000E+00  0.10015957408E+04  0.10015957408E+04  0.50400001928E-02 0.  1.
        1   -1    0    0  501    0  0.00000000000E+00  0.00000000000E+00 -0.19818482041E+04  0.19818482042E+04  0.50400001928E-02 0. -1.
    10030    2    1    2    0    0  0.00000000000E+00  0.00000000000E+00 -0.98025246331E+03  0.29834439450E+04  0.28178081697E+04 0.  0.
        1    1    3    3  502    0  0.67613112293E+02 -0.36051445181E+03 -0.19304074879E+04  0.19649466334E+04  0.50400001928E-02 0. -1.
       -1    1    3    3    0  502 -0.67613112293E+02  0.36051445181E+03  0.95015502458E+03  0.10184973116E+04  0.50400001928E-02 0.  1.
</event>
<event>
 5   0  0.2267565E-06  0.2803150E+04  0.7818609E-02  0.8302291E-01
       -1   -1    0    0    0  501  0.00000000000E+00  0.00000000000E+00  0.17409884851E+04  0.17409884851E+04  0.50400001928E-02 0. -1.
        1   -1    0    0  501    0  0.00000000000E+00  0.00000000000E+00 -0.11283313323E+04  0.11283313323E+04  0.50400001928E-02 0.  1.
    10030    2    1    2    0    0  0.00000000000E+00  0.00000000000E+00  0.61265715280E+03  0.28693198174E+04  0.28031495550E+04 0.  0.
        4    1    3    3  502    0 -0.56523918577E+03  0.89289749527E+03 -0.63608320789E+03  0.12334361493E+04  0.12699999809E+01 0.  1.
       -4    1    3    3    0  502  0.56523918577E+03 -0.89289749527E+03  0.12487403607E+04  0.16358836681E+04  0.12699999809E+01 0. -1.
</event>
<event>
 5   0  0.2277133E-06  0.2720104E+04  0.7818609E-02  0.8328511E-01
       -1   -1    0    0    0  501  0.00000000000E+00  0.00000000000E+00  0.10766468691E+04  0.10766468691E+04  0.50400001928E-02 0. -1.
        1   -1    0    0  501    0  0.00000000000E+00  0.00000000000E+00 -0.17180572259E+04  0.17180572259E+04  0.50400001928E-02 0.  1.
    10030    2    1    2    0    0  0.00000000000E+00  0.00000000000E+00 -0.64141035681E+03  0.27947040951E+04  0.27201036254E+04 0.  0.
        1    1    3    3  502    0 -0.12915080896E+04 -0.40443057139E+03 -0.45925038958E+03  0.14291494509E+04  0.50400001928E-02 0.  1.
       -1    1    3    3    0  502  0.12915080896E+04  0.40443057139E+03 -0.18215996723E+03  0.13655546442E+04  0.50400001928E-02 0. -1.
</event>
<event>
 5   0  0.5916603E-06  0.2849269E+04  0.7818609E-02  0.8288134E-01
       -2   -1    0    0    0  501  0.00000000000E+00  0.00000000000E+00  0.17338117822E+04  0.17338117822E+04  0.25500000920E-02 0. -1.
        2   -1    0    0  501    0  0.00000000000E+00  0.00000000000E+00 -0.11705901995E+04  0.11705901995E+04  0.25500000920E-02 0.  1.
    10030    2    1    2    0    0  0.00000000000E+00  0.00000000000E+00  0.56322158267E+03  0.29044019817E+04  0.28492687343E+04 0.  0.
        2    1    3    3  502    0  0.11863756945E+04  0.68782664429E+03  0.67507234949E+03  0.15285010495E+04  0.25500000920E-02 0. -1.
       -2    1    3    3    0  502 -0.11863756945E+04 -0.68782664429E+03 -0.11185076682E+03  0.13759009322E+04  0.25500000920E-02 0.  1.
</event>
<event>
 5   0  0.2267565E-06  0.2811377E+04  0.7818609E-02  0.8299745E-01
        1   -1    0    0  501    0  0.00000000000E+00  0.00000000000E+00  0.23736354046E+04  0.23736354046E+04  0.50400001928E-02 0. -1.
       -1   -1    0    0    0  501  0.00000000000E+00  0.00000000000E+00 -0.83246178145E+03  0.83246178147E+03  0.50400001928E-02 0.  1.
    10030    2    1    2    0    0  0.00000000000E+00  0.00000000000E+00  0.15411736232E+04  0.32060971861E+04  0.28113774257E+04 0.  0.
        4    1    3    3  502    0  0.74969882418E+03  0.11518547769E+03 -0.57906355296E+03  0.95427052376E+03  0.12699999809E+01 0. -1.
       -4    1    3    3    0  502 -0.74969882418E+03 -0.11518547769E+03  0.21202371761E+04  0.22518266623E+04  0.12699999809E+01 0.  1.
</event>
<event>
 5   0  0.5546570E-06  0.2816812E+04  0.7818609E-02  0.8298068E-01
        2   -1    0    0  501    0  0.00000000000E+00  0.00000000000E+00  0.18335477882E+04  0.18335477882E+04  0.25500000920E-02 0. -1.
       -2   -1    0    0    0  501  0.00000000000E+00  0.00000000000E+00 -0.10818413472E+04  0.10818413473E+04  0.25500000920E-02 0.  1.
    10030    2    1    2    0    0  0.00000000000E+00  0.00000000000E+00  0.75170644094E+03  0.29153891354E+04  0.28168122475E+04 0.  0.
        4    1    3    3  502    0 -0.95472945284E+03  0.97924365950E+03  0.27657887804E+02  0.13679155838E+04  0.12699999809E+01 0.  1.
       -4    1    3    3    0  502  0.95472945284E+03 -0.97924365950E+03  0.72404855314E+03  0.15474735516E+04  0.12699999809E+01 0. -1.
</event>
<event>
 5   0  0.2277133E-06  0.2820168E+04  0.7818609E-02  0.8297034E-01
        1   -1    0    0  501    0  0.00000000000E+00  0.00000000000E+00  0.22845378080E+04  0.22845378080E+04  0.50400001928E-02 0. -1.
       -1   -1    0    0    0  501  0.00000000000E+00  0.00000000000E+00 -0.87034543905E+03  0.87034543906E+03  0.50400001928E-02 0.  1.
    10030    2    1    2    0    0  0.00000000000E+00  0.00000000000E+00  0.14141923690E+04  0.31548832471E+04  0.28201681238E+04 0.  0.
        1    1    3    3  502    0 -0.25667202014E+03  0.80434729051E+03  0.19705095144E+04  0.21437730375E+04  0.50400001928E-02 0. -1.
       -1    1    3    3    0  502  0.25667202014E+03 -0.80434729051E+03 -0.55631714545E+03  0.10111102096E+04  0.50400001928E-02 0.  1.
</event>
<event>
 5   0  0.2234068E-06  0.2913676E+04  0.7818609E-02  0.8268820E-01
        1   -1    0    0  501    0  0.00000000000E+00  0.00000000000E+00  0.12967428123E+04  0.12967428123E+04  0.50400001928E-02 0.  1.
       -1   -1    0    0    0  501  0.00000000000E+00  0.00000000000E+00 -0.16366988563E+04  0.16366988563E+04  0.50400001928E-02 0. -1.
    10030    2    1    2    0    0  0.00000000000E+00  0.00000000000E+00 -0.33995604399E+03  0.29334416686E+04  0.29136763566E+04 0.  0.
        3    1    3    3  502    0 -0.17260747855E+03  0.34272086893E+03  0.12449475912E+04  0.13027453514E+04  0.10100000352E+00 0.  1.
       -3    1    3    3    0  502  0.17260747855E+03 -0.34272086893E+03 -0.15849036352E+04  0.16306963171E+04  0.10100000352E+00 0. -1.
</event>
<event>
 5   0  0.5916603E-06  0.2833873E+04  0.7818609E-02  0.8292829E-01
       -2   -1    0    0    0  501  0.00000000000E+00  0.00000000000E+00  0.13166751710E+04  0.13166751710E+04  0.25500000920E-02 0.  1.
        2   -1    0    0  501    0  0.00000000000E+00  0.00000000000E+00 -0.15248321505E+04  0.15248321505E+04  0.25500000920E-02 0. -1.
    10030    2    1    2    0    0  0.00000000000E+00  0.00000000000E+00 -0.20815697944E+03  0.28415073215E+04  0.28338727089E+04 0.  0.
        2    1    3    3  502    0  0.90588897222E+03 -0.24430494735E+03  0.96056773135E+03  0.13427621174E+04  0.25500000920E-02 0.  1.
       -2    1    3    3    0  502 -0.90588897222E+03  0.24430494735E+03 -0.11687247108E+04  0.14987452041E+04  0.25500000920E-02 0. -1.
</event>
<event>
 5   0  0.5584205E-06  0.2787164E+04  0.7818609E-02  0.8307264E-01
       -2   -1    0    0    0  501  0.00000000000E+00  0.00000000000E+00  0.15792576819E+04  0.15792576819E+04  0.25500000920E-02 0. -1.
        2   -1    0    0  501    0  0.00000000000E+00  0.00000000000E+00 -0.12297367876E+04  0.12297367876E+04  0.25500000920E-02 0.  1.
    10030    2    1    2    0    0  0.00000000000E+00  0.00000000000E+00  0.34952089437E+03  0.28089944695E+04  0.27871643429E+04 0.  0.
        1    1    3    3  502    0 -0.16273146393E+03 -0.12540145996E+04  0.76504153327E+03  0.14779454296E+04  0.50400001928E-02 0. -1.
       -1    1    3    3    0  502  0.16273146393E+03  0.12540145996E+04 -0.41552063891E+03  0.13310490399E+04  0.50400001928E-02 0.  1.
</event>
<event>
 5   0  0.5866136E-06  0.2799200E+04  0.7818609E-02  0.8303517E-01
        2   -1    0    0  501    0  0.00000000000E+00  0.00000000000E+00  0.17894602320E+04  0.17894602320E+04  0.25500000920E-02 0.  1.
       -2   -1    0    0    0  501  0.00000000000E+00  0.00000000000E+00 -0.10946767646E+04  0.10946767646E+04  0.25500000920E-02 0. -1.
    10030    2    1    2    0    0  0.00000000000E+00  0.00000000000E+00  0.69478346743E+03  0.28841369966E+04  0.27992002694E+04 0.  0.
        5    1    3    3  502    0 -0.90315791878E+03  0.93750259897E+03  0.87704536947E+03  0.15696611161E+04  0.46999998093E+01 0.  1.
       -5    1    3    3    0  502  0.90315791878E+03 -0.93750259897E+03 -0.18226190204E+03  0.13144758804E+04  0.46999998093E+01 0. -1.
</event>
<event>
 5   0  0.2267565E-06  0.2502382E+04  0.7818609E-02  0.8402137E-01
       -1   -1    0    0    0  501  0.00000000000E+00  0.00000000000E+00  0.91954049256E+03  0.91954049257E+03  0.50400001928E-02 0. -1.
        1   -1    0    0  501    0  0.00000000000E+00  0.00000000000E+00 -0.17024585116E+04  0.17024585116E+04  0.50400001928E-02 0.  1.
    10030    2    1    2    0    0  0.00000000000E+00  0.00000000000E+00 -0.78291801908E+03  0.26219990042E+04  0.25023824954E+04 0.  0.
        4    1    3    3  502    0  0.80695386613E+03 -0.77681900092E+03  0.19273647112E+03  0.11365611565E+04  0.12699999809E+01 0. -1.
       -4    1    3    3    0  502 -0.80695386613E+03  0.77681900092E+03 -0.97565449020E+03  0.14854378477E+04  0.12699999809E+01 0.  1.
</event>
<event>
 5   0  0.2277133E-06  0.2792695E+04  0.7818609E-02  0.8305540E-01
       -1   -1    0    0    0  501  0.00000000000E+00  0.00000000000E+00  0.12876920216E+04  0.12876920216E+04  0.50400001928E-02 0.  1.
        1   -1    0    0  501    0  0.00000000000E+00  0.00000000000E+00 -0.15141713888E+04  0.15141713888E+04  0.50400001928E-02 0. -1.
    10030    2    1    2    0    0  0.00000000000E+00  0.00000000000E+00 -0.22647936717E+03  0.28018634104E+04  0.27926950543E+04 0.  0.
        1    1    3    3  502    0 -0.84937800815E+03  0.27793334145E+03  0.96317423703E+03  0.13139233440E+04  0.50400001928E-02 0.  1.
       -1    1    3    3    0  502  0.84937800815E+03 -0.27793334145E+03 -0.11896536042E+04  0.14879400663E+04  0.50400001928E-02 0. -1.
</event>
<event>
 5   0  0.2206967E-06  0.2709089E+04  0.7818609E-02  0.8332062E-01
        1   -1    0    0  501    0  0.00000000000E+00  0.00000000000E+00  0.10384582008E+04  0.10384582008E+04  0.50400001928E-02 0.  1.
       -1   -1    0    0    0  501  0.00000000000E+00  0.00000000000E+00 -0.17668410865E+04  0.17668410865E+04  0.50400001928E-02 0. -1.
    10030    2    1    2    0    0  0.00000000000E+00  0.00000000000E+00 -0.72838288571E+03  0.28052992873E+04  0.27090888622E+04 0.  0.
        5    1    3    3  502    0 -0.59953647550E+03  0.77139172939E+03  0.60736090411E+03  0.11503906047E+04  0.46999998093E+01 0.  1.
       -5    1    3    3    0  502  0.59953647550E+03 -0.77139172939E+03 -0.13357437898E+04  0.16549086826E+04  0.46999998093E+01 0. -1.
</event>
<event>
 5   0  0.5625245E-06  0.2779156E+04  0.7818609E-02  0.8309769E-01
       -2   -1    0    0    0  501  0.00000000000E+00  0.00000000000E+00  0.10723932271E+04  0.10723932271E+04  0.25500000920E-02 0.  1.
        2   -1    0    0  501    0  0.00000000000E+00  0.00000000000E+00 -0.18005768332E+04  0.18005768332E+04  0.25500000920E-02 0. -1.
    10030    2    1    2    0    0  0.00000000000E+00  0.00000000000E+00 -0.72818360611E+03  0.28729700603E+04  0.27791555558E+04 0.  0.
        3    1    3    3  502    0  0.12156179154E+04 -0.67103307317E+03 -0.30828724715E+03  0.14223407955E+04  0.10100000352E+00 0.  1.
       -3    1    3    3    0  502 -0.12156179154E+04  0.67103307317E+03 -0.41989635895E+03  0.14506292648E+04  0.10100000352E+00 0. -1.
</event>
<event>
 5   0  0.5916603E-06  0.2792014E+04  0.7818609E-02  0.8305752E-01
       -2   -1    0    0    0  501  0.00000000000E+00  0.00000000000E+00  0.14464967882E+04  0.14464967882E+04  0.25500000920E-02 0.  1.
        2   -1    0    0  501    0  0.00000000000E+00  0.00000000000E+00 -0.13472795109E+04  0.13472795109E+04  0.25500000920E-02 0. -1.
    10030    2    1    2    0    0  0.00000000000E+00  0.00000000000E+00  0.99217277270E+02  0.27937762992E+04  0.27920139580E+04 0.  0.
        2    1    3    3  502    0 -0.82084945896E+03 -0.10868907663E+04 -0.25670566346E+03  0.13860098015E+04  0.25500000920E-02 0.  1.
       -2    1    3    3    0  502  0.82084945896E+03  0.10868907663E+04  0.35592294073E+03  0.14077664977E+04  0.25500000920E-02 0. -1.
</event>
<event>
 5   0  0.2190865E-06  0.2805021E+04  0.7818609E-02  0.8301711E-01
        1   -1    0    0  501    0  0.00000000000E+00  0.00000000000E+00  0.14179233358E+04  0.14179233358E+04  0.50400001928E-02 0. -1.
       -1   -1    0    0    0  501  0.00000000000E+00  0.00000000000E+00 -0.13872655786E+04  0.13872655786E+04  0.50400001928E-02 0.  1.
    10030    2    1    2    0    0  0.00000000000E+00  0.00000000000E+00  0.30657757187E+02  0.28051889144E+04  0.28050213809E+04 0.  0.
        2    1    3    3  502    0  0.11913116079E+04  0.25123926425E+03 -0.68091075050E+03  0.13949852921E+04  0.25500000920E-02 0. -1.
       -2    1    3    3    0  502 -0.11913116079E+04 -0.25123926425E+03  0.71156850768E+03  0.14102036223E+04  0.25500000920E-02 0.  1.
</event>
<event>
 5   0  0.2190865E-06  0.2778620E+04  0.7818609E-02  0.8309937E-01
       -1   -1    0    0    0  501  0.00000000000E+00  0.00000000000E+00  0.11657145212E+04  0.11657145212E+04  0.50400001928E-02 0.  1.
        1   -1    0    0  501    0  0.00000000000E+00  0.00000000000E+00 -0.16557938436E+04  0.16557938436E+04  0.50400001928E-02 0. -1.
    10030    2    1    2    0    0  0.00000000000E+00  0.00000000000E+00 -0.49007932241E+03  0.28215083648E+04  0.27786204689E+04 0.  0.
        2    1    3    3  502    0 -0.71251566799E+03  0.11895614420E+04 -0.15740623526E+03  0.13955327744E+04  0.25500000920E-02 0.  1.
       -2    1    3    3    0  502  0.71251566799E+03 -0.11895614420E+04 -0.33267308715E+03  0.14259755904E+04  0.25500000920E-02 0. -1.
</event>
<event>
 5   0  0.5546570E-06  0.2796310E+04  0.7818609E-02  0.8304415E-01
       -2   -1    0    0    0  501  0.00000000000E+00  0.00000000000E+00  0.75064919357E+03  0.75064919357E+03  0.25500000920E-02 0. -1.
        2   -1    0    0  501    0  0.00000000000E+00  0.00000000000E+00 -0.26041965632E+04  0.26041965632E+04  0.25500000920E-02 0.  1.
    10030    2    1    2    0    0  0.00000000000E+00  0.00000000000E+00 -0.18535473696E+04  0.33548457568E+04  0.27963104621E+04 0.  0.
        4    1    3    3  502    0 -0.76086248899E+03  0.10012836605E+04 -0.16598489854E+04  0.20824459089E+04  0.12699999809E+01 0.  1.
       -4    1    3    3    0  502  0.76086248899E+03 -0.10012836605E+04 -0.19369838417E+03  0.12723998479E+04  0.12699999809E+01 0. -1.
</event>
<event>
 5   0  0.2234068E-06  0.2798167E+04  0.7818609E-02  0.8303838E-01
       -1   -1    0    0    0  501  0.00000000000E+00  0.00000000000E+00  0.94167294630E+03  0.94167294631E+03  0.50400001928E-02 0.  1.
        1   -1    0    0  501    0  0.00000000000E+00  0.00000000000E+00 -0.20786782580E+04  0.20786782580E+04  0.50400001928E-02 0. -1.
    10030    2    1    2    0    0  0.00000000000E+00  0.00000000000E+00 -0.11370053117E+04  0.30203512043E+04  0.27981673143E+04 0.  0.
        3    1    3    3  502    0 -0.12857108879E+04 -0.16743268549E+03 -0.10722302528E+01  0.12965675267E+04  0.10100000352E+00 0. -1.
       -3    1    3    3    0  502  0.12857108879E+04  0.16743268549E+03 -0.11359330815E+04  0.17237836776E+04  0.10100000352E+00 0.  1.
</event>
<event>
 5   0  0.5584205E-06  0.2789927E+04  0.7818609E-02  0.8306402E-01
        2   -1    0    0  501    0  0.00000000000E+00  0.00000000000E+00  0.20834996571E+04  0.20834996571E+04  0.25500000920E-02 0. -1.
       -2   -1    0    0    0  501  0.00000000000E+00  0.00000000000E+00 -0.93396882680E+03  0.93396882680E+03  0.25500000920E-02 0.  1.
    10030    2    1    2    0    0  0.00000000000E+00  0.00000000000E+00  0.11495308303E+04  0.30174684839E+04  0.27899274044E+04 0.  0.
        1    1    3    3  502    0  0.35157545271E+03 -0.12669344189E+04  0.70713393447E+02  0.13167112458E+04  0.50400001928E-02 0.  1.
       -1    1    3    3    0  502 -0.35157545271E+03  0.12669344189E+04  0.10788174369E+04  0.17007572381E+04  0.50400001928E-02 0. -1.
</event>
<event>
 5   0  0.2190865E-06  0.2799030E+04  0.7818609E-02  0.8303570E-01
       -1   -1    0    0    0  501  0.00000000000E+00  0.00000000000E+00  0.15781334001E+04  0.15781334001E+04  0.50400001928E-02 0. -1.
        1   -1    0    0  501    0  0.00000000000E+00  0.00000000000E+00 -0.12411129630E+04  0.12411129630E+04  0.50400001928E-02 0.  1.
    10030    2    1    2    0    0  0.00000000000E+00  0.00000000000E+00  0.33702043712E+03  0.28192463631E+04  0.27990297035E+04 0.  0.
        2    1    3    3  502    0 -0.33696234966E+03 -0.79082937701E+03 -0.94386097941E+03  0.12766472798E+04  0.25500000920E-02 0.  1.
       -2    1    3    3    0  502  0.33696234966E+03  0.79082937701E+03  0.12808814165E+04  0.15425990833E+04  0.25500000920E-02 0. -1.
</event>
<event>
 5   0  0.2267565E-06  0.2787037E+04  0.7818609E-02  0.8307304E-01
        1   -1    0    0  501    0  0.00000000000E+00  0.00000000000E+00  0.12410278884E+04  0.12410278884E+04  0.50400001928E-02 0. -1.
       -1   -1    0    0    0  501  0.00000000000E+00  0.00000000000E+00 -0.15647466605E+04  0.15647466605E+04  0.50400001928E-02 0.  1.
    10030    2    1    2    0    0  0.00000000000E+00  0.00000000000E+00 -0.32371877205E+03  0.28057745489E+04  0.27870373116E+04 0.  0.
        4    1    3    3  502    0  0.11737953377E+04 -0.52615331901E+03  0.37771016227E+03  0.13406339506E+04  0.12699999809E+01 0. -1.
       -4    1    3    3    0  502 -0.11737953377E+04  0.52615331901E+03 -0.70142893432E+03  0.14651405983E+04  0.12699999809E+01 0.  1.
</event>
<event>
 5   0  0.5546570E-06  0.2803072E+04  0.7818609E-02  0.8302315E-01
        2   -1    0    0  501    0  0.00000000000E+00  0.00000000000E+00  0.24524094495E+04  0.24524094495E+04  0.25500000920E-02 0. -1.
       -2   -1    0    0    0  501  0.00000000000E+00  0.00000000000E+00 -0.80096855503E+03  0.80096855504E+03  0.25500000920E-02 0.  1.
    10030    2    1    2    0    0  0.00000000000E+00  0.00000000000E+00  0.16514408945E+04  0.32533780046E+04  0.28030717816E+04 0.  0.
        4    1    3    3  502    0 -0.13879036116E+04 -0.19332782738E+03  0.79614883865E+03  0.16116782154E+04  0.12699999809E+01 0.  1.
       -4    1    3    3    0  502  0.13879036116E+04  0.19332782738E+03  0.85529205584E+03  0.16416997891E+04  0.12699999809E+01 0. -1.
</event>
<event>
 5   0  0.5916603E-06  0.2800135E+04  0.7818609E-02  0.8303227E-01
        2   -1    0    0  501    0  0.00000000000E+00  0.00000000000E+00  0.10344114968E+04  0.10344114968E+04  0.25500000920E-02 0.  1.
       -2   -1    0    0    0  501  0.00000000000E+00  0.00000000000E+00 -0.18949794136E+04  0.18949794136E+04  0.25500000920E-02 0. -1.
    10030    2    1    2    0    0  0.00000000000E+00  0.00000000000E+00 -0.86056791684E+03  0.29293909104E+04  0.28001346336E+04 0.  0.
        2    1    3    3  502    0 -0.20093927616E+03  0.13685061835E+04 -0.65709277503E+03  0.15313251392E+04  0.25500000920E-02 0. -1.
       -2    1    3    3    0  502  0.20093927616E+03 -0.13685061835E+04 -0.20347514181E+03  0.13980657711E+04  0.25500000920E-02 0.  1.
</event>
<event>
 5   0  0.2206967E-06  0.2796718E+04  0.7818609E-02  0.8304288E-01
        1   -1    0    0  501    0  0.00000000000E+00  0.00000000000E+00  0.27125966281E+04  0.27125966281E+04  0.50400001928E-02 0.  1.
       -1   -1    0    0    0  501  0.00000000000E+00  0.00000000000E+00 -0.72086203791E+03  0.72086203793E+03  0.50400001928E-02 0. -1.
    10030    2    1    2    0    0  0.00000000000E+00  0.00000000000E+00  0.19917345902E+04  0.34334586661E+04  0.27967180290E+04 0.  0.
        5    1    3    3  502    0 -0.11854521802E+04 -0.67032949372E+03  0.60619463225E+03  0.14906818990E+04  0.46999998093E+01 0. -1.
       -5    1    3    3    0  502  0.11854521802E+04  0.67032949372E+03  0.13855399580E+04  0.19427767671E+04  0.46999998093E+01 0.  1.
</event>
<event>
 5   0  0.5866136E-06  0.2784269E+04  0.7818609E-02  0.8308169E-01
       -2   -1    0    0    0  501  0.00000000000E+00  0.00000000000E+00  0.98310480704E+03  0.98310480704E+03  0.25500000920E-02 0. -1.
        2   -1    0    0  501    0  0.00000000000E+00  0.00000000000E+00 -0.19713453551E+04  0.19713453551E+04  0.25500000920E-02 0.  1.
    10030    2    1    2    0    0  0.00000000000E+00  0.00000000000E+00 -0.98824054802E+03  0.29544501621E+04  0.27842694517E+04 0.  0.
        5    1    3    3  502    0  0.12900949555E+04  0.41286172631E+03 -0.15320892843E+03  0.13631928935E+04  0.46999998093E+01 0. -1.
       -5    1    3    3    0  502 -0.12900949555E+04 -0.41286172631E+03 -0.83503161959E+03  0.15912572686E+04  0.46999998093E+01 0.  1.
</event>
<event>
 5   0  0.5916603E-06  0.2798810E+04  0.7818609E-02  0.8303638E-01
        2   -1    0    0  501    0  0.00000000000E+00  0.00000000000E+00  0.14087142523E+04  0.14087142523E+04  0.25500000920E-02 0.  1.
       -2   -1    0    0    0  501  0.00000000000E+00  0.00000000000E+00 -0.13901568105E+04  0.13901568105E+04  0.25500000920E-02 0. -1.
    10030    2    1    2    0    0  0.00000000000E+00  0.00000000000E+00  0.18557441755E+02  0.27988710628E+04  0.27988095411E+04 0.  0.
        2    1    3    3  502    0  0.26453806523E+03  0.20750412193E+03  0.13677250718E+04  0.14084424804E+04  0.25500000920E-02 0.  1.
       -2    1    3    3    0  502 -0.26453806523E+03 -0.20750412193E+03 -0.13491676301E+04  0.13904285823E+04  0.25500000920E-02 0. -1.
</event>
<event>
 5   0  0.1901375E-06  0.2794299E+04  0.7818609E-02  0.8305040E-01
       -4   -1    0    0    0  501  0.00000000000E+00  0.00000000000E+00  0.15287029104E+04  0.15287034380E+04  0.12699999809E+01 0. -1.
        4   -1    0    0  501    0  0.00000000000E+00  0.00000000000E+00 -0.12769159582E+04  0.12769165898E+04  0.12699999809E+01 0.  1.
    10030    2    1    2    0    0  0.00000000000E+00  0.00000000000E+00  0.25178695223E+03  0.28056200277E+04  0.27942990303E+04 0.  0.
        4    1    3    3  502    0 -0.96756401296E+03  0.71414494654E+03 -0.58821375249E+03  0.13387233304E+04  0.12699999809E+01 0.  1.
       -4    1    3    3    0  502  0.96756401296E+03 -0.71414494654E+03  0.84000070472E+03  0.14668966973E+04  0.12699999809E+01 0. -1.
</event>
<event>
 5   0  0.2234068E-06  0.2813781E+04  0.7818609E-02  0.8299003E-01
       -1   -1    0    0    0  501  0.00000000000E+00  0.00000000000E+00  0.71651194313E+03  0.71651194315E+03  0.50400001928E-02 0. -1.
        1   -1    0    0  501    0  0.00000000000E+00  0.00000000000E+00 -0.27624677276E+04  0.27624677276E+04  0.50400001928E-02 0.  1.
    10030    2    1    2    0    0  0.00000000000E+00  0.00000000000E+00 -0.20459557845E+04  0.34789796708E+04  0.28137811709E+04 0.  0.
        3    1    3    3  502    0 -0.49238293556E+03  0.12208642095E+04 -0.40925297051E+03  0.13785638822E+04  0.10100000352E+00 0. -1.
       -3    1    3    3    0  502  0.49238293556E+03 -0.12208642095E+04 -0.16367028140E+04  0.21004157886E+04  0.10100000352E+00 0.  1.
</event>
<event>
 5   0  0.5584205E-06  0.2542103E+04  0.7818609E-02  0.8388138E-01
        2   -1    0    0  501    0  0.00000000000E+00  0.00000000000E+00  0.59716976096E+03  0.59716976097E+03  0.25500000920E-02 0. -1.
       -2   -1    0    0    0  501  0.00000000000E+00  0.00000000000E+00 -0.27053815207E+04  0.27053815207E+04  0.25500000920E-02 0.  1.
    10030    2    1    2    0    0  0.00000000000E+00  0.00000000000E+00 -0.21082117597E+04  0.33025512816E+04  0.25421030947E+04 0.  0.
        1    1    3    3  502    0 -0.33501676154E+03 -0.30730930036E+03 -0.25961471674E+04  0.26356508402E+04  0.50400001928E-02 0.  1.
       -1    1    3    3    0  502  0.33501676154E+03  0.30730930036E+03  0.48793540773E+03  0.66690044140E+03  0.50400001928E-02 0. -1.
</event>
<event>
 5   0  0.2234068E-06  0.2478863E+04  0.7818609E-02  0.8410555E-01
       -1   -1    0    0    0  501  0.00000000000E+00  0.00000000000E+00  0.60367431921E+03  0.60367431923E+03  0.50400001928E-02 0.  1.
        1   -1    0    0  501    0  0.00000000000E+00  0.00000000000E+00 -0.25447335472E+04  0.25447335472E+04  0.50400001928E-02 0. -1.
    10030    2    1    2    0    0  0.00000000000E+00  0.00000000000E+00 -0.19410592280E+04  0.31484078664E+04  0.24788628778E+04 0.  0.
        3    1    3    3  502    0 -0.75710550075E+03 -0.76524380403E+03 -0.19028654838E+03  0.10931677820E+04  0.10100000352E+00 0. -1.
       -3    1    3    3    0  502  0.75710550075E+03  0.76524380403E+03 -0.17507726796E+04  0.20552400845E+04  0.10100000352E+00 0.  1.
</event>
<event>
 5   0  0.5916603E-06  0.2795988E+04  0.7818609E-02  0.8304515E-01
        2   -1    0    0  501    0  0.00000000000E+00  0.00000000000E+00  0.13648931068E+04  0.13648931068E+04  0.25500000920E-02 0. -1.
       -2   -1    0    0    0  501  0.00000000000E+00  0.00000000000E+00 -0.14318978203E+04  0.14318978203E+04  0.25500000920E-02 0.  1.
    10030    2    1    2    0    0  0.00000000000E+00  0.00000000000E+00 -0.67004713587E+02  0.27967909271E+04  0.27959881721E+04 0.  0.
        2    1    3    3  502    0  0.57820998115E+03 -0.12137349186E+04 -0.41689849558E+03  0.14075807581E+04  0.25500000920E-02 0.  1.
       -2    1    3    3    0  502 -0.57820998115E+03  0.12137349186E+04  0.34989378199E+03  0.13892101690E+04  0.25500000920E-02 0. -1.
</event>
<event>
 5   0  0.5625245E-06  0.2802048E+04  0.7818609E-02  0.8302633E-01
        2   -1    0    0  501    0  0.00000000000E+00  0.00000000000E+00  0.18280708968E+04  0.18280708968E+04  0.25500000920E-02 0. -1.
       -2   -1    0    0    0  501  0.00000000000E+00  0.00000000000E+00 -0.10737377025E+04  0.10737377025E+04  0.25500000920E-02 0.  1.
    10030    2    1    2    0    0  0.00000000000E+00  0.00000000000E+00  0.75433319427E+03  0.29018085994E+04  0.28020482828E+04 0.  0.
        3    1    3    3  502    0  0.13948149170E+04  0.91345624164E+02  0.27883363751E+03  0.14253423741E+04  0.10100000352E+00 0.  1.
       -3    1    3    3    0  502 -0.13948149170E+04 -0.91345624164E+02  0.47549955676E+03  0.14764662253E+04  0.10100000352E+00 0. -1.
</event>
<event>
 5   0  0.5584205E-06  0.2810051E+04  0.7818609E-02  0.8300155E-01
       -2   -1    0    0    0  501  0.00000000000E+00  0.00000000000E+00  0.11279647290E+04  0.11279647290E+04  0.25500000920E-02 0. -1.
        2   -1    0    0  501    0  0.00000000000E+00  0.00000000000E+00 -0.17501403403E+04  0.17501403403E+04  0.25500000920E-02 0.  1.
    10030    2    1    2    0    0  0.00000000000E+00  0.00000000000E+00 -0.62217561131E+03  0.28781050693E+04  0.28100509423E+04 0.  0.
        1    1    3    3  502    0  0.55787774007E+02  0.47874763754E+03  0.10406414835E+04  0.11468418694E+04  0.50400001928E-02 0. -1.
       -1    1    3    3    0  502 -0.55787774007E+02 -0.47874763754E+03 -0.16628170949E+04  0.17312631998E+04  0.50400001928E-02 0.  1.
</event>
<event>
 5   0  0.5866136E-06  0.2808459E+04  0.7818609E-02  0.8300647E-01
        2   -1    0    0  501    0  0.00000000000E+00  0.00000000000E+00  0.14227703914E+04  0.14227703914E+04  0.25500000920E-02 0.  1.
       -2   -1    0    0    0  501  0.00000000000E+00  0.00000000000E+00 -0.13859301174E+04  0.13859301174E+04  0.25500000920E-02 0. -1.
    10030    2    1    2    0    0  0.00000000000E+00  0.00000000000E+00  0.36840274055E+02  0.28087005088E+04  0.28084588910E+04 0.  0.
        5    1    3    3  502    0 -0.13199671272E+04  0.77222769329E+02 -0.45444362912E+03  0.13981479446E+04  0.46999998093E+01 0. -1.
       -5    1    3    3    0  502  0.13199671272E+04 -0.77222769329E+02  0.49128390317E+03  0.14105525642E+04  0.46999998093E+01 0.  1.
</event>
<event>
 5   0  0.2267565E-06  0.2811538E+04  0.7818609E-02  0.8299695E-01
        1   -1    0    0  501    0  0.00000000000E+00  0.00000000000E+00  0.10867382282E+04  0.10867382282E+04  0.50400001928E-02 0.  1.
       -1   -1    0    0    0  501  0.00000000000E+00  0.00000000000E+00 -0.18184570647E+04  0.18184570647E+04  0.50400001928E-02 0. -1.
    10030    2    1    2    0    0  0.00000000000E+00  0.00000000000E+00 -0.73171883645E+03  0.29051952929E+04  0.28115382327E+04 0.  0.
        4    1    3    3  502    0 -0.54322366583E+03  0.12283428477E+04  0.63017329274E+02  0.13445783352E+04  0.12699999809E+01 0.  1.
       -4    1    3    3    0  502  0.54322366583E+03 -0.12283428477E+04 -0.79473616572E+03  0.15606169577E+04  0.12699999809E+01 0. -1.
</event>
<event>
 5   0  0.2206967E-06  0.2805733E+04  0.7818609E-02  0.8301491E-01
        1   -1    0    0  501    0  0.00000000000E+00  0.00000000000E+00  0.12490601432E+04  0.12490601432E+04  0.50400001928E-02 0. -1.
       -1   -1    0    0    0  501  0.00000000000E+00  0.00000000000E+00 -0.15756124544E+04  0.15756124544E+04  0.50400001928E-02 0.  1.
    10030    2    1    2    0    0  0.00000000000E+00  0.00000000000E+00 -0.32655231119E+03  0.28246725975E+04  0.28057332146E+04 0.  0.
        5    1    3    3  502    0 -0.81219261808E+03 -0.99253989816E+03  0.40908622027E+03  0.13461671233E+04  0.46999998093E+01 0. -1.
       -5    1    3    3    0  502  0.81219261808E+03  0.99253989816E+03 -0.73563853147E+03  0.14785054742E+04  0.46999998093E+01 0.  1.
</event>
<event>
 5   0  0.5546570E-06  0.2798644E+04  0.7818609E-02  0.8303689E-01
       -2   -1    0    0    0  501  0.00000000000E+00  0.00000000000E+00  0.10651273137E+04  0.10651273137E+04  0.25500000920E-02 0. -1.
        2   -1    0    0  501    0  0.00000000000E+00  0.00000000000E+00 -0.18383739370E+04  0.18383739370E+04  0.25500000920E-02 0.  1.
    10030    2    1    2    0    0  0.00000000000E+00  0.00000000000E+00 -0.77324662333E+03  0.29035012507E+04  0.27986441668E+04 0.  0.
        4    1    3    3  502    0 -0.57320080080E+01 -0.64540238864E+03  0.90147621335E+03  0.11087100952E+04  0.12699999809E+01 0. -1.
       -4    1    3    3    0  502  0.57320080080E+01  0.64540238864E+03 -0.16747228367E+04  0.17947911555E+04  0.12699999809E+01 0.  1.
</event>
<event>
 5   0  0.2267565E-06  0.2784967E+04  0.7818609E-02  0.8307951E-01
       -1   -1    0    0    0  501  0.00000000000E+00  0.00000000000E+00  0.17222579235E+04  0.17222579235E+04  0.50400001928E-02 0. -1.
        1   -1    0    0  501    0  0.00000000000E+00  0.00000000000E+00 -0.11258533690E+04  0.11258533690E+04  0.50400001928E-02 0.  1.
    10030    2    1    2    0    0  0.00000000000E+00  0.00000000000E+00  0.59640455446E+03  0.28481112926E+04  0.27849667040E+04 0.  0.
        4    1    3    3  502    0  0.93858859004E+03 -0.78514522318E+03  0.97780448367E+03  0.15663667463E+04  0.12699999809E+01 0. -1.
       -4    1    3    3    0  502 -0.93858859004E+03  0.78514522318E+03 -0.38139992922E+03  0.12817445462E+04  0.12699999809E+01 0.  1.
</event>
<event>
 5   0  0.2234068E-06  0.2830324E+04  0.7818609E-02  0.8293915E-01
       -1   -1    0    0    0  501  0.00000000000E+00  0.00000000000E+00  0.17678567053E+04  0.17678567053E+04  0.50400001928E-02 0.  1.
        1   -1    0    0  501    0  0.00000000000E+00  0.00000000000E+00 -0.11328314446E+04  0.11328314446E+04  0.50400001928E-02 0. -1.
    10030    2    1    2    0    0  0.00000000000E+00  0.00000000000E+00  0.63502526074E+03  0.29006881499E+04  0.28303241266E+04 0.  0.
        3    1    3    3  502    0  0.13003026695E+04  0.27242332740E+03  0.81715948099E+03  0.15597279023E+04  0.10100000352E+00 0.  1.
       -3    1    3    3    0  502 -0.13003026695E+04 -0.27242332740E+03 -0.18213422026E+03  0.13409602477E+04  0.10100000352E+00 0. -1.
</event>
<event>
 5   0  0.5584205E-06  0.2818253E+04  0.7818609E-02  0.8297624E-01
       -2   -1    0    0    0  501  0.00000000000E+00  0.00000000000E+00  0.18833900461E+04  0.18833900461E+04  0.25500000920E-02 0.  1.
        2   -1    0    0  501    0  0.00000000000E+00  0.00000000000E+00 -0.10542890112E+04  0.10542890112E+04  0.25500000920E-02 0. -1.
    10030    2    1    2    0    0  0.00000000000E+00  0.00000000000E+00  0.82910103492E+03  0.29376790573E+04  0.28182529549E+04 0.  0.
        1    1    3    3  502    0 -0.95565078076E+03 -0.10354569215E+04  0.39988379274E+03  0.14647001396E+04  0.50400001928E-02 0.  1.
       -1    1    3    3    0  502  0.95565078076E+03  0.10354569215E+04  0.42921724218E+03  0.14729789177E+04  0.50400001928E-02 0. -1.
</event>
<event>
 5   0  0.2206967E-06  0.2780006E+04  0.7818609E-02  0.8309503E-01
        1   -1    0    0  501    0  0.00000000000E+00  0.00000000000E+00  0.75602331516E+03  0.75602331518E+03  0.50400001928E-02 0. -1.
       -1   -1    0    0    0  501  0.00000000000E+00  0.00000000000E+00 -0.25556206763E+04  0.25556206763E+04  0.50400001928E-02 0.  1.
    10030    2    1    2    0    0  0.00000000000E+00  0.00000000000E+00 -0.17995973611E+04  0.33116439915E+04  0.27800063424E+04 0.  0.
        5    1    3    3  502    0  0.31554381242E+03 -0.33254821537E+02  0.71229767495E+03  0.77978448846E+03  0.46999998093E+01 0. -1.
       -5    1    3    3    0  502 -0.31554381242E+03  0.33254821537E+02 -0.25118950361E+04  0.25318595030E+04  0.46999998093E+01 0.  1.
</event>
<event>
 5   0  0.5546570E-06  0.2791918E+04  0.7818609E-02  0.8305782E-01
        2   -1    0    0  501    0  0.00000000000E+00  0.00000000000E+00  0.17506073538E+04  0.17506073538E+04  0.25500000920E-02 0.  1.
       -2   -1    0    0    0  501  0.00000000000E+00  0.00000000000E+00 -0.11131577731E+04  0.11131577731E+04  0.25500000920E-02 0. -1.
    10030    2    1    2    0    0  0.00000000000E+00  0.00000000000E+00  0.63744958070E+03  0.28637651269E+04  0.27919184684E+04 0.  0.
        4    1    3    3  502    0 -0.74854347394E+03 -0.99886737727E+03  0.95982662996E+03  0.15745863400E+04  0.12699999809E+01 0.  1.
       -4    1    3    3    0  502  0.74854347394E+03  0.99886737727E+03 -0.32237704926E+03  0.12891787869E+04  0.12699999809E+01 0. -1.
</event>
<event>
 5   0  0.5584205E-06  0.2802301E+04  0.7818609E-02  0.8302554E-01
       -2   -1    0    0    0  501  0.00000000000E+00  0.00000000000E+00  0.11572000813E+04  0.11572000813E+04  0.25500000920E-02 0. -1.
        2   -1    0    0  501    0  0.00000000000E+00  0.00000000000E+00 -0.16965286635E+04  0.16965286635E+04  0.25500000920E-02 0.  1.
    10030    2    1    2    0    0  0.00000000000E+00  0.00000000000E+00 -0.53932858215E+03  0.28537287448E+04  0.28023012739E+04 0.  0.
        1    1    3    3  502    0 -0.30990010386E+03  0.43738759616E+03  0.10486499754E+04  0.11777150566E+04  0.50400001928E-02 0. -1.
       -1    1    3    3    0  502  0.30990010386E+03 -0.43738759616E+03 -0.15879785576E+04  0.16760136882E+04  0.50400001928E-02 0.  1.
</event>
<event>
 5   0  0.5625245E-06  0.2779831E+04  0.7818609E-02  0.8309558E-01
        2   -1    0    0  501    0  0.00000000000E+00  0.00000000000E+00  0.12658061126E+04  0.12658061126E+04  0.25500000920E-02 0.  1.
       -2   -1    0    0    0  501  0.00000000000E+00  0.00000000000E+00 -0.15261930233E+04  0.15261930233E+04  0.25500000920E-02 0. -1.
    10030    2    1    2    0    0  0.00000000000E+00  0.00000000000E+00 -0.26038691070E+03  0.27919991359E+04  0.27798305401E+04 0.  0.
        3    1    3    3  502    0  0.16525371355E+03  0.57026270902E+02  0.12547202081E+04  0.12668400042E+04  0.10100000352E+00 0.  1.
       -3    1    3    3    0  502 -0.16525371355E+03 -0.57026270902E+02 -0.15151071188E+04  0.15251591317E+04  0.10100000352E+00 0. -1.
</event>
<event>
 5   0  0.5916603E-06  0.2809379E+04  0.7818609E-02  0.8300362E-01
       -2   -1    0    0    0  501  0.00000000000E+00  0.00000000000E+00  0.10989402834E+04  0.10989402834E+04  0.25500000920E-02 0.  1.
        2   -1    0    0  501    0  0.00000000000E+00  0.00000000000E+00 -0.17955052740E+04  0.17955052740E+04  0.25500000920E-02 0. -1.
    10030    2    1    2    0    0  0.00000000000E+00  0.00000000000E+00 -0.69656499054E+03  0.28944455574E+04  0.28093793441E+04 0.  0.
        2    1    3    3  502    0 -0.12307992080E+04 -0.14841188232E+03 -0.10287820508E+04  0.16109889153E+04  0.25500000920E-02 0. -1.
       -2    1    3    3    0  502  0.12307992080E+04  0.14841188232E+03  0.33221706028E+03  0.12834566421E+04  0.25500000920E-02 0.  1.
</event>
<event>
 5   0  0.5584205E-06  0.2823625E+04  0.7818609E-02  0.8295971E-01
        2   -1    0    0  501    0  0.00000000000E+00  0.00000000000E+00  0.28600280665E+04  0.28600280665E+04  0.25500000920E-02 0.  1.
       -2   -1    0    0    0  501  0.00000000000E+00  0.00000000000E+00 -0.69692154513E+03  0.69692154513E+03  0.25500000920E-02 0. -1.
    10030    2    1    2    0    0  0.00000000000E+00  0.00000000000E+00  0.21631065213E+04  0.35569496116E+04  0.28236254562E+04 0.  0.
        1    1    3    3  502    0 -0.72667927951E+03 -0.71699223659E+02  0.26036728710E+04  0.27041294298E+04  0.50400001928E-02 0.  1.
       -1    1    3    3    0  502  0.72667927951E+03  0.71699223659E+02 -0.44056634968E+03  0.85282018177E+03  0.50400001928E-02 0. -1.
</event>
<event>
 5   0  0.5866136E-06  0.2656528E+04  0.7818609E-02  0.8349249E-01
       -2   -1    0    0    0  501  0.00000000000E+00  0.00000000000E+00  0.11289400019E+04  0.11289400019E+04  0.25500000920E-02 0.  1.
        2   -1    0    0  501    0  0.00000000000E+00  0.00000000000E+00 -0.15627809349E+04  0.15627809349E+04  0.25500000920E-02 0. -1.
    10030    2    1    2    0    0  0.00000000000E+00  0.00000000000E+00 -0.43384093306E+03  0.26917209368E+04  0.26565284953E+04 0.  0.
        5    1    3    3  502    0  0.14422544496E+03 -0.78066392655E+02  0.11186337506E+04  0.11306011227E+04  0.46999998093E+01 0.  1.
       -5    1    3    3    0  502 -0.14422544496E+03  0.78066392655E+02 -0.15524746837E+04  0.15611198141E+04  0.46999998093E+01 0. -1.
</event>
<event>
 5   0  0.5916603E-06  0.2799548E+04  0.7818609E-02  0.8303409E-01
        2   -1    0    0  501    0  0.00000000000E+00  0.00000000000E+00  0.72510377676E+03  0.72510377676E+03  0.25500000920E-02 0.  1.
       -2   -1    0    0    0  501  0.00000000000E+00  0.00000000000E+00 -0.27021888306E+04  0.27021888307E+04  0.25500000920E-02 0. -1.
    10030    2    1    2    0    0  0.00000000000E+00  0.00000000000E+00 -0.19770850539E+04  0.34272926074E+04  0.27995480540E+04 0.  0.
        2    1    3    3  502    0  0.10804550869E+04  0.39719292335E+03 -0.13589079177E+02  0.11512298104E+04  0.25500000920E-02 0.  1.
       -2    1    3    3    0  502 -0.10804550869E+04 -0.39719292335E+03 -0.19634959747E+04  0.22760627970E+04  0.25500000920E-02 0. -1.
</event>
<event>
 5   0  0.2234068E-06  0.2815115E+04  0.7818609E-02  0.8298591E-01
        1   -1    0    0  501    0  0.00000000000E+00  0.00000000000E+00  0.13315821952E+04  0.13315821952E+04  0.50400001928E-02 0. -1.
       -1   -1    0    0    0  501  0.00000000000E+00  0.00000000000E+00 -0.14878673300E+04  0.14878673300E+04  0.50400001928E-02 0.  1.
    10030    2    1    2    0    0  0.00000000000E+00  0.00000000000E+00 -0.15628513478E+03  0.28194495253E+04  0.28151146659E+04 0.  0.
        3    1    3    3  502    0  0.89439872139E+02 -0.54312250894E+03  0.12193197765E+04  0.13378050225E+04  0.10100000352E+00 0. -1.
       -3    1    3    3    0  502 -0.89439872139E+02  0.54312250894E+03 -0.13756049113E+04  0.14816445028E+04  0.10100000352E+00 0.  1.
</event>
<event>
 5   0  0.2277133E-06  0.2791093E+04  0.7818609E-02  0.8306039E-01
        1   -1    0    0  501    0  0.00000000000E+00  0.00000000000E+00  0.23248256723E+04  0.23248256723E+04  0.50400001928E-02 0.  1.
       -1   -1    0    0    0  501  0.00000000000E+00  0.00000000000E+00 -0.83771859024E+03  0.83771859026E+03  0.50400001928E-02 0. -1.
    10030    2    1    2    0    0  0.00000000000E+00  0.00000000000E+00  0.14871070821E+04  0.31625442626E+04  0.27910927500E+04 0.  0.
        1    1    3    3  502    0 -0.11902713187E+04  0.64294448452E+03  0.11318334892E+04  0.17638510338E+04  0.50400001928E-02 0.  1.
       -1    1    3    3    0  502  0.11902713187E+04 -0.64294448452E+03  0.35527359286E+03  0.13986932287E+04  0.50400001928E-02 0. -1.
</event>
<event>
 5   0  0.5546570E-06  0.2806554E+04  0.7818609E-02  0.8301236E-01
        2   -1    0    0  501    0  0.00000000000E+00  0.00000000000E+00  0.16322163178E+04  0.16322163178E+04  0.25500000920E-02 0. -1.
       -2   -1    0    0    0  501  0.00000000000E+00  0.00000000000E+00 -0.12064497057E+04  0.12064497057E+04  0.25500000920E-02 0.  1.
    10030    2    1    2    0    0  0.00000000000E+00  0.00000000000E+00  0.42576661212E+03  0.28386660234E+04  0.28065543972E+04 0.  0.
        4    1    3    3  502    0 -0.22632830751E+02  0.24303790264E+03 -0.11848125483E+04  0.12096950255E+04  0.12699999809E+01 0.  1.
       -4    1    3    3    0  502  0.22632830751E+02 -0.24303790264E+03  0.16105791605E+04  0.16289709979E+04  0.12699999809E+01 0. -1.
</event>
<event>
 5   0  0.5866136E-06  0.2874410E+04  0.7818609E-02  0.8280532E-01
        2   -1    0    0  501    0  0.00000000000E+00  0.00000000000E+00  0.12238981831E+04  0.12238981831E+04  0.25500000920E-02 0.  1.
       -2   -1    0    0    0  501  0.00000000000E+00  0.00000000000E+00 -0.16876876725E+04  0.16876876725E+04  0.25500000920E-02 0. -1.
    10030    2    1    2    0    0  0.00000000000E+00  0.00000000000E+00 -0.46378948939E+03  0.29115858556E+04  0.28744097663E+04 0.  0.
        5    1    3    3  502    0  0.50475145512E+03 -0.87184939980E+03  0.80636965976E+03  0.12904067287E+04  0.46999998093E+01 0.  1.
       -5    1    3    3    0  502 -0.50475145512E+03  0.87184939980E+03 -0.12701591491E+04  0.16211791269E+04  0.46999998093E+01 0. -1.
</event>
<event>
 5   0  0.5866136E-06  0.2848472E+04  0.7818609E-02  0.8288376E-01
        2   -1    0    0  501    0  0.00000000000E+00  0.00000000000E+00  0.20503092109E+04  0.20503092109E+04  0.25500000920E-02 0.  1.
       -2   -1    0    0    0  501  0.00000000000E+00  0.00000000000E+00 -0.98933764897E+03  0.98933764898E+03  0.25500000920E-02 0. -1.
    10030    2    1    2    0    0  0.00000000000E+00  0.00000000000E+00  0.10609715619E+04  0.30396468599E+04  0.28484719373E+04 0.  0.
        5    1    3    3  502    0 -0.40236926452E+03  0.50380394234E+03 -0.82466887973E+03  0.10468143525E+04  0.46999998093E+01 0. -1.
       -5    1    3    3    0  502  0.40236926452E+03 -0.50380394234E+03  0.18856404417E+04  0.19928325074E+04  0.46999998093E+01 0.  1.
</event>
<event>
 5   0  0.2267565E-06  0.2823723E+04  0.7818609E-02  0.8295941E-01
        1   -1    0    0  501    0  0.00000000000E+00  0.00000000000E+00  0.20175887254E+04  0.20175887254E+04  0.50400001928E-02 0.  1.
       -1   -1    0    0    0  501  0.00000000000E+00  0.00000000000E+00 -0.98798743459E+03  0.98798743461E+03  0.50400001928E-02 0. -1.
    10030    2    1    2    0    0  0.00000000000E+00  0.00000000000E+00  0.10296012908E+04  0.30055761601E+04  0.28237225848E+04 0.  0.
        4    1    3    3  502    0  0.31214491314E+03  0.10317472449E+04 -0.45574137440E+03  0.11703156144E+04  0.12699999809E+01 0. -1.
       -4    1    3    3    0  502 -0.31214491314E+03 -0.10317472449E+04  0.14853426653E+04  0.18352605456E+04  0.12699999809E+01 0.  1.
</event>
<event>
 5   0  0.1901375E-06  0.2797877E+04  0.7818609E-02  0.8303928E-01
       -3   -1    0    0    0  501  0.00000000000E+00  0.00000000000E+00  0.17340618309E+04  0.17340618338E+04  0.10100000352E+00 0. -1.
        3   -1    0    0  501    0  0.00000000000E+00  0.00000000000E+00 -0.11285806257E+04  0.11285806302E+04  0.10100000352E+00 0.  1.
    10030    2    1    2    0    0  0.00000000000E+00  0.00000000000E+00  0.60548120522E+03  0.28626424640E+04  0.27978767640E+04 0.  0.
        2    1    3    3  502    0  0.31449027435E+03  0.60050869734E+02 -0.10905897436E+04  0.11366161307E+04  0.25500000920E-02 0.  1.
       -2    1    3    3    0  502 -0.31449027435E+03 -0.60050869734E+02  0.16960709489E+04  0.17260263333E+04  0.25500000920E-02 0. -1.
</event>
<event>
 5   0  0.5584205E-06  0.2804113E+04  0.7818609E-02  0.8301993E-01
       -2   -1    0    0    0  501  0.00000000000E+00  0.00000000000E+00  0.13812525621E+04  0.13812525621E+04  0.25500000920E-02 0. -1.
        2   -1    0    0  501    0  0.00000000000E+00  0.00000000000E+00 -0.14231734771E+04  0.14231734771E+04  0.25500000920E-02 0.  1.
    10030    2    1    2    0    0  0.00000000000E+00  0.00000000000E+00 -0.41920915074E+02  0.28044260392E+04  0.28041127021E+04 0.  0.
        1    1    3    3  502    0  0.50371114886E+03  0.41862378412E+03 -0.12607728162E+04  0.14207458915E+04  0.50400001928E-02 0.  1.
       -1    1    3    3    0  502 -0.50371114886E+03 -0.41862378412E+03  0.12188519012E+04  0.13836801477E+04  0.50400001928E-02 0. -1.
</event>
<event>
 5   0  0.5546570E-06  0.2820654E+04  0.7818609E-02  0.8296885E-01
        2   -1    0    0  501    0  0.00000000000E+00  0.00000000000E+00  0.19614397141E+04  0.19614397141E+04  0.25500000920E-02 0. -1.
       -2   -1    0    0    0  501  0.00000000000E+00  0.00000000000E+00 -0.10140625537E+04  0.10140625537E+04  0.25500000920E-02 0.  1.
    10030    2    1    2    0    0  0.00000000000E+00  0.00000000000E+00  0.94737716043E+03  0.29755022679E+04  0.28206542259E+04 0.  0.
        4    1    3    3  502    0 -0.68617011059E+03  0.10133529394E+04 -0.26572439348E+03  0.12523276994E+04  0.12699999809E+01 0.  1.
       -4    1    3    3    0  502  0.68617011059E+03 -0.10133529394E+04  0.12131015539E+04  0.17231745685E+04  0.12699999809E+01 0. -1.
</event>
<event>
 5   0  0.5916603E-06  0.2799799E+04  0.7818609E-02  0.8303331E-01
        2   -1    0    0  501    0  0.00000000000E+00  0.00000000000E+00  0.16960635382E+04  0.16960635382E+04  0.25500000920E-02 0.  1.
       -2   -1    0    0    0  501  0.00000000000E+00  0.00000000000E+00 -0.11554514747E+04  0.11554514747E+04  0.25500000920E-02 0. -1.
    10030    2    1    2    0    0  0.00000000000E+00  0.00000000000E+00  0.54061206351E+03  0.28515150129E+04  0.27997993616E+04 0.  0.
        2    1    3    3  502    0 -0.95294732355E+03 -0.92789760788E+03  0.71496703967E+03  0.15100597472E+04  0.25500000920E-02 0.  1.
       -2    1    3    3    0  502  0.95294732355E+03  0.92789760788E+03 -0.17435497616E+03  0.13414552657E+04  0.25500000920E-02 0. -1.
</event>
<event>
 5   0  0.5916603E-06  0.2803000E+04  0.7818609E-02  0.8302338E-01
       -2   -1    0    0    0  501  0.00000000000E+00  0.00000000000E+00  0.12819492793E+04  0.12819492793E+04  0.25500000920E-02 0. -1.
        2   -1    0    0  501    0  0.00000000000E+00  0.00000000000E+00 -0.15321999129E+04  0.15321999129E+04  0.25500000920E-02 0.  1.
    10030    2    1    2    0    0  0.00000000000E+00  0.00000000000E+00 -0.25025063363E+03  0.28141491922E+04  0.28030002313E+04 0.  0.
        2    1    3    3  502    0  0.54606842859E+03  0.77580048063E+03 -0.11608026764E+04  0.14991730947E+04  0.25500000920E-02 0.  1.
       -2    1    3    3    0  502 -0.54606842859E+03 -0.77580048063E+03  0.91055204274E+03  0.13149760975E+04  0.25500000920E-02 0. -1.
</event>
<event>
 5   0  0.2190865E-06  0.2800643E+04  0.7818609E-02  0.8303069E-01
       -1   -1    0    0    0  501  0.00000000000E+00  0.00000000000E+00  0.11353524427E+04  0.11353524427E+04  0.50400001928E-02 0. -1.
        1   -1    0    0  501    0  0.00000000000E+00  0.00000000000E+00 -0.17271293061E+04  0.17271293061E+04  0.50400001928E-02 0.  1.
    10030    2    1    2    0    0  0.00000000000E+00  0.00000000000E+00 -0.59177686345E+03  0.28624817488E+04  0.28006431237E+04 0.  0.
        2    1    3    3  502    0 -0.63794665163E+03  0.12393334167E+04 -0.43292810799E+03  0.14595718532E+04  0.25500000920E-02 0. -1.
       -2    1    3    3    0  502  0.63794665163E+03 -0.12393334167E+04 -0.15884875546E+03  0.14029098956E+04  0.25500000920E-02 0.  1.
</event>
<event>
 5   0  0.2234068E-06  0.2809804E+04  0.7818609E-02  0.8300231E-01
       -1   -1    0    0    0  501  0.00000000000E+00  0.00000000000E+00  0.11843936112E+04  0.11843936112E+04  0.50400001928E-02 0. -1.
        1   -1    0    0  501    0  0.00000000000E+00  0.00000000000E+00 -0.16664642329E+04  0.16664642329E+04  0.50400001928E-02 0.  1.
    10030    2    1    2    0    0  0.00000000000E+00  0.00000000000E+00 -0.48207062168E+03  0.28508578441E+04  0.28098039723E+04 0.  0.
        3    1    3    3  502    0 -0.70416617284E+03 -0.62185942351E+03 -0.13008985178E+04  0.16046482809E+04  0.10100000352E+00 0.  1.
       -3    1    3    3    0  502  0.70416617284E+03  0.62185942351E+03  0.81882789617E+03  0.12462095632E+04  0.10100000352E+00 0. -1.
</event>
<event>
 5   0  0.5866136E-06  0.2800569E+04  0.7818609E-02  0.8303092E-01
        2   -1    0    0  501    0  0.00000000000E+00  0.00000000000E+00  0.24983956500E+04  0.24983956500E+04  0.25500000920E-02 0. -1.
       -2   -1    0    0    0  501  0.00000000000E+00  0.00000000000E+00 -0.78482242864E+03  0.78482242865E+03  0.25500000920E-02 0.  1.
    10030    2    1    2    0    0  0.00000000000E+00  0.00000000000E+00  0.17135732213E+04  0.32832180786E+04  0.28005691862E+04 0.  0.
        5    1    3    3  502    0  0.14828965386E+03 -0.14579567346E+03  0.24801821764E+04  0.24888896958E+04  0.46999998093E+01 0. -1.
       -5    1    3    3    0  502 -0.14828965386E+03  0.14579567346E+03 -0.76660895503E+03  0.79432838284E+03  0.46999998093E+01 0.  1.
</event>
<event>
 5   0  0.5584205E-06  0.2805771E+04  0.7818609E-02  0.8301479E-01
        2   -1    0    0  501    0  0.00000000000E+00  0.00000000000E+00  0.19651569486E+04  0.19651569486E+04  0.25500000920E-02 0.  1.
       -2   -1    0    0    0  501  0.00000000000E+00  0.00000000000E+00 -0.10014914724E+04  0.10014914724E+04  0.25500000920E-02 0. -1.
    10030    2    1    2    0    0  0.00000000000E+00  0.00000000000E+00  0.96366547619E+03  0.29666484210E+04  0.28057711425E+04 0.  0.
        1    1    3    3  502    0 -0.94021928928E+03 -0.10099413588E+04  0.74951694420E+03  0.15702768895E+04  0.50400001928E-02 0.  1.
       -1    1    3    3    0  502  0.94021928928E+03  0.10099413588E+04  0.21414853199E+03  0.13963715315E+04  0.50400001928E-02 0. -1.
</event>
<event>
 5   0  0.2267565E-06  0.2818911E+04  0.7818609E-02  0.8297421E-01
       -1   -1    0    0    0  501  0.00000000000E+00  0.00000000000E+00  0.11822876419E+04  0.11822876419E+04  0.50400001928E-02 0. -1.
        1   -1    0    0  501    0  0.00000000000E+00  0.00000000000E+00 -0.16802721755E+04  0.16802721755E+04  0.50400001928E-02 0.  1.
    10030    2    1    2    0    0  0.00000000000E+00  0.00000000000E+00 -0.49798453358E+03  0.28625598174E+04  0.28189111572E+04 0.  0.
        4    1    3    3  502    0  0.43164119630E+03 -0.12915884952E+04  0.12001918067E+03  0.13670849205E+04  0.12699999809E+01 0. -1.
       -4    1    3    3    0  502 -0.43164119630E+03  0.12915884952E+04 -0.61800371425E+03  0.14954748968E+04  0.12699999809E+01 0.  1.
</event>
<event>
 5   0  0.2234068E-06  0.2869385E+04  0.7818609E-02  0.8282045E-01
       -1   -1    0    0    0  501  0.00000000000E+00  0.00000000000E+00  0.91349043769E+03  0.91349043771E+03  0.50400001928E-02 0. -1.
        1   -1    0    0  501    0  0.00000000000E+00  0.00000000000E+00 -0.22532720431E+04  0.22532720431E+04  0.50400001928E-02 0.  1.
    10030    2    1    2    0    0  0.00000000000E+00  0.00000000000E+00 -0.13397816054E+04  0.31667624808E+04  0.28693849271E+04 0.  0.
        3    1    3    3  502    0  0.23639199851E+03 -0.12991592554E+04 -0.50823116486E+02  0.13214684814E+04  0.10100000352E+00 0. -1.
       -3    1    3    3    0  502 -0.23639199851E+03  0.12991592554E+04 -0.12889584889E+04  0.18452939994E+04  0.10100000352E+00 0.  1.
</event>
<event>
 5   0  0.5866136E-06  0.2800166E+04  0.7818609E-02  0.8303217E-01
        2   -1    0    0  501    0  0.00000000000E+00  0.00000000000E+00  0.17238086402E+04  0.17238086402E+04  0.25500000920E-02 0.  1.
       -2   -1    0    0    0  501  0.00000000000E+00  0.00000000000E+00 -0.11371515931E+04  0.11371515931E+04  0.25500000920E-02 0. -1.
    10030    2    1    2    0    0  0.00000000000E+00  0.00000000000E+00  0.58665704710E+03  0.28609602333E+04  0.28001655247E+04 0.  0.
        5    1    3    3  502    0  0.12480662337E+04 -0.12122338446E+03 -0.34296475842E+03  0.13000043647E+04  0.46999998093E+01 0.  1.
       -5    1    3    3    0  502 -0.12480662337E+04  0.12122338446E+03  0.92962180552E+03  0.15609558687E+04  0.46999998093E+01 0. -1.
</event>
<event>
 5   0  0.5866136E-06  0.2790900E+04  0.7818609E-02  0.8306099E-01
        2   -1    0    0  501    0  0.00000000000E+00  0.00000000000E+00  0.13920614189E+04  0.13920614189E+04  0.25500000920E-02 0. -1.
       -2   -1    0    0    0  501  0.00000000000E+00  0.00000000000E+00 -0.13988469038E+04  0.13988469038E+04  0.25500000920E-02 0.  1.
    10030    2    1    2    0    0  0.00000000000E+00  0.00000000000E+00 -0.67854849773E+01  0.27909083227E+04  0.27909000740E+04 0.  0.
        5    1    3    3  502    0  0.10656302481E+04 -0.83376037646E+03 -0.34476528602E+03  0.13962841342E+04  0.46999998093E+01 0.  1.
       -5    1    3    3    0  502 -0.10656302481E+04  0.83376037646E+03  0.33797980105E+03  0.13946241884E+04  0.46999998093E+01 0. -1.
</event>
<event>
 5   0  0.5916603E-06  0.2809303E+04  0.7818609E-02  0.8300386E-01
       -2   -1    0    0    0  501  0.00000000000E+00  0.00000000000E+00  0.13809385978E+04  0.13809385978E+04  0.25500000920E-02 0. -1.
        2   -1    0    0  501    0  0.00000000000E+00  0.00000000000E+00 -0.14287718578E+04  0.14287718578E+04  0.25500000920E-02 0.  1.
    10030    2    1    2    0    0  0.00000000000E+00  0.00000000000E+00 -0.47833260020E+02  0.28097104556E+04  0.28093032630E+04 0.  0.
        2    1    3    3  502    0 -0.93207732938E+03 -0.41980087751E+03 -0.98740733078E+03  0.14212579504E+04  0.25500000920E-02 0.  1.
       -2    1    3    3    0  502  0.93207732938E+03  0.41980087751E+03  0.93957407076E+03  0.13884525052E+04  0.25500000920E-02 0. -1.
</event>
<event>
 5   0  0.5546570E-06  0.2723471E+04  0.7818609E-02  0.8327429E-01
        2   -1    0    0  501    0  0.00000000000E+00  0.00000000000E+00  0.14806731759E+04  0.14806731759E+04  0.25500000920E-02 0.  1.
       -2   -1    0    0    0  501  0.00000000000E+00  0.00000000000E+00 -0.12523520019E+04  0.12523520019E+04  0.25500000920E-02 0. -1.
    10030    2    1    2    0    0  0.00000000000E+00  0.00000000000E+00  0.22832117405E+03  0.27330251778E+04  0.27234713261E+04 0.  0.
        4    1    3    3  502    0  0.30794125174E+03  0.12001090246E+04 -0.45282844654E+03  0.13191454432E+04  0.12699999809E+01 0. -1.
       -4    1    3    3    0  502 -0.30794125174E+03 -0.12001090246E+04  0.68114962059E+03  0.14138797346E+04  0.12699999809E+01 0.  1.
</event>
<event>
 5   0  0.2277133E-06  0.2786553E+04  0.7818609E-02  0.8307455E-01
        1   -1    0    0  501    0  0.00000000000E+00  0.00000000000E+00  0.13876685242E+04  0.13876685243E+04  0.50400001928E-02 0. -1.
       -1   -1    0    0    0  501  0.00000000000E+00  0.00000000000E+00 -0.13989066928E+04  0.13989066928E+04  0.50400001928E-02 0.  1.
    10030    2    1    2    0    0  0.00000000000E+00  0.00000000000E+00 -0.11238168591E+02  0.27865752171E+04  0.27865525554E+04 0.  0.
        1    1    3    3  502    0 -0.70084264522E+03 -0.11901974376E+04 -0.18856436750E+03  0.13940254210E+04  0.50400001928E-02 0.  1.
       -1    1    3    3    0  502  0.70084264522E+03  0.11901974376E+04  0.17732619891E+03  0.13925497961E+04  0.50400001928E-02 0. -1.
</event>
<event>
 5   0  0.2277133E-06  0.2804108E+04  0.7818609E-02  0.8301994E-01
        1   -1    0    0  501    0  0.00000000000E+00  0.00000000000E+00  0.13090164131E+04  0.13090164131E+04  0.50400001928E-02 0.  1.
       -1   -1    0    0    0  501  0.00000000000E+00  0.00000000000E+00 -0.15017042583E+04  0.15017042583E+04  0.50400001928E-02 0. -1.
    10030    2    1    2    0    0  0.00000000000E+00  0.00000000000E+00 -0.19268784525E+03  0.28107206714E+04  0.28041080734E+04 0.  0.
        1    1    3    3  502    0 -0.65488468900E+03  0.13154375674E+03 -0.13319624476E+04  0.14900676756E+04  0.50400001928E-02 0. -1.
       -1    1    3    3    0  502  0.65488468900E+03 -0.13154375674E+03  0.11392746024E+04  0.13206529959E+04  0.50400001928E-02 0.  1.
</event>
<event>
 5   0  0.2206967E-06  0.2855275E+04  0.7818609E-02  0.8286310E-01
        1   -1    0    0  501    0  0.00000000000E+00  0.00000000000E+00  0.15392748530E+04  0.15392748530E+04  0.50400001928E-02 0. -1.
       -1   -1    0    0    0  501  0.00000000000E+00  0.00000000000E+00 -0.13240966653E+04  0.13240966653E+04  0.50400001928E-02 0.  1.
    10030    2    1    2    0    0  0.00000000000E+00  0.00000000000E+00  0.21517818768E+03  0.28633715183E+04  0.28552749078E+04 0.  0.
        5    1    3    3  502    0 -0.73024593330E+03 -0.11709402551E+04 -0.25918892534E+03  0.14041229267E+04  0.46999998093E+01 0.  1.
       -5    1    3    3    0  502  0.73024593330E+03  0.11709402551E+04  0.47436711303E+03  0.14592485916E+04  0.46999998093E+01 0. -1.
</event>
<event>
 5   0  0.5584205E-06  0.2879347E+04  0.7818609E-02  0.8279049E-01
       -2   -1    0    0    0  501  0.00000000000E+00  0.00000000000E+00  0.13519907937E+04  0.13519907937E+04  0.25500000920E-02 0. -1.
        2   -1    0    0  501    0  0.00000000000E+00  0.00000000000E+00 -0.15330424991E+04  0.15330424991E+04  0.25500000920E-02 0.  1.
    10030    2    1    2    0    0  0.00000000000E+00  0.00000000000E+00 -0.18105170545E+03  0.28850332928E+04  0.28793466933E+04 0.  0.
        1    1    3    3  502    0 -0.63545367036E+02  0.83502815415E+03 -0.12638848714E+04  0.15161513777E+04  0.50400001928E-02 0.  1.
       -1    1    3    3    0  502  0.63545367036E+02 -0.83502815415E+03  0.10828331660E+04  0.13688819150E+04  0.50400001928E-02 0. -1.
</event>
<event>
 5   0  0.5546570E-06  0.2784917E+04  0.7818609E-02  0.8307966E-01
        2   -1    0    0  501    0  0.00000000000E+00  0.00000000000E+00  0.19160209665E+04  0.19160209665E+04  0.25500000920E-02 0. -1.
       -2   -1    0    0    0  501  0.00000000000E+00  0.00000000000E+00 -0.10119623760E+04  0.10119623760E+04  0.25500000920E-02 0.  1.
    10030    2    1    2    0    0  0.00000000000E+00  0.00000000000E+00  0.90405859051E+03  0.29279833425E+04  0.27849173272E+04 0.  0.
        4    1    3    3  502    0  0.12330599746E+04 -0.30029969099E+03  0.10544595261E+04  0.16500010032E+04  0.12699999809E+01 0.  1.
       -4    1    3    3    0  502 -0.12330599746E+04  0.30029969099E+03 -0.15040093558E+03  0.12779823394E+04  0.12699999809E+01 0. -1.
</event>
<event>
 5   0  0.2267565E-06  0.2808572E+04  0.7818609E-02  0.8300612E-01
        1   -1    0    0  501    0  0.00000000000E+00  0.00000000000E+00  0.14517702066E+04  0.14517702066E+04  0.50400001928E-02 0.  1.
       -1   -1    0    0    0  501  0.00000000000E+00  0.00000000000E+00 -0.13583545177E+04  0.13583545177E+04  0.50400001928E-02 0. -1.
    10030    2    1    2    0    0  0.00000000000E+00  0.00000000000E+00  0.93415688956E+02  0.28101247243E+04  0.28085716076E+04 0.  0.
        4    1    3    3  502    0 -0.71241641663E+02 -0.13854618012E+04 -0.17121349696E+03  0.13978181028E+04  0.12699999809E+01 0. -1.
       -4    1    3    3    0  502  0.71241641663E+02  0.13854618012E+04  0.26462918591E+03  0.14123066215E+04  0.12699999809E+01 0.  1.
</event>
<event>
 5   0  0.2206967E-06  0.2825888E+04  0.7818609E-02  0.8295276E-01
        1   -1    0    0  501    0  0.00000000000E+00  0.00000000000E+00  0.29569849824E+04  0.29569849824E+04  0.50400001928E-02 0.  1.
       -1   -1    0    0    0  501  0.00000000000E+00  0.00000000000E+00 -0.67515085385E+03  0.67515085387E+03  0.50400001928E-02 0. -1.
    10030    2    1    2    0    0  0.00000000000E+00  0.00000000000E+00  0.22818341285E+04  0.36321358362E+04  0.28258881335E+04 0.  0.
        5    1    3    3  502    0  0.25940540934E+03  0.12323136709E+04  0.31741618889E+03  0.12987160109E+04  0.46999998093E+01 0. -1.
       -5    1    3    3    0  502 -0.25940540934E+03 -0.12323136709E+04  0.19644179396E+04  0.23334198254E+04  0.46999998093E+01 0.  1.
</event>
<event>
 5   0  0.5584205E-06  0.2795089E+04  0.7818609E-02  0.8304795E-01
       -2   -1    0    0    0  501  0.00000000000E+00  0.00000000000E+00  0.13360511689E+04  0.13360511689E+04  0.25500000920E-02 0.  1.
        2   -1    0    0  501    0  0.00000000000E+00  0.00000000000E+00 -0.14618685832E+04  0.14618685832E+04  0.25500000920E-02 0. -1.
    10030    2    1    2    0    0  0.00000000000E+00  0.00000000000E+00 -0.12581741426E+03  0.27979197521E+04  0.27950894292E+04 0.  0.
        1    1    3    3  502    0  0.56965213464E+03 -0.32133732244E+03 -0.12992180374E+04  0.14545544809E+04  0.50400001928E-02 0. -1.
       -1    1    3    3    0  502 -0.56965213464E+03  0.32133732244E+03  0.11734006231E+04  0.13433652711E+04  0.50400001928E-02 0.  1.
</event>
<event>
 5   0  0.2234068E-06  0.2820942E+04  0.7818609E-02  0.8296796E-01
       -1   -1    0    0    0  501  0.00000000000E+00  0.00000000000E+00  0.16410835573E+04  0.16410835573E+04  0.50400001928E-02 0.  1.
        1   -1    0    0  501    0  0.00000000000E+00  0.00000000000E+00 -0.12122647496E+04  0.12122647496E+04  0.50400001928E-02 0. -1.
    10030    2    1    2    0    0  0.00000000000E+00  0.00000000000E+00  0.42881880772E+03  0.28533483069E+04  0.28209415078E+04 0.  0.
        3    1    3    3  502    0  0.43377808244E+03  0.64440754371E+03  0.14052203801E+04  0.16056365822E+04  0.10100000352E+00 0.  1.
       -3    1    3    3    0  502 -0.43377808244E+03 -0.64440754371E+03 -0.97640157240E+03  0.12477117247E+04  0.10100000352E+00 0. -1.
</event>
<event>
 5   0  0.5916603E-06  0.2814549E+04  0.7818609E-02  0.8298766E-01
        2   -1    0    0  501    0  0.00000000000E+00  0.00000000000E+00  0.90058709133E+03  0.90058709133E+03  0.25500000920E-02 0.  1.
       -2   -1    0    0    0  501  0.00000000000E+00  0.00000000000E+00 -0.21990342537E+04  0.21990342537E+04  0.25500000920E-02 0. -1.
    10030    2    1    2    0    0  0.00000000000E+00  0.00000000000E+00 -0.12984471624E+04  0.30996213451E+04  0.28145492444E+04 0.  0.
        2    1    3    3  502    0 -0.46574960818E+03 -0.56401236872E+02 -0.21103754716E+04  0.21618946385E+04  0.25500000920E-02 0. -1.
       -2    1    3    3    0  502  0.46574960818E+03  0.56401236872E+02  0.81192830914E+03  0.93772670657E+03  0.25500000920E-02 0.  1.
</event>
<event>
 5   0  0.5916603E-06  0.2693203E+04  0.7818609E-02  0.8337214E-01
        2   -1    0    0  501    0  0.00000000000E+00  0.00000000000E+00  0.21147868402E+04  0.21147868402E+04  0.25500000920E-02 0.  1.
       -2   -1    0    0    0  501  0.00000000000E+00  0.00000000000E+00 -0.85745528631E+03  0.85745528631E+03  0.25500000920E-02 0. -1.
    10030    2    1    2    0    0  0.00000000000E+00  0.00000000000E+00  0.12573315539E+04  0.29722421265E+04  0.26932026701E+04 0.  0.
        2    1    3    3  502    0 -0.50910348180E+03 -0.43652156831E+03 -0.66005337358E+03  0.94096115263E+03  0.25500000920E-02 0. -1.
       -2    1    3    3    0  502  0.50910348180E+03  0.43652156831E+03  0.19173849275E+04  0.20312809739E+04  0.25500000920E-02 0.  1.
</event>
<event>
 5   0  0.5546570E-06  0.2781823E+04  0.7818609E-02  0.8308934E-01
        2   -1    0    0  501    0  0.00000000000E+00  0.00000000000E+00  0.15517295686E+04  0.15517295686E+04  0.25500000920E-02 0. -1.
       -2   -1    0    0    0  501  0.00000000000E+00  0.00000000000E+00 -0.12467606954E+04  0.12467606954E+04  0.25500000920E-02 0.  1.
    10030    2    1    2    0    0  0.00000000000E+00  0.00000000000E+00  0.30496887318E+03  0.27984902640E+04  0.27818234567E+04 0.  0.
        4    1    3    3  502    0  0.24479212908E+03  0.10429109139E+04 -0.73998776345E+03  0.13019868908E+04  0.12699999809E+01 0.  1.
       -4    1    3    3    0  502 -0.24479212908E+03 -0.10429109139E+04  0.10449566366E+04  0.14965033733E+04  0.12699999809E+01 0. -1.
</event>
<event>
 5   0  0.5625245E-06  0.2718273E+04  0.7818609E-02  0.8329100E-01
       -2   -1    0    0    0  501  0.00000000000E+00  0.00000000000E+00  0.19781494804E+04  0.19781494804E+04  0.25500000920E-02 0. -1.
        2   -1    0    0  501    0  0.00000000000E+00  0.00000000000E+00 -0.93382810928E+03  0.93382810929E+03  0.25500000920E-02 0.  1.
    10030    2    1    2    0    0  0.00000000000E+00  0.00000000000E+00  0.10443213712E+04  0.29119775897E+04  0.27182726789E+04 0.  0.
        3    1    3    3  502    0  0.87077217540E+03  0.22941977574E+03 -0.56840858266E+03  0.10648783696E+04  0.10100000352E+00 0.  1.
       -3    1    3    3    0  502 -0.87077217540E+03 -0.22941977574E+03  0.16127299538E+04  0.18470992201E+04  0.10100000352E+00 0. -1.
</event>
<event>
 5   0  0.5584205E-06  0.2803118E+04  0.7818609E-02  0.8302301E-01
       -2   -1    0    0    0  501  0.00000000000E+00  0.00000000000E+00  0.10576583776E+04  0.10576583776E+04  0.25500000920E-02 0. -1.
        2   -1    0    0  501    0  0.00000000000E+00  0.00000000000E+00 -0.18572795698E+04  0.18572795698E+04  0.25500000920E-02 0.  1.
    10030    2    1    2    0    0  0.00000000000E+00  0.00000000000E+00 -0.79962119223E+03  0.29149379474E+04  0.28031177617E+04 0.  0.
        1    1    3    3  502    0 -0.65751703905E+03 -0.72893967357E+03 -0.14400583678E+04  0.17428281060E+04  0.50400001928E-02 0.  1.
       -1    1    3    3    0  502  0.65751703905E+03  0.72893967357E+03  0.64043717558E+03  0.11721098414E+04  0.50400001928E-02 0. -1.
</event>
<event>
 5   0  0.5866136E-06  0.2809581E+04  0.7818609E-02  0.8300300E-01
        2   -1    0    0  501    0  0.00000000000E+00  0.00000000000E+00  0.23368309274E+04  0.23368309274E+04  0.25500000920E-02 0.  1.
       -2   -1    0    0    0  501  0.00000000000E+00  0.00000000000E+00 -0.84449254299E+03  0.84449254299E+03  0.25500000920E-02 0. -1.
    10030    2    1    2    0    0  0.00000000000E+00  0.00000000000E+00  0.14923383844E+04  0.31813234704E+04  0.28095809598E+04 0.  0.
        5    1    3    3  502    0 -0.50679694244E+03  0.11628756847E+04  0.62744571137E+02  0.12700716398E+04  0.46999998093E+01 0. -1.
       -5    1    3    3    0  502  0.50679694244E+03 -0.11628756847E+04  0.14295938133E+04  0.19112518306E+04  0.46999998093E+01 0.  1.
</event>
<event>
 5   0  0.2267565E-06  0.2775335E+04  0.7818609E-02  0.8310967E-01
        1   -1    0    0  501    0  0.00000000000E+00  0.00000000000E+00  0.15194367692E+04  0.15194367692E+04  0.50400001928E-02 0. -1.
       -1   -1    0    0    0  501  0.00000000000E+00  0.00000000000E+00 -0.12673256085E+04  0.12673256085E+04  0.50400001928E-02 0.  1.
    10030    2    1    2    0    0  0.00000000000E+00  0.00000000000E+00  0.25211116072E+03  0.27867623777E+04  0.27753350270E+04 0.  0.
        4    1    3    3  502    0  0.16934476907E+02 -0.12725991762E+04 -0.42923506551E+03  0.13431454851E+04  0.12699999809E+01 0.  1.
       -4    1    3    3    0  502 -0.16934476907E+02  0.12725991762E+04  0.68134622623E+03  0.14436168926E+04  0.12699999809E+01 0. -1.
</event>
<event>
 5   0  0.2206967E-06  0.2791020E+04  0.7818609E-02  0.8306062E-01
       -1   -1    0    0    0  501  0.00000000000E+00  0.00000000000E+00  0.98033252441E+03  0.98033252442E+03  0.50400001928E-02 0. -1.
        1   -1    0    0  501    0  0.00000000000E+00  0.00000000000E+00 -0.19865173344E+04  0.19865173344E+04  0.50400001928E-02 0.  1.
    10030    2    1    2    0    0  0.00000000000E+00  0.00000000000E+00 -0.10061848100E+04  0.29668498588E+04  0.27910195651E+04 0.  0.
        5    1    3    3  502    0  0.23613370726E+03 -0.26403986869E+03 -0.19379236645E+04  0.19700371568E+04  0.46999998093E+01 0.  1.
       -5    1    3    3    0  502 -0.23613370726E+03  0.26403986869E+03  0.93173885447E+03  0.99681270201E+03  0.46999998093E+01 0. -1.
</event>
<event>
 5   0  0.5546570E-06  0.2805442E+04  0.7818609E-02  0.8301581E-01
        2   -1    0    0  501    0  0.00000000000E+00  0.00000000000E+00  0.22667753056E+04  0.22667753056E+04  0.25500000920E-02 0. -1.
       -2   -1    0    0    0  501  0.00000000000E+00  0.00000000000E+00 -0.86802867113E+03  0.86802867113E+03  0.25500000920E-02 0.  1.
    10030    2    1    2    0    0  0.00000000000E+00  0.00000000000E+00  0.13987466345E+04  0.31348039767E+04  0.28054418235E+04 0.  0.
        4    1    3    3  502    0 -0.91541665678E+03  0.94803798131E+03  0.12362618169E+04  0.18069611403E+04  0.12699999809E+01 0. -1.
       -4    1    3    3    0  502  0.91541665678E+03 -0.94803798131E+03  0.16248481752E+03  0.13278428365E+04  0.12699999809E+01 0.  1.
</event>
<event>
 5   0  0.5916603E-06  0.2612636E+04  0.7818609E-02  0.8363922E-01
        2   -1    0    0  501    0  0.00000000000E+00  0.00000000000E+00  0.15294363622E+04  0.15294363622E+04  0.25500000920E-02 0.  1.
       -2   -1    0    0    0  501  0.00000000000E+00  0.00000000000E+00 -0.11157485902E+04  0.11157485902E+04  0.25500000920E-02 0. -1.
    10030    2    1    2    0    0  0.00000000000E+00  0.00000000000E+00  0.41368777200E+03  0.26451849523E+04  0.26126358069E+04 0.  0.
        2    1    3    3  502    0 -0.11527814230E+04 -0.10619317407E+00 -0.41527156569E+03  0.12252981244E+04  0.25500000920E-02 0. -1.
       -2    1    3    3    0  502  0.11527814230E+04  0.10619317407E+00  0.82895933769E+03  0.14198868279E+04  0.25500000920E-02 0.  1.
</event>
<event>
 5   0  0.2206967E-06  0.2775882E+04  0.7818609E-02  0.8310795E-01
        1   -1    0    0  501    0  0.00000000000E+00  0.00000000000E+00  0.14202059934E+04  0.14202059934E+04  0.50400001928E-02 0.  1.
       -1   -1    0    0    0  501  0.00000000000E+00  0.00000000000E+00 -0.13564088068E+04  0.13564088068E+04  0.50400001928E-02 0. -1.
    10030    2    1    2    0    0  0.00000000000E+00  0.00000000000E+00  0.63797186600E+02  0.27766148003E+04  0.27758817821E+04 0.  0.
        5    1    3    3  502    0 -0.19919209248E+03  0.18687600550E+03 -0.13292537863E+04  0.13570327371E+04  0.46999998093E+01 0. -1.
       -5    1    3    3    0  502  0.19919209248E+03 -0.18687600550E+03  0.13930509729E+04  0.14195820632E+04  0.46999998093E+01 0.  1.
</event>
<event>
 5   0  0.2267565E-06  0.2778312E+04  0.7818609E-02  0.8310034E-01
        1   -1    0    0  501    0  0.00000000000E+00  0.00000000000E+00  0.11670921325E+04  0.11670921325E+04  0.50400001928E-02 0. -1.
       -1   -1    0    0    0  501  0.00000000000E+00  0.00000000000E+00 -0.16534717488E+04  0.16534717488E+04  0.50400001928E-02 0.  1.
    10030    2    1    2    0    0  0.00000000000E+00  0.00000000000E+00 -0.48637961630E+03  0.28205638812E+04  0.27783116235E+04 0.  0.
        4    1    3    3  502    0 -0.11528988065E+03  0.85275686384E+03  0.86392976289E+03  0.12193696214E+04  0.12699999809E+01 0. -1.
       -4    1    3    3    0  502  0.11528988065E+03 -0.85275686384E+03 -0.13503093792E+04  0.16011942599E+04  0.12699999809E+01 0.  1.
</event>
<event>
 5   0  0.5866136E-06  0.2800027E+04  0.7818609E-02  0.8303260E-01
       -2   -1    0    0    0  501  0.00000000000E+00  0.00000000000E+00  0.15011019685E+04  0.15011019686E+04  0.25500000920E-02 0.  1.
        2   -1    0    0  501    0  0.00000000000E+00  0.00000000000E+00 -0.13057325783E+04  0.13057325783E+04  0.25500000920E-02 0. -1.
    10030    2    1    2    0    0  0.00000000000E+00  0.00000000000E+00  0.19536939024E+03  0.28068345469E+04  0.28000269597E+04 0.  0.
        5    1    3    3  502    0 -0.96838666227E+02  0.79332844892E+03 -0.10545741274E+04  0.13232144329E+04  0.46999998093E+01 0. -1.
       -5    1    3    3    0  502  0.96838666227E+02 -0.79332844892E+03  0.12499435177E+04  0.14836201140E+04  0.46999998093E+01 0.  1.
</event>
<event>
 5   0  0.2190865E-06  0.2760594E+04  0.7818609E-02  0.8315608E-01
       -1   -1    0    0    0  501  0.00000000000E+00  0.00000000000E+00  0.10476765475E+04  0.10476765475E+04  0.50400001928E-02 0. -1.
        1   -1    0    0  501    0  0.00000000000E+00  0.00000000000E+00 -0.18185188988E+04  0.18185188989E+04  0.50400001928E-02 0.  1.
    10030    2    1    2    0    0  0.00000000000E+00  0.00000000000E+00 -0.77084235140E+03  0.28661954463E+04  0.27605938502E+04 0.  0.
        2    1    3    3  502    0  0.76866320368E+03  0.82459070768E+03  0.44155689418E+03  0.12106880055E+04  0.25500000920E-02 0.  1.
       -2    1    3    3    0  502 -0.76866320368E+03 -0.82459070768E+03 -0.12123992456E+04  0.16555074408E+04  0.25500000920E-02 0. -1.
</event>
<event>
 5   0  0.2234068E-06  0.2805109E+04  0.7818609E-02  0.8301684E-01
        1   -1    0    0  501    0  0.00000000000E+00  0.00000000000E+00  0.18857470254E+04  0.18857470255E+04  0.50400001928E-02 0. -1.
       -1   -1    0    0    0  501  0.00000000000E+00  0.00000000000E+00 -0.10431726449E+04  0.10431726449E+04  0.50400001928E-02 0.  1.
    10030    2    1    2    0    0  0.00000000000E+00  0.00000000000E+00  0.84257438058E+03  0.29289196703E+04  0.28051094183E+04 0.  0.
        3    1    3    3  502    0 -0.79985618471E+03 -0.53900306547E+03 -0.64192234421E+03  0.11586019709E+04  0.10100000352E+00 0.  1.
       -3    1    3    3    0  502  0.79985618471E+03  0.53900306547E+03  0.14844967248E+04  0.17703176994E+04  0.10100000352E+00 0. -1.
</event>
<event>
 5   0  0.2277133E-06  0.2807453E+04  0.7818609E-02  0.8300958E-01
       -1   -1    0    0    0  501  0.00000000000E+00  0.00000000000E+00  0.14524820448E+04  0.14524820448E+04  0.50400001928E-02 0. -1.
        1   -1    0    0  501    0  0.00000000000E+00  0.00000000000E+00 -0.13566078438E+04  0.13566078438E+04  0.50400001928E-02 0.  1.
    10030    2    1    2    0    0  0.00000000000E+00  0.00000000000E+00  0.95874200942E+02  0.28090898886E+04  0.28074533193E+04 0.  0.
        1    1    3    3  502    0  0.11581290094E+03 -0.47042744102E+03 -0.12703034571E+04  0.13595534114E+04  0.50400001928E-02 0.  1.
       -1    1    3    3    0  502 -0.11581290094E+03  0.47042744102E+03  0.13661776581E+04  0.14495364772E+04  0.50400001928E-02 0. -1.
</event>
<event>
 5   0  0.5584205E-06  0.2802072E+04  0.7818609E-02  0.8302625E-01
        2   -1    0    0  501    0  0.00000000000E+00  0.00000000000E+00  0.10646206015E+04  0.10646206015E+04  0.25500000920E-02 0.  1.
       -2   -1    0    0    0  501  0.00000000000E+00  0.00000000000E+00 -0.18437576844E+04  0.18437576844E+04  0.25500000920E-02 0. -1.
    10030    2    1    2    0    0  0.00000000000E+00  0.00000000000E+00 -0.77913708287E+03  0.29083782859E+04  0.28020723866E+04 0.  0.
        1    1    3    3  502    0  0.63451148262E+03 -0.11869492671E+04 -0.79349731625E+03  0.15623992368E+04  0.50400001928E-02 0. -1.
       -1    1    3    3    0  502 -0.63451148262E+03  0.11869492671E+04  0.14360233374E+02  0.13459790491E+04  0.50400001928E-02 0.  1.
</event>
<event>
 5   0  0.5625245E-06  0.2801608E+04  0.7818609E-02  0.8302769E-01
        2   -1    0    0  501    0  0.00000000000E+00  0.00000000000E+00  0.14522786869E+04  0.14522786869E+04  0.25500000920E-02 0. -1.
       -2   -1    0    0    0  501  0.00000000000E+00  0.00000000000E+00 -0.13511534029E+04  0.13511534029E+04  0.25500000920E-02 0.  1.
    10030    2    1    2    0    0  0.00000000000E+00  0.00000000000E+00  0.10112528403E+03  0.28034320897E+04  0.28016076026E+04 0.  0.
        3    1    3    3  502    0  0.90715945362E+03  0.93771135804E+03 -0.45968159063E+03  0.13833105364E+04  0.10100000352E+00 0.  1.
       -3    1    3    3    0  502 -0.90715945362E+03 -0.93771135804E+03  0.56080687466E+03  0.14201215533E+04  0.10100000352E+00 0. -1.
</event>
<event>
 5   0  0.5866136E-06  0.2809002E+04  0.7818609E-02  0.8300479E-01
       -2   -1    0    0    0  501  0.00000000000E+00  0.00000000000E+00  0.10349091010E+04  0.10349091010E+04  0.25500000920E-02 0.  1.
        2   -1    0    0  501    0  0.00000000000E+00  0.00000000000E+00 -0.19060827992E+04  0.19060827992E+04  0.25500000920E-02 0. -1.
    10030    2    1    2    0    0  0.00000000000E+00  0.00000000000E+00 -0.87117369818E+03  0.29409919002E+04  0.28090015566E+04 0.  0.
        5    1    3    3  502    0  0.74954132952E+03 -0.99900666674E+03  0.23707674208E+03  0.12712411244E+04  0.46999998093E+01 0. -1.
       -5    1    3    3    0  502 -0.74954132952E+03  0.99900666674E+03 -0.11082504403E+04  0.16697507758E+04  0.46999998093E+01 0.  1.
</event>
<event>
 5   0  0.5546570E-06  0.2790035E+04  0.7818609E-02  0.8306369E-01
        2   -1    0    0  501    0  0.00000000000E+00  0.00000000000E+00  0.12439249326E+04  0.12439249326E+04  0.25500000920E-02 0. -1.
       -2   -1    0    0    0  501  0.00000000000E+00  0.00000000000E+00 -0.15644618774E+04  0.15644618774E+04  0.25500000920E-02 0.  1.
    10030    2    1    2    0    0  0.00000000000E+00  0.00000000000E+00 -0.32053694481E+03  0.28083868100E+04  0.27900345055E+04 0.  0.
        4    1    3    3  502    0 -0.71722507527E+03 -0.83024795173E+03 -0.10275321085E+04  0.15031790701E+04  0.12699999809E+01 0.  1.
       -4    1    3    3    0  502  0.71722507527E+03  0.83024795173E+03  0.70699516370E+03  0.13052077399E+04  0.12699999809E+01 0. -1.
</event>
<event>
 5   0  0.5584205E-06  0.2792306E+04  0.7818609E-02  0.8305661E-01
       -2   -1    0    0    0  501  0.00000000000E+00  0.00000000000E+00  0.12875566319E+04  0.12875566319E+04  0.25500000920E-02 0. -1.
        2   -1    0    0  501    0  0.00000000000E+00  0.00000000000E+00 -0.15139086451E+04  0.15139086451E+04  0.25500000920E-02 0.  1.
    10030    2    1    2    0    0  0.00000000000E+00  0.00000000000E+00 -0.22635201320E+03  0.28014652771E+04  0.27923059404E+04 0.  0.
        1    1    3    3  502    0 -0.58856141606E+03 -0.56334988315E+03 -0.12506831772E+04  0.14926406269E+04  0.50400001928E-02 0.  1.
       -1    1    3    3    0  502  0.58856141606E+03  0.56334988315E+03  0.10243311640E+04  0.13088246502E+04  0.50400001928E-02 0. -1.
</event>
<event>
 5   0  0.2190865E-06  0.2804570E+04  0.7818609E-02  0.8301851E-01
        1   -1    0    0  501    0  0.00000000000E+00  0.00000000000E+00  0.15538083799E+04  0.15538083799E+04  0.50400001928E-02 0.  1.
       -1   -1    0    0    0  501  0.00000000000E+00  0.00000000000E+00 -0.12655379793E+04  0.12655379794E+04  0.50400001928E-02 0. -1.
    10030    2    1    2    0    0  0.00000000000E+00  0.00000000000E+00  0.28827040056E+03  0.28193463593E+04  0.28045702112E+04 0.  0.
        2    1    3    3  502    0 -0.17817314719E+03 -0.35432760953E+03 -0.12079827486E+04  0.12714228432E+04  0.25500000920E-02 0. -1.
       -2    1    3    3    0  502  0.17817314719E+03  0.35432760953E+03  0.14962531492E+04  0.15479235161E+04  0.25500000920E-02 0.  1.
</event>
<event>
 5   0  0.2234068E-06  0.2793361E+04  0.7818609E-02  0.8305332E-01
        1   -1    0    0  501    0  0.00000000000E+00  0.00000000000E+00  0.22363319156E+04  0.22363319156E+04  0.50400001928E-02 0. -1.
       -1   -1    0    0    0  501  0.00000000000E+00  0.00000000000E+00 -0.87228398603E+03  0.87228398605E+03  0.50400001928E-02 0.  1.
    10030    2    1    2    0    0  0.00000000000E+00  0.00000000000E+00  0.13640479295E+04  0.31086159016E+04  0.27933610704E+04 0.  0.
        3    1    3    3  502    0 -0.41496761501E+03 -0.11588438932E+04  0.14165099833E+04  0.18765974084E+04  0.10100000352E+00 0. -1.
       -3    1    3    3    0  502  0.41496761501E+03  0.11588438932E+04 -0.52462053754E+02  0.12320184932E+04  0.10100000352E+00 0.  1.
</event>
<event>
 5   0  0.5625245E-06  0.2562998E+04  0.7818609E-02  0.8380880E-01
       -2   -1    0    0    0  501  0.00000000000E+00  0.00000000000E+00  0.10428587407E+04  0.10428587407E+04  0.25500000920E-02 0.  1.
        2   -1    0    0  501    0  0.00000000000E+00  0.00000000000E+00 -0.15747483779E+04  0.15747483779E+04  0.25500000920E-02 0. -1.
    10030    2    1    2    0    0  0.00000000000E+00  0.00000000000E+00 -0.53188963717E+03  0.26176071185E+04  0.25629983303E+04 0.  0.
        3    1    3    3  502    0  0.40957216784E+03  0.96682200276E+03  0.48438263608E+03  0.11563393507E+04  0.10100000352E+00 0.  1.
       -3    1    3    3    0  502 -0.40957216784E+03 -0.96682200276E+03 -0.10162722732E+04  0.14612677678E+04  0.10100000352E+00 0. -1.
</event>
<event>
 5   0  0.5625245E-06  0.2815955E+04  0.7818609E-02  0.8298332E-01
        2   -1    0    0  501    0  0.00000000000E+00  0.00000000000E+00  0.12784876422E+04  0.12784876422E+04  0.25500000920E-02 0. -1.
       -2   -1    0    0    0  501  0.00000000000E+00  0.00000000000E+00 -0.15505830181E+04  0.15505830181E+04  0.25500000920E-02 0.  1.
    10030    2    1    2    0    0  0.00000000000E+00  0.00000000000E+00 -0.27209537589E+03  0.28290706603E+04  0.28159554164E+04 0.  0.
        3    1    3    3  502    0  0.95949247725E+03 -0.39420141024E+03  0.82042667335E+03  0.13225431949E+04  0.10100000352E+00 0. -1.
       -3    1    3    3    0  502 -0.95949247725E+03  0.39420141024E+03 -0.10925220492E+04  0.15065274654E+04  0.10100000352E+00 0.  1.
</event>
<event>
 5   0  0.2267565E-06  0.2790297E+04  0.7818609E-02  0.8306287E-01
        1   -1    0    0  501    0  0.00000000000E+00  0.00000000000E+00  0.84166077193E+03  0.84166077194E+03  0.50400001928E-02 0. -1.
       -1   -1    0    0    0  501  0.00000000000E+00  0.00000000000E+00 -0.23126167461E+04  0.23126167461E+04  0.50400001928E-02 0.  1.
    10030    2    1    2    0    0  0.00000000000E+00  0.00000000000E+00 -0.14709559742E+04  0.31542775180E+04  0.27902966120E+04 0.  0.
        4    1    3    3  502    0 -0.96183267172E+03 -0.90832428336E+03 -0.12362819297E+04  0.18106821131E+04  0.12699999809E+01 0.  1.
       -4    1    3    3    0  502  0.96183267172E+03  0.90832428336E+03 -0.23467404449E+03  0.13435954049E+04  0.12699999809E+01 0. -1.
</event>
<event>
 5   0  0.2277133E-06  0.2796011E+04  0.7818609E-02  0.8304508E-01
       -1   -1    0    0    0  501  0.00000000000E+00  0.00000000000E+00  0.98996592563E+03  0.98996592565E+03  0.50400001928E-02 0. -1.
        1   -1    0    0  501    0  0.00000000000E+00  0.00000000000E+00 -0.19742287755E+04  0.19742287755E+04  0.50400001928E-02 0.  1.
    10030    2    1    2    0    0  0.00000000000E+00  0.00000000000E+00 -0.98426284988E+03  0.29641947012E+04  0.27960108850E+04 0.  0.
        1    1    3    3  502    0  0.13641304313E+04 -0.30221548654E+03 -0.54223053850E+03  0.14987327950E+04  0.50400001928E-02 0. -1.
       -1    1    3    3    0  502 -0.13641304313E+04  0.30221548654E+03 -0.44203231138E+03  0.14654619061E+04  0.50400001928E-02 0.  1.
</event>
<event>
 5   0  0.5866136E-06  0.2815185E+04  0.7818609E-02  0.8298569E-01
       -2   -1    0    0    0  501  0.00000000000E+00  0.00000000000E+00  0.11097838892E+04  0.11097838892E+04  0.25500000920E-02 0.  1.
        2   -1    0    0  501    0  0.00000000000E+00  0.00000000000E+00 -0.17853177401E+04  0.17853177401E+04  0.25500000920E-02 0. -1.
    10030    2    1    2    0    0  0.00000000000E+00  0.00000000000E+00 -0.67553385092E+03  0.28951016292E+04  0.28151851555E+04 0.  0.
        5    1    3    3  502    0 -0.92248718263E+03 -0.83601756127E+03  0.33767852538E+03  0.12899445110E+04  0.46999998093E+01 0.  1.
       -5    1    3    3    0  502  0.92248718263E+03  0.83601756127E+03 -0.10132123763E+04  0.16051571183E+04  0.46999998093E+01 0. -1.
</event>
<event>
 5   0  0.2267565E-06  0.2799009E+04  0.7818609E-02  0.8303576E-01
        1   -1    0    0  501    0  0.00000000000E+00  0.00000000000E+00  0.22824261590E+04  0.22824261590E+04  0.50400001928E-02 0.  1.
       -1   -1    0    0    0  501  0.00000000000E+00  0.00000000000E+00 -0.85812739107E+03  0.85812739108E+03  0.50400001928E-02 0. -1.
    10030    2    1    2    0    0  0.00000000000E+00  0.00000000000E+00  0.14242987679E+04  0.31405535501E+04  0.27990086853E+04 0.  0.
        4    1    3    3  502    0  0.97244679436E+03 -0.10000542011E+04  0.58496110624E+03  0.15125945530E+04  0.12699999809E+01 0.  1.
       -4    1    3    3    0  502 -0.97244679436E+03  0.10000542011E+04  0.83933766169E+03  0.16279589971E+04  0.12699999809E+01 0. -1.
</event>
<event>
 5   0  0.2277133E-06  0.2829842E+04  0.7818609E-02  0.8294063E-01
        1   -1    0    0  501    0  0.00000000000E+00  0.00000000000E+00  0.13123651633E+04  0.13123651633E+04  0.50400001928E-02 0.  1.
       -1   -1    0    0    0  501  0.00000000000E+00  0.00000000000E+00 -0.15254911777E+04  0.15254911777E+04  0.50400001928E-02 0. -1.
    10030    2    1    2    0    0  0.00000000000E+00  0.00000000000E+00 -0.21312601442E+03  0.28378563410E+04  0.28298420299E+04 0.  0.
        1    1    3    3  502    0  0.31042649011E+03 -0.35650882710E+03  0.12308324035E+04  0.13184883598E+04  0.50400001928E-02 0.  1.
       -1    1    3    3    0  502 -0.31042649011E+03  0.35650882710E+03 -0.14439584179E+04  0.15193679812E+04  0.50400001928E-02 0. -1.
</event>
<event>
 5   0  0.5546570E-06  0.2783878E+04  0.7818609E-02  0.8308291E-01
        2   -1    0    0  501    0  0.00000000000E+00  0.00000000000E+00  0.25082956491E+04  0.25082956491E+04  0.25500000920E-02 0. -1.
       -2   -1    0    0    0  501  0.00000000000E+00  0.00000000000E+00 -0.77243437600E+03  0.77243437600E+03  0.25500000920E-02 0.  1.
    10030    2    1    2    0    0  0.00000000000E+00  0.00000000000E+00  0.17358612731E+04  0.32807300251E+04  0.27838777161E+04 0.  0.
        4    1    3    3  502    0 -0.19015101602E+03  0.18188573452E+03  0.24787176010E+04  0.24926456603E+04  0.12699999809E+01 0. -1.
       -4    1    3    3    0  502  0.19015101602E+03 -0.18188573452E+03 -0.74285632789E+03  0.78808436483E+03  0.12699999809E+01 0.  1.
</event>
<event>
 5   0  0.2234068E-06  0.2820234E+04  0.7818609E-02  0.8297014E-01
       -1   -1    0    0    0  501  0.00000000000E+00  0.00000000000E+00  0.19259801852E+04  0.19259801852E+04  0.50400001928E-02 0.  1.
        1   -1    0    0  501    0  0.00000000000E+00  0.00000000000E+00 -0.10324248269E+04  0.10324248270E+04  0.50400001928E-02 0. -1.
    10030    2    1    2    0    0  0.00000000000E+00  0.00000000000E+00  0.89355535830E+03  0.29584050122E+04  0.28202338623E+04 0.  0.
        3    1    3    3  502    0 -0.29961615002E+03 -0.92472799902E+03 -0.62480737881E+03  0.11555414230E+04  0.10100000352E+00 0. -1.
       -3    1    3    3    0  502  0.29961615002E+03  0.92472799902E+03  0.15183627371E+04  0.18028635892E+04  0.10100000352E+00 0.  1.
</event>
<event>
 5   0  0.2234068E-06  0.2809386E+04  0.7818609E-02  0.8300360E-01
       -1   -1    0    0    0  501  0.00000000000E+00  0.00000000000E+00  0.22621059784E+04  0.22621059784E+04  0.50400001928E-02 0. -1.
        1   -1    0    0  501    0  0.00000000000E+00  0.00000000000E+00 -0.87226782917E+03  0.87226782918E+03  0.50400001928E-02 0.  1.
    10030    2    1    2    0    0  0.00000000000E+00  0.00000000000E+00  0.13898381493E+04  0.31343738076E+04  0.28093858910E+04 0.  0.
        3    1    3    3  502    0  0.61788203177E+02 -0.71403676529E+03  0.20427668418E+04  0.21648470303E+04  0.10100000352E+00 0. -1.
       -3    1    3    3    0  502 -0.61788203177E+02  0.71403676529E+03 -0.65292869255E+03  0.96952677735E+03  0.10100000352E+00 0.  1.
</event>
<event>
 5   0  0.2277133E-06  0.2808188E+04  0.7818609E-02  0.8300731E-01
        1   -1    0    0  501    0  0.00000000000E+00  0.00000000000E+00  0.22113269589E+04  0.22113269589E+04  0.50400001928E-02 0. -1.
       -1   -1    0    0    0  501  0.00000000000E+00  0.00000000000E+00 -0.89153727719E+03  0.89153727720E+03  0.50400001928E-02 0.  1.
    10030    2    1    2    0    0  0.00000000000E+00  0.00000000000E+00  0.13197896817E+04  0.31028642361E+04  0.28081883241E+04 0.  0.
        1    1    3    3  502    0  0.16142777196E+03 -0.13852291340E+04  0.47981513324E+03  0.14748360049E+04  0.50400001928E-02 0.  1.
       -1    1    3    3    0  502 -0.16142777196E+03  0.13852291340E+04  0.83997454846E+03  0.16280282312E+04  0.50400001928E-02 0. -1.
</event>
<event>
 5   0  0.2206967E-06  0.2790681E+04  0.7818609E-02  0.8306167E-01
        1   -1    0    0  501    0  0.00000000000E+00  0.00000000000E+00  0.14930180103E+04  0.14930180103E+04  0.50400001928E-02 0.  1.
       -1   -1    0    0    0  501  0.00000000000E+00  0.00000000000E+00 -0.13040536210E+04  0.13040536210E+04  0.50400001928E-02 0. -1.
    10030    2    1    2    0    0  0.00000000000E+00  0.00000000000E+00  0.18896438933E+03  0.27970716313E+04  0.27906813093E+04 0.  0.
        5    1    3    3  502    0 -0.13504566073E+04 -0.29852806160E+03 -0.90606313277E+02  0.13860316179E+04  0.46999998093E+01 0. -1.
       -5    1    3    3    0  502  0.13504566073E+04  0.29852806160E+03  0.27957070260E+03  0.14110400134E+04  0.46999998093E+01 0.  1.
</event>
<event>
 5   0  0.2206967E-06  0.2806147E+04  0.7818609E-02  0.8301362E-01
        1   -1    0    0  501    0  0.00000000000E+00  0.00000000000E+00  0.12696036543E+04  0.12696036543E+04  0.50400001928E-02 0.  1.
       -1   -1    0    0    0  501  0.00000000000E+00  0.00000000000E+00 -0.15505747515E+04  0.15505747515E+04  0.50400001928E-02 0. -1.
    10030    2    1    2    0    0  0.00000000000E+00  0.00000000000E+00 -0.28097109726E+03  0.28201784058E+04  0.28061470886E+04 0.  0.
        5    1    3    3  502    0  0.36462658949E+03  0.99360238282E+03 -0.10661747781E+04  0.15023145451E+04  0.46999998093E+01 0. -1.
       -5    1    3    3    0  502 -0.36462658949E+03 -0.99360238282E+03  0.78520368086E+03  0.13178638607E+04  0.46999998093E+01 0.  1.
</event>
<event>
 5   0  0.2190865E-06  0.2803739E+04  0.7818609E-02  0.8302109E-01
        1   -1    0    0  501    0  0.00000000000E+00  0.00000000000E+00  0.20822394069E+04  0.20822394069E+04  0.50400001928E-02 0.  1.
       -1   -1    0    0    0  501  0.00000000000E+00  0.00000000000E+00 -0.94380970397E+03  0.94380970398E+03  0.50400001928E-02 0. -1.
    10030    2    1    2    0    0  0.00000000000E+00  0.00000000000E+00  0.11384297030E+04  0.30260491109E+04  0.28037387598E+04 0.  0.
        2    1    3    3  502    0  0.43034234125E+03  0.51211616162E+03 -0.76045210826E+03  0.10127906509E+04  0.25500000920E-02 0. -1.
       -2    1    3    3    0  502 -0.43034234125E+03 -0.51211616162E+03  0.18988818112E+04  0.20132584600E+04  0.25500000920E-02 0.  1.
</event>
<event>
 5   0  0.2190865E-06  0.2787509E+04  0.7818609E-02  0.8307157E-01
        1   -1    0    0  501    0  0.00000000000E+00  0.00000000000E+00  0.14051675409E+04  0.14051675409E+04  0.50400001928E-02 0.  1.
       -1   -1    0    0    0  501  0.00000000000E+00  0.00000000000E+00 -0.13824340642E+04  0.13824340642E+04  0.50400001928E-02 0. -1.
    10030    2    1    2    0    0  0.00000000000E+00  0.00000000000E+00  0.22733476638E+02  0.27876016051E+04  0.27875089055E+04 0.  0.
        2    1    3    3  502    0 -0.10131747662E+04 -0.95675312859E+03  0.36898326342E+02  0.13940090180E+04  0.25500000920E-02 0. -1.
       -2    1    3    3    0  502  0.10131747662E+04  0.95675312859E+03 -0.14164849704E+02  0.13935925871E+04  0.25500000920E-02 0.  1.
</event>
<event>
 5   0  0.2190865E-06  0.2771514E+04  0.7818609E-02  0.8312167E-01
       -1   -1    0    0    0  501  0.00000000000E+00  0.00000000000E+00  0.63079062244E+03  0.63079062246E+03  0.50400001928E-02 0. -1.
        1   -1    0    0  501    0  0.00000000000E+00  0.00000000000E+00 -0.30443098589E+04  0.30443098589E+04  0.50400001928E-02 0.  1.
    10030    2    1    2    0    0  0.00000000000E+00  0.00000000000E+00 -0.24135192365E+04  0.36751004814E+04  0.27715137459E+04 0.  0.
        2    1    3    3  502    0  0.43885884374E+03 -0.50547405932E+03  0.40217607056E+03  0.78092682187E+03  0.25500000920E-02 0. -1.
       -2    1    3    3    0  502 -0.43885884374E+03  0.50547405932E+03 -0.28156953070E+04  0.28941736595E+04  0.25500000920E-02 0.  1.
</event>
<event>
 5   0  0.5866136E-06  0.2797425E+04  0.7818609E-02  0.8304068E-01
       -2   -1    0    0    0  501  0.00000000000E+00  0.00000000000E+00  0.22138573171E+04  0.22138573171E+04  0.25500000920E-02 0.  1.
        2   -1    0    0  501    0  0.00000000000E+00  0.00000000000E+00 -0.88370496906E+03  0.88370496907E+03  0.25500000920E-02 0. -1.
    10030    2    1    2    0    0  0.00000000000E+00  0.00000000000E+00  0.13301523481E+04  0.30975622862E+04  0.27974250388E+04 0.  0.
        5    1    3    3  502    0  0.15074287925E+02 -0.51437144872E+03 -0.77506975273E+03  0.93035500375E+03  0.46999998093E+01 0. -1.
       -5    1    3    3    0  502 -0.15074287925E+02  0.51437144872E+03  0.21052221008E+04  0.21672072825E+04  0.46999998093E+01 0.  1.
</event>
<event>
 5   0  0.2277133E-06  0.2796638E+04  0.7818609E-02  0.8304313E-01
       -1   -1    0    0    0  501  0.00000000000E+00  0.00000000000E+00  0.19317751478E+04  0.19317751478E+04  0.50400001928E-02 0. -1.
        1   -1    0    0  501    0  0.00000000000E+00  0.00000000000E+00 -0.10121760599E+04  0.10121760600E+04  0.50400001928E-02 0.  1.
    10030    2    1    2    0    0  0.00000000000E+00  0.00000000000E+00  0.91959908788E+03  0.29439512078E+04  0.27966383805E+04 0.  0.
        1    1    3    3  502    0 -0.92627048159E+03 -0.89081511894E+03 -0.12038384235E+03  0.12907443011E+04  0.50400001928E-02 0.  1.
       -1    1    3    3    0  502  0.92627048159E+03  0.89081511894E+03  0.10399829302E+04  0.16532069067E+04  0.50400001928E-02 0. -1.
</event>
<event>
 5   0  0.5625245E-06  0.2690338E+04  0.7818609E-02  0.8338147E-01
        2   -1    0    0  501    0  0.00000000000E+00  0.00000000000E+00  0.29077902874E+04  0.29077902874E+04  0.25500000920E-02 0.  1.
       -2   -1    0    0    0  501  0.00000000000E+00  0.00000000000E+00 -0.62228699396E+03  0.62228699396E+03  0.25500000920E-02 0. -1.
    10030    2    1    2    0    0  0.00000000000E+00  0.00000000000E+00  0.22855032935E+04  0.35300772814E+04  0.26903383260E+04 0.  0.
        3    1    3    3  502    0 -0.20601268985E+03 -0.18900286369E+03  0.28692476636E+04  0.28828363596E+04  0.10100000352E+00 0.  1.
       -3    1    3    3    0  502  0.20601268985E+03  0.18900286369E+03 -0.58374437019E+03  0.64724092175E+03  0.10100000352E+00 0. -1.
</event>
<event>
 5   0  0.2267565E-06  0.2855358E+04  0.7818609E-02  0.8286285E-01
        1   -1    0    0  501    0  0.00000000000E+00  0.00000000000E+00  0.19611687696E+04  0.19611687696E+04  0.50400001928E-02 0. -1.
       -1   -1    0    0    0  501  0.00000000000E+00  0.00000000000E+00 -0.10393127457E+04  0.10393127457E+04  0.50400001928E-02 0.  1.
    10030    2    1    2    0    0  0.00000000000E+00  0.00000000000E+00  0.92185602387E+03  0.30004815153E+04  0.28553582603E+04 0.  0.
        4    1    3    3  502    0  0.10045396438E+04  0.12039856817E+03 -0.59757680599E+03  0.11750299414E+04  0.12699999809E+01 0.  1.
       -4    1    3    3    0  502 -0.10045396438E+04 -0.12039856817E+03  0.15194328299E+04  0.18254515739E+04  0.12699999809E+01 0. -1.
</event>
<event>
 5   0  0.5546570E-06  0.2788710E+04  0.7818609E-02  0.8306782E-01
        2   -1    0    0  501    0  0.00000000000E+00  0.00000000000E+00  0.18294885214E+04  0.18294885214E+04  0.25500000920E-02 0. -1.
       -2   -1    0    0    0  501  0.00000000000E+00  0.00000000000E+00 -0.10627153401E+04  0.10627153401E+04  0.25500000920E-02 0.  1.
    10030    2    1    2    0    0  0.00000000000E+00  0.00000000000E+00  0.76677318126E+03  0.28922038616E+04  0.27887097492E+04 0.  0.
        4    1    3    3  502    0  0.86704136219E+03  0.91238311545E+03 -0.23889798927E+03  0.12811235441E+04  0.12699999809E+01 0.  1.
       -4    1    3    3    0  502 -0.86704136219E+03 -0.91238311545E+03  0.10056711705E+04  0.16110803174E+04  0.12699999809E+01 0. -1.
</event>
<event>
 5   0  0.5584205E-06  0.2822648E+04  0.7818609E-02  0.8296271E-01
        2   -1    0    0  501    0  0.00000000000E+00  0.00000000000E+00  0.11198753071E+04  0.11198753071E+04  0.25500000920E-02 0.  1.
       -2   -1    0    0    0  501  0.00000000000E+00  0.00000000000E+00 -0.17786229411E+04  0.17786229411E+04  0.25500000920E-02 0. -1.
    10030    2    1    2    0    0  0.00000000000E+00  0.00000000000E+00 -0.65874763397E+03  0.28984982482E+04  0.28226483397E+04 0.  0.
        1    1    3    3  502    0 -0.72683836362E+02  0.11923414057E+03  0.11127639135E+04  0.11214915281E+04  0.50400001928E-02 0.  1.
       -1    1    3    3    0  502  0.72683836362E+02 -0.11923414057E+03 -0.17715115475E+04  0.17770067201E+04  0.50400001928E-02 0. -1.
</event>
<event>
 5   0  0.2234068E-06  0.2793701E+04  0.7818609E-02  0.8305227E-01
        1   -1    0    0  501    0  0.00000000000E+00  0.00000000000E+00  0.16499938113E+04  0.16499938113E+04  0.50400001928E-02 0.  1.
       -1   -1    0    0    0  501  0.00000000000E+00  0.00000000000E+00 -0.11825447451E+04  0.11825447451E+04  0.50400001928E-02 0. -1.
    10030    2    1    2    0    0  0.00000000000E+00  0.00000000000E+00  0.46744906617E+03  0.28325385564E+04  0.27937011373E+04 0.  0.
        3    1    3    3  502    0 -0.87119090011E+03 -0.99429351386E+03 -0.22376692079E+03  0.13407702343E+04  0.10100000352E+00 0. -1.
       -3    1    3    3    0  502  0.87119090011E+03  0.99429351386E+03  0.69121598696E+03  0.14917683222E+04  0.10100000352E+00 0.  1.
</event>
<event>
 5   0  0.5625245E-06  0.2794647E+04  0.7818609E-02  0.8304932E-01
       -2   -1    0    0    0  501  0.00000000000E+00  0.00000000000E+00  0.94124548099E+03  0.94124548099E+03  0.25500000920E-02 0. -1.
        2   -1    0    0  501    0  0.00000000000E+00  0.00000000000E+00 -0.20743923803E+04  0.20743923803E+04  0.25500000920E-02 0.  1.
    10030    2    1    2    0    0  0.00000000000E+00  0.00000000000E+00 -0.11331468993E+04  0.30156378613E+04  0.27946466351E+04 0.  0.
        3    1    3    3  502    0 -0.10159101756E+04  0.95667092325E+03 -0.64453405319E+03  0.15371131696E+04  0.10100000352E+00 0. -1.
       -3    1    3    3    0  502  0.10159101756E+04 -0.95667092325E+03 -0.48861284616E+03  0.14785246917E+04  0.10100000352E+00 0.  1.
</event>
<event>
 5   0  0.2267565E-06  0.2812585E+04  0.7818609E-02  0.8299372E-01
        1   -1    0    0  501    0  0.00000000000E+00  0.00000000000E+00  0.14423094021E+04  0.14423094021E+04  0.50400001928E-02 0. -1.
       -1   -1    0    0    0  501  0.00000000000E+00  0.00000000000E+00 -0.13711753532E+04  0.13711753532E+04  0.50400001928E-02 0.  1.
    10030    2    1    2    0    0  0.00000000000E+00  0.00000000000E+00  0.71134048909E+02  0.28134847553E+04  0.28125853615E+04 0.  0.
        4    1    3    3  502    0 -0.29451191103E+03 -0.10273270916E+04 -0.87879270424E+03  0.13836243886E+04  0.12699999809E+01 0.  1.
       -4    1    3    3    0  502  0.29451191103E+03  0.10273270916E+04  0.94992675315E+03  0.14298603667E+04  0.12699999809E+01 0. -1.
</event>
<event>
 5   0  0.5916603E-06  0.2771213E+04  0.7818609E-02  0.8312262E-01
       -2   -1    0    0    0  501  0.00000000000E+00  0.00000000000E+00  0.16387590027E+04  0.16387590027E+04  0.25500000920E-02 0. -1.
        2   -1    0    0  501    0  0.00000000000E+00  0.00000000000E+00 -0.11715602297E+04  0.11715602297E+04  0.25500000920E-02 0.  1.
    10030    2    1    2    0    0  0.00000000000E+00  0.00000000000E+00  0.46719877301E+03  0.28103192325E+04  0.27712126398E+04 0.  0.
        2    1    3    3  502    0  0.66596226443E+03 -0.68170401347E+03  0.12536157135E+04  0.15747312332E+04  0.25500000920E-02 0. -1.
       -2    1    3    3    0  502 -0.66596226443E+03  0.68170401347E+03 -0.78641694052E+03  0.12355879993E+04  0.25500000920E-02 0.  1.
</event>
<event>
 5   0  0.2267565E-06  0.2807508E+04  0.7818609E-02  0.8300941E-01
       -1   -1    0    0    0  501  0.00000000000E+00  0.00000000000E+00  0.10582917013E+04  0.10582917013E+04  0.50400001928E-02 0.  1.
        1   -1    0    0  501    0  0.00000000000E+00  0.00000000000E+00 -0.18619873187E+04  0.18619873187E+04  0.50400001928E-02 0. -1.
    10030    2    1    2    0    0  0.00000000000E+00  0.00000000000E+00 -0.80369561743E+03  0.29202790200E+04  0.28075083097E+04 0.  0.
        4    1    3    3  502    0  0.46285275275E+03 -0.12175307208E+04  0.14253894505E+03  0.13103177823E+04  0.12699999809E+01 0.  1.
       -4    1    3    3    0  502 -0.46285275275E+03  0.12175307208E+04 -0.94623456248E+03  0.16099612377E+04  0.12699999809E+01 0. -1.
</event>
<event>
 5   0  0.2267565E-06  0.2798853E+04  0.7818609E-02  0.8303625E-01
        1   -1    0    0  501    0  0.00000000000E+00  0.00000000000E+00  0.22153883203E+04  0.22153883203E+04  0.50400001928E-02 0. -1.
       -1   -1    0    0    0  501  0.00000000000E+00  0.00000000000E+00 -0.88399585617E+03  0.88399585619E+03  0.50400001928E-02 0.  1.
    10030    2    1    2    0    0  0.00000000000E+00  0.00000000000E+00  0.13313924641E+04  0.30993841765E+04  0.27988526899E+04 0.  0.
        4    1    3    3  502    0 -0.24613964932E+03 -0.72746191172E+03  0.19611882350E+04  0.21061924095E+04  0.12699999809E+01 0. -1.
       -4    1    3    3    0  502  0.24613964932E+03  0.72746191172E+03 -0.62979577090E+03  0.99319176694E+03  0.12699999809E+01 0.  1.
</event>
<event>
 5   0  0.2190865E-06  0.2809322E+04  0.7818609E-02  0.8300380E-01
       -1   -1    0    0    0  501  0.00000000000E+00  0.00000000000E+00  0.11654456051E+04  0.11654456051E+04  0.50400001928E-02 0.  1.
        1   -1    0    0  501    0  0.00000000000E+00  0.00000000000E+00 -0.16929774539E+04  0.16929774539E+04  0.50400001928E-02 0. -1.
    10030    2    1    2    0    0  0.00000000000E+00  0.00000000000E+00 -0.52753184876E+03  0.28584230590E+04  0.28093224330E+04 0.  0.
        2    1    3    3  502    0  0.41791856275E+03 -0.10746143126E+04 -0.10800477354E+04  0.15798591572E+04  0.25500000920E-02 0. -1.
       -2    1    3    3    0  502 -0.41791856275E+03  0.10746143126E+04  0.55251588661E+03  0.12785639018E+04  0.25500000920E-02 0.  1.
</event>
<event>
 5   0  0.5916603E-06  0.2758711E+04  0.7818609E-02  0.8316203E-01
        2   -1    0    0  501    0  0.00000000000E+00  0.00000000000E+00  0.25293535591E+04  0.25293535591E+04  0.25500000920E-02 0. -1.
       -2   -1    0    0    0  501  0.00000000000E+00  0.00000000000E+00 -0.75221681006E+03  0.75221681006E+03  0.25500000920E-02 0.  1.
    10030    2    1    2    0    0  0.00000000000E+00  0.00000000000E+00  0.17771367491E+04  0.32815703692E+04  0.27587114860E+04 0.  0.
        2    1    3    3  502    0  0.46621213174E+03 -0.19593867399E+03  0.24151005457E+04  0.24674797591E+04  0.25500000920E-02 0. -1.
       -2    1    3    3    0  502 -0.46621213174E+03  0.19593867399E+03 -0.63796379658E+03  0.81409061013E+03  0.25500000920E-02 0.  1.
</event>
<event>
 5   0  0.5584205E-06  0.2803681E+04  0.7818609E-02  0.8302126E-01
        2   -1    0    0  501    0  0.00000000000E+00  0.00000000000E+00  0.20741920192E+04  0.20741920192E+04  0.25500000920E-02 0. -1.
       -2   -1    0    0    0  501  0.00000000000E+00  0.00000000000E+00 -0.94743270390E+03  0.94743270390E+03  0.25500000920E-02 0.  1.
    10030    2    1    2    0    0  0.00000000000E+00  0.00000000000E+00  0.11267593153E+04  0.30216247231E+04  0.28036814035E+04 0.  0.
        1    1    3    3  502    0 -0.44538889178E+03  0.13178850636E+04  0.74994000779E+03  0.15803804356E+04  0.50400001928E-02 0.  1.
       -1    1    3    3    0  502  0.44538889178E+03 -0.13178850636E+04  0.37681930750E+03  0.14412442875E+04  0.50400001928E-02 0. -1.
</event>
<event>
 5   0  0.5866136E-06  0.2812888E+04  0.7818609E-02  0.8299278E-01
        2   -1    0    0  501    0  0.00000000000E+00  0.00000000000E+00  0.16225443537E+04  0.16225443537E+04  0.25500000920E-02 0. -1.
       -2   -1    0    0    0  501  0.00000000000E+00  0.00000000000E+00 -0.12191252668E+04  0.12191252668E+04  0.25500000920E-02 0.  1.
    10030    2    1    2    0    0  0.00000000000E+00  0.00000000000E+00  0.40341908688E+03  0.28416696204E+04  0.28128880660E+04 0.  0.
        5    1    3    3  502    0 -0.82755758767E+03 -0.10539130261E+04 -0.22983634750E+03  0.13595701762E+04  0.46999998093E+01 0.  1.
       -5    1    3    3    0  502  0.82755758767E+03  0.10539130261E+04  0.63325543438E+03  0.14820994442E+04  0.46999998093E+01 0. -1.
</event>
<event>
 5   0  0.5584205E-06  0.2828266E+04  0.7818609E-02  0.8294546E-01
        2   -1    0    0  501    0  0.00000000000E+00  0.00000000000E+00  0.12636991518E+04  0.12636991518E+04  0.25500000920E-02 0. -1.
       -2   -1    0    0    0  501  0.00000000000E+00  0.00000000000E+00 -0.15824751202E+04  0.15824751202E+04  0.25500000920E-02 0.  1.
    10030    2    1    2    0    0  0.00000000000E+00  0.00000000000E+00 -0.31877596831E+03  0.28461742720E+04  0.28282662301E+04 0.  0.
        1    1    3    3  502    0 -0.11336240173E+04  0.47565082312E+02  0.68999816160E+03  0.13279545597E+04  0.50400001928E-02 0. -1.
       -1    1    3    3    0  502  0.11336240173E+04 -0.47565082312E+02 -0.10087741299E+04  0.15182197123E+04  0.50400001928E-02 0.  1.
</event>
<event>
 5   0  0.2277133E-06  0.2800941E+04  0.7818609E-02  0.8302976E-01
       -1   -1    0    0    0  501  0.00000000000E+00  0.00000000000E+00  0.14347771470E+04  0.14347771470E+04  0.50400001928E-02 0.  1.
        1   -1    0    0  501    0  0.00000000000E+00  0.00000000000E+00 -0.13669844274E+04  0.13669844274E+04  0.50400001928E-02 0. -1.
    10030    2    1    2    0    0  0.00000000000E+00  0.00000000000E+00  0.67792719676E+02  0.28017615744E+04  0.28009412823E+04 0.  0.
        1    1    3    3  502    0 -0.79841105270E+03  0.11743676303E+03  0.11788128925E+04  0.14285837175E+04  0.50400001928E-02 0.  1.
       -1    1    3    3    0  502  0.79841105270E+03 -0.11743676303E+03 -0.11110201728E+04  0.13731778569E+04  0.50400001928E-02 0. -1.
</event>
<event>
 5   0  0.5866136E-06  0.2832412E+04  0.7818609E-02  0.8293276E-01
       -2   -1    0    0    0  501  0.00000000000E+00  0.00000000000E+00  0.87907079141E+03  0.87907079141E+03  0.25500000920E-02 0.  1.
        2   -1    0    0  501    0  0.00000000000E+00  0.00000000000E+00 -0.22815446571E+04  0.22815446571E+04  0.25500000920E-02 0. -1.
    10030    2    1    2    0    0  0.00000000000E+00  0.00000000000E+00 -0.14024738657E+04  0.31606154485E+04  0.28324118820E+04 0.  0.
        5    1    3    3  502    0 -0.10642416041E+04  0.50836898442E+03  0.17354581366E+03  0.11921365088E+04  0.46999998093E+01 0.  1.
       -5    1    3    3    0  502  0.10642416041E+04 -0.50836898442E+03 -0.15760196794E+04  0.19684789397E+04  0.46999998093E+01 0. -1.
</event>
<event>
 5   0  0.5546570E-06  0.2808299E+04  0.7818609E-02  0.8300696E-01
        2   -1    0    0  501    0  0.00000000000E+00  0.00000000000E+00  0.11279522938E+04  0.11279522938E+04  0.25500000920E-02 0.  1.
       -2   -1    0    0    0  501  0.00000000000E+00  0.00000000000E+00 -0.17479779659E+04  0.17479779659E+04  0.25500000920E-02 0. -1.
    10030    2    1    2    0    0  0.00000000000E+00  0.00000000000E+00 -0.62002567209E+03  0.28759302597E+04  0.28082989557E+04 0.  0.
        4    1    3    3  502    0 -0.15251094756E+03  0.12105245208E+04 -0.10217355031E+04  0.15914063767E+04  0.12699999809E+01 0. -1.
       -4    1    3    3    0  502  0.15251094756E+03 -0.12105245208E+04  0.40170983105E+03  0.12845238830E+04  0.12699999809E+01 0.  1.
</event>
<event>
 5   0  0.5546570E-06  0.2806466E+04  0.7818609E-02  0.8301264E-01
        2   -1    0    0  501    0  0.00000000000E+00  0.00000000000E+00  0.14799436117E+04  0.14799436117E+04  0.25500000920E-02 0.  1.
       -2   -1    0    0    0  501  0.00000000000E+00  0.00000000000E+00 -0.13304981553E+04  0.13304981553E+04  0.25500000920E-02 0. -1.
    10030    2    1    2    0    0  0.00000000000E+00  0.00000000000E+00  0.14944545641E+03  0.28104417671E+04  0.28064655675E+04 0.  0.
        4    1    3    3  502    0  0.11569812353E+04  0.40487059737E+03 -0.60927856004E+03  0.13688490626E+04  0.12699999809E+01 0. -1.
       -4    1    3    3    0  502 -0.11569812353E+04 -0.40487059737E+03  0.75872401645E+03  0.14415927045E+04  0.12699999809E+01 0.  1.
</event>
<event>
 5   0  0.2190865E-06  0.2794262E+04  0.7818609E-02  0.8305052E-01
        1   -1    0    0  501    0  0.00000000000E+00  0.00000000000E+00  0.13084123179E+04  0.13084123179E+04  0.50400001928E-02 0.  1.
       -1   -1    0    0    0  501  0.00000000000E+00  0.00000000000E+00 -0.14918657664E+04  0.14918657664E+04  0.50400001928E-02 0. -1.
    10030    2    1    2    0    0  0.00000000000E+00  0.00000000000E+00 -0.18345344848E+03  0.28002780843E+04  0.27942623681E+04 0.  0.
        2    1    3    3  502    0  0.41970252282E+03  0.78288609897E+03  0.98898013669E+03  0.13293391450E+04  0.25500000920E-02 0.  1.
       -2    1    3    3    0  502 -0.41970252282E+03 -0.78288609897E+03 -0.11724335852E+04  0.14709389393E+04  0.25500000920E-02 0. -1.
</event>
<event>
 5   0  0.2234068E-06  0.2814909E+04  0.7818609E-02  0.8298655E-01
        1   -1    0    0  501    0  0.00000000000E+00  0.00000000000E+00  0.29613946471E+04  0.29613946472E+04  0.50400001928E-02 0. -1.
       -1   -1    0    0    0  501  0.00000000000E+00  0.00000000000E+00 -0.66891747140E+03  0.66891747142E+03  0.50400001928E-02 0.  1.
    10030    2    1    2    0    0  0.00000000000E+00  0.00000000000E+00  0.22924771757E+04  0.36303121186E+04  0.28149093195E+04 0.  0.
        3    1    3    3  502    0  0.88704388872E+03 -0.16283915279E+03 -0.24730359646E+03  0.93515909300E+03  0.10100000352E+00 0.  1.
       -3    1    3    3    0  502 -0.88704388872E+03  0.16283915279E+03  0.25397807722E+04  0.26951530256E+04  0.10100000352E+00 0. -1.
</event>
<event>
 5   0  0.2206967E-06  0.2804936E+04  0.7818609E-02  0.8301737E-01
       -1   -1    0    0    0  501  0.00000000000E+00  0.00000000000E+00  0.19779399982E+04  0.19779399982E+04  0.50400001928E-02 0.  1.
        1   -1    0    0  501    0  0.00000000000E+00  0.00000000000E+00 -0.99442704003E+03  0.99442704004E+03  0.50400001928E-02 0. -1.
    10030    2    1    2    0    0  0.00000000000E+00  0.00000000000E+00  0.98351295817E+03  0.29723670382E+04  0.28049363756E+04 0.  0.
        5    1    3    3  502    0  0.72962654102E+02  0.40026073934E+03  0.19140197907E+04  0.19567897326E+04  0.46999998093E+01 0.  1.
       -5    1    3    3    0  502 -0.72962654102E+02 -0.40026073934E+03 -0.93050683254E+03  0.10155773057E+04  0.46999998093E+01 0. -1.
</event>
<event>
 5   0  0.5546570E-06  0.2800509E+04  0.7818609E-02  0.8303110E-01
        2   -1    0    0  501    0  0.00000000000E+00  0.00000000000E+00  0.21752622515E+04  0.21752622515E+04  0.25500000920E-02 0. -1.
       -2   -1    0    0    0  501  0.00000000000E+00  0.00000000000E+00 -0.90136836587E+03  0.90136836588E+03  0.25500000920E-02 0.  1.
    10030    2    1    2    0    0  0.00000000000E+00  0.00000000000E+00  0.12738938856E+04  0.30766306174E+04  0.28005089402E+04 0.  0.
        4    1    3    3  502    0  0.46256801514E+03 -0.13184720317E+04  0.53641901081E+03  0.14966912290E+04  0.12699999809E+01 0. -1.
       -4    1    3    3    0  502 -0.46256801514E+03  0.13184720317E+04  0.73747487480E+03  0.15799393883E+04  0.12699999809E+01 0.  1.
</event>
<event>
 5   0  0.5866136E-06  0.2807880E+04  0.7818609E-02  0.8300826E-01
        2   -1    0    0  501    0  0.00000000000E+00  0.00000000000E+00  0.18491734404E+04  0.18491734404E+04  0.25500000920E-02 0.  1.
       -2   -1    0    0    0  501  0.00000000000E+00  0.00000000000E+00 -0.10659074193E+04  0.10659074193E+04  0.25500000920E-02 0. -1.
    10030    2    1    2    0    0  0.00000000000E+00  0.00000000000E+00  0.78326602116E+03  0.29150808597E+04  0.28078801183E+04 0.  0.
        5    1    3    3  502    0  0.32698239461E+03  0.13337071417E+04  0.69490444221E+03  0.15390277775E+04  0.46999998093E+01 0.  1.
       -5    1    3    3    0  502 -0.32698239461E+03 -0.13337071417E+04  0.88361578956E+02  0.13760530821E+04  0.46999998093E+01 0. -1.
</event>
<event>
 5   0  0.5584205E-06  0.2812201E+04  0.7818609E-02  0.8299490E-01
       -2   -1    0    0    0  501  0.00000000000E+00  0.00000000000E+00  0.11390111830E+04  0.11390111830E+04  0.25500000920E-02 0.  1.
        2   -1    0    0  501    0  0.00000000000E+00  0.00000000000E+00 -0.17358202957E+04  0.17358202957E+04  0.25500000920E-02 0. -1.
    10030    2    1    2    0    0  0.00000000000E+00  0.00000000000E+00 -0.59680911270E+03  0.28748314788E+04  0.28122010800E+04 0.  0.
        1    1    3    3  502    0 -0.90545752564E+03  0.78205235934E+03 -0.10535435266E+04  0.15941810392E+04  0.50400001928E-02 0. -1.
       -1    1    3    3    0  502  0.90545752564E+03 -0.78205235934E+03  0.45673441385E+03  0.12806504395E+04  0.50400001928E-02 0.  1.
</event>
<event>
 5   0  0.5584205E-06  0.2820386E+04  0.7818609E-02  0.8296967E-01
       -2   -1    0    0    0  501  0.00000000000E+00  0.00000000000E+00  0.90714893778E+03  0.90714893778E+03  0.25500000920E-02 0.  1.
        2   -1    0    0  501    0  0.00000000000E+00  0.00000000000E+00 -0.21921920243E+04  0.21921920243E+04  0.25500000920E-02 0. -1.
    10030    2    1    2    0    0  0.00000000000E+00  0.00000000000E+00 -0.12850430865E+04  0.30993409621E+04  0.28203862617E+04 0.  0.
        1    1    3    3  502    0 -0.14059575347E+04 -0.85925944775E+02 -0.71660454520E+03  0.15803866399E+04  0.50400001928E-02 0.  1.
       -1    1    3    3    0  502  0.14059575347E+04  0.85925944775E+02 -0.56843854130E+03  0.15189543221E+04  0.50400001928E-02 0. -1.
</event>
<event>
 5   0  0.1901375E-06  0.2775138E+04  0.7818609E-02  0.8311029E-01
       -3   -1    0    0    0  501  0.00000000000E+00  0.00000000000E+00  0.17466487549E+04  0.17466487578E+04  0.10100000352E+00 0. -1.
        3   -1    0    0  501    0  0.00000000000E+00  0.00000000000E+00 -0.11023093914E+04  0.11023093960E+04  0.10100000352E+00 0.  1.
    10030    2    1    2    0    0  0.00000000000E+00  0.00000000000E+00  0.64433936350E+03  0.28489581538E+04  0.27751377167E+04 0.  0.
        3    1    3    3  502    0  0.70274971922E+03  0.13805849442E+03  0.15422403846E+04  0.17004183984E+04  0.10100000352E+00 0. -1.
       -3    1    3    3    0  502 -0.70274971922E+03 -0.13805849442E+03 -0.89790102108E+03  0.11485397553E+04  0.10100000352E+00 0.  1.
</event>
<event>
 5   0  0.1901375E-06  0.2805380E+04  0.7818609E-02  0.8301600E-01
       -3   -1    0    0    0  501  0.00000000000E+00  0.00000000000E+00  0.72524186188E+03  0.72524186891E+03  0.10100000352E+00 0. -1.
        3   -1    0    0  501    0  0.00000000000E+00  0.00000000000E+00 -0.27129420377E+04  0.27129420396E+04  0.10100000352E+00 0.  1.
    10030    2    1    2    0    0  0.00000000000E+00  0.00000000000E+00 -0.19877001758E+04  0.34381839085E+04  0.28053799386E+04 0.  0.
        3    1    3    3  502    0  0.84247836229E+02 -0.11186606275E+04 -0.20258335467E+04  0.23157074225E+04  0.10100000352E+00 0.  1.
       -3    1    3    3    0  502 -0.84247836229E+02  0.11186606275E+04  0.38133370927E+02  0.11224764860E+04  0.10100000352E+00 0. -1.
</event>
<event>
 5   0  0.5546570E-06  0.2764365E+04  0.7818609E-02  0.8314418E-01
        2   -1    0    0  501    0  0.00000000000E+00  0.00000000000E+00  0.26395077296E+04  0.26395077296E+04  0.25500000920E-02 0.  1.
       -2   -1    0    0    0  501  0.00000000000E+00  0.00000000000E+00 -0.72378203511E+03  0.72378203512E+03  0.25500000920E-02 0. -1.
    10030    2    1    2    0    0  0.00000000000E+00  0.00000000000E+00  0.19157256945E+04  0.33632897647E+04  0.27643648647E+04 0.  0.
        4    1    3    3  502    0 -0.61027769443E+03  0.11783874335E+03  0.24598835318E+04  0.25371940085E+04  0.12699999809E+01 0.  1.
       -4    1    3    3    0  502  0.61027769443E+03 -0.11783874335E+03 -0.54415783728E+03  0.82609575627E+03  0.12699999809E+01 0. -1.
</event>
<event>
 5   0  0.2267565E-06  0.2834497E+04  0.7818609E-02  0.8292638E-01
       -1   -1    0    0    0  501  0.00000000000E+00  0.00000000000E+00  0.13608753311E+04  0.13608753311E+04  0.50400001928E-02 0.  1.
        1   -1    0    0  501    0  0.00000000000E+00  0.00000000000E+00 -0.14759572748E+04  0.14759572748E+04  0.50400001928E-02 0. -1.
    10030    2    1    2    0    0  0.00000000000E+00  0.00000000000E+00 -0.11508194365E+03  0.28368326059E+04  0.28344973770E+04 0.  0.
        4    1    3    3  502    0 -0.11358898566E+04 -0.25310180177E+02  0.79033220619E+03  0.13840205853E+04  0.12699999809E+01 0.  1.
       -4    1    3    3    0  502  0.11358898566E+04  0.25310180177E+02 -0.90541414984E+03  0.14528120206E+04  0.12699999809E+01 0. -1.
</event>
<event>
 5   0  0.5546570E-06  0.2826257E+04  0.7818609E-02  0.8295163E-01
       -2   -1    0    0    0  501  0.00000000000E+00  0.00000000000E+00  0.16496129046E+04  0.16496129046E+04  0.25500000920E-02 0.  1.
        2   -1    0    0  501    0  0.00000000000E+00  0.00000000000E+00 -0.12105461721E+04  0.12105461721E+04  0.25500000920E-02 0. -1.
    10030    2    1    2    0    0  0.00000000000E+00  0.00000000000E+00  0.43906673250E+03  0.28601590767E+04  0.28262573040E+04 0.  0.
        4    1    3    3  502    0 -0.79659218465E+03 -0.60032795083E+03  0.12325291337E+04  0.15855858336E+04  0.12699999809E+01 0.  1.
       -4    1    3    3    0  502  0.79659218465E+03  0.60032795083E+03 -0.79346240122E+03  0.12745732432E+04  0.12699999809E+01 0. -1.
</event>
<event>
 5   0  0.2234068E-06  0.2797780E+04  0.7818609E-02  0.8303958E-01
       -1   -1    0    0    0  501  0.00000000000E+00  0.00000000000E+00  0.82731963634E+03  0.82731963636E+03  0.50400001928E-02 0.  1.
        1   -1    0    0  501    0  0.00000000000E+00  0.00000000000E+00 -0.23653415012E+04  0.23653415012E+04  0.50400001928E-02 0. -1.
    10030    2    1    2    0    0  0.00000000000E+00  0.00000000000E+00 -0.15380218649E+04  0.31926611376E+04  0.27977801705E+04 0.  0.
        3    1    3    3  502    0 -0.27429780251E+03 -0.47250742340E+03 -0.22385552661E+04  0.23042639257E+04  0.10100000352E+00 0. -1.
       -3    1    3    3    0  502  0.27429780251E+03  0.47250742340E+03  0.70053340124E+03  0.88839721188E+03  0.10100000352E+00 0.  1.
</event>
<event>
 5   0  0.2267565E-06  0.2785444E+04  0.7818609E-02  0.8307802E-01
        1   -1    0    0  501    0  0.00000000000E+00  0.00000000000E+00  0.20160485012E+04  0.20160485012E+04  0.50400001928E-02 0. -1.
       -1   -1    0    0    0  501  0.00000000000E+00  0.00000000000E+00 -0.96211726385E+03  0.96211726386E+03  0.50400001928E-02 0.  1.
    10030    2    1    2    0    0  0.00000000000E+00  0.00000000000E+00  0.10539312374E+04  0.29781657651E+04  0.27854443580E+04 0.  0.
        4    1    3    3  502    0 -0.84353518194E+02  0.13551045429E+04  0.19525919338E+03  0.13716966150E+04  0.12699999809E+01 0.  1.
       -4    1    3    3    0  502  0.84353518194E+02 -0.13551045429E+04  0.85867204401E+03  0.16064691501E+04  0.12699999809E+01 0. -1.
</event>
<event>
 5   0  0.2190865E-06  0.2820555E+04  0.7818609E-02  0.8296915E-01
       -1   -1    0    0    0  501  0.00000000000E+00  0.00000000000E+00  0.10256648996E+04  0.10256648996E+04  0.50400001928E-02 0.  1.
        1   -1    0    0  501    0  0.00000000000E+00  0.00000000000E+00 -0.19391156249E+04  0.19391156249E+04  0.50400001928E-02 0. -1.
    10030    2    1    2    0    0  0.00000000000E+00  0.00000000000E+00 -0.91345072527E+03  0.29647805245E+04  0.28205551459E+04 0.  0.
        2    1    3    3  502    0 -0.36736594734E+03 -0.11118265781E+04 -0.12828968830E+04  0.17369342220E+04  0.25500000920E-02 0. -1.
       -2    1    3    3    0  502  0.36736594734E+03  0.11118265781E+04  0.36944615776E+03  0.12278463025E+04  0.25500000920E-02 0.  1.
</event>
<event>
 5   0  0.5584205E-06  0.2880682E+04  0.7818609E-02  0.8278648E-01
        2   -1    0    0  501    0  0.00000000000E+00  0.00000000000E+00  0.14929394757E+04  0.14929394757E+04  0.25500000920E-02 0. -1.
       -2   -1    0    0    0  501  0.00000000000E+00  0.00000000000E+00 -0.13895956215E+04  0.13895956215E+04  0.25500000920E-02 0.  1.
    10030    2    1    2    0    0  0.00000000000E+00  0.00000000000E+00  0.10334385421E+03  0.28825350971E+04  0.28806819738E+04 0.  0.
        1    1    3    3  502    0 -0.50353646472E+02 -0.70167435689E+03 -0.12059976797E+04  0.13961779243E+04  0.50400001928E-02 0.  1.
       -1    1    3    3    0  502  0.50353646472E+02  0.70167435689E+03  0.13093415339E+04  0.14863571728E+04  0.50400001928E-02 0. -1.
</event>
<event>
 5   0  0.2234068E-06  0.2820137E+04  0.7818609E-02  0.8297044E-01
        1   -1    0    0  501    0  0.00000000000E+00  0.00000000000E+00  0.21434165407E+04  0.21434165407E+04  0.50400001928E-02 0.  1.
       -1   -1    0    0    0  501  0.00000000000E+00  0.00000000000E+00 -0.92762766439E+03  0.92762766441E+03  0.50400001928E-02 0. -1.
    10030    2    1    2    0    0  0.00000000000E+00  0.00000000000E+00  0.12157888763E+04  0.30710442052E+04  0.28201365070E+04 0.  0.
        3    1    3    3  502    0  0.12814268389E+04  0.57254207310E+03  0.46004574595E+03  0.14769906119E+04  0.10100000352E+00 0. -1.
       -3    1    3    3    0  502 -0.12814268389E+04 -0.57254207310E+03  0.75574313040E+03  0.15940535933E+04  0.10100000352E+00 0.  1.
</event>
<event>
 5   0  0.5584205E-06  0.2801557E+04  0.7818609E-02  0.8302785E-01
        2   -1    0    0  501    0  0.00000000000E+00  0.00000000000E+00  0.12586273912E+04  0.12586273912E+04  0.25500000920E-02 0.  1.
       -2   -1    0    0    0  501  0.00000000000E+00  0.00000000000E+00 -0.15589847100E+04  0.15589847100E+04  0.25500000920E-02 0. -1.
    10030    2    1    2    0    0  0.00000000000E+00  0.00000000000E+00 -0.30035731882E+03  0.28176121011E+04  0.28015573229E+04 0.  0.
        1    1    3    3  502    0 -0.19969658927E+03 -0.25837460385E+03 -0.15201686706E+04  0.15548469220E+04  0.50400001928E-02 0. -1.
       -1    1    3    3    0  502  0.19969658927E+03  0.25837460385E+03  0.12198113518E+04  0.12627651791E+04  0.50400001928E-02 0.  1.
</event>
<event>
 5   0  0.5916603E-06  0.2775475E+04  0.7818609E-02  0.8310923E-01
        2   -1    0    0  501    0  0.00000000000E+00  0.00000000000E+00  0.15760545405E+04  0.15760545405E+04  0.25500000920E-02 0. -1.
       -2   -1    0    0    0  501  0.00000000000E+00  0.00000000000E+00 -0.12219219421E+04  0.12219219421E+04  0.25500000920E-02 0.  1.
    10030    2    1    2    0    0  0.00000000000E+00  0.00000000000E+00  0.35413259836E+03  0.27979764826E+04  0.27754751846E+04 0.  0.
        2    1    3    3  502    0 -0.13325873418E+04  0.17181587871E+03  0.52702023020E+03  0.14432809992E+04  0.25500000920E-02 0.  1.
       -2    1    3    3    0  502  0.13325873418E+04 -0.17181587871E+03 -0.17288763184E+03  0.13546954834E+04  0.25500000920E-02 0. -1.
</event>
<event>
 5   0  0.5546570E-06  0.2812945E+04  0.7818609E-02  0.8299261E-01
       -2   -1    0    0    0  501  0.00000000000E+00  0.00000000000E+00  0.91907284656E+03  0.91907284657E+03  0.25500000920E-02 0. -1.
        2   -1    0    0  501    0  0.00000000000E+00  0.00000000000E+00 -0.21523476820E+04  0.21523476820E+04  0.25500000920E-02 0.  1.
    10030    2    1    2    0    0  0.00000000000E+00  0.00000000000E+00 -0.12332748354E+04  0.30714205286E+04  0.28129445859E+04 0.  0.
        4    1    3    3  502    0  0.17411682905E+03 -0.98305697102E+03  0.46507320245E+03  0.11013684102E+04  0.12699999809E+01 0. -1.
       -4    1    3    3    0  502 -0.17411682905E+03  0.98305697102E+03 -0.16983480379E+04  0.19700521184E+04  0.12699999809E+01 0.  1.
</event>
<event>
 5   0  0.2267565E-06  0.2858576E+04  0.7818609E-02  0.8285310E-01
        1   -1    0    0  501    0  0.00000000000E+00  0.00000000000E+00  0.19168103950E+04  0.19168103950E+04  0.50400001928E-02 0.  1.
       -1   -1    0    0    0  501  0.00000000000E+00  0.00000000000E+00 -0.10657622098E+04  0.10657622098E+04  0.50400001928E-02 0. -1.
    10030    2    1    2    0    0  0.00000000000E+00  0.00000000000E+00  0.85104818522E+03  0.29825726048E+04  0.28585759268E+04 0.  0.
        4    1    3    3  502    0  0.38175748285E+03 -0.55083475385E+03  0.17427043978E+04  0.18671309362E+04  0.12699999809E+01 0.  1.
       -4    1    3    3    0  502 -0.38175748285E+03  0.55083475385E+03 -0.89165621258E+03  0.11154416686E+04  0.12699999809E+01 0. -1.
</event>
<event>
 5   0  0.2277133E-06  0.3003315E+04  0.7818609E-02  0.8242785E-01
       -1   -1    0    0    0  501  0.00000000000E+00  0.00000000000E+00  0.16945840229E+04  0.16945840229E+04  0.50400001928E-02 0. -1.
        1   -1    0    0  501    0  0.00000000000E+00  0.00000000000E+00 -0.13306954826E+04  0.13306954826E+04  0.50400001928E-02 0.  1.
    10030    2    1    2    0    0  0.00000000000E+00  0.00000000000E+00  0.36388854030E+03  0.30252795055E+04  0.30033150379E+04 0.  0.
        1    1    3    3  502    0 -0.73146027043E+02 -0.14285554398E+04 -0.27840381835E+03  0.14572678793E+04  0.50400001928E-02 0.  1.
       -1    1    3    3    0  502  0.73146027043E+02  0.14285554398E+04  0.64229235865E+03  0.15680116262E+04  0.50400001928E-02 0. -1.
</event>
<event>
 5   0  0.5546570E-06  0.2787990E+04  0.7818609E-02  0.8307007E-01
        2   -1    0    0  501    0  0.00000000000E+00  0.00000000000E+00  0.24848546601E+04  0.24848546601E+04  0.25500000920E-02 0. -1.
       -2   -1    0    0    0  501  0.00000000000E+00  0.00000000000E+00 -0.78202654516E+03  0.78202654517E+03  0.25500000920E-02 0.  1.
    10030    2    1    2    0    0  0.00000000000E+00  0.00000000000E+00  0.17028281150E+04  0.32668812053E+04  0.27879901758E+04 0.  0.
        4    1    3    3  502    0 -0.11739591566E+04 -0.40091809520E+03  0.10634452347E+03  0.12450807970E+04  0.12699999809E+01 0.  1.
       -4    1    3    3    0  502  0.11739591566E+04  0.40091809520E+03  0.15964835915E+04  0.20218004083E+04  0.12699999809E+01 0. -1.
</event>
<event>
 5   0  0.5866136E-06  0.2739989E+04  0.7818609E-02  0.8322145E-01
       -2   -1    0    0    0  501  0.00000000000E+00  0.00000000000E+00  0.95333371764E+03  0.95333371765E+03  0.25500000920E-02 0. -1.
        2   -1    0    0  501    0  0.00000000000E+00  0.00000000000E+00 -0.19687602995E+04  0.19687602995E+04  0.25500000920E-02 0.  1.
    10030    2    1    2    0    0  0.00000000000E+00  0.00000000000E+00 -0.10154265819E+04  0.29220940172E+04  0.27399894711E+04 0.  0.
        5    1    3    3  502    0  0.59521220926E+03  0.23438623821E+03  0.78426850060E+03  0.10120838176E+04  0.46999998093E+01 0. -1.
       -5    1    3    3    0  502 -0.59521220926E+03 -0.23438623821E+03 -0.17996950825E+04  0.19100101996E+04  0.46999998093E+01 0.  1.
</event>
<event>
 5   0  0.2190865E-06  0.2801073E+04  0.7818609E-02  0.8302935E-01
        1   -1    0    0  501    0  0.00000000000E+00  0.00000000000E+00  0.13614382377E+04  0.13614382377E+04  0.50400001928E-02 0.  1.
       -1   -1    0    0    0  501  0.00000000000E+00  0.00000000000E+00 -0.14407575339E+04  0.14407575339E+04  0.50400001928E-02 0. -1.
    10030    2    1    2    0    0  0.00000000000E+00  0.00000000000E+00 -0.79319296193E+02  0.28021957715E+04  0.28010729357E+04 0.  0.
        2    1    3    3  502    0  0.92793831894E+03  0.65932261595E+03  0.77658810495E+03  0.13779930771E+04  0.25500000920E-02 0.  1.
       -2    1    3    3    0  502 -0.92793831894E+03 -0.65932261595E+03 -0.85590740114E+03  0.14242026945E+04  0.25500000920E-02 0. -1.
</event>
<event>
 5   0  0.2234068E-06  0.2789310E+04  0.7818609E-02  0.8306595E-01
        1   -1    0    0  501    0  0.00000000000E+00  0.00000000000E+00  0.10563961024E+04  0.10563961024E+04  0.50400001928E-02 0. -1.
       -1   -1    0    0    0  501  0.00000000000E+00  0.00000000000E+00 -0.18412250137E+04  0.18412250137E+04  0.50400001928E-02 0.  1.
    10030    2    1    2    0    0  0.00000000000E+00  0.00000000000E+00 -0.78482891131E+03  0.28976211161E+04  0.27893102575E+04 0.  0.
        3    1    3    3  502    0  0.11418774439E+04 -0.80030543840E+03 -0.36512608517E+03  0.14414194254E+04  0.10100000352E+00 0. -1.
       -3    1    3    3    0  502 -0.11418774439E+04  0.80030543840E+03 -0.41970282613E+03  0.14562016907E+04  0.10100000352E+00 0.  1.
</event>
<event>
 5   0  0.5916603E-06  0.2766556E+04  0.7818609E-02  0.8313727E-01
        2   -1    0    0  501    0  0.00000000000E+00  0.00000000000E+00  0.20622270736E+04  0.20622270736E+04  0.25500000920E-02 0.  1.
       -2   -1    0    0    0  501  0.00000000000E+00  0.00000000000E+00 -0.92786025304E+03  0.92786025304E+03  0.25500000920E-02 0. -1.
    10030    2    1    2    0    0  0.00000000000E+00  0.00000000000E+00  0.11343668206E+04  0.29900873266E+04  0.27665563680E+04 0.  0.
        2    1    3    3  502    0 -0.47911793010E+03 -0.10688005727E+04 -0.22819097372E+03  0.11932978571E+04  0.25500000920E-02 0. -1.
       -2    1    3    3    0  502  0.47911793010E+03  0.10688005727E+04  0.13625577943E+04  0.17967894696E+04  0.25500000920E-02 0.  1.
</event>
<event>
 5   0  0.5546570E-06  0.2808652E+04  0.7818609E-02  0.8300587E-01
        2   -1    0    0  501    0  0.00000000000E+00  0.00000000000E+00  0.19834301387E+04  0.19834301387E+04  0.25500000920E-02 0.  1.
       -2   -1    0    0    0  501  0.00000000000E+00  0.00000000000E+00 -0.99430320778E+03  0.99430320779E+03  0.25500000920E-02 0. -1.
    10030    2    1    2    0    0  0.00000000000E+00  0.00000000000E+00  0.98912693095E+03  0.29777333465E+04  0.28086515977E+04 0.  0.
        4    1    3    3  502    0 -0.12194196081E+04 -0.60064147959E+03  0.86846257158E+03  0.16130664025E+04  0.12699999809E+01 0. -1.
       -4    1    3    3    0  502  0.12194196081E+04  0.60064147959E+03  0.12066435936E+03  0.13646669440E+04  0.12699999809E+01 0.  1.
</event>
<event>
 5   0  0.2277133E-06  0.2793628E+04  0.7818609E-02  0.8305249E-01
        1   -1    0    0  501    0  0.00000000000E+00  0.00000000000E+00  0.18846462663E+04  0.18846462663E+04  0.50400001928E-02 0. -1.
       -1   -1    0    0    0  501  0.00000000000E+00  0.00000000000E+00 -0.10352547953E+04  0.10352547953E+04  0.50400001928E-02 0.  1.
    10030    2    1    2    0    0  0.00000000000E+00  0.00000000000E+00  0.84939147098E+03  0.29199010616E+04  0.27936278095E+04 0.  0.
        1    1    3    3  502    0  0.13419209644E+04 -0.14141260409E+03  0.47351321906E+02  0.13501820421E+04  0.50400001928E-02 0. -1.
       -1    1    3    3    0  502 -0.13419209644E+04  0.14141260409E+03  0.80204014907E+03  0.15697190194E+04  0.50400001928E-02 0.  1.
</event>
<event>
 5   0  0.2277133E-06  0.2802444E+04  0.7818609E-02  0.8302510E-01
        1   -1    0    0  501    0  0.00000000000E+00  0.00000000000E+00  0.19001475707E+04  0.19001475707E+04  0.50400001928E-02 0.  1.
       -1   -1    0    0    0  501  0.00000000000E+00  0.00000000000E+00 -0.10333000704E+04  0.10333000704E+04  0.50400001928E-02 0. -1.
    10030    2    1    2    0    0  0.00000000000E+00  0.00000000000E+00  0.86684750027E+03  0.29334476411E+04  0.28024436612E+04 0.  0.
        1    1    3    3  502    0 -0.57091551568E+03  0.10436830676E+04  0.12084429297E+04  0.16957456136E+04  0.50400001928E-02 0.  1.
       -1    1    3    3    0  502  0.57091551568E+03 -0.10436830676E+04 -0.34159542939E+03  0.12377020276E+04  0.50400001928E-02 0. -1.
</event>
<event>
 5   0  0.5625245E-06  0.2806261E+04  0.7818609E-02  0.8301327E-01
        2   -1    0    0  501    0  0.00000000000E+00  0.00000000000E+00  0.12008134753E+04  0.12008134753E+04  0.25500000920E-02 0. -1.
       -2   -1    0    0    0  501  0.00000000000E+00  0.00000000000E+00 -0.16395350622E+04  0.16395350622E+04  0.25500000920E-02 0.  1.
    10030    2    1    2    0    0  0.00000000000E+00  0.00000000000E+00 -0.43872158694E+03  0.28403485375E+04  0.28062614247E+04 0.  0.
        3    1    3    3  502    0 -0.29229616539E+03  0.12846745569E+04  0.26915081159E+03  0.13447185337E+04  0.10100000352E+00 0.  1.
       -3    1    3    3    0  502  0.29229616539E+03 -0.12846745569E+04 -0.70787239853E+03  0.14956300038E+04  0.10100000352E+00 0. -1.
</event>
<event>
 5   0  0.2267565E-06  0.2738715E+04  0.7818609E-02  0.8322552E-01
        1   -1    0    0  501    0  0.00000000000E+00  0.00000000000E+00  0.22714822309E+04  0.22714822309E+04  0.50400001928E-02 0. -1.
       -1   -1    0    0    0  501  0.00000000000E+00  0.00000000000E+00 -0.82551353487E+03  0.82551353488E+03  0.50400001928E-02 0.  1.
    10030    2    1    2    0    0  0.00000000000E+00  0.00000000000E+00  0.14459686960E+04  0.30969957658E+04  0.27387145348E+04 0.  0.
        4    1    3    3  502    0 -0.74055673006E+03 -0.11245732614E+04  0.10046664265E+04  0.16800135511E+04  0.12699999809E+01 0.  1.
       -4    1    3    3    0  502  0.74055673006E+03  0.11245732614E+04  0.44130226954E+03  0.14169822146E+04  0.12699999809E+01 0. -1.
</event>
<event>
 5   0  0.2234068E-06  0.2712277E+04  0.7818609E-02  0.8331032E-01
       -1   -1    0    0    0  501  0.00000000000E+00  0.00000000000E+00  0.24229279164E+04  0.24229279164E+04  0.50400001928E-02 0.  1.
        1   -1    0    0  501    0  0.00000000000E+00  0.00000000000E+00 -0.75904538492E+03  0.75904538494E+03  0.50400001928E-02 0. -1.
    10030    2    1    2    0    0  0.00000000000E+00  0.00000000000E+00  0.16638825315E+04  0.31819733014E+04  0.27122774585E+04 0.  0.
        3    1    3    3  502    0 -0.90586440104E+03  0.19646635745E+02  0.20157057357E+04  0.22099877662E+04  0.10100000352E+00 0.  1.
       -3    1    3    3    0  502  0.90586440104E+03 -0.19646635745E+02 -0.35182320424E+03  0.97198553518E+03  0.10100000352E+00 0. -1.
</event>
<event>
 5   0  0.2277133E-06  0.2795323E+04  0.7818609E-02  0.8304722E-01
       -1   -1    0    0    0  501  0.00000000000E+00  0.00000000000E+00  0.18942797180E+04  0.18942797180E+04  0.50400001928E-02 0. -1.
        1   -1    0    0  501    0  0.00000000000E+00  0.00000000000E+00 -0.10312403444E+04  0.10312403444E+04  0.50400001928E-02 0.  1.
    10030    2    1    2    0    0  0.00000000000E+00  0.00000000000E+00  0.86303937368E+03  0.29255200624E+04  0.27953230001E+04 0.  0.
        1    1    3    3  502    0  0.44862801526E+03 -0.10229290271E+04  0.13107729629E+04  0.17221430402E+04  0.50400001928E-02 0. -1.
       -1    1    3    3    0  502 -0.44862801526E+03  0.10229290271E+04 -0.44773358922E+03  0.12033770222E+04  0.50400001928E-02 0.  1.
</event>
<event>
 5   0  0.2234068E-06  0.2788171E+04  0.7818609E-02  0.8306950E-01
       -1   -1    0    0    0  501  0.00000000000E+00  0.00000000000E+00  0.10291009317E+04  0.10291009317E+04  0.50400001928E-02 0.  1.
        1   -1    0    0  501    0  0.00000000000E+00  0.00000000000E+00 -0.18885165320E+04  0.18885165320E+04  0.50400001928E-02 0. -1.
    10030    2    1    2    0    0  0.00000000000E+00  0.00000000000E+00 -0.85941560029E+03  0.29176174637E+04  0.27881708145E+04 0.  0.
        3    1    3    3  502    0 -0.11776426131E+04  0.36224087079E+03 -0.11122266137E+04  0.16598519883E+04  0.10100000352E+00 0. -1.
       -3    1    3    3    0  502  0.11776426131E+04 -0.36224087079E+03  0.25281101337E+03  0.12577654755E+04  0.10100000352E+00 0.  1.
</event>
<event>
 5   0  0.5866136E-06  0.2792172E+04  0.7818609E-02  0.8305703E-01
        2   -1    0    0  501    0  0.00000000000E+00  0.00000000000E+00  0.99962750140E+03  0.99962750140E+03  0.25500000920E-02 0.  1.
       -2   -1    0    0    0  501  0.00000000000E+00  0.00000000000E+00 -0.19497820317E+04  0.19497820317E+04  0.25500000920E-02 0. -1.
    10030    2    1    2    0    0  0.00000000000E+00  0.00000000000E+00 -0.95015453030E+03  0.29494095331E+04  0.27921717287E+04 0.  0.
        5    1    3    3  502    0  0.55224606333E+03 -0.19263689200E+03  0.86396410894E+03  0.10433315667E+04  0.46999998093E+01 0.  1.
       -5    1    3    3    0  502 -0.55224606333E+03  0.19263689200E+03 -0.18141186392E+04  0.19060779664E+04  0.46999998093E+01 0. -1.
</event>
<event>
 5   0  0.2267565E-06  0.2795564E+04  0.7818609E-02  0.8304647E-01
        1   -1    0    0  501    0  0.00000000000E+00  0.00000000000E+00  0.23874633005E+04  0.23874633005E+04  0.50400001928E-02 0. -1.
       -1   -1    0    0    0  501  0.00000000000E+00  0.00000000000E+00 -0.81835574290E+03  0.81835574291E+03  0.50400001928E-02 0.  1.
    10030    2    1    2    0    0  0.00000000000E+00  0.00000000000E+00  0.15691075576E+04  0.32058190434E+04  0.27955638450E+04 0.  0.
        4    1    3    3  502    0  0.19167864072E+03 -0.93507893857E+03  0.19555216500E+04  0.21760468422E+04  0.12699999809E+01 0. -1.
       -4    1    3    3    0  502 -0.19167864072E+03  0.93507893857E+03 -0.38641409246E+03  0.10297722012E+04  0.12699999809E+01 0.  1.
</event>
<event>
 5   0  0.2277133E-06  0.2769978E+04  0.7818609E-02  0.8312650E-01
        1   -1    0    0  501    0  0.00000000000E+00  0.00000000000E+00  0.19663916640E+04  0.19663916640E+04  0.50400001928E-02 0.  1.
       -1   -1    0    0    0  501  0.00000000000E+00  0.00000000000E+00 -0.97548943196E+03  0.97548943198E+03  0.50400001928E-02 0. -1.
    10030    2    1    2    0    0  0.00000000000E+00  0.00000000000E+00  0.99090223199E+03  0.29418810959E+04  0.27699778247E+04 0.  0.
        1    1    3    3  502    0 -0.54731173216E+03  0.10540170798E+04 -0.26129299112E+03  0.12160494085E+04  0.50400001928E-02 0. -1.
       -1    1    3    3    0  502  0.54731173216E+03 -0.10540170798E+04  0.12521952231E+04  0.17258316875E+04  0.50400001928E-02 0.  1.
</event>
<event>
 5   0  0.2234068E-06  0.2796688E+04  0.7818609E-02  0.8304297E-01
        1   -1    0    0  501    0  0.00000000000E+00  0.00000000000E+00  0.16310513311E+04  0.16310513311E+04  0.50400001928E-02 0. -1.
       -1   -1    0    0    0  501  0.00000000000E+00  0.00000000000E+00 -0.11988374146E+04  0.11988374147E+04  0.50400001928E-02 0.  1.
    10030    2    1    2    0    0  0.00000000000E+00  0.00000000000E+00  0.43221391647E+03  0.28298887458E+04  0.27966875843E+04 0.  0.
        3    1    3    3  502    0 -0.24629013056E+03  0.11013953564E+04 -0.61930614387E+03  0.12873502513E+04  0.10100000352E+00 0.  1.
       -3    1    3    3    0  502  0.24629013056E+03 -0.11013953564E+04  0.10515200603E+04  0.15425384945E+04  0.10100000352E+00 0. -1.
</event>
<event>
 5   0  0.5866136E-06  0.2785550E+04  0.7818609E-02  0.8307769E-01
        2   -1    0    0  501    0  0.00000000000E+00  0.00000000000E+00  0.88175331637E+03  0.88175331637E+03  0.25500000920E-02 0. -1.
       -2   -1    0    0    0  501  0.00000000000E+00  0.00000000000E+00 -0.21999597081E+04  0.21999597081E+04  0.25500000920E-02 0.  1.
    10030    2    1    2    0    0  0.00000000000E+00  0.00000000000E+00 -0.13182063917E+04  0.30817130245E+04  0.27855496898E+04 0.  0.
        5    1    3    3  502    0  0.11420616214E+04  0.52558220394E+03  0.40054280862E+01  0.12572110139E+04  0.46999998093E+01 0.  1.
       -5    1    3    3    0  502 -0.11420616214E+04 -0.52558220394E+03 -0.13222118198E+04  0.18245020106E+04  0.46999998093E+01 0. -1.
</event>
<event>
 5   0  0.5546570E-06  0.2831290E+04  0.7818609E-02  0.8293619E-01
        2   -1    0    0  501    0  0.00000000000E+00  0.00000000000E+00  0.11558262020E+04  0.11558262020E+04  0.25500000920E-02 0.  1.
       -2   -1    0    0    0  501  0.00000000000E+00  0.00000000000E+00 -0.17338683011E+04  0.17338683011E+04  0.25500000920E-02 0. -1.
    10030    2    1    2    0    0  0.00000000000E+00  0.00000000000E+00 -0.57804209912E+03  0.28896945031E+04  0.28312897508E+04 0.  0.
        4    1    3    3  502    0 -0.10889104091E+04  0.46181722794E+03 -0.10829149168E+04  0.16036543770E+04  0.12699999809E+01 0. -1.
       -4    1    3    3    0  502  0.10889104091E+04 -0.46181722794E+03  0.50487281768E+03  0.12860401261E+04  0.12699999809E+01 0.  1.
</event>
<event>
 5   0  0.2206967E-06  0.2820620E+04  0.7818609E-02  0.8296895E-01
       -1   -1    0    0    0  501  0.00000000000E+00  0.00000000000E+00  0.80805838299E+03  0.80805838301E+03  0.50400001928E-02 0. -1.
        1   -1    0    0  501    0  0.00000000000E+00  0.00000000000E+00 -0.24614237662E+04  0.24614237662E+04  0.50400001928E-02 0.  1.
    10030    2    1    2    0    0  0.00000000000E+00  0.00000000000E+00 -0.16533653832E+04  0.32694821493E+04  0.28206198669E+04 0.  0.
        5    1    3    3  502    0  0.54056115329E+03 -0.11193995772E+04 -0.15987841095E+04  0.20251899893E+04  0.46999998093E+01 0.  1.
       -5    1    3    3    0  502 -0.54056115329E+03  0.11193995772E+04 -0.54581273793E+02  0.12442921600E+04  0.46999998093E+01 0. -1.
</event>
<event>
 5   0  0.5546570E-06  0.2802023E+04  0.7818609E-02  0.8302641E-01
       -2   -1    0    0    0  501  0.00000000000E+00  0.00000000000E+00  0.17158073344E+04  0.17158073344E+04  0.25500000920E-02 0. -1.
        2   -1    0    0  501    0  0.00000000000E+00  0.00000000000E+00 -0.11439705871E+04  0.11439705871E+04  0.25500000920E-02 0.  1.
    10030    2    1    2    0    0  0.00000000000E+00  0.00000000000E+00  0.57183674732E+03  0.28597779215E+04  0.28020229290E+04 0.  0.
        4    1    3    3  502    0  0.12136139583E+04  0.69773588457E+03  0.34308454308E+03  0.14413198191E+04  0.12699999809E+01 0. -1.
       -4    1    3    3    0  502 -0.12136139583E+04 -0.69773588457E+03  0.22875220424E+03  0.14184581024E+04  0.12699999809E+01 0.  1.
</event>
<event>
 5   0  0.2206967E-06  0.2806810E+04  0.7818609E-02  0.8301157E-01
       -1   -1    0    0    0  501  0.00000000000E+00  0.00000000000E+00  0.12973148769E+04  0.12973148769E+04  0.50400001928E-02 0. -1.
        1   -1    0    0  501    0  0.00000000000E+00  0.00000000000E+00 -0.15181703829E+04  0.15181703829E+04  0.50400001928E-02 0.  1.
    10030    2    1    2    0    0  0.00000000000E+00  0.00000000000E+00 -0.22085550602E+03  0.28154852598E+04  0.28068095935E+04 0.  0.
        5    1    3    3  502    0  0.48052148362E+03  0.35551678885E+03  0.11632330531E+04  0.13078326763E+04  0.46999998093E+01 0. -1.
       -5    1    3    3    0  502 -0.48052148362E+03 -0.35551678885E+03 -0.13840885591E+04  0.15076525836E+04  0.46999998093E+01 0.  1.
</event>
<event>
 5   0  0.5916603E-06  0.2893535E+04  0.7818609E-02  0.8274804E-01
       -2   -1    0    0    0  501  0.00000000000E+00  0.00000000000E+00  0.79836067229E+03  0.79836067230E+03  0.25500000920E-02 0. -1.
        2   -1    0    0  501    0  0.00000000000E+00  0.00000000000E+00 -0.26217929115E+04  0.26217929115E+04  0.25500000920E-02 0.  1.
    10030    2    1    2    0    0  0.00000000000E+00  0.00000000000E+00 -0.18234322392E+04  0.34201535838E+04  0.28935351053E+04 0.  0.
        2    1    3    3  502    0  0.81178399193E+03  0.96419216565E+02 -0.23226312256E+04  0.24622968393E+04  0.25500000920E-02 0.  1.
       -2    1    3    3    0  502 -0.81178399193E+03 -0.96419216565E+02  0.49919898640E+03  0.95785674446E+03  0.25500000920E-02 0. -1.
</event>
<event>
 5   0  0.5584205E-06  0.2796329E+04  0.7818609E-02  0.8304409E-01
        2   -1    0    0  501    0  0.00000000000E+00  0.00000000000E+00  0.90947903687E+03  0.90947903688E+03  0.25500000920E-02 0. -1.
       -2   -1    0    0    0  501  0.00000000000E+00  0.00000000000E+00 -0.21494324223E+04  0.21494324223E+04  0.25500000920E-02 0.  1.
    10030    2    1    2    0    0  0.00000000000E+00  0.00000000000E+00 -0.12399533854E+04  0.30589114591E+04  0.27963288285E+04 0.  0.
        1    1    3    3  502    0 -0.10288296660E+04  0.41144247866E+03 -0.15527417206E+04  0.19075592378E+04  0.50400001928E-02 0.  1.
       -1    1    3    3    0  502  0.10288296660E+04 -0.41144247866E+03  0.31278833516E+03  0.11513522213E+04  0.50400001928E-02 0. -1.
</event>
<event>
 5   0  0.2267565E-06  0.2816362E+04  0.7818609E-02  0.8298206E-01
       -1   -1    0    0    0  501  0.00000000000E+00  0.00000000000E+00  0.20764724145E+04  0.20764724145E+04  0.50400001928E-02 0. -1.
        1   -1    0    0  501    0  0.00000000000E+00  0.00000000000E+00 -0.95497256089E+03  0.95497256090E+03  0.50400001928E-02 0.  1.
    10030    2    1    2    0    0  0.00000000000E+00  0.00000000000E+00  0.11214998536E+04  0.30314449754E+04  0.28163623199E+04 0.  0.
        4    1    3    3  502    0 -0.79630058983E+03  0.11544006666E+04  0.69790584985E+03  0.15664640809E+04  0.12699999809E+01 0. -1.
       -4    1    3    3    0  502  0.79630058983E+03 -0.11544006666E+04  0.42359400373E+03  0.14649808945E+04  0.12699999809E+01 0.  1.
</event>
<event>
 5   0  0.5584205E-06  0.2794819E+04  0.7818609E-02  0.8304879E-01
        2   -1    0    0  501    0  0.00000000000E+00  0.00000000000E+00  0.10290519053E+04  0.10290519053E+04  0.25500000920E-02 0. -1.
       -2   -1    0    0    0  501  0.00000000000E+00  0.00000000000E+00 -0.18976235904E+04  0.18976235904E+04  0.25500000920E-02 0.  1.
    10030    2    1    2    0    0  0.00000000000E+00  0.00000000000E+00 -0.86857168506E+03  0.29266754956E+04  0.27948189002E+04 0.  0.
        1    1    3    3  502    0  0.11355827965E+04  0.19098391879E+03 -0.12632984795E+04  0.17093701160E+04  0.50400001928E-02 0.  1.
       -1    1    3    3    0  502 -0.11355827965E+04 -0.19098391879E+03  0.39472679446E+03  0.12173053797E+04  0.50400001928E-02 0. -1.
</event>
<event>
 5   0  0.2190865E-06  0.2796969E+04  0.7818609E-02  0.8304210E-01
       -1   -1    0    0    0  501  0.00000000000E+00  0.00000000000E+00  0.95702740544E+03  0.95702740545E+03  0.50400001928E-02 0. -1.
        1   -1    0    0  501    0  0.00000000000E+00  0.00000000000E+00 -0.20435772763E+04  0.20435772763E+04  0.50400001928E-02 0.  1.
    10030    2    1    2    0    0  0.00000000000E+00  0.00000000000E+00 -0.10865498708E+04  0.30006046817E+04  0.27969694017E+04 0.  0.
        2    1    3    3  502    0  0.78256623172E+03 -0.13309010126E+02  0.70005660363E+03  0.10500791804E+04  0.25500000920E-02 0. -1.
       -2    1    3    3    0  502 -0.78256623172E+03  0.13309010126E+02 -0.17866064745E+04  0.19505255013E+04  0.25500000920E-02 0.  1.
</event>
<event>
 5   0  0.5546570E-06  0.2815861E+04  0.7818609E-02  0.8298361E-01
       -2   -1    0    0    0  501  0.00000000000E+00  0.00000000000E+00  0.17170945639E+04  0.17170945639E+04  0.25500000920E-02 0.  1.
        2   -1    0    0  501    0  0.00000000000E+00  0.00000000000E+00 -0.11544317701E+04  0.11544317701E+04  0.25500000920E-02 0. -1.
    10030    2    1    2    0    0  0.00000000000E+00  0.00000000000E+00  0.56266279381E+03  0.28715263341E+04  0.28158611592E+04 0.  0.
        4    1    3    3  502    0 -0.47574787255E+03  0.66196245854E+03  0.14519511963E+04  0.16651409021E+04  0.12699999809E+01 0.  1.
       -4    1    3    3    0  502  0.47574787255E+03 -0.66196245854E+03 -0.88928840246E+03  0.12063854319E+04  0.12699999809E+01 0. -1.
</event>
<event>
 5   0  0.5625245E-06  0.2799759E+04  0.7818609E-02  0.8303343E-01
        2   -1    0    0  501    0  0.00000000000E+00  0.00000000000E+00  0.55123962672E+03  0.55123962672E+03  0.25500000920E-02 0.  1.
       -2   -1    0    0    0  501  0.00000000000E+00  0.00000000000E+00 -0.35550104996E+04  0.35550104996E+04  0.25500000920E-02 0. -1.
    10030    2    1    2    0    0  0.00000000000E+00  0.00000000000E+00 -0.30037708729E+04  0.41062501263E+04  0.27997590330E+04 0.  0.
        3    1    3    3  502    0  0.20830894518E+03  0.10974192783E+04 -0.27393897919E+04  0.29583742378E+04  0.10100000352E+00 0. -1.
       -3    1    3    3    0  502 -0.20830894518E+03 -0.10974192783E+04 -0.26438108099E+03  0.11478758885E+04  0.10100000352E+00 0.  1.
</event>
<event>
 5   0  0.2190865E-06  0.2866400E+04  0.7818609E-02  0.8282945E-01
        1   -1    0    0  501    0  0.00000000000E+00  0.00000000000E+00  0.15220305956E+04  0.15220305956E+04  0.50400001928E-02 0.  1.
       -1   -1    0    0    0  501  0.00000000000E+00  0.00000000000E+00 -0.13495534084E+04  0.13495534085E+04  0.50400001928E-02 0. -1.
    10030    2    1    2    0    0  0.00000000000E+00  0.00000000000E+00  0.17247718716E+03  0.28715840041E+04  0.28663995382E+04 0.  0.
        2    1    3    3  502    0  0.78923361878E+03 -0.14129763617E+03  0.12763295045E+04  0.15072729451E+04  0.25500000920E-02 0.  1.
       -2    1    3    3    0  502 -0.78923361878E+03  0.14129763617E+03 -0.11038523174E+04  0.13643110589E+04  0.25500000920E-02 0. -1.
</event>
<event>
 5   0  0.2267565E-06  0.2785902E+04  0.7818609E-02  0.8307659E-01
        1   -1    0    0  501    0  0.00000000000E+00  0.00000000000E+00  0.16773903181E+04  0.16773903181E+04  0.50400001928E-02 0. -1.
       -1   -1    0    0    0  501  0.00000000000E+00  0.00000000000E+00 -0.11567448344E+04  0.11567448344E+04  0.50400001928E-02 0.  1.
    10030    2    1    2    0    0  0.00000000000E+00  0.00000000000E+00  0.52064548370E+03  0.28341351525E+04  0.27859020699E+04 0.  0.
        4    1    3    3  502    0 -0.32445370566E+03 -0.12251433729E+03  0.16327650695E+04  0.16691924260E+04  0.12699999809E+01 0. -1.
       -4    1    3    3    0  502  0.32445370566E+03  0.12251433729E+03 -0.11121195858E+04  0.11649427265E+04  0.12699999809E+01 0.  1.
</event>
<event>
 5   0  0.2234068E-06  0.2799912E+04  0.7818609E-02  0.8303296E-01
       -1   -1    0    0    0  501  0.00000000000E+00  0.00000000000E+00  0.16584585557E+04  0.16584585557E+04  0.50400001928E-02 0. -1.
        1   -1    0    0  501    0  0.00000000000E+00  0.00000000000E+00 -0.11817460327E+04  0.11817460327E+04  0.50400001928E-02 0.  1.
    10030    2    1    2    0    0  0.00000000000E+00  0.00000000000E+00  0.47671252301E+03  0.28402045884E+04  0.27999120119E+04 0.  0.
        3    1    3    3  502    0  0.34505825371E+03  0.13297043767E+03 -0.11313079752E+04  0.11902117798E+04  0.10100000352E+00 0.  1.
       -3    1    3    3    0  502 -0.34505825371E+03 -0.13297043767E+03  0.16080204982E+04  0.16499928087E+04  0.10100000352E+00 0. -1.
</event>
<event>
 5   0  0.2234068E-06  0.2798605E+04  0.7818609E-02  0.8303702E-01
        1   -1    0    0  501    0  0.00000000000E+00  0.00000000000E+00  0.12655646369E+04  0.12655646369E+04  0.50400001928E-02 0. -1.
       -1   -1    0    0    0  501  0.00000000000E+00  0.00000000000E+00 -0.15471725037E+04  0.15471725037E+04  0.50400001928E-02 0.  1.
    10030    2    1    2    0    0  0.00000000000E+00  0.00000000000E+00 -0.28160786680E+03  0.28127371406E+04  0.27986045150E+04 0.  0.
        3    1    3    3  502    0 -0.94906529911E+02  0.10778598087E+04 -0.10325600529E+04  0.14956501228E+04  0.10100000352E+00 0.  1.
       -3    1    3    3    0  502  0.94906529911E+02 -0.10778598087E+04  0.75095218612E+03  0.13170870179E+04  0.10100000352E+00 0. -1.
</event>
<event>
 5   0  0.5584205E-06  0.2783248E+04  0.7818609E-02  0.8308488E-01
        2   -1    0    0  501    0  0.00000000000E+00  0.00000000000E+00  0.10805519256E+04  0.10805519256E+04  0.25500000920E-02 0.  1.
       -2   -1    0    0    0  501  0.00000000000E+00  0.00000000000E+00 -0.17922476892E+04  0.17922476892E+04  0.25500000920E-02 0. -1.
    10030    2    1    2    0    0  0.00000000000E+00  0.00000000000E+00 -0.71169576357E+03  0.28727996148E+04  0.27832475217E+04 0.  0.
        1    1    3    3  502    0 -0.75170294812E+02  0.52972887278E+03 -0.16818431803E+04  0.17648965224E+04  0.50400001928E-02 0. -1.
       -1    1    3    3    0  502  0.75170294812E+02 -0.52972887278E+03  0.97014741671E+03  0.11079030924E+04  0.50400001928E-02 0.  1.
</event>
<event>
 5   0  0.5866136E-06  0.2799709E+04  0.7818609E-02  0.8303359E-01
       -2   -1    0    0    0  501  0.00000000000E+00  0.00000000000E+00  0.12017807214E+04  0.12017807214E+04  0.25500000920E-02 0. -1.
        2   -1    0    0  501    0  0.00000000000E+00  0.00000000000E+00 -0.16305741711E+04  0.16305741711E+04  0.25500000920E-02 0.  1.
    10030    2    1    2    0    0  0.00000000000E+00  0.00000000000E+00 -0.42879344968E+03  0.28323548924E+04  0.27997089874E+04 0.  0.
        5    1    3    3  502    0  0.43755185087E+03  0.75266458291E+03  0.89456723783E+03  0.12482901224E+04  0.46999998093E+01 0. -1.
       -5    1    3    3    0  502 -0.43755185087E+03 -0.75266458291E+03 -0.13233606875E+04  0.15840647701E+04  0.46999998093E+01 0.  1.
</event>
<event>
 5   0  0.5916603E-06  0.2806905E+04  0.7818609E-02  0.8301128E-01
        2   -1    0    0  501    0  0.00000000000E+00  0.00000000000E+00  0.12893735476E+04  0.12893735476E+04  0.25500000920E-02 0.  1.
       -2   -1    0    0    0  501  0.00000000000E+00  0.00000000000E+00 -0.15276246793E+04  0.15276246793E+04  0.25500000920E-02 0. -1.
    10030    2    1    2    0    0  0.00000000000E+00  0.00000000000E+00 -0.23825113173E+03  0.28169982268E+04  0.28069049518E+04 0.  0.
        2    1    3    3  502    0  0.43648939643E+02 -0.15480847683E+03  0.12800929541E+04  0.12901584653E+04  0.25500000920E-02 0.  1.
       -2    1    3    3    0  502 -0.43648939643E+02  0.15480847683E+03 -0.15183440858E+04  0.15268397615E+04  0.25500000920E-02 0. -1.
</event>
<event>
 5   0  0.2234068E-06  0.2797488E+04  0.7818609E-02  0.8304049E-01
        1   -1    0    0  501    0  0.00000000000E+00  0.00000000000E+00  0.22761280078E+04  0.22761280078E+04  0.50400001928E-02 0. -1.
       -1   -1    0    0    0  501  0.00000000000E+00  0.00000000000E+00 -0.85956708392E+03  0.85956708394E+03  0.50400001928E-02 0.  1.
    10030    2    1    2    0    0  0.00000000000E+00  0.00000000000E+00  0.14165609239E+04  0.31356950918E+04  0.27974879548E+04 0.  0.
        3    1    3    3  502    0 -0.39199438793E+03 -0.95804797714E+03  0.17627394024E+04  0.20442029590E+04  0.10100000352E+00 0. -1.
       -3    1    3    3    0  502  0.39199438793E+03  0.95804797714E+03 -0.34617847851E+03  0.10914921327E+04  0.10100000352E+00 0.  1.
</event>
<event>
 5   0  0.5916603E-06  0.2803637E+04  0.7818609E-02  0.8302140E-01
       -2   -1    0    0    0  501  0.00000000000E+00  0.00000000000E+00  0.99417778692E+03  0.99417778692E+03  0.25500000920E-02 0.  1.
        2   -1    0    0  501    0  0.00000000000E+00  0.00000000000E+00 -0.19766030835E+04  0.19766030835E+04  0.25500000920E-02 0. -1.
    10030    2    1    2    0    0  0.00000000000E+00  0.00000000000E+00 -0.98242529653E+03  0.29707808704E+04  0.28036368375E+04 0.  0.
        2    1    3    3  502    0  0.13089063031E+04 -0.48493788486E+03 -0.62812243207E+03  0.15306659506E+04  0.25500000920E-02 0.  1.
       -2    1    3    3    0  502 -0.13089063031E+04  0.48493788486E+03 -0.35430286446E+03  0.14401149198E+04  0.25500000920E-02 0. -1.
</event>
<event>
 5   0  0.2277133E-06  0.2798091E+04  0.7818609E-02  0.8303861E-01
       -1   -1    0    0    0  501  0.00000000000E+00  0.00000000000E+00  0.99263243330E+03  0.99263243331E+03  0.50400001928E-02 0.  1.
        1   -1    0    0  501    0  0.00000000000E+00  0.00000000000E+00 -0.19718556806E+04  0.19718556806E+04  0.50400001928E-02 0. -1.
    10030    2    1    2    0    0  0.00000000000E+00  0.00000000000E+00 -0.97922324730E+03  0.29644881139E+04  0.27980907079E+04 0.  0.
        1    1    3    3  502    0 -0.12775669862E+04  0.10646444300E+03  0.10389468703E+03  0.12861983470E+04  0.50400001928E-02 0.  1.
       -1    1    3    3    0  502  0.12775669862E+04 -0.10646444300E+03 -0.10831179343E+04  0.16782897669E+04  0.50400001928E-02 0. -1.
</event>
<event>
 5   0  0.2206967E-06  0.2804921E+04  0.7818609E-02  0.8301742E-01
       -1   -1    0    0    0  501  0.00000000000E+00  0.00000000000E+00  0.12284975045E+04  0.12284975045E+04  0.50400001928E-02 0.  1.
        1   -1    0    0  501    0  0.00000000000E+00  0.00000000000E+00 -0.16010580155E+04  0.16010580155E+04  0.50400001928E-02 0. -1.
    10030    2    1    2    0    0  0.00000000000E+00  0.00000000000E+00 -0.37256051104E+03  0.28295555200E+04  0.28049212299E+04 0.  0.
        5    1    3    3  502    0  0.71230457421E+03 -0.96467736874E+03  0.54735745413E+03  0.13181815144E+04  0.46999998093E+01 0. -1.
       -5    1    3    3    0  502 -0.71230457421E+03  0.96467736874E+03 -0.91991796517E+03  0.15113740056E+04  0.46999998093E+01 0.  1.
</event>
<event>
 5   0  0.5546570E-06  0.2794599E+04  0.7818609E-02  0.8304947E-01
        2   -1    0    0  501    0  0.00000000000E+00  0.00000000000E+00  0.12585499597E+04  0.12585499597E+04  0.25500000920E-02 0.  1.
       -2   -1    0    0    0  501  0.00000000000E+00  0.00000000000E+00 -0.15513458121E+04  0.15513458121E+04  0.25500000920E-02 0. -1.
    10030    2    1    2    0    0  0.00000000000E+00  0.00000000000E+00 -0.29279585239E+03  0.28098957719E+04  0.27945992267E+04 0.  0.
        4    1    3    3  502    0  0.72135957053E+03  0.52841944482E+03 -0.12259871928E+04  0.15174428983E+04  0.12699999809E+01 0. -1.
       -4    1    3    3    0  502 -0.72135957053E+03 -0.52841944482E+03  0.93319134045E+03  0.12924528736E+04  0.12699999809E+01 0.  1.
</event>
<event>
 5   0  0.2234068E-06  0.2781926E+04  0.7818609E-02  0.8308902E-01
       -1   -1    0    0    0  501  0.00000000000E+00  0.00000000000E+00  0.10264627645E+04  0.10264627645E+04  0.50400001928E-02 0.  1.
        1   -1    0    0  501    0  0.00000000000E+00  0.00000000000E+00 -0.18848982994E+04  0.18848982995E+04  0.50400001928E-02 0. -1.
    10030    2    1    2    0    0  0.00000000000E+00  0.00000000000E+00 -0.85843553494E+03  0.29113610640E+04  0.27819258935E+04 0.  0.
        3    1    3    3  502    0  0.11016641267E+04  0.17859563516E+03  0.43960003491E+03  0.11995034181E+04  0.10100000352E+00 0.  1.
       -3    1    3    3    0  502 -0.11016641267E+04 -0.17859563516E+03 -0.12980355699E+04  0.17118576459E+04  0.10100000352E+00 0. -1.
</event>
<event>
 5   0  0.2277133E-06  0.2812006E+04  0.7818609E-02  0.8299551E-01
        1   -1    0    0  501    0  0.00000000000E+00  0.00000000000E+00  0.21197373911E+04  0.21197373911E+04  0.50400001928E-02 0. -1.
       -1   -1    0    0    0  501  0.00000000000E+00  0.00000000000E+00 -0.93258917628E+03  0.93258917629E+03  0.50400001928E-02 0.  1.
    10030    2    1    2    0    0  0.00000000000E+00  0.00000000000E+00  0.11871482148E+04  0.30523265674E+04  0.28120057948E+04 0.  0.
        1    1    3    3  502    0 -0.10824938427E+04 -0.86588151572E+03  0.84883191512E+03  0.16254412751E+04  0.50400001928E-02 0.  1.
       -1    1    3    3    0  502  0.10824938427E+04  0.86588151572E+03  0.33831629972E+03  0.14268852923E+04  0.50400001928E-02 0. -1.
</event>
<event>
 5   0  0.2190865E-06  0.2788196E+04  0.7818609E-02  0.8306942E-01
        1   -1    0    0  501    0  0.00000000000E+00  0.00000000000E+00  0.11663963961E+04  0.11663963961E+04  0.50400001928E-02 0. -1.
       -1   -1    0    0    0  501  0.00000000000E+00  0.00000000000E+00 -0.16662511218E+04  0.16662511218E+04  0.50400001928E-02 0.  1.
    10030    2    1    2    0    0  0.00000000000E+00  0.00000000000E+00 -0.49985472566E+03  0.28326475179E+04  0.27881960502E+04 0.  0.
        2    1    3    3  502    0  0.31305944282E+03 -0.91372436198E+03  0.77139117101E+03  0.12360998192E+04  0.25500000920E-02 0. -1.
       -2    1    3    3    0  502 -0.31305944282E+03  0.91372436198E+03 -0.12712458967E+04  0.15965476987E+04  0.25500000920E-02 0.  1.
</event>
<event>
 5   0  0.2267565E-06  0.2855325E+04  0.7818609E-02  0.8286295E-01
        1   -1    0    0  501    0  0.00000000000E+00  0.00000000000E+00  0.25071694974E+04  0.25071694974E+04  0.50400001928E-02 0.  1.
       -1   -1    0    0    0  501  0.00000000000E+00  0.00000000000E+00 -0.81295664009E+03  0.81295664010E+03  0.50400001928E-02 0. -1.
    10030    2    1    2    0    0  0.00000000000E+00  0.00000000000E+00  0.16942128573E+04  0.33201261375E+04  0.28553249138E+04 0.  0.
        4    1    3    3  502    0  0.23476062778E+03  0.13889141193E+04  0.11173717894E+04  0.17979756149E+04  0.12699999809E+01 0. -1.
       -4    1    3    3    0  502 -0.23476062778E+03 -0.13889141193E+04  0.57684106789E+03  0.15221505226E+04  0.12699999809E+01 0.  1.
</event>
<event>
 5   0  0.1901375E-06  0.2792369E+04  0.7818609E-02  0.8305641E-01
       -3   -1    0    0    0  501  0.00000000000E+00  0.00000000000E+00  0.12222323759E+04  0.12222323801E+04  0.10100000352E+00 0.  1.
        3   -1    0    0  501    0  0.00000000000E+00  0.00000000000E+00 -0.15948943325E+04  0.15948943357E+04  0.10100000352E+00 0. -1.
    10030    2    1    2    0    0  0.00000000000E+00  0.00000000000E+00 -0.37266195656E+03  0.28171267158E+04  0.27923692447E+04 0.  0.
        1    1    3    3  502    0  0.38216100193E+03  0.96418414835E+03  0.75663961614E+03  0.12838230455E+04  0.50400001928E-02 0.  1.
       -1    1    3    3    0  502 -0.38216100193E+03 -0.96418414835E+03 -0.11293015727E+04  0.15333036703E+04  0.50400001928E-02 0. -1.
</event>
<event>
 5   0  0.5584205E-06  0.2800394E+04  0.7818609E-02  0.8303146E-01
        2   -1    0    0  501    0  0.00000000000E+00  0.00000000000E+00  0.19451116723E+04  0.19451116723E+04  0.25500000920E-02 0.  1.
       -2   -1    0    0    0  501  0.00000000000E+00  0.00000000000E+00 -0.10079375897E+04  0.10079375897E+04  0.25500000920E-02 0. -1.
    10030    2    1    2    0    0  0.00000000000E+00  0.00000000000E+00  0.93717408261E+03  0.29530492620E+04  0.28003936656E+04 0.  0.
        1    1    3    3  502    0  0.12386228235E+04 -0.24674861192E+03 -0.16891751209E+03  0.12742074016E+04  0.50400001928E-02 0. -1.
       -1    1    3    3    0  502 -0.12386228235E+04  0.24674861192E+03  0.11060915947E+04  0.16788418604E+04  0.50400001928E-02 0.  1.
</event>
<event>
 5   0  0.2190865E-06  0.2843035E+04  0.7818609E-02  0.8290031E-01
       -1   -1    0    0    0  501  0.00000000000E+00  0.00000000000E+00  0.18592177763E+04  0.18592177763E+04  0.50400001928E-02 0. -1.
        1   -1    0    0  501    0  0.00000000000E+00  0.00000000000E+00 -0.10868614942E+04  0.10868614942E+04  0.50400001928E-02 0.  1.
    10030    2    1    2    0    0  0.00000000000E+00  0.00000000000E+00  0.77235628210E+03  0.29460792705E+04  0.28430351461E+04 0.  0.
        2    1    3    3  502    0 -0.43203787567E+03  0.81355772325E+03  0.15080912601E+04  0.17671650019E+04  0.25500000920E-02 0. -1.
       -2    1    3    3    0  502  0.43203787567E+03 -0.81355772325E+03 -0.73573497797E+03  0.11789142687E+04  0.25500000920E-02 0.  1.
</event>
<event>
 5   0  0.5625245E-06  0.2830107E+04  0.7818609E-02  0.8293982E-01
        2   -1    0    0  501    0  0.00000000000E+00  0.00000000000E+00  0.18205380754E+04  0.18205380754E+04  0.25500000920E-02 0.  1.
       -2   -1    0    0    0  501  0.00000000000E+00  0.00000000000E+00 -0.10998816830E+04  0.10998816830E+04  0.25500000920E-02 0. -1.
    10030    2    1    2    0    0  0.00000000000E+00  0.00000000000E+00  0.72065639237E+03  0.29204197584E+04  0.28301070526E+04 0.  0.
        3    1    3    3  502    0 -0.80715948085E+02  0.71937201996E+03  0.16150091207E+04  0.17698207925E+04  0.10100000352E+00 0.  1.
       -3    1    3    3    0  502  0.80715948085E+02 -0.71937201996E+03 -0.89435272833E+03  0.11505989659E+04  0.10100000352E+00 0. -1.
</event>
<event>
 5   0  0.2267565E-06  0.2799022E+04  0.7818609E-02  0.8303572E-01
        1   -1    0    0  501    0  0.00000000000E+00  0.00000000000E+00  0.10420311662E+04  0.10420311662E+04  0.50400001928E-02 0.  1.
       -1   -1    0    0    0  501  0.00000000000E+00  0.00000000000E+00 -0.18796282928E+04  0.18796282928E+04  0.50400001928E-02 0. -1.
    10030    2    1    2    0    0  0.00000000000E+00  0.00000000000E+00 -0.83759712669E+03  0.29216594590E+04  0.27990221592E+04 0.  0.
        4    1    3    3  502    0  0.10783879238E+04 -0.81783283277E+03 -0.79057614833E+03  0.15674129372E+04  0.12699999809E+01 0. -1.
       -4    1    3    3    0  502 -0.10783879238E+04  0.81783283277E+03 -0.47020978364E+02  0.13542465218E+04  0.12699999809E+01 0.  1.
</event>
<event>
 5   0  0.5584205E-06  0.2787186E+04  0.7818609E-02  0.8307258E-01
        2   -1    0    0  501    0  0.00000000000E+00  0.00000000000E+00  0.24159382511E+04  0.24159382511E+04  0.25500000920E-02 0.  1.
       -2   -1    0    0    0  501  0.00000000000E+00  0.00000000000E+00 -0.80387053928E+03  0.80387053928E+03  0.25500000920E-02 0. -1.
    10030    2    1    2    0    0  0.00000000000E+00  0.00000000000E+00  0.16120677118E+04  0.32198087904E+04  0.27871860970E+04 0.  0.
        1    1    3    3  502    0 -0.31016686793E+03 -0.20653590081E+03  0.23573167510E+04  0.23865881146E+04  0.50400001928E-02 0.  1.
       -1    1    3    3    0  502  0.31016686793E+03  0.20653590081E+03 -0.74524903912E+03  0.83322067582E+03  0.50400001928E-02 0. -1.
</event>
<event>
 5   0  0.2234068E-06  0.2769414E+04  0.7818609E-02  0.8312827E-01
        1   -1    0    0  501    0  0.00000000000E+00  0.00000000000E+00  0.10895548459E+04  0.10895548459E+04  0.50400001928E-02 0.  1.
       -1   -1    0    0    0  501  0.00000000000E+00  0.00000000000E+00 -0.17598142228E+04  0.17598142228E+04  0.50400001928E-02 0. -1.
    10030    2    1    2    0    0  0.00000000000E+00  0.00000000000E+00 -0.67025937689E+03  0.28493690687E+04  0.27694144611E+04 0.  0.
        3    1    3    3  502    0 -0.47596016281E+03  0.31128586426E+03 -0.16341076831E+04  0.17302441724E+04  0.10100000352E+00 0. -1.
       -3    1    3    3    0  502  0.47596016281E+03 -0.31128586426E+03  0.96384830626E+03  0.11191248963E+04  0.10100000352E+00 0.  1.
</event>
<event>
 5   0  0.5546570E-06  0.2823968E+04  0.7818609E-02  0.8295866E-01
       -2   -1    0    0    0  501  0.00000000000E+00  0.00000000000E+00  0.10285397038E+04  0.10285397038E+04  0.25500000920E-02 0.  1.
        2   -1    0    0  501    0  0.00000000000E+00  0.00000000000E+00 -0.19383778591E+04  0.19383778591E+04  0.25500000920E-02 0. -1.
    10030    2    1    2    0    0  0.00000000000E+00  0.00000000000E+00 -0.90983815528E+03  0.29669175629E+04  0.28239678391E+04 0.  0.
        4    1    3    3  502    0 -0.37733903237E+03  0.61240150447E+03  0.82160674679E+03  0.10919979887E+04  0.12699999809E+01 0.  1.
       -4    1    3    3    0  502  0.37733903237E+03 -0.61240150447E+03 -0.17314449021E+04  0.18749195742E+04  0.12699999809E+01 0. -1.
</event>
<event>
 5   0  0.5546570E-06  0.2810349E+04  0.7818609E-02  0.8300063E-01
       -2   -1    0    0    0  501  0.00000000000E+00  0.00000000000E+00  0.12299423474E+04  0.12299423474E+04  0.25500000920E-02 0.  1.
        2   -1    0    0  501    0  0.00000000000E+00  0.00000000000E+00 -0.16053721212E+04  0.16053721212E+04  0.25500000920E-02 0. -1.
    10030    2    1    2    0    0  0.00000000000E+00  0.00000000000E+00 -0.37542977385E+03  0.28353144686E+04  0.28103488433E+04 0.  0.
        4    1    3    3  502    0 -0.95541352437E+03 -0.91347063655E+03 -0.66867825202E+03  0.14813425748E+04  0.12699999809E+01 0. -1.
       -4    1    3    3    0  502  0.95541352437E+03  0.91347063655E+03  0.29324847817E+03  0.13539718938E+04  0.12699999809E+01 0.  1.
</event>
<event>
 5   0  0.5866136E-06  0.2794994E+04  0.7818609E-02  0.8304824E-01
        2   -1    0    0  501    0  0.00000000000E+00  0.00000000000E+00  0.25221048200E+04  0.25221048200E+04  0.25500000920E-02 0.  1.
       -2   -1    0    0    0  501  0.00000000000E+00  0.00000000000E+00 -0.77435234373E+03  0.77435234374E+03  0.25500000920E-02 0. -1.
    10030    2    1    2    0    0  0.00000000000E+00  0.00000000000E+00  0.17477524763E+04  0.32964571637E+04  0.27949939381E+04 0.  0.
        5    1    3    3  502    0  0.11127404038E+03 -0.67386265899E+03  0.23118449805E+04  0.24106269099E+04  0.46999998093E+01 0.  1.
       -5    1    3    3    0  502 -0.11127404038E+03  0.67386265899E+03 -0.56409250420E+03  0.88583025379E+03  0.46999998093E+01 0. -1.
</event>
<event>
 5   0  0.5916603E-06  0.2797960E+04  0.7818609E-02  0.8303902E-01
        2   -1    0    0  501    0  0.00000000000E+00  0.00000000000E+00  0.16254111714E+04  0.16254111714E+04  0.25500000920E-02 0. -1.
       -2   -1    0    0    0  501  0.00000000000E+00  0.00000000000E+00 -0.12040924270E+04  0.12040924270E+04  0.25500000920E-02 0.  1.
    10030    2    1    2    0    0  0.00000000000E+00  0.00000000000E+00  0.42131874440E+03  0.28295035985E+04  0.27979601730E+04 0.  0.
        2    1    3    3  502    0 -0.42906380039E+03  0.12445141470E+04 -0.26821271962E+03  0.13434467871E+04  0.25500000920E-02 0. -1.
       -2    1    3    3    0  502  0.42906380039E+03 -0.12445141470E+04  0.68953146402E+03  0.14860568114E+04  0.25500000920E-02 0.  1.
</event>
<event>
 5   0  0.5625245E-06  0.2809884E+04  0.7818609E-02  0.8300206E-01
        2   -1    0    0  501    0  0.00000000000E+00  0.00000000000E+00  0.19796715954E+04  0.19796715954E+04  0.25500000920E-02 0.  1.
       -2   -1    0    0    0  501  0.00000000000E+00  0.00000000000E+00 -0.99706524523E+03  0.99706524524E+03  0.25500000920E-02 0. -1.
    10030    2    1    2    0    0  0.00000000000E+00  0.00000000000E+00  0.98260635012E+03  0.29767368406E+04  0.28098838017E+04 0.  0.
        3    1    3    3  502    0 -0.11043522543E+04 -0.61091165569E+03  0.11452550506E+04  0.17042347531E+04  0.10100000352E+00 0. -1.
       -3    1    3    3    0  502  0.11043522543E+04  0.61091165569E+03 -0.16264870043E+03  0.12725020875E+04  0.10100000352E+00 0.  1.
</event>
<event>
 5   0  0.5625245E-06  0.2853307E+04  0.7818609E-02  0.8286907E-01
        2   -1    0    0  501    0  0.00000000000E+00  0.00000000000E+00  0.17677129903E+04  0.17677129903E+04  0.25500000920E-02 0.  1.
       -2   -1    0    0    0  501  0.00000000000E+00  0.00000000000E+00 -0.11513977502E+04  0.11513977502E+04  0.25500000920E-02 0. -1.
    10030    2    1    2    0    0  0.00000000000E+00  0.00000000000E+00  0.61631524010E+03  0.29191107405E+04  0.28533073862E+04 0.  0.
        3    1    3    3  502    0  0.89076258604E+03  0.37821186906E+03 -0.76427237723E+03  0.12331319797E+04  0.10100000352E+00 0. -1.
       -3    1    3    3    0  502 -0.89076258604E+03 -0.37821186906E+03  0.13805876173E+04  0.16859787608E+04  0.10100000352E+00 0.  1.
</event>
<event>
 5   0  0.5916603E-06  0.2808159E+04  0.7818609E-02  0.8300740E-01
       -2   -1    0    0    0  501  0.00000000000E+00  0.00000000000E+00  0.18854533938E+04  0.18854533938E+04  0.25500000920E-02 0.  1.
        2   -1    0    0  501    0  0.00000000000E+00  0.00000000000E+00 -0.10456045063E+04  0.10456045063E+04  0.25500000920E-02 0. -1.
    10030    2    1    2    0    0  0.00000000000E+00  0.00000000000E+00  0.83984888749E+03  0.29310579001E+04  0.28081585176E+04 0.  0.
        2    1    3    3  502    0  0.17057230221E+03 -0.13503271454E+04  0.77992545532E+03  0.15686816203E+04  0.25500000920E-02 0. -1.
       -2    1    3    3    0  502 -0.17057230221E+03  0.13503271454E+04  0.59923432168E+02  0.13623762798E+04  0.25500000920E-02 0.  1.
</event>
<event>
 5   0  0.1901375E-06  0.2824194E+04  0.7818609E-02  0.8295796E-01
       -4   -1    0    0    0  501  0.00000000000E+00  0.00000000000E+00  0.20303155242E+04  0.20303159214E+04  0.12699999809E+01 0.  1.
        4   -1    0    0  501    0  0.00000000000E+00  0.00000000000E+00 -0.98212136360E+03  0.98212218473E+03  0.12699999809E+01 0. -1.
    10030    2    1    2    0    0  0.00000000000E+00  0.00000000000E+00  0.10481941606E+04  0.30124381061E+04  0.28241941054E+04 0.  0.
        2    1    3    3  502    0  0.49094589364E+03  0.52094681775E+03 -0.77424685442E+03  0.10544532465E+04  0.25500000920E-02 0. -1.
       -2    1    3    3    0  502 -0.49094589364E+03 -0.52094681775E+03  0.18224410150E+04  0.19579848597E+04  0.25500000920E-02 0.  1.
</event>
<event>
 5   0  0.5625245E-06  0.2759521E+04  0.7818609E-02  0.8315947E-01
        2   -1    0    0  501    0  0.00000000000E+00  0.00000000000E+00  0.88774026260E+03  0.88774026260E+03  0.25500000920E-02 0. -1.
       -2   -1    0    0    0  501  0.00000000000E+00  0.00000000000E+00 -0.21444776035E+04  0.21444776035E+04  0.25500000920E-02 0.  1.
    10030    2    1    2    0    0  0.00000000000E+00  0.00000000000E+00 -0.12567373409E+04  0.30322178661E+04  0.27595210533E+04 0.  0.
        3    1    3    3  502    0 -0.28497103960E+03  0.55187976824E+03  0.72543833871E+03  0.95500814943E+03  0.10100000352E+00 0. -1.
       -3    1    3    3    0  502  0.28497103960E+03 -0.55187976824E+03 -0.19821756796E+04  0.20772097167E+04  0.10100000352E+00 0.  1.
</event>
<event>
 5   0  0.2277133E-06  0.2809854E+04  0.7818609E-02  0.8300216E-01
       -1   -1    0    0    0  501  0.00000000000E+00  0.00000000000E+00  0.12680015386E+04  0.12680015386E+04  0.50400001928E-02 0.  1.
        1   -1    0    0  501    0  0.00000000000E+00  0.00000000000E+00 -0.15566385281E+04  0.15566385281E+04  0.50400001928E-02 0. -1.
    10030    2    1    2    0    0  0.00000000000E+00  0.00000000000E+00 -0.28863698950E+03  0.28246400667E+04  0.28098541234E+04 0.  0.
        1    1    3    3  502    0 -0.31128054897E+03 -0.13645879917E+04 -0.26671337125E+03  0.14248270034E+04  0.50400001928E-02 0. -1.
       -1    1    3    3    0  502  0.31128054897E+03  0.13645879917E+04 -0.21923618252E+02  0.13998130633E+04  0.50400001928E-02 0.  1.
</event>
<event>
 5   0  0.5584205E-06  0.2800107E+04  0.7818609E-02  0.8303235E-01
       -2   -1    0    0    0  501  0.00000000000E+00  0.00000000000E+00  0.87119440629E+03  0.87119440629E+03  0.25500000920E-02 0.  1.
        2   -1    0    0  501    0  0.00000000000E+00  0.00000000000E+00 -0.22499574104E+04  0.22499574104E+04  0.25500000920E-02 0. -1.
    10030    2    1    2    0    0  0.00000000000E+00  0.00000000000E+00 -0.13787630041E+04  0.31211518167E+04  0.28001073625E+04 0.  0.
        1    1    3    3  502    0  0.59264663886E+02  0.10360024898E+04 -0.17370005463E+04  0.20233596707E+04  0.50400001928E-02 0. -1.
       -1    1    3    3    0  502 -0.59264663886E+02 -0.10360024898E+04  0.35823754212E+03  0.10977921460E+04  0.50400001928E-02 0.  1.
</event>
<event>
 5   0  0.5916603E-06  0.2863013E+04  0.7818609E-02  0.8283968E-01
        2   -1    0    0  501    0  0.00000000000E+00  0.00000000000E+00  0.16741846036E+04  0.16741846036E+04  0.25500000920E-02 0.  1.
       -2   -1    0    0    0  501  0.00000000000E+00  0.00000000000E+00 -0.12240056164E+04  0.12240056164E+04  0.25500000920E-02 0. -1.
    10030    2    1    2    0    0  0.00000000000E+00  0.00000000000E+00  0.45017898718E+03  0.28981902200E+04  0.28630133480E+04 0.  0.
        2    1    3    3  502    0  0.44698400071E+02  0.12750350520E+04 -0.43211693339E+03  0.13470105326E+04  0.25500000920E-02 0. -1.
       -2    1    3    3    0  502 -0.44698400071E+02 -0.12750350520E+04  0.88229592057E+03  0.15511796873E+04  0.25500000920E-02 0.  1.
</event>
<event>
 5   0  0.2190865E-06  0.2803765E+04  0.7818609E-02  0.8302101E-01
        1   -1    0    0  501    0  0.00000000000E+00  0.00000000000E+00  0.10099503993E+04  0.10099503993E+04  0.50400001928E-02 0. -1.
       -1   -1    0    0    0  501  0.00000000000E+00  0.00000000000E+00 -0.19459114093E+04  0.19459114093E+04  0.50400001928E-02 0.  1.
    10030    2    1    2    0    0  0.00000000000E+00  0.00000000000E+00 -0.93596100995E+03  0.29558618086E+04  0.28037646156E+04 0.  0.
        2    1    3    3  502    0 -0.76918255836E+02  0.13961417234E+04 -0.57417141182E+03  0.15115558012E+04  0.25500000920E-02 0.  1.
       -2    1    3    3    0  502  0.76918255836E+02 -0.13961417234E+04 -0.36178959813E+03  0.14443060075E+04  0.25500000920E-02 0. -1.
</event>
<event>
 5   0  0.5866136E-06  0.2815468E+04  0.7818609E-02  0.8298482E-01
       -2   -1    0    0    0  501  0.00000000000E+00  0.00000000000E+00  0.15600669385E+04  0.15600669385E+04  0.25500000920E-02 0. -1.
        2   -1    0    0  501    0  0.00000000000E+00  0.00000000000E+00 -0.12702759472E+04  0.12702759472E+04  0.25500000920E-02 0.  1.
    10030    2    1    2    0    0  0.00000000000E+00  0.00000000000E+00  0.28979099129E+03  0.28303428857E+04  0.28154683504E+04 0.  0.
        5    1    3    3  502    0  0.87945847857E+03 -0.10900721078E+04  0.28702490785E+03  0.14297236808E+04  0.46999998093E+01 0. -1.
       -5    1    3    3    0  502 -0.87945847857E+03  0.10900721078E+04  0.27660834347E+01  0.14006192049E+04  0.46999998093E+01 0.  1.
</event>
<event>
 5   0  0.2234068E-06  0.2796456E+04  0.7818609E-02  0.8304369E-01
       -1   -1    0    0    0  501  0.00000000000E+00  0.00000000000E+00  0.12340476724E+04  0.12340476724E+04  0.50400001928E-02 0. -1.
        1   -1    0    0  501    0  0.00000000000E+00  0.00000000000E+00 -0.15842514268E+04  0.15842514268E+04  0.50400001928E-02 0.  1.
    10030    2    1    2    0    0  0.00000000000E+00  0.00000000000E+00 -0.35020375439E+03  0.28182990992E+04  0.27964561757E+04 0.  0.
        3    1    3    3  502    0  0.76254977679E+03 -0.11469886181E+04  0.67562427768E+02  0.13789959187E+04  0.10100000352E+00 0. -1.
       -3    1    3    3    0  502 -0.76254977679E+03  0.11469886181E+04 -0.41776618216E+03  0.14393031804E+04  0.10100000352E+00 0.  1.
</event>
<event>
 5   0  0.2234068E-06  0.2956055E+04  0.7818609E-02  0.8256392E-01
       -1   -1    0    0    0  501  0.00000000000E+00  0.00000000000E+00  0.11705755069E+04  0.11705755069E+04  0.50400001928E-02 0. -1.
        1   -1    0    0  501    0  0.00000000000E+00  0.00000000000E+00 -0.18662317503E+04  0.18662317503E+04  0.50400001928E-02 0.  1.
    10030    2    1    2    0    0  0.00000000000E+00  0.00000000000E+00 -0.69565624338E+03  0.30368072571E+04  0.29560549230E+04 0.  0.
        3    1    3    3  502    0  0.62681618466E+03  0.82764842654E+03  0.73289081680E+03  0.12708380726E+04  0.10100000352E+00 0. -1.
       -3    1    3    3    0  502 -0.62681618466E+03 -0.82764842654E+03 -0.14285470602E+04  0.17659691845E+04  0.10100000352E+00 0.  1.
</event>
<event>
 5   0  0.2267565E-06  0.2785123E+04  0.7818609E-02  0.8307902E-01
       -1   -1    0    0    0  501  0.00000000000E+00  0.00000000000E+00  0.95235874493E+03  0.95235874495E+03  0.50400001928E-02 0. -1.
        1   -1    0    0  501    0  0.00000000000E+00  0.00000000000E+00 -0.20362359735E+04  0.20362359735E+04  0.50400001928E-02 0.  1.
    10030    2    1    2    0    0  0.00000000000E+00  0.00000000000E+00 -0.10838772286E+04  0.29885947185E+04  0.27851227163E+04 0.  0.
        4    1    3    3  502    0  0.41687167171E+03  0.11975956381E+04 -0.11594902018E+04  0.17182655337E+04  0.12699999809E+01 0. -1.
       -4    1    3    3    0  502 -0.41687167171E+03 -0.11975956381E+04  0.75612973226E+02  0.12703291848E+04  0.12699999809E+01 0.  1.
</event>
<event>
 5   0  0.5546570E-06  0.2812535E+04  0.7818609E-02  0.8299387E-01
       -2   -1    0    0    0  501  0.00000000000E+00  0.00000000000E+00  0.15484778574E+04  0.15484778574E+04  0.25500000920E-02 0. -1.
        2   -1    0    0  501    0  0.00000000000E+00  0.00000000000E+00 -0.12771173161E+04  0.12771173161E+04  0.25500000920E-02 0.  1.
    10030    2    1    2    0    0  0.00000000000E+00  0.00000000000E+00  0.27136054133E+03  0.28255951735E+04  0.28125347182E+04 0.  0.
        4    1    3    3  502    0  0.56758799249E+03  0.97755932983E+03 -0.70474957784E+03  0.13320855652E+04  0.12699999809E+01 0.  1.
       -4    1    3    3    0  502 -0.56758799249E+03 -0.97755932983E+03  0.97611011917E+03  0.14935096083E+04  0.12699999809E+01 0. -1.
</event>
<event>
 5   0  0.5916603E-06  0.2750499E+04  0.7818609E-02  0.8318803E-01
       -2   -1    0    0    0  501  0.00000000000E+00  0.00000000000E+00  0.16438831882E+04  0.16438831882E+04  0.25500000920E-02 0.  1.
        2   -1    0    0  501    0  0.00000000000E+00  0.00000000000E+00 -0.11505145806E+04  0.11505145806E+04  0.25500000920E-02 0. -1.
    10030    2    1    2    0    0  0.00000000000E+00  0.00000000000E+00  0.49336860759E+03  0.27943977688E+04  0.27504992833E+04 0.  0.
        2    1    3    3  502    0  0.30060464494E+03  0.13040909664E+04  0.56843293739E+03  0.14540056415E+04  0.25500000920E-02 0.  1.
       -2    1    3    3    0  502 -0.30060464494E+03 -0.13040909664E+04 -0.75064329791E+02  0.13403921273E+04  0.25500000920E-02 0. -1.
</event>
<event>
 5   0  0.5546570E-06  0.2783755E+04  0.7818609E-02  0.8308330E-01
        2   -1    0    0  501    0  0.00000000000E+00  0.00000000000E+00  0.15995986861E+04  0.15995986861E+04  0.25500000920E-02 0. -1.
       -2   -1    0    0    0  501  0.00000000000E+00  0.00000000000E+00 -0.12111304879E+04  0.12111304879E+04  0.25500000920E-02 0.  1.
    10030    2    1    2    0    0  0.00000000000E+00  0.00000000000E+00  0.38846819820E+03  0.28107291739E+04  0.27837548290E+04 0.  0.
        4    1    3    3  502    0 -0.21156085714E+01 -0.51141470797E+03 -0.11128256381E+04  0.12247171074E+04  0.12699999809E+01 0.  1.
       -4    1    3    3    0  502  0.21156085714E+01  0.51141470797E+03  0.15012938363E+04  0.15860120665E+04  0.12699999809E+01 0. -1.
</event>
<event>
 5   0  0.5584205E-06  0.2768996E+04  0.7818609E-02  0.8312959E-01
       -2   -1    0    0    0  501  0.00000000000E+00  0.00000000000E+00  0.77705239215E+03  0.77705239215E+03  0.25500000920E-02 0.  1.
        2   -1    0    0  501    0  0.00000000000E+00  0.00000000000E+00 -0.24668030563E+04  0.24668030563E+04  0.25500000920E-02 0. -1.
    10030    2    1    2    0    0  0.00000000000E+00  0.00000000000E+00 -0.16897506642E+04  0.32438554484E+04  0.27689963639E+04 0.  0.
        1    1    3    3  502    0  0.89857988858E+03  0.89084902984E+02 -0.20743572555E+04  0.22623748495E+04  0.50400001928E-02 0. -1.
       -1    1    3    3    0  502 -0.89857988858E+03 -0.89084902984E+02  0.38460659132E+03  0.98148059900E+03  0.50400001928E-02 0.  1.
</event>
<event>
 5   0  0.5625245E-06  0.2822134E+04  0.7818609E-02  0.8296429E-01
        2   -1    0    0  501    0  0.00000000000E+00  0.00000000000E+00  0.12262917983E+04  0.12262917983E+04  0.25500000920E-02 0.  1.
       -2   -1    0    0    0  501  0.00000000000E+00  0.00000000000E+00 -0.16236843168E+04  0.16236843168E+04  0.25500000920E-02 0. -1.
    10030    2    1    2    0    0  0.00000000000E+00  0.00000000000E+00 -0.39739251848E+03  0.28499761151E+04  0.28221344835E+04 0.  0.
        3    1    3    3  502    0  0.79964548769E+03  0.58677809798E+03 -0.12122758858E+04  0.15663187018E+04  0.10100000352E+00 0. -1.
       -3    1    3    3    0  502 -0.79964548769E+03 -0.58677809798E+03  0.81488336730E+03  0.12836574133E+04  0.10100000352E+00 0.  1.
</event>
<event>
 5   0  0.2277133E-06  0.2803077E+04  0.7818609E-02  0.8302314E-01
        1   -1    0    0  501    0  0.00000000000E+00  0.00000000000E+00  0.13631511538E+04  0.13631511538E+04  0.50400001928E-02 0.  1.
       -1   -1    0    0    0  501  0.00000000000E+00  0.00000000000E+00 -0.14410069211E+04  0.14410069211E+04  0.50400001928E-02 0. -1.
    10030    2    1    2    0    0  0.00000000000E+00  0.00000000000E+00 -0.77855767350E+02  0.28041580749E+04  0.28030770572E+04 0.  0.
        1    1    3    3  502    0 -0.99034763238E+03  0.83288071547E+03  0.49963977266E+03  0.13871260295E+04  0.50400001928E-02 0.  1.
       -1    1    3    3    0  502  0.99034763238E+03 -0.83288071547E+03 -0.57749554001E+03  0.14170320455E+04  0.50400001928E-02 0. -1.
</event>
<event>
 5   0  0.5916603E-06  0.2817611E+04  0.7818609E-02  0.8297822E-01
        2   -1    0    0  501    0  0.00000000000E+00  0.00000000000E+00  0.11279728707E+04  0.11279728707E+04  0.25500000920E-02 0. -1.
       -2   -1    0    0    0  501  0.00000000000E+00  0.00000000000E+00 -0.17595568967E+04  0.17595568967E+04  0.25500000920E-02 0.  1.
    10030    2    1    2    0    0  0.00000000000E+00  0.00000000000E+00 -0.63158402601E+03  0.28875297674E+04  0.28176106502E+04 0.  0.
        2    1    3    3  502    0 -0.66149001659E+03 -0.12328084535E+04 -0.14631995541E+03  0.14066965751E+04  0.25500000920E-02 0.  1.
       -2    1    3    3    0  502  0.66149001659E+03  0.12328084535E+04 -0.48526407061E+03  0.14808331923E+04  0.25500000920E-02 0. -1.
</event>
<event>
 5   0  0.2190865E-06  0.2851156E+04  0.7818609E-02  0.8287560E-01
        1   -1    0    0  501    0  0.00000000000E+00  0.00000000000E+00  0.22448281363E+04  0.22448281363E+04  0.50400001928E-02 0. -1.
       -1   -1    0    0    0  501  0.00000000000E+00  0.00000000000E+00 -0.90531352783E+03  0.90531352785E+03  0.50400001928E-02 0.  1.
    10030    2    1    2    0    0  0.00000000000E+00  0.00000000000E+00  0.13395146084E+04  0.31501416641E+04  0.28511564527E+04 0.  0.
        2    1    3    3  502    0 -0.12459528830E+04  0.62791390501E+03  0.34650403448E+03  0.14376159100E+04  0.25500000920E-02 0.  1.
       -2    1    3    3    0  502  0.12459528830E+04 -0.62791390501E+03  0.99301057395E+03  0.17125257542E+04  0.25500000920E-02 0. -1.
</event>
<event>
 5   0  0.5546570E-06  0.2781529E+04  0.7818609E-02  0.8309026E-01
        2   -1    0    0  501    0  0.00000000000E+00  0.00000000000E+00  0.16781152759E+04  0.16781152759E+04  0.25500000920E-02 0.  1.
       -2   -1    0    0    0  501  0.00000000000E+00  0.00000000000E+00 -0.11526181100E+04  0.11526181100E+04  0.25500000920E-02 0. -1.
    10030    2    1    2    0    0  0.00000000000E+00  0.00000000000E+00  0.52549716596E+03  0.28307333859E+04  0.27815291174E+04 0.  0.
        4    1    3    3  502    0  0.10221807897E+04  0.75082852683E+03 -0.31798351141E+03  0.13075596238E+04  0.12699999809E+01 0. -1.
       -4    1    3    3    0  502 -0.10221807897E+04 -0.75082852683E+03  0.84348067737E+03  0.15231737621E+04  0.12699999809E+01 0.  1.
</event>
<event>
 5   0  0.5546570E-06  0.2799517E+04  0.7818609E-02  0.8303418E-01
       -2   -1    0    0    0  501  0.00000000000E+00  0.00000000000E+00  0.10683809616E+04  0.10683809616E+04  0.25500000920E-02 0.  1.
        2   -1    0    0  501    0  0.00000000000E+00  0.00000000000E+00 -0.18339185585E+04  0.18339185585E+04  0.25500000920E-02 0. -1.
    10030    2    1    2    0    0  0.00000000000E+00  0.00000000000E+00 -0.76553759697E+03  0.29022995201E+04  0.27995168676E+04 0.  0.
        4    1    3    3  502    0 -0.13928213907E+04  0.12987704423E+03 -0.33090626335E+03  0.14374700140E+04  0.12699999809E+01 0.  1.
       -4    1    3    3    0  502  0.13928213907E+04 -0.12987704423E+03 -0.43463133362E+03  0.14648295062E+04  0.12699999809E+01 0. -1.
</event>
<event>
 5   0  0.2277133E-06  0.2866195E+04  0.7818609E-02  0.8283007E-01
       -1   -1    0    0    0  501  0.00000000000E+00  0.00000000000E+00  0.20027114161E+04  0.20027114161E+04  0.50400001928E-02 0. -1.
        1   -1    0    0  501    0  0.00000000000E+00  0.00000000000E+00 -0.10254940813E+04  0.10254940813E+04  0.50400001928E-02 0.  1.
    10030    2    1    2    0    0  0.00000000000E+00  0.00000000000E+00  0.97721733478E+03  0.30282054975E+04  0.28661951810E+04 0.  0.
        1    1    3    3  502    0  0.11476442882E+04 -0.82373843342E+03  0.23386510393E+03  0.14318957036E+04  0.50400001928E-02 0.  1.
       -1    1    3    3    0  502 -0.11476442882E+04  0.82373843342E+03  0.74335223085E+03  0.15963097939E+04  0.50400001928E-02 0. -1.
</event>
<event>
 5   0  0.2206967E-06  0.2839398E+04  0.7818609E-02  0.8291140E-01
        1   -1    0    0  501    0  0.00000000000E+00  0.00000000000E+00  0.17159299603E+04  0.17159299603E+04  0.50400001928E-02 0.  1.
       -1   -1    0    0    0  501  0.00000000000E+00  0.00000000000E+00 -0.11746077366E+04  0.11746077366E+04  0.50400001928E-02 0. -1.
    10030    2    1    2    0    0  0.00000000000E+00  0.00000000000E+00  0.54132222375E+03  0.28905376969E+04  0.28393975465E+04 0.  0.
        5    1    3    3  502    0  0.53032534332E+03  0.12855414900E+03  0.16048969065E+04  0.16951363690E+04  0.46999998093E+01 0.  1.
       -5    1    3    3    0  502 -0.53032534332E+03 -0.12855414900E+03 -0.10635746827E+04  0.11954013279E+04  0.46999998093E+01 0. -1.
</event>
<event>
 5   0  0.5625245E-06  0.2800215E+04  0.7818609E-02  0.8303202E-01
       -2   -1    0    0    0  501  0.00000000000E+00  0.00000000000E+00  0.10531442385E+04  0.10531442385E+04  0.25500000920E-02 0.  1.
        2   -1    0    0  501    0  0.00000000000E+00  0.00000000000E+00 -0.18613797882E+04  0.18613797882E+04  0.25500000920E-02 0. -1.
    10030    2    1    2    0    0  0.00000000000E+00  0.00000000000E+00 -0.80823554967E+03  0.29145240267E+04  0.28002152772E+04 0.  0.
        3    1    3    3  502    0  0.75403297456E+03  0.46887153508E+03 -0.15308496924E+04  0.17697194789E+04  0.10100000352E+00 0. -1.
       -3    1    3    3    0  502 -0.75403297456E+03 -0.46887153508E+03  0.72261414277E+03  0.11448045478E+04  0.10100000352E+00 0.  1.
</event>
<event>
 5   0  0.2206967E-06  0.2808007E+04  0.7818609E-02  0.8300787E-01
       -1   -1    0    0    0  501  0.00000000000E+00  0.00000000000E+00  0.17681361251E+04  0.17681361251E+04  0.50400001928E-02 0.  1.
        1   -1    0    0  501    0  0.00000000000E+00  0.00000000000E+00 -0.11148605434E+04  0.11148605434E+04  0.50400001928E-02 0. -1.
    10030    2    1    2    0    0  0.00000000000E+00  0.00000000000E+00  0.65327558172E+03  0.28829966685E+04  0.28080065536E+04 0.  0.
        5    1    3    3  502    0  0.70686015348E+03 -0.80767860213E+03  0.12559098518E+04  0.16520676883E+04  0.46999998093E+01 0.  1.
       -5    1    3    3    0  502 -0.70686015348E+03  0.80767860213E+03 -0.60263427004E+03  0.12309289802E+04  0.46999998093E+01 0. -1.
</event>
<event>
 5   0  0.2267565E-06  0.2802592E+04  0.7818609E-02  0.8302464E-01
        1   -1    0    0  501    0  0.00000000000E+00  0.00000000000E+00  0.12813735723E+04  0.12813735723E+04  0.50400001928E-02 0.  1.
       -1   -1    0    0    0  501  0.00000000000E+00  0.00000000000E+00 -0.15324418218E+04  0.15324418218E+04  0.50400001928E-02 0. -1.
    10030    2    1    2    0    0  0.00000000000E+00  0.00000000000E+00 -0.25106824950E+03  0.28138153940E+04  0.28025919799E+04 0.  0.
        4    1    3    3  502    0  0.12710515950E+03  0.41559374531E+03  0.12120001667E+04  0.12875635517E+04  0.12699999809E+01 0.  1.
       -4    1    3    3    0  502 -0.12710515950E+03 -0.41559374531E+03 -0.14630684162E+04  0.15262518423E+04  0.12699999809E+01 0. -1.
</event>
<event>
 5   0  0.5546570E-06  0.2809073E+04  0.7818609E-02  0.8300457E-01
        2   -1    0    0  501    0  0.00000000000E+00  0.00000000000E+00  0.15352985681E+04  0.15352985681E+04  0.25500000920E-02 0. -1.
       -2   -1    0    0    0  501  0.00000000000E+00  0.00000000000E+00 -0.12849111839E+04  0.12849111839E+04  0.25500000920E-02 0.  1.
    10030    2    1    2    0    0  0.00000000000E+00  0.00000000000E+00  0.25038738419E+03  0.28202097521E+04  0.28090726590E+04 0.  0.
        4    1    3    3  502    0 -0.11611042248E+04 -0.71414995911E+03  0.46498420607E+03  0.14402725818E+04  0.12699999809E+01 0. -1.
       -4    1    3    3    0  502  0.11611042248E+04  0.71414995911E+03 -0.21459682188E+03  0.13799371703E+04  0.12699999809E+01 0.  1.
</event>
<event>
 5   0  0.5584205E-06  0.2795255E+04  0.7818609E-02  0.8304743E-01
        2   -1    0    0  501    0  0.00000000000E+00  0.00000000000E+00  0.19557055531E+04  0.19557055531E+04  0.25500000920E-02 0.  1.
       -2   -1    0    0    0  501  0.00000000000E+00  0.00000000000E+00 -0.99880199733E+03  0.99880199734E+03  0.25500000920E-02 0. -1.
    10030    2    1    2    0    0  0.00000000000E+00  0.00000000000E+00  0.95690355580E+03  0.29545075505E+04  0.27952549885E+04 0.  0.
        1    1    3    3  502    0  0.13333819987E+04 -0.39035019125E+03  0.63903433997E+03  0.15292631277E+04  0.50400001928E-02 0. -1.
       -1    1    3    3    0  502 -0.13333819987E+04  0.39035019125E+03  0.31786921583E+03  0.14252444227E+04  0.50400001928E-02 0.  1.
</event>
<event>
 5   0  0.2190865E-06  0.2785902E+04  0.7818609E-02  0.8307659E-01
        1   -1    0    0  501    0  0.00000000000E+00  0.00000000000E+00  0.21677794496E+04  0.21677794496E+04  0.50400001928E-02 0. -1.
       -1   -1    0    0    0  501  0.00000000000E+00  0.00000000000E+00 -0.89506919862E+03  0.89506919863E+03  0.50400001928E-02 0.  1.
    10030    2    1    2    0    0  0.00000000000E+00  0.00000000000E+00  0.12727102509E+04  0.30628486482E+04  0.27859020907E+04 0.  0.
        2    1    3    3  502    0  0.64218607660E+03 -0.76370033650E+03 -0.43220775392E+03  0.10874027329E+04  0.25500000920E-02 0.  1.
       -2    1    3    3    0  502 -0.64218607660E+03  0.76370033650E+03  0.17049180049E+04  0.19754459153E+04  0.25500000920E-02 0. -1.
</event>
<event>
 5   0  0.5916603E-06  0.2810090E+04  0.7818609E-02  0.8300143E-01
       -2   -1    0    0    0  501  0.00000000000E+00  0.00000000000E+00  0.10451138881E+04  0.10451138881E+04  0.25500000920E-02 0.  1.
        2   -1    0    0  501    0  0.00000000000E+00  0.00000000000E+00 -0.18889339544E+04  0.18889339544E+04  0.25500000920E-02 0. -1.
    10030    2    1    2    0    0  0.00000000000E+00  0.00000000000E+00 -0.84382006634E+03  0.29340478425E+04  0.28100897562E+04 0.  0.
        2    1    3    3  502    0  0.85042306765E+03 -0.88529851839E+03 -0.11355650228E+04  0.16722681548E+04  0.25500000920E-02 0. -1.
       -2    1    3    3    0  502 -0.85042306765E+03  0.88529851839E+03  0.29174495648E+03  0.12617796877E+04  0.25500000920E-02 0.  1.
</event>
<event>
 5   0  0.5584205E-06  0.2789250E+04  0.7818609E-02  0.8306614E-01
        2   -1    0    0  501    0  0.00000000000E+00  0.00000000000E+00  0.12439611796E+04  0.12439611796E+04  0.25500000920E-02 0.  1.
       -2   -1    0    0    0  501  0.00000000000E+00  0.00000000000E+00 -0.15635365570E+04  0.15635365570E+04  0.25500000920E-02 0. -1.
    10030    2    1    2    0    0  0.00000000000E+00  0.00000000000E+00 -0.31957537731E+03  0.28074977366E+04  0.27892499205E+04 0.  0.
        1    1    3    3  502    0  0.13036071527E+04 -0.22576780242E+03  0.28425153548E+03  0.13532042140E+04  0.50400001928E-02 0.  1.
       -1    1    3    3    0  502 -0.13036071527E+04  0.22576780242E+03 -0.60382691280E+03  0.14542935226E+04  0.50400001928E-02 0. -1.
</event>
<event>
 5   0  0.5625245E-06  0.2801226E+04  0.7818609E-02  0.8302888E-01
       -2   -1    0    0    0  501  0.00000000000E+00  0.00000000000E+00  0.11024182283E+04  0.11024182284E+04  0.25500000920E-02 0. -1.
        2   -1    0    0  501    0  0.00000000000E+00  0.00000000000E+00 -0.17794670570E+04  0.17794670570E+04  0.25500000920E-02 0.  1.
    10030    2    1    2    0    0  0.00000000000E+00  0.00000000000E+00 -0.67704882861E+03  0.28818852853E+04  0.28012261032E+04 0.  0.
        3    1    3    3  502    0  0.62150269455E+03  0.17037043005E+03  0.94083623293E+03  0.11403791081E+04  0.10100000352E+00 0. -1.
       -3    1    3    3    0  502 -0.62150269455E+03 -0.17037043005E+03 -0.16178850615E+04  0.17415061772E+04  0.10100000352E+00 0.  1.
</event>
<event>
 5   0  0.5916603E-06  0.2791855E+04  0.7818609E-02  0.8305801E-01
       -2   -1    0    0    0  501  0.00000000000E+00  0.00000000000E+00  0.14183133582E+04  0.14183133582E+04  0.25500000920E-02 0.  1.
        2   -1    0    0  501    0  0.00000000000E+00  0.00000000000E+00 -0.13738952418E+04  0.13738952418E+04  0.25500000920E-02 0. -1.
    10030    2    1    2    0    0  0.00000000000E+00  0.00000000000E+00  0.44418116409E+02  0.27922086000E+04  0.27918552786E+04 0.  0.
        2    1    3    3  502    0  0.77702816088E+03  0.89042812023E+02  0.11786047494E+04  0.14145001027E+04  0.25500000920E-02 0.  1.
       -2    1    3    3    0  502 -0.77702816088E+03 -0.89042812023E+02 -0.11341866330E+04  0.13777084973E+04  0.25500000920E-02 0. -1.
</event>
<event>
 5   0  0.2206967E-06  0.2803005E+04  0.7818609E-02  0.8302336E-01
       -1   -1    0    0    0  501  0.00000000000E+00  0.00000000000E+00  0.13793658544E+04  0.13793658545E+04  0.50400001928E-02 0.  1.
        1   -1    0    0  501    0  0.00000000000E+00  0.00000000000E+00 -0.14239945394E+04  0.14239945395E+04  0.50400001928E-02 0. -1.
    10030    2    1    2    0    0  0.00000000000E+00  0.00000000000E+00 -0.44628684997E+02  0.28033603939E+04  0.28030051335E+04 0.  0.
        5    1    3    3  502    0 -0.13581778892E+04 -0.33971958195E+03 -0.86593644679E+02  0.14027035048E+04  0.46999998093E+01 0. -1.
       -5    1    3    3    0  502  0.13581778892E+04  0.33971958195E+03  0.41964959683E+02  0.14006568891E+04  0.46999998093E+01 0.  1.
</event>
<event>
 5   0  0.5546570E-06  0.2793339E+04  0.7818609E-02  0.8305339E-01
        2   -1    0    0  501    0  0.00000000000E+00  0.00000000000E+00  0.15551275927E+04  0.15551275927E+04  0.25500000920E-02 0. -1.
       -2   -1    0    0    0  501  0.00000000000E+00  0.00000000000E+00 -0.12543570866E+04  0.12543570866E+04  0.25500000920E-02 0.  1.
    10030    2    1    2    0    0  0.00000000000E+00  0.00000000000E+00  0.30077050612E+03  0.28094846793E+04  0.27933387309E+04 0.  0.
        4    1    3    3  502    0  0.33355980027E+03  0.10705940680E+04  0.98781421056E+03  0.14943936316E+04  0.12699999809E+01 0. -1.
       -4    1    3    3    0  502 -0.33355980027E+03 -0.10705940680E+04 -0.68704370445E+03  0.13150910476E+04  0.12699999809E+01 0.  1.
</event>
<event>
 5   0  0.2234068E-06  0.2804882E+04  0.7818609E-02  0.8301754E-01
       -1   -1    0    0    0  501  0.00000000000E+00  0.00000000000E+00  0.11966902673E+04  0.11966902673E+04  0.50400001928E-02 0.  1.
        1   -1    0    0  501    0  0.00000000000E+00  0.00000000000E+00 -0.16435665523E+04  0.16435665523E+04  0.50400001928E-02 0. -1.
    10030    2    1    2    0    0  0.00000000000E+00  0.00000000000E+00 -0.44687628508E+03  0.28402568196E+04  0.28048815282E+04 0.  0.
        3    1    3    3  502    0  0.28558197532E+03  0.13537821082E+04 -0.45558268494E+03  0.14566532374E+04  0.10100000352E+00 0. -1.
       -3    1    3    3    0  502 -0.28558197532E+03 -0.13537821082E+04  0.87063998607E+01  0.13836035822E+04  0.10100000352E+00 0.  1.
</event>
<event>
 5   0  0.2234068E-06  0.2761781E+04  0.7818609E-02  0.8315233E-01
       -1   -1    0    0    0  501  0.00000000000E+00  0.00000000000E+00  0.73411133034E+03  0.73411133036E+03  0.50400001928E-02 0.  1.
        1   -1    0    0  501    0  0.00000000000E+00  0.00000000000E+00 -0.25975054186E+04  0.25975054186E+04  0.50400001928E-02 0. -1.
    10030    2    1    2    0    0  0.00000000000E+00  0.00000000000E+00 -0.18633940883E+04  0.33316167490E+04  0.27617806998E+04 0.  0.
        3    1    3    3  502    0 -0.31485116782E+03  0.12770520730E+04 -0.14390225121E+04  0.19495586822E+04  0.10100000352E+00 0. -1.
       -3    1    3    3    0  502  0.31485116782E+03 -0.12770520730E+04 -0.42437157616E+03  0.13820580667E+04  0.10100000352E+00 0.  1.
</event>
<event>
 5   0  0.5625245E-06  0.2769744E+04  0.7818609E-02  0.8312724E-01
       -2   -1    0    0    0  501  0.00000000000E+00  0.00000000000E+00  0.14041831177E+04  0.14041831177E+04  0.25500000920E-02 0. -1.
        2   -1    0    0  501    0  0.00000000000E+00  0.00000000000E+00 -0.13658262540E+04  0.13658262540E+04  0.25500000920E-02 0.  1.
    10030    2    1    2    0    0  0.00000000000E+00  0.00000000000E+00  0.38356863640E+02  0.27700093717E+04  0.27697437915E+04 0.  0.
        3    1    3    3  502    0  0.13316521358E+03  0.25136920386E+03 -0.13362930729E+04  0.13662352058E+04  0.10100000352E+00 0.  1.
       -3    1    3    3    0  502 -0.13316521358E+03 -0.25136920386E+03  0.13746499365E+04  0.14037741659E+04  0.10100000352E+00 0. -1.
</event>
<event>
 5   0  0.2234068E-06  0.2791816E+04  0.7818609E-02  0.8305814E-01
       -1   -1    0    0    0  501  0.00000000000E+00  0.00000000000E+00  0.10570323738E+04  0.10570323738E+04  0.50400001928E-02 0.  1.
        1   -1    0    0  501    0  0.00000000000E+00  0.00000000000E+00 -0.18434245919E+04  0.18434245919E+04  0.50400001928E-02 0. -1.
    10030    2    1    2    0    0  0.00000000000E+00  0.00000000000E+00 -0.78639221809E+03  0.29004569658E+04  0.27918162349E+04 0.  0.
        3    1    3    3  502    0  0.62622441706E+03  0.86239488891E+03 -0.13297628151E+04  0.17041570114E+04  0.10100000352E+00 0. -1.
       -3    1    3    3    0  502 -0.62622441706E+03 -0.86239488891E+03  0.54337059700E+03  0.11962999544E+04  0.10100000352E+00 0.  1.
</event>
<event>
 5   0  0.2267565E-06  0.2790455E+04  0.7818609E-02  0.8306238E-01
       -1   -1    0    0    0  501  0.00000000000E+00  0.00000000000E+00  0.14488254405E+04  0.14488254405E+04  0.50400001928E-02 0. -1.
        1   -1    0    0  501    0  0.00000000000E+00  0.00000000000E+00 -0.13436127528E+04  0.13436127528E+04  0.50400001928E-02 0.  1.
    10030    2    1    2    0    0  0.00000000000E+00  0.00000000000E+00  0.10521268774E+03  0.27924381933E+04  0.27904554026E+04 0.  0.
        4    1    3    3  502    0  0.61324474753E+03  0.51798510248E+03 -0.10893798199E+04  0.13531916685E+04  0.12699999809E+01 0.  1.
       -4    1    3    3    0  502 -0.61324474753E+03 -0.51798510248E+03  0.11945925077E+04  0.14392465248E+04  0.12699999809E+01 0. -1.
</event>
<event>
 5   0  0.2206967E-06  0.2801180E+04  0.7818609E-02  0.8302902E-01
        1   -1    0    0  501    0  0.00000000000E+00  0.00000000000E+00  0.23089722740E+04  0.23089722741E+04  0.50400001928E-02 0.  1.
       -1   -1    0    0    0  501  0.00000000000E+00  0.00000000000E+00 -0.84957825756E+03  0.84957825757E+03  0.50400001928E-02 0. -1.
    10030    2    1    2    0    0  0.00000000000E+00  0.00000000000E+00  0.14593940165E+04  0.31585505316E+04  0.28011802094E+04 0.  0.
        5    1    3    3  502    0 -0.41321945363E+03  0.77674126618E+03 -0.49908070088E+03  0.10115240716E+04  0.46999998093E+01 0. -1.
       -5    1    3    3    0  502  0.41321945363E+03 -0.77674126618E+03  0.19584747174E+04  0.21470264600E+04  0.46999998093E+01 0.  1.
</event>
<event>
 5   0  0.2267565E-06  0.2719986E+04  0.7818609E-02  0.8328549E-01
        1   -1    0    0  501    0  0.00000000000E+00  0.00000000000E+00  0.11441362122E+04  0.11441362122E+04  0.50400001928E-02 0. -1.
       -1   -1    0    0    0  501  0.00000000000E+00  0.00000000000E+00 -0.16165744755E+04  0.16165744755E+04  0.50400001928E-02 0.  1.
    10030    2    1    2    0    0  0.00000000000E+00  0.00000000000E+00 -0.47243826335E+03  0.27607106878E+04  0.27199863214E+04 0.  0.
        4    1    3    3  502    0 -0.33643780888E+03  0.45758747779E+03 -0.14904403215E+04  0.15949892363E+04  0.12699999809E+01 0.  1.
       -4    1    3    3    0  502  0.33643780888E+03 -0.45758747779E+03  0.10180020581E+04  0.11657214515E+04  0.12699999809E+01 0. -1.
</event>
<event>
 5   0  0.5625245E-06  0.2797195E+04  0.7818609E-02  0.8304140E-01
       -2   -1    0    0    0  501  0.00000000000E+00  0.00000000000E+00  0.16400374467E+04  0.16400374467E+04  0.25500000920E-02 0. -1.
        2   -1    0    0  501    0  0.00000000000E+00  0.00000000000E+00 -0.11927017797E+04  0.11927017797E+04  0.25500000920E-02 0.  1.
    10030    2    1    2    0    0  0.00000000000E+00  0.00000000000E+00  0.44733566700E+03  0.28327392264E+04  0.27971954393E+04 0.  0.
        3    1    3    3  502    0  0.10712295504E+04  0.46298695137E+03  0.10042973304E+04  0.15396437266E+04  0.10100000352E+00 0. -1.
       -3    1    3    3    0  502 -0.10712295504E+04 -0.46298695137E+03 -0.55696166340E+03  0.12930954998E+04  0.10100000352E+00 0.  1.
</event>
<event>
 5   0  0.2277133E-06  0.2750376E+04  0.7818609E-02  0.8318842E-01
        1   -1    0    0  501    0  0.00000000000E+00  0.00000000000E+00  0.11418726905E+04  0.11418726905E+04  0.50400001928E-02 0.  1.
       -1   -1    0    0    0  501  0.00000000000E+00  0.00000000000E+00 -0.16561761292E+04  0.16561761292E+04  0.50400001928E-02 0. -1.
    10030    2    1    2    0    0  0.00000000000E+00  0.00000000000E+00 -0.51430343866E+03  0.27980488197E+04  0.27503761871E+04 0.  0.
        1    1    3    3  502    0  0.87658436649E+03  0.91088040820E+03  0.29356202737E+03  0.12977988802E+04  0.50400001928E-02 0. -1.
       -1    1    3    3    0  502 -0.87658436649E+03 -0.91088040820E+03 -0.80786546603E+03  0.15002499395E+04  0.50400001928E-02 0.  1.
</event>
<event>
 5   0  0.5625245E-06  0.2771711E+04  0.7818609E-02  0.8312105E-01
        2   -1    0    0  501    0  0.00000000000E+00  0.00000000000E+00  0.23299851340E+04  0.23299851340E+04  0.25500000920E-02 0.  1.
       -2   -1    0    0    0  501  0.00000000000E+00  0.00000000000E+00 -0.82429512543E+03  0.82429512543E+03  0.25500000920E-02 0. -1.
    10030    2    1    2    0    0  0.00000000000E+00  0.00000000000E+00  0.15056900086E+04  0.31542802595E+04  0.27717109433E+04 0.  0.
        3    1    3    3  502    0  0.39296285189E+03  0.42436108572E+03 -0.68038766545E+03  0.89298909262E+03  0.10100000352E+00 0. -1.
       -3    1    3    3    0  502 -0.39296285189E+03 -0.42436108572E+03  0.21860776741E+04  0.22612911668E+04  0.10100000352E+00 0.  1.
</event>
<event>
 5   0  0.5546570E-06  0.2794640E+04  0.7818609E-02  0.8304934E-01
        2   -1    0    0  501    0  0.00000000000E+00  0.00000000000E+00  0.12384317369E+04  0.12384317369E+04  0.25500000920E-02 0.  1.
       -2   -1    0    0    0  501  0.00000000000E+00  0.00000000000E+00 -0.15765933613E+04  0.15765933613E+04  0.25500000920E-02 0. -1.
    10030    2    1    2    0    0  0.00000000000E+00  0.00000000000E+00 -0.33816162446E+03  0.28150250982E+04  0.27946400518E+04 0.  0.
        4    1    3    3  502    0 -0.93932220146E+03  0.30010140897E+03 -0.11663096273E+04  0.15273070462E+04  0.12699999809E+01 0. -1.
       -4    1    3    3    0  502  0.93932220146E+03 -0.30010140897E+03  0.82814800284E+03  0.12877180520E+04  0.12699999809E+01 0.  1.
</event>
<event>
 5   0  0.2267565E-06  0.2800657E+04  0.7818609E-02  0.8303065E-01
        1   -1    0    0  501    0  0.00000000000E+00  0.00000000000E+00  0.94326501878E+03  0.94326501879E+03  0.50400001928E-02 0.  1.
       -1   -1    0    0    0  501  0.00000000000E+00  0.00000000000E+00 -0.20788637978E+04  0.20788637978E+04  0.50400001928E-02 0. -1.
    10030    2    1    2    0    0  0.00000000000E+00  0.00000000000E+00 -0.11355987791E+04  0.30221288166E+04  0.28006567082E+04 0.  0.
        4    1    3    3  502    0  0.38224674323E+03 -0.11283698667E+04 -0.13619211783E+04  0.18094645720E+04  0.12699999809E+01 0. -1.
       -4    1    3    3    0  502 -0.38224674323E+03  0.11283698667E+04  0.22632239920E+03  0.12126642446E+04  0.12699999809E+01 0.  1.
</event>
<event>
 5   0  0.2277133E-06  0.2738898E+04  0.7818609E-02  0.8322493E-01
       -1   -1    0    0    0  501  0.00000000000E+00  0.00000000000E+00  0.66623577429E+03  0.66623577431E+03  0.50400001928E-02 0. -1.
        1   -1    0    0  501    0  0.00000000000E+00  0.00000000000E+00 -0.28149046314E+04  0.28149046314E+04  0.50400001928E-02 0.  1.
    10030    2    1    2    0    0  0.00000000000E+00  0.00000000000E+00 -0.21486688571E+04  0.34811404057E+04  0.27388977102E+04 0.  0.
        1    1    3    3  502    0 -0.67768799462E+03 -0.85757598917E+03 -0.21229619043E+04  0.23878159147E+04  0.50400001928E-02 0.  1.
       -1    1    3    3    0  502  0.67768799462E+03  0.85757598917E+03 -0.25706952808E+02  0.10933244910E+04  0.50400001928E-02 0. -1.
</event>
<event>
 5   0  0.5916603E-06  0.2830826E+04  0.7818609E-02  0.8293762E-01
        2   -1    0    0  501    0  0.00000000000E+00  0.00000000000E+00  0.15379169579E+04  0.15379169579E+04  0.25500000920E-02 0.  1.
       -2   -1    0    0    0  501  0.00000000000E+00  0.00000000000E+00 -0.13026672603E+04  0.13026672603E+04  0.25500000920E-02 0. -1.
    10030    2    1    2    0    0  0.00000000000E+00  0.00000000000E+00  0.23524969761E+03  0.28405842183E+04  0.28308260775E+04 0.  0.
        2    1    3    3  502    0 -0.41696979747E+03 -0.37746783106E+02 -0.12391103817E+04  0.13079308735E+04  0.25500000920E-02 0. -1.
       -2    1    3    3    0  502  0.41696979747E+03  0.37746783106E+02  0.14743600794E+04  0.15326533448E+04  0.25500000920E-02 0.  1.
</event>
<event>
 5   0  0.5625245E-06  0.2865854E+04  0.7818609E-02  0.8283110E-01
       -2   -1    0    0    0  501  0.00000000000E+00  0.00000000000E+00  0.88667066393E+03  0.88667066393E+03  0.25500000920E-02 0. -1.
        2   -1    0    0  501    0  0.00000000000E+00  0.00000000000E+00 -0.23157181439E+04  0.23157181439E+04  0.25500000920E-02 0.  1.
    10030    2    1    2    0    0  0.00000000000E+00  0.00000000000E+00 -0.14290474800E+04  0.32023888078E+04  0.28658536907E+04 0.  0.
        3    1    3    3  502    0 -0.10874686574E+04  0.54564846959E+03  0.13130379222E+03  0.12237487607E+04  0.10100000352E+00 0. -1.
       -3    1    3    3    0  502  0.10874686574E+04 -0.54564846959E+03 -0.15603512722E+04  0.19786400471E+04  0.10100000352E+00 0.  1.
</event>
<event>
 5   0  0.2267565E-06  0.2786986E+04  0.7818609E-02  0.8307320E-01
       -1   -1    0    0    0  501  0.00000000000E+00  0.00000000000E+00  0.14391438337E+04  0.14391438337E+04  0.50400001928E-02 0.  1.
        1   -1    0    0  501    0  0.00000000000E+00  0.00000000000E+00 -0.13492899376E+04  0.13492899376E+04  0.50400001928E-02 0. -1.
    10030    2    1    2    0    0  0.00000000000E+00  0.00000000000E+00  0.89853896110E+02  0.27884337713E+04  0.27869856789E+04 0.  0.
        4    1    3    3  502    0  0.38148369094E+03 -0.23130111715E+03  0.13657608568E+04  0.14367791563E+04  0.12699999809E+01 0.  1.
       -4    1    3    3    0  502 -0.38148369094E+03  0.23130111715E+03 -0.12759069606E+04  0.13516546150E+04  0.12699999809E+01 0. -1.
</event>
<event>
 5   0  0.2190865E-06  0.2783499E+04  0.7818609E-02  0.8308410E-01
        1   -1    0    0  501    0  0.00000000000E+00  0.00000000000E+00  0.12236154183E+04  0.12236154183E+04  0.50400001928E-02 0. -1.
       -1   -1    0    0    0  501  0.00000000000E+00  0.00000000000E+00 -0.15829861327E+04  0.15829861327E+04  0.50400001928E-02 0.  1.
    10030    2    1    2    0    0  0.00000000000E+00  0.00000000000E+00 -0.35937071434E+03  0.28066015510E+04  0.27834986898E+04 0.  0.
        2    1    3    3  502    0  0.99722358484E+02 -0.52458526163E+03  0.11162181834E+04  0.12373670751E+04  0.25500000920E-02 0. -1.
       -2    1    3    3    0  502 -0.99722358484E+02  0.52458526163E+03 -0.14755888977E+04  0.15692344760E+04  0.25500000920E-02 0.  1.
</event>
<event>
 5   0  0.2277133E-06  0.2792187E+04  0.7818609E-02  0.8305698E-01
        1   -1    0    0  501    0  0.00000000000E+00  0.00000000000E+00  0.27718946082E+04  0.27718946082E+04  0.50400001928E-02 0.  1.
       -1   -1    0    0    0  501  0.00000000000E+00  0.00000000000E+00 -0.70315692305E+03  0.70315692307E+03  0.50400001928E-02 0. -1.
    10030    2    1    2    0    0  0.00000000000E+00  0.00000000000E+00  0.20687376851E+04  0.34750515313E+04  0.27921868732E+04 0.  0.
        1    1    3    3  502    0  0.53955858172E+03  0.34721348717E+03  0.25775242742E+04  0.26561837385E+04  0.50400001928E-02 0.  1.
       -1    1    3    3    0  502 -0.53955858172E+03 -0.34721348717E+03 -0.50878658904E+03  0.81886779274E+03  0.50400001928E-02 0. -1.
</event>
<event>
 5   0  0.5916603E-06  0.2801290E+04  0.7818609E-02  0.8302868E-01
       -2   -1    0    0    0  501  0.00000000000E+00  0.00000000000E+00  0.16137880295E+04  0.16137880295E+04  0.25500000920E-02 0. -1.
        2   -1    0    0  501    0  0.00000000000E+00  0.00000000000E+00 -0.12156533556E+04  0.12156533556E+04  0.25500000920E-02 0.  1.
    10030    2    1    2    0    0  0.00000000000E+00  0.00000000000E+00  0.39813467396E+03  0.28294413851E+04  0.28012902979E+04 0.  0.
        2    1    3    3  502    0 -0.12977929078E+04  0.47439756322E+03 -0.32336163122E+02  0.13821595808E+04  0.25500000920E-02 0.  1.
       -2    1    3    3    0  502  0.12977929078E+04 -0.47439756322E+03  0.43047083708E+03  0.14472818043E+04  0.25500000920E-02 0. -1.
</event>
<event>
 5   0  0.2206967E-06  0.2788008E+04  0.7818609E-02  0.8307001E-01
        1   -1    0    0  501    0  0.00000000000E+00  0.00000000000E+00  0.12844133657E+04  0.12844133657E+04  0.50400001928E-02 0.  1.
       -1   -1    0    0    0  501  0.00000000000E+00  0.00000000000E+00 -0.15129455686E+04  0.15129455686E+04  0.50400001928E-02 0. -1.
    10030    2    1    2    0    0  0.00000000000E+00  0.00000000000E+00 -0.22853220293E+03  0.27973589343E+04  0.27880082567E+04 0.  0.
        5    1    3    3  502    0  0.36013870774E+03  0.18145919864E+03 -0.14531320341E+04  0.15080590599E+04  0.46999998093E+01 0. -1.
       -5    1    3    3    0  502 -0.36013870774E+03 -0.18145919864E+03  0.12245998312E+04  0.12892998744E+04  0.46999998093E+01 0.  1.
</event>
<event>
 5   0  0.2234068E-06  0.2808764E+04  0.7818609E-02  0.8300553E-01
       -1   -1    0    0    0  501  0.00000000000E+00  0.00000000000E+00  0.27786277525E+04  0.27786277525E+04  0.50400001928E-02 0.  1.
        1   -1    0    0  501    0  0.00000000000E+00  0.00000000000E+00 -0.70980690758E+03  0.70980690760E+03  0.50400001928E-02 0. -1.
    10030    2    1    2    0    0  0.00000000000E+00  0.00000000000E+00  0.20688208450E+04  0.34884346601E+04  0.28087642638E+04 0.  0.
        3    1    3    3  502    0 -0.91497312755E+03  0.88846911143E+03  0.17646873648E+04  0.21773090483E+04  0.10100000352E+00 0.  1.
       -3    1    3    3    0  502  0.91497312755E+03 -0.88846911143E+03  0.30413348019E+03  0.13111256119E+04  0.10100000352E+00 0. -1.
</event>
<event>
 5   0  0.5625245E-06  0.2818145E+04  0.7818609E-02  0.8297657E-01
        2   -1    0    0  501    0  0.00000000000E+00  0.00000000000E+00  0.22968645213E+04  0.22968645213E+04  0.25500000920E-02 0. -1.
       -2   -1    0    0    0  501  0.00000000000E+00  0.00000000000E+00 -0.86443274106E+03  0.86443274107E+03  0.25500000920E-02 0.  1.
    10030    2    1    2    0    0  0.00000000000E+00  0.00000000000E+00  0.14324317803E+04  0.31612972624E+04  0.28181447046E+04 0.  0.
        3    1    3    3  502    0  0.24189661538E+03 -0.39600499329E+03 -0.77625956659E+03  0.90438534495E+03  0.10100000352E+00 0.  1.
       -3    1    3    3    0  502 -0.24189661538E+03  0.39600499329E+03  0.22086913469E+04  0.22569119175E+04  0.10100000352E+00 0. -1.
</event>
<event>
 5   0  0.5625245E-06  0.2806948E+04  0.7818609E-02  0.8301115E-01
       -2   -1    0    0    0  501  0.00000000000E+00  0.00000000000E+00  0.82645791142E+03  0.82645791143E+03  0.25500000920E-02 0. -1.
        2   -1    0    0  501    0  0.00000000000E+00  0.00000000000E+00 -0.23833507160E+04  0.23833507160E+04  0.25500000920E-02 0.  1.
    10030    2    1    2    0    0  0.00000000000E+00  0.00000000000E+00 -0.15568928046E+04  0.32098086274E+04  0.28069478477E+04 0.  0.
        3    1    3    3  502    0  0.99522806162E+03  0.48677513067E+03  0.20678328059E+03  0.11270262898E+04  0.10100000352E+00 0. -1.
       -3    1    3    3    0  502 -0.99522806162E+03 -0.48677513067E+03 -0.17636760852E+04  0.20827823376E+04  0.10100000352E+00 0.  1.
</event>
<event>
 5   0  0.2277133E-06  0.2817338E+04  0.7818609E-02  0.8297906E-01
        1   -1    0    0  501    0  0.00000000000E+00  0.00000000000E+00  0.19706115276E+04  0.19706115276E+04  0.50400001928E-02 0. -1.
       -1   -1    0    0    0  501  0.00000000000E+00  0.00000000000E+00 -0.10069708503E+04  0.10069708503E+04  0.50400001928E-02 0.  1.
    10030    2    1    2    0    0  0.00000000000E+00  0.00000000000E+00  0.96364067729E+03  0.29775823779E+04  0.28173380099E+04 0.  0.
        1    1    3    3  502    0 -0.11564051465E+04 -0.28871876411E+03  0.12753357913E+04  0.17455981119E+04  0.50400001928E-02 0. -1.
       -1    1    3    3    0  502  0.11564051465E+04  0.28871876411E+03 -0.31169511401E+03  0.12319842660E+04  0.50400001928E-02 0.  1.
</event>
<event>
 5   0  0.5584205E-06  0.2805208E+04  0.7818609E-02  0.8301653E-01
       -2   -1    0    0    0  501  0.00000000000E+00  0.00000000000E+00  0.11305139132E+04  0.11305139132E+04  0.25500000920E-02 0. -1.
        2   -1    0    0  501    0  0.00000000000E+00  0.00000000000E+00 -0.17401801392E+04  0.17401801392E+04  0.25500000920E-02 0.  1.
    10030    2    1    2    0    0  0.00000000000E+00  0.00000000000E+00 -0.60966622607E+03  0.28706940524E+04  0.28052079130E+04 0.  0.
        1    1    3    3  502    0 -0.64613457541E+03  0.79358752317E+03  0.67673873993E+03  0.12268848229E+04  0.50400001928E-02 0. -1.
       -1    1    3    3    0  502  0.64613457541E+03 -0.79358752317E+03 -0.12864049660E+04  0.16438092295E+04  0.50400001928E-02 0.  1.
</event>
<event>
 5   0  0.2190865E-06  0.2776990E+04  0.7818609E-02  0.8310448E-01
       -1   -1    0    0    0  501  0.00000000000E+00  0.00000000000E+00  0.81849371489E+03  0.81849371490E+03  0.50400001928E-02 0. -1.
        1   -1    0    0  501    0  0.00000000000E+00  0.00000000000E+00 -0.23554466799E+04  0.23554466799E+04  0.50400001928E-02 0.  1.
    10030    2    1    2    0    0  0.00000000000E+00  0.00000000000E+00 -0.15369529651E+04  0.31739403949E+04  0.27769899556E+04 0.  0.
        2    1    3    3  502    0  0.72350520100E+03  0.10372354509E+04 -0.11329895136E+03  0.12697061899E+04  0.25500000920E-02 0. -1.
       -2    1    3    3    0  502 -0.72350520100E+03 -0.10372354509E+04 -0.14236540137E+04  0.19042342049E+04  0.25500000920E-02 0.  1.
</event>
<event>
 5   0  0.2277133E-06  0.2785874E+04  0.7818609E-02  0.8307667E-01
        1   -1    0    0  501    0  0.00000000000E+00  0.00000000000E+00  0.26148386311E+04  0.26148386311E+04  0.50400001928E-02 0.  1.
       -1   -1    0    0    0  501  0.00000000000E+00  0.00000000000E+00 -0.74202397134E+03  0.74202397135E+03  0.50400001928E-02 0. -1.
    10030    2    1    2    0    0  0.00000000000E+00  0.00000000000E+00  0.18728146598E+04  0.33568626025E+04  0.27858736120E+04 0.  0.
        1    1    3    3  502    0  0.83326947164E+03  0.51994043948E+03 -0.25375816690E+03  0.10144305202E+04  0.50400001928E-02 0. -1.
       -1    1    3    3    0  502 -0.83326947164E+03 -0.51994043948E+03  0.21265728267E+04  0.23424320823E+04  0.50400001928E-02 0.  1.
</event>
<event>
 5   0  0.1901375E-06  0.2846479E+04  0.7818609E-02  0.8288982E-01
       -4   -1    0    0    0  501  0.00000000000E+00  0.00000000000E+00  0.15216898134E+04  0.15216903434E+04  0.12699999809E+01 0. -1.
        4   -1    0    0  501    0  0.00000000000E+00  0.00000000000E+00 -0.13311578304E+04  0.13311584362E+04  0.12699999809E+01 0.  1.
    10030    2    1    2    0    0  0.00000000000E+00  0.00000000000E+00  0.19053198305E+03  0.28528487796E+04  0.28464791801E+04 0.  0.
        5    1    3    3  502    0 -0.94939157493E+02  0.14102177597E+04 -0.72024467836E+02  0.14152516339E+04  0.46999998093E+01 0. -1.
       -5    1    3    3    0  502  0.94939157493E+02 -0.14102177597E+04  0.26255645088E+03  0.14375971457E+04  0.46999998093E+01 0.  1.
</event>
<event>
 5   0  0.5584205E-06  0.2804113E+04  0.7818609E-02  0.8301993E-01
       -2   -1    0    0    0  501  0.00000000000E+00  0.00000000000E+00  0.17735929178E+04  0.17735929178E+04  0.25500000920E-02 0. -1.
        2   -1    0    0  501    0  0.00000000000E+00  0.00000000000E+00 -0.11083503823E+04  0.11083503823E+04  0.25500000920E-02 0.  1.
    10030    2    1    2    0    0  0.00000000000E+00  0.00000000000E+00  0.66524253546E+03  0.28819433001E+04  0.28041129710E+04 0.  0.
        1    1    3    3  502    0 -0.12083974689E+04  0.69921363130E+03  0.46519078147E+03  0.14715728348E+04  0.50400001928E-02 0.  1.
       -1    1    3    3    0  502  0.12083974689E+04 -0.69921363130E+03  0.20005175399E+03  0.14103704653E+04  0.50400001928E-02 0. -1.
</event>
<event>
 5   0  0.2267565E-06  0.2828850E+04  0.7818609E-02  0.8294367E-01
       -1   -1    0    0    0  501  0.00000000000E+00  0.00000000000E+00  0.17425009201E+04  0.17425009201E+04  0.50400001928E-02 0. -1.
        1   -1    0    0  501    0  0.00000000000E+00  0.00000000000E+00 -0.11481189776E+04  0.11481189776E+04  0.50400001928E-02 0.  1.
    10030    2    1    2    0    0  0.00000000000E+00  0.00000000000E+00  0.59438194243E+03  0.28906198977E+04  0.28288502080E+04 0.  0.
        4    1    3    3  502    0 -0.13787027256E+03 -0.67499066246E+03  0.15594686720E+04  0.17048650264E+04  0.12699999809E+01 0. -1.
       -4    1    3    3    0  502  0.13787027256E+03  0.67499066246E+03 -0.96508672953E+03  0.11857548713E+04  0.12699999809E+01 0.  1.
</event>
<event>
 5   0  0.2190865E-06  0.2814171E+04  0.7818609E-02  0.8298882E-01
        1   -1    0    0  501    0  0.00000000000E+00  0.00000000000E+00  0.18281652779E+04  0.18281652779E+04  0.50400001928E-02 0.  1.
       -1   -1    0    0    0  501  0.00000000000E+00  0.00000000000E+00 -0.10829925250E+04  0.10829925250E+04  0.50400001928E-02 0. -1.
    10030    2    1    2    0    0  0.00000000000E+00  0.00000000000E+00  0.74517275288E+03  0.29111578029E+04  0.28141708053E+04 0.  0.
        2    1    3    3  502    0  0.11423029476E+04 -0.79421026509E+03  0.59022576101E+03  0.15112883306E+04  0.25500000920E-02 0.  1.
       -2    1    3    3    0  502 -0.11423029476E+04  0.79421026509E+03  0.15494699187E+03  0.13998694723E+04  0.25500000920E-02 0. -1.
</event>
<event>
 5   0  0.5916603E-06  0.2796403E+04  0.7818609E-02  0.8304386E-01
        2   -1    0    0  501    0  0.00000000000E+00  0.00000000000E+00  0.21388437764E+04  0.21388437764E+04  0.25500000920E-02 0.  1.
       -2   -1    0    0    0  501  0.00000000000E+00  0.00000000000E+00 -0.91403023411E+03  0.91403023412E+03  0.25500000920E-02 0. -1.
    10030    2    1    2    0    0  0.00000000000E+00  0.00000000000E+00  0.12248135423E+04  0.30528740105E+04  0.27964033169E+04 0.  0.
        2    1    3    3  502    0 -0.98219663007E+03  0.46006366668E+03 -0.35090311265E+03  0.11399569255E+04  0.25500000920E-02 0. -1.
       -2    1    3    3    0  502  0.98219663007E+03 -0.46006366668E+03  0.15757166549E+04  0.19129170850E+04  0.25500000920E-02 0.  1.
</event>
<event>
 5   0  0.2234068E-06  0.2779783E+04  0.7818609E-02  0.8309573E-01
       -1   -1    0    0    0  501  0.00000000000E+00  0.00000000000E+00  0.15462922172E+04  0.15462922172E+04  0.50400001928E-02 0.  1.
        1   -1    0    0  501    0  0.00000000000E+00  0.00000000000E+00 -0.12493099854E+04  0.12493099854E+04  0.50400001928E-02 0. -1.
    10030    2    1    2    0    0  0.00000000000E+00  0.00000000000E+00  0.29698223176E+03  0.27956022026E+04  0.27797829464E+04 0.  0.
        3    1    3    3  502    0  0.69259586658E+03 -0.10945715840E+04 -0.35838335528E+03  0.13439548454E+04  0.10100000352E+00 0. -1.
       -3    1    3    3    0  502 -0.69259586658E+03  0.10945715840E+04  0.65536558705E+03  0.14516473572E+04  0.10100000352E+00 0.  1.
</event>
<event>
 5   0  0.5866136E-06  0.2752407E+04  0.7818609E-02  0.8318198E-01
       -2   -1    0    0    0  501  0.00000000000E+00  0.00000000000E+00  0.11248645909E+04  0.11248645909E+04  0.25500000920E-02 0.  1.
        2   -1    0    0  501    0  0.00000000000E+00  0.00000000000E+00 -0.16837010302E+04  0.16837010302E+04  0.25500000920E-02 0. -1.
    10030    2    1    2    0    0  0.00000000000E+00  0.00000000000E+00 -0.55883643927E+03  0.28085656211E+04  0.27524067072E+04 0.  0.
        5    1    3    3  502    0 -0.79618541001E+03  0.35236091061E+03  0.80808698244E+03  0.11878956518E+04  0.46999998093E+01 0.  1.
       -5    1    3    3    0  502  0.79618541001E+03 -0.35236091061E+03 -0.13669234217E+04  0.16206699693E+04  0.46999998093E+01 0. -1.
</event>
<event>
 5   0  0.2234068E-06  0.2796554E+04  0.7818609E-02  0.8304339E-01
        1   -1    0    0  501    0  0.00000000000E+00  0.00000000000E+00  0.14497658025E+04  0.14497658025E+04  0.50400001928E-02 0. -1.
       -1   -1    0    0    0  501  0.00000000000E+00  0.00000000000E+00 -0.13486169521E+04  0.13486169521E+04  0.50400001928E-02 0.  1.
    10030    2    1    2    0    0  0.00000000000E+00  0.00000000000E+00  0.10114885038E+03  0.27983827546E+04  0.27965541209E+04 0.  0.
        3    1    3    3  502    0  0.53884670979E+03 -0.18203247025E+03 -0.12276359293E+04  0.13529898676E+04  0.10100000352E+00 0.  1.
       -3    1    3    3    0  502 -0.53884670979E+03  0.18203247025E+03  0.13287847796E+04  0.14453928870E+04  0.10100000352E+00 0. -1.
</event>
<event>
 5   0  0.5916603E-06  0.2801483E+04  0.7818609E-02  0.8302808E-01
        2   -1    0    0  501    0  0.00000000000E+00  0.00000000000E+00  0.62998932495E+03  0.62998932495E+03  0.25500000920E-02 0.  1.
       -2   -1    0    0    0  501  0.00000000000E+00  0.00000000000E+00 -0.31144604212E+04  0.31144604212E+04  0.25500000920E-02 0. -1.
    10030    2    1    2    0    0  0.00000000000E+00  0.00000000000E+00 -0.24844710963E+04  0.37444497462E+04  0.28014830489E+04 0.  0.
        2    1    3    3  502    0  0.11270626896E+03 -0.11675659102E+04 -0.21892002109E+03  0.11932471803E+04  0.25500000920E-02 0.  1.
       -2    1    3    3    0  502 -0.11270626896E+03  0.11675659102E+04 -0.22655510752E+04  0.25512025658E+04  0.25500000920E-02 0. -1.
</event>
<event>
 5   0  0.5916603E-06  0.2858155E+04  0.7818609E-02  0.8285438E-01
        2   -1    0    0  501    0  0.00000000000E+00  0.00000000000E+00  0.20090281970E+04  0.20090281970E+04  0.25500000920E-02 0. -1.
       -2   -1    0    0    0  501  0.00000000000E+00  0.00000000000E+00 -0.10165422968E+04  0.10165422968E+04  0.25500000920E-02 0.  1.
    10030    2    1    2    0    0  0.00000000000E+00  0.00000000000E+00  0.99248590020E+03  0.30255704938E+04  0.28581547457E+04 0.  0.
        2    1    3    3  502    0  0.13320074292E+04  0.30159287196E+03  0.94167542077E+03  0.16589016397E+04  0.25500000920E-02 0. -1.
       -2    1    3    3    0  502 -0.13320074292E+04 -0.30159287196E+03  0.50810479428E+02  0.13666688541E+04  0.25500000920E-02 0.  1.
</event>
<event>
 5   0  0.2277133E-06  0.2806982E+04  0.7818609E-02  0.8301104E-01
        1   -1    0    0  501    0  0.00000000000E+00  0.00000000000E+00  0.10684270407E+04  0.10684270407E+04  0.50400001928E-02 0.  1.
       -1   -1    0    0    0  501  0.00000000000E+00  0.00000000000E+00 -0.18436327302E+04  0.18436327302E+04  0.50400001928E-02 0. -1.
    10030    2    1    2    0    0  0.00000000000E+00  0.00000000000E+00 -0.77520568956E+03  0.29120597709E+04  0.28069820534E+04 0.  0.
        1    1    3    3  502    0  0.10990259227E+04  0.48165359816E+03  0.36761726654E+03  0.12549863035E+04  0.50400001928E-02 0.  1.
       -1    1    3    3    0  502 -0.10990259227E+04 -0.48165359816E+03 -0.11428229561E+04  0.16570734674E+04  0.50400001928E-02 0. -1.
</event>
<event>
 5   0  0.5625245E-06  0.2790966E+04  0.7818609E-02  0.8306078E-01
        2   -1    0    0  501    0  0.00000000000E+00  0.00000000000E+00  0.14674029477E+04  0.14674029477E+04  0.25500000920E-02 0. -1.
       -2   -1    0    0    0  501  0.00000000000E+00  0.00000000000E+00 -0.13270882531E+04  0.13270882531E+04  0.25500000920E-02 0.  1.
    10030    2    1    2    0    0  0.00000000000E+00  0.00000000000E+00  0.14031469462E+03  0.27944912008E+04  0.27909662946E+04 0.  0.
        3    1    3    3  502    0  0.12090209182E+04  0.37342819992E+03 -0.51896744238E+03  0.13676649508E+04  0.10100000352E+00 0.  1.
       -3    1    3    3    0  502 -0.12090209182E+04 -0.37342819992E+03  0.65928213700E+03  0.14268262500E+04  0.10100000352E+00 0. -1.
</event>
<event>
 5   0  0.5916603E-06  0.2777153E+04  0.7818609E-02  0.8310397E-01
       -2   -1    0    0    0  501  0.00000000000E+00  0.00000000000E+00  0.15349970649E+04  0.15349970649E+04  0.25500000920E-02 0. -1.
        2   -1    0    0  501    0  0.00000000000E+00  0.00000000000E+00 -0.12561229689E+04  0.12561229689E+04  0.25500000920E-02 0.  1.
    10030    2    1    2    0    0  0.00000000000E+00  0.00000000000E+00  0.27887409600E+03  0.27911200338E+04  0.27771532693E+04 0.  0.
        2    1    3    3  502    0 -0.94263321558E+03  0.19512903056E+03  0.11452259060E+04  0.14960531720E+04  0.25500000920E-02 0. -1.
       -2    1    3    3    0  502  0.94263321558E+03 -0.19512903056E+03 -0.86635181001E+03  0.12950668617E+04  0.25500000920E-02 0.  1.
</event>
<event>
 5   0  0.2234068E-06  0.2795299E+04  0.7818609E-02  0.8304729E-01
       -1   -1    0    0    0  501  0.00000000000E+00  0.00000000000E+00  0.84882551623E+03  0.84882551624E+03  0.50400001928E-02 0.  1.
        1   -1    0    0  501    0  0.00000000000E+00  0.00000000000E+00 -0.23013252461E+04  0.23013252461E+04  0.50400001928E-02 0. -1.
    10030    2    1    2    0    0  0.00000000000E+00  0.00000000000E+00 -0.14524997299E+04  0.31501507624E+04  0.27952986174E+04 0.  0.
        3    1    3    3  502    0  0.77350160476E+03 -0.88557480265E+03  0.12522937982E+03  0.11824677042E+04  0.10100000352E+00 0.  1.
       -3    1    3    3    0  502 -0.77350160476E+03  0.88557480265E+03 -0.15777291097E+04  0.19676830582E+04  0.10100000352E+00 0. -1.
</event>
<event>
 5   0  0.2206967E-06  0.2783845E+04  0.7818609E-02  0.8308301E-01
       -1   -1    0    0    0  501  0.00000000000E+00  0.00000000000E+00  0.17175016327E+04  0.17175016328E+04  0.50400001928E-02 0. -1.
        1   -1    0    0  501    0  0.00000000000E+00  0.00000000000E+00 -0.11280618687E+04  0.11280618687E+04  0.50400001928E-02 0.  1.
    10030    2    1    2    0    0  0.00000000000E+00  0.00000000000E+00  0.58943976405E+03  0.28455635015E+04  0.27838448961E+04 0.  0.
        5    1    3    3  502    0  0.11472453429E+04 -0.56547386008E+03 -0.26653765551E+03  0.13065209432E+04  0.46999998093E+01 0.  1.
       -5    1    3    3    0  502 -0.11472453429E+04  0.56547386008E+03  0.85597741956E+03  0.15390425582E+04  0.46999998093E+01 0. -1.
</event>
<event>
 5   0  0.2267565E-06  0.2790304E+04  0.7818609E-02  0.8306285E-01
        1   -1    0    0  501    0  0.00000000000E+00  0.00000000000E+00  0.10242549803E+04  0.10242549803E+04  0.50400001928E-02 0. -1.
       -1   -1    0    0    0  501  0.00000000000E+00  0.00000000000E+00 -0.19003561114E+04  0.19003561114E+04  0.50400001928E-02 0.  1.
    10030    2    1    2    0    0  0.00000000000E+00  0.00000000000E+00 -0.87610113104E+03  0.29246110917E+04  0.27903040777E+04 0.  0.
        4    1    3    3  502    0  0.45816495374E+03  0.73267932320E+03 -0.15860861743E+04  0.18062129113E+04  0.12699999809E+01 0.  1.
       -4    1    3    3    0  502 -0.45816495374E+03 -0.73267932320E+03  0.70998504329E+03  0.11183981805E+04  0.12699999809E+01 0. -1.
</event>
<event>
 5   0  0.5625245E-06  0.2789031E+04  0.7818609E-02  0.8306682E-01
       -2   -1    0    0    0  501  0.00000000000E+00  0.00000000000E+00  0.61745496218E+03  0.61745496219E+03  0.25500000920E-02 0. -1.
        2   -1    0    0  501    0  0.00000000000E+00  0.00000000000E+00 -0.31494976167E+04  0.31494976167E+04  0.25500000920E-02 0.  1.
    10030    2    1    2    0    0  0.00000000000E+00  0.00000000000E+00 -0.25320426545E+04  0.37669525789E+04  0.27890306071E+04 0.  0.
        3    1    3    3  502    0 -0.11650259863E+04  0.76626282189E+03 -0.12864449419E+04  0.18972044854E+04  0.10100000352E+00 0.  1.
       -3    1    3    3    0  502  0.11650259863E+04 -0.76626282189E+03 -0.12455977126E+04  0.18697480934E+04  0.10100000352E+00 0. -1.
</event>
<event>
 5   0  0.5916603E-06  0.2716972E+04  0.7818609E-02  0.8329519E-01
        2   -1    0    0  501    0  0.00000000000E+00  0.00000000000E+00  0.12322415354E+04  0.12322415354E+04  0.25500000920E-02 0. -1.
       -2   -1    0    0    0  501  0.00000000000E+00  0.00000000000E+00 -0.14976640387E+04  0.14976640387E+04  0.25500000920E-02 0.  1.
    10030    2    1    2    0    0  0.00000000000E+00  0.00000000000E+00 -0.26542250330E+03  0.27299055740E+04  0.27169717220E+04 0.  0.
        2    1    3    3  502    0 -0.62349348245E+03  0.64552359507E+03 -0.11573890335E+04  0.14645798747E+04  0.25500000920E-02 0.  1.
       -2    1    3    3    0  502  0.62349348245E+03 -0.64552359507E+03  0.89196653020E+03  0.12653256994E+04  0.25500000920E-02 0. -1.
</event>
<event>
 5   0  0.5546570E-06  0.2683425E+04  0.7818609E-02  0.8340403E-01
       -2   -1    0    0    0  501  0.00000000000E+00  0.00000000000E+00  0.71831280055E+03  0.71831280056E+03  0.25500000920E-02 0.  1.
        2   -1    0    0  501    0  0.00000000000E+00  0.00000000000E+00 -0.25061402720E+04  0.25061402720E+04  0.25500000920E-02 0. -1.
    10030    2    1    2    0    0  0.00000000000E+00  0.00000000000E+00 -0.17878274714E+04  0.32244530725E+04  0.26834251526E+04 0.  0.
        4    1    3    3  502    0 -0.83787128749E+03  0.27428045113E+03 -0.21092323829E+04  0.22860710659E+04  0.12699999809E+01 0. -1.
       -4    1    3    3    0  502  0.83787128749E+03 -0.27428045113E+03  0.32140491153E+03  0.93838200661E+03  0.12699999809E+01 0.  1.
</event>
<event>
 5   0  0.2190865E-06  0.2742691E+04  0.7818609E-02  0.8321285E-01
       -1   -1    0    0    0  501  0.00000000000E+00  0.00000000000E+00  0.16389658380E+04  0.16389658381E+04  0.50400001928E-02 0. -1.
        1   -1    0    0  501    0  0.00000000000E+00  0.00000000000E+00 -0.11474235567E+04  0.11474235567E+04  0.50400001928E-02 0.  1.
    10030    2    1    2    0    0  0.00000000000E+00  0.00000000000E+00  0.49154228133E+03  0.27863893948E+04  0.27426906579E+04 0.  0.
        2    1    3    3  502    0  0.37105087804E+03 -0.12349815158E+04  0.71982100936E+03  0.14768210399E+04  0.25500000920E-02 0. -1.
       -2    1    3    3    0  502 -0.37105087804E+03  0.12349815158E+04 -0.22827872803E+03  0.13095683549E+04  0.25500000920E-02 0.  1.
</event>
<event>
 5   0  0.5584205E-06  0.2822876E+04  0.7818609E-02  0.8296201E-01
        2   -1    0    0  501    0  0.00000000000E+00  0.00000000000E+00  0.12437902531E+04  0.12437902531E+04  0.25500000920E-02 0.  1.
       -2   -1    0    0    0  501  0.00000000000E+00  0.00000000000E+00 -0.16016831735E+04  0.16016831735E+04  0.25500000920E-02 0. -1.
    10030    2    1    2    0    0  0.00000000000E+00  0.00000000000E+00 -0.35789292040E+03  0.28454734265E+04  0.28228764901E+04 0.  0.
        1    1    3    3  502    0  0.10909731410E+04  0.47585425162E+03 -0.94363514420E+03  0.15189163731E+04  0.50400001928E-02 0. -1.
       -1    1    3    3    0  502 -0.10909731410E+04 -0.47585425162E+03  0.58574222380E+03  0.13265570534E+04  0.50400001928E-02 0.  1.
</event>
<event>
 5   0  0.5916603E-06  0.2834137E+04  0.7818609E-02  0.8292748E-01
       -2   -1    0    0    0  501  0.00000000000E+00  0.00000000000E+00  0.16846884667E+04  0.16846884667E+04  0.25500000920E-02 0.  1.
        2   -1    0    0  501    0  0.00000000000E+00  0.00000000000E+00 -0.11919614182E+04  0.11919614182E+04  0.25500000920E-02 0. -1.
    10030    2    1    2    0    0  0.00000000000E+00  0.00000000000E+00  0.49272704853E+03  0.28766498849E+04  0.28341373672E+04 0.  0.
        2    1    3    3  502    0  0.45216505679E+03  0.37822245078E+03 -0.10616004328E+04  0.12142903029E+04  0.25500000920E-02 0. -1.
       -2    1    3    3    0  502 -0.45216505679E+03 -0.37822245078E+03  0.15543274813E+04  0.16623595820E+04  0.25500000920E-02 0.  1.
</event>
<event>
 5   0  0.2277133E-06  0.2766495E+04  0.7818609E-02  0.8313746E-01
        1   -1    0    0  501    0  0.00000000000E+00  0.00000000000E+00  0.17567245190E+04  0.17567245190E+04  0.50400001928E-02 0.  1.
       -1   -1    0    0    0  501  0.00000000000E+00  0.00000000000E+00 -0.10891710329E+04  0.10891710329E+04  0.50400001928E-02 0. -1.
    10030    2    1    2    0    0  0.00000000000E+00  0.00000000000E+00  0.66755348611E+03  0.28458955519E+04  0.27664948646E+04 0.  0.
        1    1    3    3  502    0  0.11474754437E+04  0.25990139396E+03 -0.41451018700E+03  0.12474242757E+04  0.50400001928E-02 0. -1.
       -1    1    3    3    0  502 -0.11474754437E+04 -0.25990139396E+03  0.10820636731E+04  0.15984712763E+04  0.50400001928E-02 0.  1.
</event>
<event>
 5   0  0.2206967E-06  0.2823458E+04  0.7818609E-02  0.8296022E-01
        1   -1    0    0  501    0  0.00000000000E+00  0.00000000000E+00  0.13832047285E+04  0.13832047285E+04  0.50400001928E-02 0. -1.
       -1   -1    0    0    0  501  0.00000000000E+00  0.00000000000E+00 -0.14408419173E+04  0.14408419173E+04  0.50400001928E-02 0.  1.
    10030    2    1    2    0    0  0.00000000000E+00  0.00000000000E+00 -0.57637188806E+02  0.28240466458E+04  0.28234584133E+04 0.  0.
        5    1    3    3  502    0 -0.12623242823E+04 -0.47046903301E+03  0.39335174825E+03  0.14034070659E+04  0.46999998093E+01 0. -1.
       -5    1    3    3    0  502  0.12623242823E+04  0.47046903301E+03 -0.45098893705E+03  0.14206395799E+04  0.46999998093E+01 0.  1.
</event>
<event>
 5   0  0.2267565E-06  0.2792574E+04  0.7818609E-02  0.8305578E-01
       -1   -1    0    0    0  501  0.00000000000E+00  0.00000000000E+00  0.10167113300E+04  0.10167113300E+04  0.50400001928E-02 0. -1.
        1   -1    0    0  501    0  0.00000000000E+00  0.00000000000E+00 -0.19175718346E+04  0.19175718346E+04  0.50400001928E-02 0.  1.
    10030    2    1    2    0    0  0.00000000000E+00  0.00000000000E+00 -0.90086050464E+03  0.29342831647E+04  0.27925737307E+04 0.  0.
        4    1    3    3  502    0 -0.99721483475E+03 -0.97484162682E+03 -0.52369494515E+03  0.14896347312E+04  0.12699999809E+01 0.  1.
       -4    1    3    3    0  502  0.99721483475E+03  0.97484162682E+03 -0.37716555949E+03  0.14446484334E+04  0.12699999809E+01 0. -1.
</event>
<event>
 5   0  0.2234068E-06  0.2823495E+04  0.7818609E-02  0.8296011E-01
        1   -1    0    0  501    0  0.00000000000E+00  0.00000000000E+00  0.14145803648E+04  0.14145803649E+04  0.50400001928E-02 0. -1.
       -1   -1    0    0    0  501  0.00000000000E+00  0.00000000000E+00 -0.14089201979E+04  0.14089201979E+04  0.50400001928E-02 0.  1.
    10030    2    1    2    0    0  0.00000000000E+00  0.00000000000E+00  0.56601669868E+01  0.28235005627E+04  0.28234948894E+04 0.  0.
        3    1    3    3  502    0 -0.30676507236E+03  0.11397424249E+04 -0.77171213191E+03  0.14101975853E+04  0.10100000352E+00 0.  1.
       -3    1    3    3    0  502  0.30676507236E+03 -0.11397424249E+04  0.77737229889E+03  0.14133029775E+04  0.10100000352E+00 0. -1.
</event>
<event>
 5   0  0.5625245E-06  0.2787558E+04  0.7818609E-02  0.8307141E-01
       -2   -1    0    0    0  501  0.00000000000E+00  0.00000000000E+00  0.73795342440E+03  0.73795342440E+03  0.25500000920E-02 0.  1.
        2   -1    0    0  501    0  0.00000000000E+00  0.00000000000E+00 -0.26324429557E+04  0.26324429557E+04  0.25500000920E-02 0. -1.
    10030    2    1    2    0    0  0.00000000000E+00  0.00000000000E+00 -0.18944895313E+04  0.33703963801E+04  0.27875582819E+04 0.  0.
        3    1    3    3  502    0 -0.13861020597E+04 -0.13077313474E+01 -0.11238691675E+04  0.17844782279E+04  0.10100000352E+00 0. -1.
       -3    1    3    3    0  502  0.13861020597E+04  0.13077313474E+01 -0.77062036383E+03  0.15859181522E+04  0.10100000352E+00 0.  1.
</event>
<event>
 5   0  0.2190865E-06  0.2772909E+04  0.7818609E-02  0.8311729E-01
       -1   -1    0    0    0  501  0.00000000000E+00  0.00000000000E+00  0.85580578209E+03  0.85580578211E+03  0.50400001928E-02 0.  1.
        1   -1    0    0  501    0  0.00000000000E+00  0.00000000000E+00 -0.22461356111E+04  0.22461356111E+04  0.50400001928E-02 0. -1.
    10030    2    1    2    0    0  0.00000000000E+00  0.00000000000E+00 -0.13903298290E+04  0.31019413932E+04  0.27729088289E+04 0.  0.
        2    1    3    3  502    0  0.12639418627E+04 -0.76399056602E+02 -0.13268561121E+04  0.18341027753E+04  0.25500000920E-02 0. -1.
       -2    1    3    3    0  502 -0.12639418627E+04  0.76399056602E+02 -0.63473716907E+02  0.12678386179E+04  0.25500000920E-02 0.  1.
</event>
<event>
 5   0  0.5584205E-06  0.2795666E+04  0.7818609E-02  0.8304615E-01
        2   -1    0    0  501    0  0.00000000000E+00  0.00000000000E+00  0.89424225213E+03  0.89424225213E+03  0.25500000920E-02 0.  1.
       -2   -1    0    0    0  501  0.00000000000E+00  0.00000000000E+00 -0.21850200686E+04  0.21850200686E+04  0.25500000920E-02 0. -1.
    10030    2    1    2    0    0  0.00000000000E+00  0.00000000000E+00 -0.12907778165E+04  0.30792623207E+04  0.27956661225E+04 0.  0.
        1    1    3    3  502    0  0.11905905677E+04 -0.41621195342E+03  0.18405657104E+02  0.12613790303E+04  0.50400001928E-02 0.  1.
       -1    1    3    3    0  502 -0.11905905677E+04  0.41621195342E+03 -0.13091834736E+04  0.18178832904E+04  0.50400001928E-02 0. -1.
</event>
<event>
 5   0  0.2190865E-06  0.2796896E+04  0.7818609E-02  0.8304233E-01
       -1   -1    0    0    0  501  0.00000000000E+00  0.00000000000E+00  0.15620356231E+04  0.15620356231E+04  0.50400001928E-02 0. -1.
        1   -1    0    0  501    0  0.00000000000E+00  0.00000000000E+00 -0.12519923153E+04  0.12519923153E+04  0.50400001928E-02 0.  1.
    10030    2    1    2    0    0  0.00000000000E+00  0.00000000000E+00  0.31004330780E+03  0.28140279384E+04  0.27968958481E+04 0.  0.
        2    1    3    3  502    0  0.11574825330E+04  0.41035898375E+03 -0.51802757117E+03  0.13328589101E+04  0.25500000920E-02 0. -1.
       -2    1    3    3    0  502 -0.11574825330E+04 -0.41035898375E+03  0.82807087897E+03  0.14811690283E+04  0.25500000920E-02 0.  1.
</event>
<event>
 5   0  0.2234068E-06  0.2778622E+04  0.7818609E-02  0.8309936E-01
        1   -1    0    0  501    0  0.00000000000E+00  0.00000000000E+00  0.19799696473E+04  0.19799696473E+04  0.50400001928E-02 0. -1.
       -1   -1    0    0    0  501  0.00000000000E+00  0.00000000000E+00 -0.97485621114E+03  0.97485621115E+03  0.50400001928E-02 0.  1.
    10030    2    1    2    0    0  0.00000000000E+00  0.00000000000E+00  0.10051134362E+04  0.29548258585E+04  0.27786224706E+04 0.  0.
        3    1    3    3  502    0 -0.13778829873E+04  0.37004205704E+01  0.69162465400E+03  0.15417262701E+04  0.10100000352E+00 0. -1.
       -3    1    3    3    0  502  0.13778829873E+04 -0.37004205704E+01  0.31348878217E+03  0.14130995883E+04  0.10100000352E+00 0.  1.
</event>
<event>
 5   0  0.5546570E-06  0.2797273E+04  0.7818609E-02  0.8304115E-01
       -2   -1    0    0    0  501  0.00000000000E+00  0.00000000000E+00  0.10033354678E+04  0.10033354678E+04  0.25500000920E-02 0.  1.
        2   -1    0    0  501    0  0.00000000000E+00  0.00000000000E+00 -0.19496810726E+04  0.19496810726E+04  0.25500000920E-02 0. -1.
    10030    2    1    2    0    0  0.00000000000E+00  0.00000000000E+00 -0.94634560481E+03  0.29530165404E+04  0.27972730801E+04 0.  0.
        4    1    3    3  502    0 -0.22465395097E+03 -0.88147405217E+03  0.64838969899E+03  0.11170840241E+04  0.12699999809E+01 0.  1.
       -4    1    3    3    0  502  0.22465395097E+03  0.88147405217E+03 -0.15947353038E+04  0.18359325163E+04  0.12699999809E+01 0. -1.
</event>
<event>
 5   0  0.2267565E-06  0.2785736E+04  0.7818609E-02  0.8307710E-01
        1   -1    0    0  501    0  0.00000000000E+00  0.00000000000E+00  0.12588966698E+04  0.12588966698E+04  0.50400001928E-02 0. -1.
       -1   -1    0    0    0  501  0.00000000000E+00  0.00000000000E+00 -0.15410967365E+04  0.15410967365E+04  0.50400001928E-02 0.  1.
    10030    2    1    2    0    0  0.00000000000E+00  0.00000000000E+00 -0.28220006669E+03  0.27999934063E+04  0.27857362039E+04 0.  0.
        4    1    3    3  502    0  0.60483238528E+02  0.12232249769E+04 -0.80792769815E+03  0.14672035798E+04  0.12699999809E+01 0.  1.
       -4    1    3    3    0  502 -0.60483238528E+02 -0.12232249769E+04  0.52572763145E+03  0.13327898265E+04  0.12699999809E+01 0. -1.
</event>
<event>
 5   0  0.5916603E-06  0.2798565E+04  0.7818609E-02  0.8303714E-01
        2   -1    0    0  501    0  0.00000000000E+00  0.00000000000E+00  0.10961408471E+04  0.10961408471E+04  0.25500000920E-02 0.  1.
       -2   -1    0    0    0  501  0.00000000000E+00  0.00000000000E+00 -0.17862595217E+04  0.17862595217E+04  0.25500000920E-02 0. -1.
    10030    2    1    2    0    0  0.00000000000E+00  0.00000000000E+00 -0.69011867462E+03  0.28824003688E+04  0.27985653648E+04 0.  0.
        2    1    3    3  502    0 -0.99222197759E+03  0.31895854730E+03 -0.13067061121E+04  0.16714424522E+04  0.25500000920E-02 0. -1.
       -2    1    3    3    0  502  0.99222197759E+03 -0.31895854730E+03  0.61658743744E+03  0.12109579166E+04  0.25500000920E-02 0.  1.
</event>
<event>
 5   0  0.2206967E-06  0.2753607E+04  0.7818609E-02  0.8317818E-01
       -1   -1    0    0    0  501  0.00000000000E+00  0.00000000000E+00  0.10427137363E+04  0.10427137363E+04  0.50400001928E-02 0.  1.
        1   -1    0    0  501    0  0.00000000000E+00  0.00000000000E+00 -0.18179374971E+04  0.18179374971E+04  0.50400001928E-02 0. -1.
    10030    2    1    2    0    0  0.00000000000E+00  0.00000000000E+00 -0.77522376075E+03  0.28606512334E+04  0.27536073794E+04 0.  0.
        5    1    3    3  502    0 -0.70300368939E+03 -0.22044992909E+03 -0.15959049964E+04  0.17577676770E+04  0.46999998093E+01 0. -1.
       -5    1    3    3    0  502  0.70300368939E+03  0.22044992909E+03  0.82068123567E+03  0.11028835565E+04  0.46999998093E+01 0.  1.
</event>
<event>
 5   0  0.5625245E-06  0.2808344E+04  0.7818609E-02  0.8300683E-01
        2   -1    0    0  501    0  0.00000000000E+00  0.00000000000E+00  0.16400946812E+04  0.16400946812E+04  0.25500000920E-02 0. -1.
       -2   -1    0    0    0  501  0.00000000000E+00  0.00000000000E+00 -0.12021861218E+04  0.12021861218E+04  0.25500000920E-02 0.  1.
    10030    2    1    2    0    0  0.00000000000E+00  0.00000000000E+00  0.43790855932E+03  0.28422808030E+04  0.28083440417E+04 0.  0.
        3    1    3    3  502    0  0.15555882445E+03  0.24366887273E+03 -0.11717415611E+04  0.12068766977E+04  0.10100000352E+00 0.  1.
       -3    1    3    3    0  502 -0.15555882445E+03 -0.24366887273E+03  0.16096501204E+04  0.16354041053E+04  0.10100000352E+00 0. -1.
</event>
<event>
 5   0  0.2190865E-06  0.2797412E+04  0.7818609E-02  0.8304072E-01
       -1   -1    0    0    0  501  0.00000000000E+00  0.00000000000E+00  0.96441438585E+03  0.96441438586E+03  0.50400001928E-02 0. -1.
        1   -1    0    0  501    0  0.00000000000E+00  0.00000000000E+00 -0.20285666799E+04  0.20285666799E+04  0.50400001928E-02 0.  1.
    10030    2    1    2    0    0  0.00000000000E+00  0.00000000000E+00 -0.10641522940E+04  0.29929810658E+04  0.27974122962E+04 0.  0.
        2    1    3    3  502    0 -0.38071646590E+03 -0.12135780929E+04 -0.11547071926E+04  0.17178665593E+04  0.25500000920E-02 0.  1.
       -2    1    3    3    0  502  0.38071646590E+03  0.12135780929E+04  0.90554898525E+02  0.12751145065E+04  0.25500000920E-02 0. -1.
</event>
<event>
 5   0  0.5916603E-06  0.2800087E+04  0.7818609E-02  0.8303241E-01
        2   -1    0    0  501    0  0.00000000000E+00  0.00000000000E+00  0.15046976442E+04  0.15046976442E+04  0.25500000920E-02 0. -1.
       -2   -1    0    0    0  501  0.00000000000E+00  0.00000000000E+00 -0.13026678588E+04  0.13026678588E+04  0.25500000920E-02 0.  1.
    10030    2    1    2    0    0  0.00000000000E+00  0.00000000000E+00  0.20202978547E+03  0.28073655030E+04  0.28000866117E+04 0.  0.
        2    1    3    3  502    0  0.11905489602E+04 -0.26037250981E+03 -0.58992137901E+03  0.13539600821E+04  0.25500000920E-02 0.  1.
       -2    1    3    3    0  502 -0.11905489602E+04  0.26037250981E+03  0.79195116448E+03  0.14534054209E+04  0.25500000920E-02 0. -1.
</event>
<event>
 5   0  0.5584205E-06  0.2793254E+04  0.7818609E-02  0.8305366E-01
       -2   -1    0    0    0  501  0.00000000000E+00  0.00000000000E+00  0.15497247425E+04  0.15497247425E+04  0.25500000920E-02 0.  1.
        2   -1    0    0  501    0  0.00000000000E+00  0.00000000000E+00 -0.12586538523E+04  0.12586538523E+04  0.25500000920E-02 0. -1.
    10030    2    1    2    0    0  0.00000000000E+00  0.00000000000E+00  0.29107089021E+03  0.28083785948E+04  0.27932540286E+04 0.  0.
        1    1    3    3  502    0 -0.21654943537E+02 -0.55545732534E+03  0.14337087476E+04  0.15377004097E+04  0.50400001928E-02 0.  1.
       -1    1    3    3    0  502  0.21654943537E+02  0.55545732534E+03 -0.11426378574E+04  0.12706781851E+04  0.50400001928E-02 0. -1.
</event>
<event>
 5   0  0.2234068E-06  0.2750224E+04  0.7818609E-02  0.8318891E-01
        1   -1    0    0  501    0  0.00000000000E+00  0.00000000000E+00  0.20002532885E+04  0.20002532885E+04  0.50400001928E-02 0. -1.
       -1   -1    0    0    0  501  0.00000000000E+00  0.00000000000E+00 -0.94534655797E+03  0.94534655799E+03  0.50400001928E-02 0.  1.
    10030    2    1    2    0    0  0.00000000000E+00  0.00000000000E+00  0.10549067305E+04  0.29455998465E+04  0.27502236719E+04 0.  0.
        3    1    3    3  502    0 -0.10041665182E+04  0.77485841737E+03  0.10963930418E+04  0.16765541076E+04  0.10100000352E+00 0. -1.
       -3    1    3    3    0  502  0.10041665182E+04 -0.77485841737E+03 -0.41486311249E+02  0.12690457389E+04  0.10100000352E+00 0.  1.
</event>
<event>
 5   0  0.2267565E-06  0.2785365E+04  0.7818609E-02  0.8307826E-01
        1   -1    0    0  501    0  0.00000000000E+00  0.00000000000E+00  0.22771755724E+04  0.22771755725E+04  0.50400001928E-02 0. -1.
       -1   -1    0    0    0  501  0.00000000000E+00  0.00000000000E+00 -0.85174145335E+03  0.85174145336E+03  0.50400001928E-02 0.  1.
    10030    2    1    2    0    0  0.00000000000E+00  0.00000000000E+00  0.14254341191E+04  0.31289170258E+04  0.27853652052E+04 0.  0.
        4    1    3    3  502    0 -0.13624432304E+04  0.20107541783E+03  0.48010029806E+03  0.14584857863E+04  0.12699999809E+01 0.  1.
       -4    1    3    3    0  502  0.13624432304E+04 -0.20107541783E+03  0.94533382104E+03  0.16704312395E+04  0.12699999809E+01 0. -1.
</event>
<event>
 5   0  0.5916603E-06  0.2822599E+04  0.7818609E-02  0.8296286E-01
        2   -1    0    0  501    0  0.00000000000E+00  0.00000000000E+00  0.14781851094E+04  0.14781851094E+04  0.25500000920E-02 0. -1.
       -2   -1    0    0    0  501  0.00000000000E+00  0.00000000000E+00 -0.13474406731E+04  0.13474406731E+04  0.25500000920E-02 0.  1.
    10030    2    1    2    0    0  0.00000000000E+00  0.00000000000E+00  0.13074443638E+03  0.28256257825E+04  0.28225993260E+04 0.  0.
        2    1    3    3  502    0  0.77108104510E+03  0.97260374123E+03  0.73783850569E+03  0.14439285564E+04  0.25500000920E-02 0. -1.
       -2    1    3    3    0  502 -0.77108104510E+03 -0.97260374123E+03 -0.60709406932E+03  0.13816972261E+04  0.25500000920E-02 0.  1.
</event>
<event>
 5   0  0.5546570E-06  0.2807179E+04  0.7818609E-02  0.8301043E-01
       -2   -1    0    0    0  501  0.00000000000E+00  0.00000000000E+00  0.10156171341E+04  0.10156171341E+04  0.25500000920E-02 0.  1.
        2   -1    0    0  501    0  0.00000000000E+00  0.00000000000E+00 -0.19397702528E+04  0.19397702528E+04  0.25500000920E-02 0. -1.
    10030    2    1    2    0    0  0.00000000000E+00  0.00000000000E+00 -0.92415311865E+03  0.29553873869E+04  0.28071792996E+04 0.  0.
        4    1    3    3  502    0  0.80630855244E+02  0.12929382130E+04  0.10669815687E+03  0.12998371695E+04  0.12699999809E+01 0.  1.
       -4    1    3    3    0  502 -0.80630855244E+02 -0.12929382130E+04 -0.10308512755E+04  0.16555502175E+04  0.12699999809E+01 0. -1.
</event>
<event>
 5   0  0.5625245E-06  0.2747397E+04  0.7818609E-02  0.8319788E-01
       -2   -1    0    0    0  501  0.00000000000E+00  0.00000000000E+00  0.80032239624E+03  0.80032239624E+03  0.25500000920E-02 0.  1.
        2   -1    0    0  501    0  0.00000000000E+00  0.00000000000E+00 -0.23578588673E+04  0.23578588673E+04  0.25500000920E-02 0. -1.
    10030    2    1    2    0    0  0.00000000000E+00  0.00000000000E+00 -0.15575364710E+04  0.31581812635E+04  0.27473967742E+04 0.  0.
        3    1    3    3  502    0 -0.30377402933E+03  0.13269267962E+04 -0.56670210834E+03  0.14745048909E+04  0.10100000352E+00 0. -1.
       -3    1    3    3    0  502  0.30377402933E+03 -0.13269267962E+04 -0.99083436269E+03  0.16836763727E+04  0.10100000352E+00 0.  1.
</event>
<event>
 5   0  0.5866136E-06  0.2803217E+04  0.7818609E-02  0.8302270E-01
        2   -1    0    0  501    0  0.00000000000E+00  0.00000000000E+00  0.12958056834E+04  0.12958056834E+04  0.25500000920E-02 0.  1.
       -2   -1    0    0    0  501  0.00000000000E+00  0.00000000000E+00 -0.15160501240E+04  0.15160501240E+04  0.25500000920E-02 0. -1.
    10030    2    1    2    0    0  0.00000000000E+00  0.00000000000E+00 -0.22024444068E+03  0.28118558074E+04  0.28032169855E+04 0.  0.
        5    1    3    3  502    0  0.63585574647E+03  0.97679112308E+03 -0.89101401961E+03  0.14670928742E+04  0.46999998093E+01 0. -1.
       -5    1    3    3    0  502 -0.63585574647E+03 -0.97679112308E+03  0.67076957893E+03  0.13447629332E+04  0.46999998093E+01 0.  1.
</event>
<event>
 5   0  0.2267565E-06  0.2790156E+04  0.7818609E-02  0.8306331E-01
        1   -1    0    0  501    0  0.00000000000E+00  0.00000000000E+00  0.17343920028E+04  0.17343920028E+04  0.50400001928E-02 0.  1.
       -1   -1    0    0    0  501  0.00000000000E+00  0.00000000000E+00 -0.11221472468E+04  0.11221472468E+04  0.50400001928E-02 0. -1.
    10030    2    1    2    0    0  0.00000000000E+00  0.00000000000E+00  0.61224475607E+03  0.28565392496E+04  0.27901564192E+04 0.  0.
        4    1    3    3  502    0  0.23371353706E+03  0.12163531171E+04 -0.35110465029E+03  0.12874055349E+04  0.12699999809E+01 0. -1.
       -4    1    3    3    0  502 -0.23371353706E+03 -0.12163531171E+04  0.96334940636E+03  0.15691337147E+04  0.12699999809E+01 0.  1.
</event>
<event>
 5   0  0.2206967E-06  0.2799864E+04  0.7818609E-02  0.8303310E-01
       -1   -1    0    0    0  501  0.00000000000E+00  0.00000000000E+00  0.20274495276E+04  0.20274495276E+04  0.50400001928E-02 0.  1.
        1   -1    0    0  501    0  0.00000000000E+00  0.00000000000E+00 -0.96663814821E+03  0.96663814822E+03  0.50400001928E-02 0. -1.
    10030    2    1    2    0    0  0.00000000000E+00  0.00000000000E+00  0.10608113793E+04  0.29940876758E+04  0.27998643231E+04 0.  0.
        5    1    3    3  502    0 -0.53606118291E+03  0.45826463652E+03 -0.76278798218E+03  0.10388626784E+04  0.46999998093E+01 0. -1.
       -5    1    3    3    0  502  0.53606118291E+03 -0.45826463652E+03  0.18235993615E+04  0.19552249973E+04  0.46999998093E+01 0.  1.
</event>
<event>
 5   0  0.2277133E-06  0.2830123E+04  0.7818609E-02  0.8293977E-01
       -1   -1    0    0    0  501  0.00000000000E+00  0.00000000000E+00  0.11916052675E+04  0.11916052675E+04  0.50400001928E-02 0.  1.
        1   -1    0    0  501    0  0.00000000000E+00  0.00000000000E+00 -0.16804216018E+04  0.16804216019E+04  0.50400001928E-02 0. -1.
    10030    2    1    2    0    0  0.00000000000E+00  0.00000000000E+00 -0.48881633438E+03  0.28720268693E+04  0.28301231297E+04 0.  0.
        1    1    3    3  502    0 -0.26857697271E+03  0.13098089691E+04 -0.71458898575E+03  0.15160377780E+04  0.50400001928E-02 0. -1.
       -1    1    3    3    0  502  0.26857697271E+03 -0.13098089691E+04  0.22577265137E+03  0.13559890913E+04  0.50400001928E-02 0.  1.
</event>
<event>
 5   0  0.5546570E-06  0.2804446E+04  0.7818609E-02  0.8301890E-01
       -2   -1    0    0    0  501  0.00000000000E+00  0.00000000000E+00  0.89754122883E+03  0.89754122884E+03  0.25500000920E-02 0.  1.
        2   -1    0    0  501    0  0.00000000000E+00  0.00000000000E+00 -0.21906833731E+04  0.21906833731E+04  0.25500000920E-02 0. -1.
    10030    2    1    2    0    0  0.00000000000E+00  0.00000000000E+00 -0.12931421443E+04  0.30882246019E+04  0.28044455043E+04 0.  0.
        4    1    3    3  502    0  0.18379896537E+02  0.52283876266E+03  0.78604530693E+03  0.94422827208E+03  0.12699999809E+01 0.  1.
       -4    1    3    3    0  502 -0.18379896537E+02 -0.52283876266E+03 -0.20791874512E+04  0.21439963299E+04  0.12699999809E+01 0. -1.
</event>
<event>
 5   0  0.5546570E-06  0.2802489E+04  0.7818609E-02  0.8302496E-01
       -2   -1    0    0    0  501  0.00000000000E+00  0.00000000000E+00  0.11998777164E+04  0.11998777164E+04  0.25500000920E-02 0. -1.
        2   -1    0    0  501    0  0.00000000000E+00  0.00000000000E+00 -0.16364046728E+04  0.16364046728E+04  0.25500000920E-02 0.  1.
    10030    2    1    2    0    0  0.00000000000E+00  0.00000000000E+00 -0.43652695644E+03  0.28362823893E+04  0.28024885384E+04 0.  0.
        4    1    3    3  502    0  0.13435241838E+03  0.41700182066E+03  0.11287794855E+04  0.12108203131E+04  0.12699999809E+01 0. -1.
       -4    1    3    3    0  502 -0.13435241838E+03 -0.41700182066E+03 -0.15653064420E+04  0.16254620761E+04  0.12699999809E+01 0.  1.
</event>
<event>
 5   0  0.1901375E-06  0.2821803E+04  0.7818609E-02  0.8296531E-01
       -3   -1    0    0    0  501  0.00000000000E+00  0.00000000000E+00  0.18469514647E+04  0.18469514675E+04  0.10100000352E+00 0. -1.
        3   -1    0    0  501    0  0.00000000000E+00  0.00000000000E+00 -0.10777995954E+04  0.10777996001E+04  0.10100000352E+00 0.  1.
    10030    2    1    2    0    0  0.00000000000E+00  0.00000000000E+00  0.76915186936E+03  0.29247510676E+04  0.28218033612E+04 0.  0.
        5    1    3    3  502    0  0.78376281396E+03  0.51426604152E+03 -0.70834496004E+03  0.11749588854E+04  0.46999998093E+01 0.  1.
       -5    1    3    3    0  502 -0.78376281396E+03 -0.51426604152E+03  0.14774968294E+04  0.17497921822E+04  0.46999998093E+01 0. -1.
</event>
<event>
 5   0  0.5916603E-06  0.2722247E+04  0.7818609E-02  0.8327822E-01
        2   -1    0    0  501    0  0.00000000000E+00  0.00000000000E+00  0.91127811280E+03  0.91127811280E+03  0.25500000920E-02 0. -1.
       -2   -1    0    0    0  501  0.00000000000E+00  0.00000000000E+00 -0.20330317479E+04  0.20330317479E+04  0.25500000920E-02 0.  1.
    10030    2    1    2    0    0  0.00000000000E+00  0.00000000000E+00 -0.11217536351E+04  0.29443098607E+04  0.27222471118E+04 0.  0.
        2    1    3    3  502    0  0.71712093809E+02 -0.45079105690E+03 -0.19477820218E+04  0.20005524252E+04  0.25500000920E-02 0.  1.
       -2    1    3    3    0  502 -0.71712093809E+02  0.45079105690E+03  0.82602838673E+03  0.94375743550E+03  0.25500000920E-02 0. -1.
</event>
<event>
 5   0  0.2190865E-06  0.2807308E+04  0.7818609E-02  0.8301003E-01
       -1   -1    0    0    0  501  0.00000000000E+00  0.00000000000E+00  0.11806580269E+04  0.11806580269E+04  0.50400001928E-02 0. -1.
        1   -1    0    0  501    0  0.00000000000E+00  0.00000000000E+00 -0.16687681539E+04  0.16687681539E+04  0.50400001928E-02 0.  1.
    10030    2    1    2    0    0  0.00000000000E+00  0.00000000000E+00 -0.48811012705E+03  0.28494261808E+04  0.28073079745E+04 0.  0.
        2    1    3    3  502    0  0.26292575507E+03 -0.97223450167E+03  0.74830166823E+03  0.12547211904E+04  0.25500000920E-02 0. -1.
       -2    1    3    3    0  502 -0.26292575507E+03  0.97223450167E+03 -0.12364117953E+04  0.15947049904E+04  0.25500000920E-02 0.  1.
</event>
<event>
 5   0  0.2234068E-06  0.2797058E+04  0.7818609E-02  0.8304182E-01
        1   -1    0    0  501    0  0.00000000000E+00  0.00000000000E+00  0.12007066324E+04  0.12007066325E+04  0.50400001928E-02 0.  1.
       -1   -1    0    0    0  501  0.00000000000E+00  0.00000000000E+00 -0.16289433770E+04  0.16289433770E+04  0.50400001928E-02 0. -1.
    10030    2    1    2    0    0  0.00000000000E+00  0.00000000000E+00 -0.42823674455E+03  0.28296500095E+04  0.27970578233E+04 0.  0.
        3    1    3    3  502    0  0.66715425655E+03 -0.45387600827E+03 -0.13697002817E+04  0.15897097549E+04  0.10100000352E+00 0. -1.
       -3    1    3    3    0  502 -0.66715425655E+03  0.45387600827E+03  0.94146353715E+03  0.12399402546E+04  0.10100000352E+00 0.  1.
</event>
<event>
 5   0  0.5866136E-06  0.2836359E+04  0.7818609E-02  0.8292069E-01
        2   -1    0    0  501    0  0.00000000000E+00  0.00000000000E+00  0.18857676796E+04  0.18857676796E+04  0.25500000920E-02 0.  1.
       -2   -1    0    0    0  501  0.00000000000E+00  0.00000000000E+00 -0.10665325791E+04  0.10665325791E+04  0.25500000920E-02 0. -1.
    10030    2    1    2    0    0  0.00000000000E+00  0.00000000000E+00  0.81923510048E+03  0.29523002587E+04  0.28363586987E+04 0.  0.
        5    1    3    3  502    0 -0.12670764275E+04 -0.21253160751E+03 -0.21539260238E+03  0.13027157865E+04  0.46999998093E+01 0. -1.
       -5    1    3    3    0  502  0.12670764275E+04  0.21253160751E+03  0.10346277029E+04  0.16495844722E+04  0.46999998093E+01 0.  1.
</event>
<event>
 5   0  0.5584205E-06  0.2814339E+04  0.7818609E-02  0.8298830E-01
        2   -1    0    0  501    0  0.00000000000E+00  0.00000000000E+00  0.12180428740E+04  0.12180428740E+04  0.25500000920E-02 0.  1.
       -2   -1    0    0    0  501  0.00000000000E+00  0.00000000000E+00 -0.16256619249E+04  0.16256619249E+04  0.25500000920E-02 0. -1.
    10030    2    1    2    0    0  0.00000000000E+00  0.00000000000E+00 -0.40761905097E+03  0.28437047989E+04  0.28143389441E+04 0.  0.
        1    1    3    3  502    0 -0.10055417046E+04 -0.56850960229E+03 -0.10158170141E+04  0.15382462396E+04  0.50400001928E-02 0. -1.
       -1    1    3    3    0  502  0.10055417046E+04  0.56850960229E+03  0.60819796312E+03  0.13054585593E+04  0.50400001928E-02 0.  1.
</event>
<event>
 5   0  0.2267565E-06  0.2807194E+04  0.7818609E-02  0.8301039E-01
       -1   -1    0    0    0  501  0.00000000000E+00  0.00000000000E+00  0.10760260115E+04  0.10760260115E+04  0.50400001928E-02 0. -1.
        1   -1    0    0  501    0  0.00000000000E+00  0.00000000000E+00 -0.18308888630E+04  0.18308888630E+04  0.50400001928E-02 0.  1.
    10030    2    1    2    0    0  0.00000000000E+00  0.00000000000E+00 -0.75486285152E+03  0.29069148745E+04  0.28071936454E+04 0.  0.
        4    1    3    3  502    0 -0.82333923911E+03  0.40824911546E+03  0.72116457502E+03  0.11681758430E+04  0.12699999809E+01 0. -1.
       -4    1    3    3    0  502  0.82333923911E+03 -0.40824911546E+03 -0.14760274265E+04  0.17387390315E+04  0.12699999809E+01 0.  1.
</event>
<event>
 5   0  0.2267565E-06  0.2484262E+04  0.7818609E-02  0.8408614E-01
       -1   -1    0    0    0  501  0.00000000000E+00  0.00000000000E+00  0.14103562435E+04  0.14103562436E+04  0.50400001928E-02 0. -1.
        1   -1    0    0  501    0  0.00000000000E+00  0.00000000000E+00 -0.10939715262E+04  0.10939715262E+04  0.50400001928E-02 0.  1.
    10030    2    1    2    0    0  0.00000000000E+00  0.00000000000E+00  0.31638471731E+03  0.25043277698E+04  0.24842621217E+04 0.  0.
        4    1    3    3  502    0  0.10387449103E+04 -0.67857001055E+03  0.99069589741E+02  0.12446945988E+04  0.12699999809E+01 0. -1.
       -4    1    3    3    0  502 -0.10387449103E+04  0.67857001055E+03  0.21731512757E+03  0.12596331710E+04  0.12699999809E+01 0.  1.
</event>
<event>
 5   0  0.2206967E-06  0.2786085E+04  0.7818609E-02  0.8307602E-01
       -1   -1    0    0    0  501  0.00000000000E+00  0.00000000000E+00  0.11780760789E+04  0.11780760790E+04  0.50400001928E-02 0. -1.
        1   -1    0    0  501    0  0.00000000000E+00  0.00000000000E+00 -0.16472338097E+04  0.16472338097E+04  0.50400001928E-02 0.  1.
    10030    2    1    2    0    0  0.00000000000E+00  0.00000000000E+00 -0.46915773074E+03  0.28253098886E+04  0.27860845268E+04 0.  0.
        5    1    3    3  502    0  0.10246404577E+04  0.53180230483E+03 -0.10251982800E+04  0.15439415023E+04  0.46999998093E+01 0.  1.
       -5    1    3    3    0  502 -0.10246404577E+04 -0.53180230483E+03  0.55604054931E+03  0.12813683864E+04  0.46999998093E+01 0. -1.
</event>
<event>
 5   0  0.5546570E-06  0.3016536E+04  0.7818609E-02  0.8239025E-01
       -2   -1    0    0    0  501  0.00000000000E+00  0.00000000000E+00  0.15300140077E+04  0.15300140077E+04  0.25500000920E-02 0. -1.
        2   -1    0    0  501    0  0.00000000000E+00  0.00000000000E+00 -0.14868307214E+04  0.14868307214E+04  0.25500000920E-02 0.  1.
    10030    2    1    2    0    0  0.00000000000E+00  0.00000000000E+00  0.43183286295E+02  0.30168447290E+04  0.30165356492E+04 0.  0.
        4    1    3    3  502    0  0.89488373640E+03 -0.24056757523E+03  0.12117474236E+04  0.15254583218E+04  0.12699999809E+01 0. -1.
       -4    1    3    3    0  502 -0.89488373640E+03  0.24056757523E+03 -0.11685641373E+04  0.14913864073E+04  0.12699999809E+01 0.  1.
</event>
<event>
 5   0  0.2206967E-06  0.2762419E+04  0.7818609E-02  0.8315032E-01
       -1   -1    0    0    0  501  0.00000000000E+00  0.00000000000E+00  0.84313489850E+03  0.84313489851E+03  0.50400001928E-02 0. -1.
        1   -1    0    0  501    0  0.00000000000E+00  0.00000000000E+00 -0.22626741590E+04  0.22626741590E+04  0.50400001928E-02 0.  1.
    10030    2    1    2    0    0  0.00000000000E+00  0.00000000000E+00 -0.14195392605E+04  0.31058090575E+04  0.27624189019E+04 0.  0.
        5    1    3    3  502    0 -0.75769180165E+03  0.19084491778E+03 -0.19902958803E+04  0.21381811032E+04  0.46999998093E+01 0.  1.
       -5    1    3    3    0  502  0.75769180165E+03 -0.19084491778E+03  0.57075661980E+03  0.96762795431E+03  0.46999998093E+01 0. -1.
</event>
<event>
 5   0  0.5625245E-06  0.2687619E+04  0.7818609E-02  0.8339033E-01
       -2   -1    0    0    0  501  0.00000000000E+00  0.00000000000E+00  0.77155703206E+03  0.77155703206E+03  0.25500000920E-02 0.  1.
        2   -1    0    0  501    0  0.00000000000E+00  0.00000000000E+00 -0.23404934186E+04  0.23404934186E+04  0.25500000920E-02 0. -1.
    10030    2    1    2    0    0  0.00000000000E+00  0.00000000000E+00 -0.15689363866E+04  0.31120504507E+04  0.26876191364E+04 0.  0.
        3    1    3    3  502    0 -0.62481584486E+03 -0.65769163622E+03  0.36349289838E+03  0.97728206047E+03  0.10100000352E+00 0.  1.
       -3    1    3    3    0  502  0.62481584486E+03  0.65769163622E+03 -0.19324292850E+04  0.21347683902E+04  0.10100000352E+00 0. -1.
</event>
<event>
 5   0  0.5625245E-06  0.2795638E+04  0.7818609E-02  0.8304624E-01
        2   -1    0    0  501    0  0.00000000000E+00  0.00000000000E+00  0.14426897772E+04  0.14426897772E+04  0.25500000920E-02 0. -1.
       -2   -1    0    0    0  501  0.00000000000E+00  0.00000000000E+00 -0.13543434781E+04  0.13543434782E+04  0.25500000920E-02 0.  1.
    10030    2    1    2    0    0  0.00000000000E+00  0.00000000000E+00  0.88346299063E+02  0.27970332554E+04  0.27956376666E+04 0.  0.
        3    1    3    3  502    0  0.10605421670E+04 -0.88462687713E+03 -0.17176573339E+03  0.13916960434E+04  0.10100000352E+00 0.  1.
       -3    1    3    3    0  502 -0.10605421670E+04  0.88462687713E+03  0.26011203245E+03  0.14053372120E+04  0.10100000352E+00 0. -1.
</event>
<event>
 5   0  0.2206967E-06  0.2795829E+04  0.7818609E-02  0.8304564E-01
        1   -1    0    0  501    0  0.00000000000E+00  0.00000000000E+00  0.73692330225E+03  0.73692330227E+03  0.50400001928E-02 0.  1.
       -1   -1    0    0    0  501  0.00000000000E+00  0.00000000000E+00 -0.26517885159E+04  0.26517885159E+04  0.50400001928E-02 0. -1.
    10030    2    1    2    0    0  0.00000000000E+00  0.00000000000E+00 -0.19148652137E+04  0.33887118182E+04  0.27958288575E+04 0.  0.
        5    1    3    3  502    0  0.33077888468E+03  0.84527692886E+03 -0.22460037799E+04  0.24224910374E+04  0.46999998093E+01 0. -1.
       -5    1    3    3    0  502 -0.33077888468E+03 -0.84527692886E+03  0.33113856629E+03  0.96622078072E+03  0.46999998093E+01 0.  1.
</event>
<event>
 5   0  0.5625245E-06  0.2795957E+04  0.7818609E-02  0.8304525E-01
        2   -1    0    0  501    0  0.00000000000E+00  0.00000000000E+00  0.11759590260E+04  0.11759590260E+04  0.25500000920E-02 0.  1.
       -2   -1    0    0    0  501  0.00000000000E+00  0.00000000000E+00 -0.16619147090E+04  0.16619147090E+04  0.25500000920E-02 0. -1.
    10030    2    1    2    0    0  0.00000000000E+00  0.00000000000E+00 -0.48595568301E+03  0.28378737351E+04  0.27959567970E+04 0.  0.
        3    1    3    3  502    0  0.38080927458E+03  0.13014409420E+04  0.10208862834E+03  0.13598479060E+04  0.10100000352E+00 0.  1.
       -3    1    3    3    0  502 -0.38080927458E+03 -0.13014409420E+04 -0.58804431134E+03  0.14780258291E+04  0.10100000352E+00 0. -1.
</event>
<event>
 5   0  0.5916603E-06  0.2948377E+04  0.7818609E-02  0.8258628E-01
        2   -1    0    0  501    0  0.00000000000E+00  0.00000000000E+00  0.22946899171E+04  0.22946899171E+04  0.25500000920E-02 0. -1.
       -2   -1    0    0    0  501  0.00000000000E+00  0.00000000000E+00 -0.94706968295E+03  0.94706968296E+03  0.25500000920E-02 0.  1.
    10030    2    1    2    0    0  0.00000000000E+00  0.00000000000E+00  0.13476202342E+04  0.32417596001E+04  0.29483766735E+04 0.  0.
        2    1    3    3  502    0 -0.26504644491E+03 -0.12779658981E+04  0.14274212724E+04  0.19341607853E+04  0.25500000920E-02 0. -1.
       -2    1    3    3    0  502  0.26504644491E+03  0.12779658981E+04 -0.79801038290E+02  0.13075988147E+04  0.25500000920E-02 0.  1.
</event>
<event>
 5   0  0.5584205E-06  0.2679112E+04  0.7818609E-02  0.8341814E-01
        2   -1    0    0  501    0  0.00000000000E+00  0.00000000000E+00  0.10139888455E+04  0.10139888455E+04  0.25500000920E-02 0. -1.
       -2   -1    0    0    0  501  0.00000000000E+00  0.00000000000E+00 -0.17696545660E+04  0.17696545660E+04  0.25500000920E-02 0.  1.
    10030    2    1    2    0    0  0.00000000000E+00  0.00000000000E+00 -0.75566572051E+03  0.27836434115E+04  0.26791117859E+04 0.  0.
        1    1    3    3  502    0  0.65737568216E+03  0.37846589160E+03 -0.15250089859E+04  0.17032415054E+04  0.50400001928E-02 0.  1.
       -1    1    3    3    0  502 -0.65737568216E+03 -0.37846589160E+03  0.76934326539E+03  0.10804019061E+04  0.50400001928E-02 0. -1.
</event>
<event>
 5   0  0.2277133E-06  0.2795850E+04  0.7818609E-02  0.8304558E-01
       -1   -1    0    0    0  501  0.00000000000E+00  0.00000000000E+00  0.16012174986E+04  0.16012174986E+04  0.50400001928E-02 0. -1.
        1   -1    0    0  501    0  0.00000000000E+00  0.00000000000E+00 -0.12204429990E+04  0.12204429990E+04  0.50400001928E-02 0.  1.
    10030    2    1    2    0    0  0.00000000000E+00  0.00000000000E+00  0.38077449962E+03  0.28216604976E+04  0.27958502721E+04 0.  0.
        1    1    3    3  502    0  0.20529541545E+03 -0.11368088571E+04 -0.60409927858E+03  0.13036167089E+04  0.50400001928E-02 0.  1.
       -1    1    3    3    0  502 -0.20529541545E+03  0.11368088571E+04  0.98487377820E+03  0.15180437887E+04  0.50400001928E-02 0. -1.
</event>
<event>
 5   0  0.5546570E-06  0.2790550E+04  0.7818609E-02  0.8306208E-01
       -2   -1    0    0    0  501  0.00000000000E+00  0.00000000000E+00  0.13997962836E+04  0.13997962836E+04  0.25500000920E-02 0. -1.
        2   -1    0    0  501    0  0.00000000000E+00  0.00000000000E+00 -0.13907681212E+04  0.13907681212E+04  0.25500000920E-02 0.  1.
    10030    2    1    2    0    0  0.00000000000E+00  0.00000000000E+00  0.90281623972E+01  0.27905644049E+04  0.27905498007E+04 0.  0.
        4    1    3    3  502    0  0.19278304218E+03 -0.56361392540E+03  0.12662514308E+04  0.13993642332E+04  0.12699999809E+01 0. -1.
       -4    1    3    3    0  502 -0.19278304218E+03  0.56361392540E+03 -0.12572232684E+04  0.13912001717E+04  0.12699999809E+01 0.  1.
</event>
<event>
 5   0  0.5546570E-06  0.2826981E+04  0.7818609E-02  0.8294940E-01
        2   -1    0    0  501    0  0.00000000000E+00  0.00000000000E+00  0.18217045797E+04  0.18217045797E+04  0.25500000920E-02 0.  1.
       -2   -1    0    0    0  501  0.00000000000E+00  0.00000000000E+00 -0.10967505187E+04  0.10967505187E+04  0.25500000920E-02 0. -1.
    10030    2    1    2    0    0  0.00000000000E+00  0.00000000000E+00  0.72495406104E+03  0.29184550984E+04  0.28269810348E+04 0.  0.
        4    1    3    3  502    0  0.85607047231E+03  0.24643883465E+03  0.14954229977E+04  0.17406551375E+04  0.12699999809E+01 0.  1.
       -4    1    3    3    0  502 -0.85607047231E+03 -0.24643883465E+03 -0.77046893663E+03  0.11777999609E+04  0.12699999809E+01 0. -1.
</event>
<event>
 5   0  0.5625245E-06  0.2788325E+04  0.7818609E-02  0.8306902E-01
       -2   -1    0    0    0  501  0.00000000000E+00  0.00000000000E+00  0.13620645742E+04  0.13620645742E+04  0.25500000920E-02 0. -1.
        2   -1    0    0  501    0  0.00000000000E+00  0.00000000000E+00 -0.14270169461E+04  0.14270169462E+04  0.25500000920E-02 0.  1.
    10030    2    1    2    0    0  0.00000000000E+00  0.00000000000E+00 -0.64952371948E+02  0.27890815204E+04  0.27883251096E+04 0.  0.
        3    1    3    3  502    0  0.29345000883E+03 -0.13522274823E+04 -0.20298400026E+03  0.13985115609E+04  0.10100000352E+00 0.  1.
       -3    1    3    3    0  502 -0.29345000883E+03  0.13522274823E+04  0.13803162831E+03  0.13905699594E+04  0.10100000352E+00 0. -1.
</event>
<event>
 5   0  0.2267565E-06  0.2729184E+04  0.7818609E-02  0.8325597E-01
        1   -1    0    0  501    0  0.00000000000E+00  0.00000000000E+00  0.11506328376E+04  0.11506328376E+04  0.50400001928E-02 0.  1.
       -1   -1    0    0    0  501  0.00000000000E+00  0.00000000000E+00 -0.16183367797E+04  0.16183367798E+04  0.50400001928E-02 0. -1.
    10030    2    1    2    0    0  0.00000000000E+00  0.00000000000E+00 -0.46770394218E+03  0.27689696173E+04  0.27291840840E+04 0.  0.
        4    1    3    3  502    0 -0.84745287376E+02  0.61588855813E+03 -0.14663069383E+04  0.15926575684E+04  0.12699999809E+01 0. -1.
       -4    1    3    3    0  502  0.84745287376E+02 -0.61588855813E+03  0.99860299615E+03  0.11763120490E+04  0.12699999809E+01 0.  1.
</event>
<event>
 5   0  0.2190865E-06  0.2805796E+04  0.7818609E-02  0.8301471E-01
        1   -1    0    0  501    0  0.00000000000E+00  0.00000000000E+00  0.18179919458E+04  0.18179919458E+04  0.50400001928E-02 0. -1.
       -1   -1    0    0    0  501  0.00000000000E+00  0.00000000000E+00 -0.10825806133E+04  0.10825806133E+04  0.50400001928E-02 0.  1.
    10030    2    1    2    0    0  0.00000000000E+00  0.00000000000E+00  0.73541133251E+03  0.29005725592E+04  0.28057960266E+04 0.  0.
        2    1    3    3  502    0 -0.40794725317E+03 -0.20665211779E+03 -0.10033660123E+04  0.11026646878E+04  0.25500000920E-02 0.  1.
       -2    1    3    3    0  502  0.40794725317E+03  0.20665211779E+03  0.17387773448E+04  0.17979078714E+04  0.25500000920E-02 0. -1.
</event>
<event>
 5   0  0.5625245E-06  0.2802286E+04  0.7818609E-02  0.8302559E-01
       -2   -1    0    0    0  501  0.00000000000E+00  0.00000000000E+00  0.58437194249E+03  0.58437194250E+03  0.25500000920E-02 0. -1.
        2   -1    0    0  501    0  0.00000000000E+00  0.00000000000E+00 -0.33595070440E+04  0.33595070440E+04  0.25500000920E-02 0.  1.
    10030    2    1    2    0    0  0.00000000000E+00  0.00000000000E+00 -0.27751351015E+04  0.39438789865E+04  0.28022859648E+04 0.  0.
        3    1    3    3  502    0 -0.57541906230E+03  0.67955894141E+03  0.13493719262E+03  0.90061951360E+03  0.10100000352E+00 0. -1.
       -3    1    3    3    0  502  0.57541906230E+03 -0.67955894141E+03 -0.29100722941E+04  0.30432594729E+04  0.10100000352E+00 0.  1.
</event>
<event>
 5   0  0.5546570E-06  0.2789193E+04  0.7818609E-02  0.8306631E-01
        2   -1    0    0  501    0  0.00000000000E+00  0.00000000000E+00  0.13907430344E+04  0.13907430344E+04  0.25500000920E-02 0. -1.
       -2   -1    0    0    0  501  0.00000000000E+00  0.00000000000E+00 -0.13984602903E+04  0.13984602903E+04  0.25500000920E-02 0.  1.
    10030    2    1    2    0    0  0.00000000000E+00  0.00000000000E+00 -0.77172559629E+01  0.27892033247E+04  0.27891926485E+04 0.  0.
        4    1    3    3  502    0 -0.35788978850E+03  0.11776858959E+04 -0.65950442828E+03  0.13964157239E+04  0.12699999809E+01 0.  1.
       -4    1    3    3    0  502  0.35788978850E+03 -0.11776858959E+04  0.65178717231E+03  0.13927876008E+04  0.12699999809E+01 0. -1.
</event>
<event>
 5   0  0.5546570E-06  0.2806282E+04  0.7818609E-02  0.8301321E-01
       -2   -1    0    0    0  501  0.00000000000E+00  0.00000000000E+00  0.12531653398E+04  0.12531653398E+04  0.25500000920E-02 0. -1.
        2   -1    0    0  501    0  0.00000000000E+00  0.00000000000E+00 -0.15710654005E+04  0.15710654005E+04  0.25500000920E-02 0.  1.
    10030    2    1    2    0    0  0.00000000000E+00  0.00000000000E+00 -0.31790006072E+03  0.28242307403E+04  0.28062820289E+04 0.  0.
        4    1    3    3  502    0 -0.10855113058E+04 -0.32684625951E+03  0.67316340967E+03  0.13184513117E+04  0.12699999809E+01 0. -1.
       -4    1    3    3    0  502  0.10855113058E+04  0.32684625951E+03 -0.99106347039E+03  0.15057794286E+04  0.12699999809E+01 0.  1.
</event>
<event>
 5   0  0.2234068E-06  0.2795205E+04  0.7818609E-02  0.8304759E-01
        1   -1    0    0  501    0  0.00000000000E+00  0.00000000000E+00  0.12573163642E+04  0.12573163642E+04  0.50400001928E-02 0.  1.
       -1   -1    0    0    0  501  0.00000000000E+00  0.00000000000E+00 -0.15535406243E+04  0.15535406243E+04  0.50400001928E-02 0. -1.
    10030    2    1    2    0    0  0.00000000000E+00  0.00000000000E+00 -0.29622426016E+03  0.28108569885E+04  0.27952045001E+04 0.  0.
        3    1    3    3  502    0 -0.16673185057E+03  0.74765295019E+03 -0.13236352852E+04  0.15293118787E+04  0.10100000352E+00 0. -1.
       -3    1    3    3    0  502  0.16673185057E+03 -0.74765295019E+03  0.10274110250E+04  0.12815451098E+04  0.10100000352E+00 0.  1.
</event>
<event>
 5   0  0.2277133E-06  0.2804961E+04  0.7818609E-02  0.8301730E-01
        1   -1    0    0  501    0  0.00000000000E+00  0.00000000000E+00  0.80050372882E+03  0.80050372883E+03  0.50400001928E-02 0. -1.
       -1   -1    0    0    0  501  0.00000000000E+00  0.00000000000E+00 -0.24571414702E+04  0.24571414702E+04  0.50400001928E-02 0.  1.
    10030    2    1    2    0    0  0.00000000000E+00  0.00000000000E+00 -0.16566377414E+04  0.32576451990E+04  0.28049605410E+04 0.  0.
        1    1    3    3  502    0  0.64250596772E+02 -0.10607995120E+03 -0.24507604657E+04  0.24538964842E+04  0.50400001928E-02 0.  1.
       -1    1    3    3    0  502 -0.64250596772E+02  0.10607995120E+03  0.79412272431E+03  0.80374871478E+03  0.50400001928E-02 0. -1.
</event>
<event>
 5   0  0.2267565E-06  0.2796971E+04  0.7818609E-02  0.8304209E-01
       -1   -1    0    0    0  501  0.00000000000E+00  0.00000000000E+00  0.14232894245E+04  0.14232894245E+04  0.50400001928E-02 0.  1.
        1   -1    0    0  501    0  0.00000000000E+00  0.00000000000E+00 -0.13741134322E+04  0.13741134322E+04  0.50400001928E-02 0. -1.
    10030    2    1    2    0    0  0.00000000000E+00  0.00000000000E+00  0.49175992347E+02  0.27974028567E+04  0.27969705870E+04 0.  0.
        4    1    3    3  502    0 -0.11887870489E+03  0.98964742233E+03 -0.95649445786E+03  0.13814548229E+04  0.12699999809E+01 0. -1.
       -4    1    3    3    0  502  0.11887870489E+03 -0.98964742233E+03  0.10056704502E+04  0.14159480338E+04  0.12699999809E+01 0.  1.
</event>
<event>
 5   0  0.5584205E-06  0.2795686E+04  0.7818609E-02  0.8304609E-01
        2   -1    0    0  501    0  0.00000000000E+00  0.00000000000E+00  0.18593808225E+04  0.18593808225E+04  0.25500000920E-02 0.  1.
       -2   -1    0    0    0  501  0.00000000000E+00  0.00000000000E+00 -0.10508685312E+04  0.10508685312E+04  0.25500000920E-02 0. -1.
    10030    2    1    2    0    0  0.00000000000E+00  0.00000000000E+00  0.80851229133E+03  0.29102493537E+04  0.27956858148E+04 0.  0.
        1    1    3    3  502    0 -0.61565764821E+03  0.94273808830E+03 -0.45804585773E+03  0.12155638407E+04  0.50400001928E-02 0. -1.
       -1    1    3    3    0  502  0.61565764821E+03 -0.94273808830E+03  0.12665581491E+04  0.16946855130E+04  0.50400001928E-02 0.  1.
</event>
<event>
 5   0  0.5546570E-06  0.2803181E+04  0.7818609E-02  0.8302281E-01
       -2   -1    0    0    0  501  0.00000000000E+00  0.00000000000E+00  0.12001426661E+04  0.12001426661E+04  0.25500000920E-02 0.  1.
        2   -1    0    0  501    0  0.00000000000E+00  0.00000000000E+00 -0.16368524804E+04  0.16368524804E+04  0.25500000920E-02 0. -1.
    10030    2    1    2    0    0  0.00000000000E+00  0.00000000000E+00 -0.43670981438E+03  0.28369951465E+04  0.28031814068E+04 0.  0.
        4    1    3    3  502    0  0.10159806012E+04 -0.26158369884E+03 -0.11589811133E+04  0.15632918625E+04  0.12699999809E+01 0. -1.
       -4    1    3    3    0  502 -0.10159806012E+04  0.26158369884E+03  0.72227129893E+03  0.12737032840E+04  0.12699999809E+01 0.  1.
</event>
<event>
 5   0  0.2206967E-06  0.2859571E+04  0.7818609E-02  0.8285009E-01
       -1   -1    0    0    0  501  0.00000000000E+00  0.00000000000E+00  0.11570390198E+04  0.11570390198E+04  0.50400001928E-02 0. -1.
        1   -1    0    0  501    0  0.00000000000E+00  0.00000000000E+00 -0.17668264206E+04  0.17668264206E+04  0.50400001928E-02 0.  1.
    10030    2    1    2    0    0  0.00000000000E+00  0.00000000000E+00 -0.60978740082E+03  0.29238654404E+04  0.28595713733E+04 0.  0.
        5    1    3    3  502    0 -0.12016850449E+04  0.70866281435E+03 -0.62500640354E+03  0.15286938955E+04  0.46999998093E+01 0.  1.
       -5    1    3    3    0  502  0.12016850449E+04 -0.70866281435E+03  0.15219002725E+02  0.13951715449E+04  0.46999998093E+01 0. -1.
</event>
<event>
 5   0  0.5584205E-06  0.2793054E+04  0.7818609E-02  0.8305428E-01
        2   -1    0    0  501    0  0.00000000000E+00  0.00000000000E+00  0.97042385100E+03  0.97042385100E+03  0.25500000920E-02 0.  1.
       -2   -1    0    0    0  501  0.00000000000E+00  0.00000000000E+00 -0.20097273828E+04  0.20097273828E+04  0.25500000920E-02 0. -1.
    10030    2    1    2    0    0  0.00000000000E+00  0.00000000000E+00 -0.10393035318E+04  0.29801512338E+04  0.27930538028E+04 0.  0.
        1    1    3    3  502    0  0.12231727824E+04  0.35643248751E+03  0.90578447016E+02  0.12772627877E+04  0.50400001928E-02 0.  1.
       -1    1    3    3    0  502 -0.12231727824E+04 -0.35643248751E+03 -0.11298819788E+04  0.17028884461E+04  0.50400001928E-02 0. -1.
</event>
<event>
 5   0  0.2234068E-06  0.2802126E+04  0.7818609E-02  0.8302609E-01
       -1   -1    0    0    0  501  0.00000000000E+00  0.00000000000E+00  0.13558358259E+04  0.13558358259E+04  0.50400001928E-02 0. -1.
        1   -1    0    0  501    0  0.00000000000E+00  0.00000000000E+00 -0.14477988340E+04  0.14477988340E+04  0.50400001928E-02 0.  1.
    10030    2    1    2    0    0  0.00000000000E+00  0.00000000000E+00 -0.91963008123E+02  0.28036346599E+04  0.28021259985E+04 0.  0.
        3    1    3    3  502    0  0.18899876455E+03 -0.87937316679E+03 -0.11207850833E+04  0.14370723408E+04  0.10100000352E+00 0.  1.
       -3    1    3    3    0  502 -0.18899876455E+03  0.87937316679E+03  0.10288220752E+04  0.13665623191E+04  0.10100000352E+00 0. -1.
</event>
<event>
 5   0  0.1901375E-06  0.2829016E+04  0.7818609E-02  0.8294316E-01
       -3   -1    0    0    0  501  0.00000000000E+00  0.00000000000E+00  0.20558699691E+04  0.20558699716E+04  0.10100000352E+00 0.  1.
        3   -1    0    0  501    0  0.00000000000E+00  0.00000000000E+00 -0.97322957187E+03  0.97322957711E+03  0.10100000352E+00 0. -1.
    10030    2    1    2    0    0  0.00000000000E+00  0.00000000000E+00  0.10826403972E+04  0.30290995487E+04  0.28290164097E+04 0.  0.
        1    1    3    3  502    0 -0.12894192415E+03 -0.10280260672E+03 -0.96290183594E+03  0.97692084706E+03  0.50400001928E-02 0. -1.
       -1    1    3    3    0  502  0.12894192415E+03  0.10280260672E+03  0.20455422332E+04  0.20521787017E+04  0.50400001928E-02 0.  1.
</event>
<event>
 5   0  0.2206967E-06  0.2664225E+04  0.7818609E-02  0.8346707E-01
        1   -1    0    0  501    0  0.00000000000E+00  0.00000000000E+00  0.23162000312E+04  0.23162000312E+04  0.50400001928E-02 0. -1.
       -1   -1    0    0    0  501  0.00000000000E+00  0.00000000000E+00 -0.76613601746E+03  0.76613601748E+03  0.50400001928E-02 0.  1.
    10030    2    1    2    0    0  0.00000000000E+00  0.00000000000E+00  0.15500640137E+04  0.30823360487E+04  0.26642254166E+04 0.  0.
        5    1    3    3  502    0 -0.59205830326E+03 -0.11874369061E+04  0.63832389083E+03  0.14724194104E+04  0.46999998093E+01 0.  1.
       -5    1    3    3    0  502  0.59205830326E+03  0.11874369061E+04  0.91174012290E+03  0.16099166383E+04  0.46999998093E+01 0. -1.
</event>
<event>
 5   0  0.5866136E-06  0.2809421E+04  0.7818609E-02  0.8300349E-01
       -2   -1    0    0    0  501  0.00000000000E+00  0.00000000000E+00  0.13362171249E+04  0.13362171249E+04  0.25500000920E-02 0. -1.
        2   -1    0    0  501    0  0.00000000000E+00  0.00000000000E+00 -0.14767150060E+04  0.14767150060E+04  0.25500000920E-02 0.  1.
    10030    2    1    2    0    0  0.00000000000E+00  0.00000000000E+00 -0.14049788111E+03  0.28129321309E+04  0.28094212070E+04 0.  0.
        5    1    3    3  502    0 -0.99087405324E+03  0.83285868114E+03  0.47605625226E+03  0.13791796901E+04  0.46999998093E+01 0. -1.
       -5    1    3    3    0  502  0.99087405324E+03 -0.83285868114E+03 -0.61655413337E+03  0.14337524408E+04  0.46999998093E+01 0.  1.
</event>
<event>
 5   0  0.5866136E-06  0.2813539E+04  0.7818609E-02  0.8299077E-01
        2   -1    0    0  501    0  0.00000000000E+00  0.00000000000E+00  0.11961485788E+04  0.11961485788E+04  0.25500000920E-02 0.  1.
       -2   -1    0    0    0  501  0.00000000000E+00  0.00000000000E+00 -0.16544774582E+04  0.16544774582E+04  0.25500000920E-02 0. -1.
    10030    2    1    2    0    0  0.00000000000E+00  0.00000000000E+00 -0.45832887942E+03  0.28506260370E+04  0.28135393086E+04 0.  0.
        5    1    3    3  502    0  0.21003019510E+03 -0.13221236231E+04  0.20880102818E+03  0.13548961278E+04  0.46999998093E+01 0.  1.
       -5    1    3    3    0  502 -0.21003019510E+03  0.13221236231E+04 -0.66712990760E+03  0.14957299092E+04  0.46999998093E+01 0. -1.
</event>
<event>
 5   0  0.5546570E-06  0.2811683E+04  0.7818609E-02  0.8299650E-01
       -2   -1    0    0    0  501  0.00000000000E+00  0.00000000000E+00  0.16284828955E+04  0.16284828955E+04  0.25500000920E-02 0. -1.
        2   -1    0    0  501    0  0.00000000000E+00  0.00000000000E+00 -0.12136392537E+04  0.12136392537E+04  0.25500000920E-02 0.  1.
    10030    2    1    2    0    0  0.00000000000E+00  0.00000000000E+00  0.41484364186E+03  0.28421221492E+04  0.28116833150E+04 0.  0.
        4    1    3    3  502    0  0.24727945008E+03  0.11015501590E+04  0.10542437092E+04  0.15446654300E+04  0.12699999809E+01 0. -1.
       -4    1    3    3    0  502 -0.24727945008E+03 -0.11015501590E+04 -0.63940006739E+03  0.12974567192E+04  0.12699999809E+01 0.  1.
</event>
<event>
 5   0  0.2277133E-06  0.2797380E+04  0.7818609E-02  0.8304082E-01
       -1   -1    0    0    0  501  0.00000000000E+00  0.00000000000E+00  0.10540958821E+04  0.10540958821E+04  0.50400001928E-02 0.  1.
        1   -1    0    0  501    0  0.00000000000E+00  0.00000000000E+00 -0.18559349440E+04  0.18559349440E+04  0.50400001928E-02 0. -1.
    10030    2    1    2    0    0  0.00000000000E+00  0.00000000000E+00 -0.80183906188E+03  0.29100308261E+04  0.27973797611E+04 0.  0.
        1    1    3    3  502    0 -0.39435509671E+03 -0.78993298713E+02 -0.17944846585E+04  0.18390027387E+04  0.50400001928E-02 0. -1.
       -1    1    3    3    0  502  0.39435509671E+03  0.78993298713E+02  0.99264559659E+03  0.10710280874E+04  0.50400001928E-02 0.  1.
</event>
<event>
 5   0  0.5866136E-06  0.2804416E+04  0.7818609E-02  0.8301899E-01
       -2   -1    0    0    0  501  0.00000000000E+00  0.00000000000E+00  0.76427741256E+03  0.76427741256E+03  0.25500000920E-02 0.  1.
        2   -1    0    0  501    0  0.00000000000E+00  0.00000000000E+00 -0.25726098780E+04  0.25726098780E+04  0.25500000920E-02 0. -1.
    10030    2    1    2    0    0  0.00000000000E+00  0.00000000000E+00 -0.18083324654E+04  0.33368872906E+04  0.28044162466E+04 0.  0.
        5    1    3    3  502    0 -0.11820883974E+03 -0.54648213244E+03  0.62589094641E+03  0.83927207607E+03  0.46999998093E+01 0.  1.
       -5    1    3    3    0  502  0.11820883974E+03  0.54648213244E+03 -0.24342234118E+04  0.24976152145E+04  0.46999998093E+01 0. -1.
</event>
<event>
 5   0  0.2206967E-06  0.2579192E+04  0.7818609E-02  0.8375304E-01
       -1   -1    0    0    0  501  0.00000000000E+00  0.00000000000E+00  0.23735057078E+04  0.23735057078E+04  0.50400001928E-02 0.  1.
        1   -1    0    0  501    0  0.00000000000E+00  0.00000000000E+00 -0.70067552298E+03  0.70067552300E+03  0.50400001928E-02 0. -1.
    10030    2    1    2    0    0  0.00000000000E+00  0.00000000000E+00  0.16728301848E+04  0.30741812308E+04  0.25791916200E+04 0.  0.
        5    1    3    3  502    0 -0.12339879238E+04 -0.15908129505E+03  0.12406175486E+04  0.17570392842E+04  0.46999998093E+01 0.  1.
       -5    1    3    3    0  502  0.12339879238E+04  0.15908129505E+03  0.43221263626E+03  0.13171419466E+04  0.46999998093E+01 0. -1.
</event>
<event>
 5   0  0.5625245E-06  0.2796791E+04  0.7818609E-02  0.8304265E-01
       -2   -1    0    0    0  501  0.00000000000E+00  0.00000000000E+00  0.19324569075E+04  0.19324569075E+04  0.25500000920E-02 0. -1.
        2   -1    0    0  501    0  0.00000000000E+00  0.00000000000E+00 -0.10119291912E+04  0.10119291912E+04  0.25500000920E-02 0.  1.
    10030    2    1    2    0    0  0.00000000000E+00  0.00000000000E+00  0.92052771628E+03  0.29443860987E+04  0.27967907004E+04 0.  0.
        3    1    3    3  502    0  0.50004088790E+03 -0.63697548778E+03 -0.73995794275E+03  0.10969578063E+04  0.10100000352E+00 0.  1.
       -3    1    3    3    0  502 -0.50004088790E+03  0.63697548778E+03  0.16604856590E+04  0.18474282924E+04  0.10100000352E+00 0. -1.
</event>
<event>
 5   0  0.5866136E-06  0.2815949E+04  0.7818609E-02  0.8298334E-01
        2   -1    0    0  501    0  0.00000000000E+00  0.00000000000E+00  0.29403325072E+04  0.29403325072E+04  0.25500000920E-02 0.  1.
       -2   -1    0    0    0  501  0.00000000000E+00  0.00000000000E+00 -0.67420657975E+03  0.67420657975E+03  0.25500000920E-02 0. -1.
    10030    2    1    2    0    0  0.00000000000E+00  0.00000000000E+00  0.22661259275E+04  0.36145390870E+04  0.28159485244E+04 0.  0.
        5    1    3    3  502    0 -0.87918332589E+03 -0.11137548635E+02  0.25445991630E+04  0.26922285111E+04  0.46999998093E+01 0.  1.
       -5    1    3    3    0  502  0.87918332589E+03  0.11137548635E+02 -0.27847323553E+03  0.92231057590E+03  0.46999998093E+01 0. -1.
</event>
<event>
 5   0  0.2267565E-06  0.2764020E+04  0.7818609E-02  0.8314527E-01
        1   -1    0    0  501    0  0.00000000000E+00  0.00000000000E+00  0.19490668794E+04  0.19490668794E+04  0.50400001928E-02 0.  1.
       -1   -1    0    0    0  501  0.00000000000E+00  0.00000000000E+00 -0.97993119121E+03  0.97993119122E+03  0.50400001928E-02 0. -1.
    10030    2    1    2    0    0  0.00000000000E+00  0.00000000000E+00  0.96913568815E+03  0.29289980706E+04  0.27640198472E+04 0.  0.
        4    1    3    3  502    0 -0.25233126391E+03  0.13442558963E+04  0.27461367468E+03  0.13950302021E+04  0.12699999809E+01 0. -1.
       -4    1    3    3    0  502  0.25233126391E+03 -0.13442558963E+04  0.69452201346E+03  0.15339678685E+04  0.12699999809E+01 0.  1.
</event>
<event>
 5   0  0.5625245E-06  0.2817841E+04  0.7818609E-02  0.8297751E-01
       -2   -1    0    0    0  501  0.00000000000E+00  0.00000000000E+00  0.16466924838E+04  0.16466924838E+04  0.25500000920E-02 0. -1.
        2   -1    0    0  501    0  0.00000000000E+00  0.00000000000E+00 -0.12054816432E+04  0.12054816432E+04  0.25500000920E-02 0.  1.
    10030    2    1    2    0    0  0.00000000000E+00  0.00000000000E+00  0.44121084056E+03  0.28521741270E+04  0.28178414159E+04 0.  0.
        3    1    3    3  502    0  0.67099965081E+03  0.12370391343E+04  0.28888996841E+03  0.14366501924E+04  0.10100000352E+00 0.  1.
       -3    1    3    3    0  502 -0.67099965081E+03 -0.12370391343E+04  0.15232087215E+03  0.14155239346E+04  0.10100000352E+00 0. -1.
</event>
<event>
 5   0  0.5916603E-06  0.2790617E+04  0.7818609E-02  0.8306187E-01
       -2   -1    0    0    0  501  0.00000000000E+00  0.00000000000E+00  0.86822041231E+03  0.86822041231E+03  0.25500000920E-02 0. -1.
        2   -1    0    0  501    0  0.00000000000E+00  0.00000000000E+00 -0.22423860958E+04  0.22423860958E+04  0.25500000920E-02 0.  1.
    10030    2    1    2    0    0  0.00000000000E+00  0.00000000000E+00 -0.13741656835E+04  0.31106065081E+04  0.27906166922E+04 0.  0.
        2    1    3    3  502    0  0.85709675822E+03  0.24991064132E+03  0.50816759548E+03  0.10272801403E+04  0.25500000920E-02 0. -1.
       -2    1    3    3    0  502 -0.85709675822E+03 -0.24991064132E+03 -0.18823332790E+04  0.20833263678E+04  0.25500000920E-02 0.  1.
</event>
<event>
 5   0  0.5546570E-06  0.2788379E+04  0.7818609E-02  0.8306885E-01
       -2   -1    0    0    0  501  0.00000000000E+00  0.00000000000E+00  0.10863203649E+04  0.10863203649E+04  0.25500000920E-02 0.  1.
        2   -1    0    0  501    0  0.00000000000E+00  0.00000000000E+00 -0.17893103190E+04  0.17893103190E+04  0.25500000920E-02 0. -1.
    10030    2    1    2    0    0  0.00000000000E+00  0.00000000000E+00 -0.70298995403E+03  0.28756306839E+04  0.27883789116E+04 0.  0.
        4    1    3    3  502    0  0.78359126013E+03  0.86167415273E+03 -0.11418066291E+04  0.16310185774E+04  0.12699999809E+01 0. -1.
       -4    1    3    3    0  502 -0.78359126013E+03 -0.86167415273E+03  0.43881667510E+03  0.12446121065E+04  0.12699999809E+01 0.  1.
</event>
<event>
 5   0  0.5625245E-06  0.2792675E+04  0.7818609E-02  0.8305546E-01
       -2   -1    0    0    0  501  0.00000000000E+00  0.00000000000E+00  0.89056665163E+03  0.89056665164E+03  0.25500000920E-02 0. -1.
        2   -1    0    0  501    0  0.00000000000E+00  0.00000000000E+00 -0.21893450843E+04  0.21893450843E+04  0.25500000920E-02 0.  1.
    10030    2    1    2    0    0  0.00000000000E+00  0.00000000000E+00 -0.12987784326E+04  0.30799117359E+04  0.27926745037E+04 0.  0.
        3    1    3    3  502    0  0.47855106361E+03  0.50250755183E+03  0.68694597158E+03  0.97643214726E+03  0.10100000352E+00 0. -1.
       -3    1    3    3    0  502 -0.47855106361E+03 -0.50250755183E+03 -0.19857244042E+04  0.21034795886E+04  0.10100000352E+00 0.  1.
</event>
<event>
 5   0  0.5584205E-06  0.2827944E+04  0.7818609E-02  0.8294645E-01
       -2   -1    0    0    0  501  0.00000000000E+00  0.00000000000E+00  0.18583916128E+04  0.18583916128E+04  0.25500000920E-02 0.  1.
        2   -1    0    0  501    0  0.00000000000E+00  0.00000000000E+00 -0.10758319811E+04  0.10758319811E+04  0.25500000920E-02 0. -1.
    10030    2    1    2    0    0  0.00000000000E+00  0.00000000000E+00  0.78255963172E+03  0.29342235940E+04  0.28279442219E+04 0.  0.
        1    1    3    3  502    0 -0.12278050636E+04 -0.18085084716E+03 -0.31175736758E+03  0.12796112532E+04  0.50400001928E-02 0. -1.
       -1    1    3    3    0  502  0.12278050636E+04  0.18085084716E+03  0.10943169993E+04  0.16546123407E+04  0.50400001928E-02 0.  1.
</event>
<event>
 5   0  0.5584205E-06  0.2791559E+04  0.7818609E-02  0.8305894E-01
       -2   -1    0    0    0  501  0.00000000000E+00  0.00000000000E+00  0.14361404881E+04  0.14361404881E+04  0.25500000920E-02 0. -1.
        2   -1    0    0  501    0  0.00000000000E+00  0.00000000000E+00 -0.13565524901E+04  0.13565524901E+04  0.25500000920E-02 0.  1.
    10030    2    1    2    0    0  0.00000000000E+00  0.00000000000E+00  0.79587998054E+02  0.27926929782E+04  0.27915586723E+04 0.  0.
        1    1    3    3  502    0 -0.45652776429E+03  0.31912164647E+03 -0.12405477937E+04  0.13598584681E+04  0.50400001928E-02 0.  1.
       -1    1    3    3    0  502  0.45652776429E+03 -0.31912164647E+03  0.13201357917E+04  0.14328345101E+04  0.50400001928E-02 0. -1.
</event>
<event>
 5   0  0.2277133E-06  0.2783964E+04  0.7818609E-02  0.8308264E-01
       -1   -1    0    0    0  501  0.00000000000E+00  0.00000000000E+00  0.12104581644E+04  0.12104581644E+04  0.50400001928E-02 0. -1.
        1   -1    0    0  501    0  0.00000000000E+00  0.00000000000E+00 -0.16007282121E+04  0.16007282121E+04  0.50400001928E-02 0.  1.
    10030    2    1    2    0    0  0.00000000000E+00  0.00000000000E+00 -0.39027004774E+03  0.28111863765E+04  0.27839644634E+04 0.  0.
        1    1    3    3  502    0 -0.41806237555E+02  0.94823205673E+03 -0.12232868807E+04  0.15483289661E+04  0.50400001928E-02 0.  1.
       -1    1    3    3    0  502  0.41806237555E+02 -0.94823205673E+03  0.83301683295E+03  0.12628574104E+04  0.50400001928E-02 0. -1.
</event>
<event>
 5   0  0.2190865E-06  0.2787099E+04  0.7818609E-02  0.8307285E-01
       -1   -1    0    0    0  501  0.00000000000E+00  0.00000000000E+00  0.10622588970E+04  0.10622588970E+04  0.50400001928E-02 0.  1.
        1   -1    0    0  501    0  0.00000000000E+00  0.00000000000E+00 -0.18281612305E+04  0.18281612305E+04  0.50400001928E-02 0. -1.
    10030    2    1    2    0    0  0.00000000000E+00  0.00000000000E+00 -0.76590233348E+03  0.28904201275E+04  0.27870992320E+04 0.  0.
        2    1    3    3  502    0  0.35872323354E+03  0.24809650060E+03  0.98964931076E+03  0.10814989552E+04  0.25500000920E-02 0.  1.
       -2    1    3    3    0  502 -0.35872323354E+03 -0.24809650060E+03 -0.17555516442E+04  0.18089211723E+04  0.25500000920E-02 0. -1.
</event>
<event>
 5   0  0.5584205E-06  0.2775863E+04  0.7818609E-02  0.8310801E-01
        2   -1    0    0  501    0  0.00000000000E+00  0.00000000000E+00  0.15111674133E+04  0.15111674133E+04  0.25500000920E-02 0.  1.
       -2   -1    0    0    0  501  0.00000000000E+00  0.00000000000E+00 -0.12747452234E+04  0.12747452234E+04  0.25500000920E-02 0. -1.
    10030    2    1    2    0    0  0.00000000000E+00  0.00000000000E+00  0.23642218984E+03  0.27859126367E+04  0.27758627069E+04 0.  0.
        1    1    3    3  502    0  0.13144365678E+04  0.11455656906E+02 -0.32891136403E+03  0.13550119587E+04  0.50400001928E-02 0. -1.
       -1    1    3    3    0  502 -0.13144365678E+04 -0.11455656906E+02  0.56533355387E+03  0.14309006779E+04  0.50400001928E-02 0.  1.
</event>
<event>
 5   0  0.2206967E-06  0.2809369E+04  0.7818609E-02  0.8300366E-01
        1   -1    0    0  501    0  0.00000000000E+00  0.00000000000E+00  0.12796005963E+04  0.12796005963E+04  0.50400001928E-02 0.  1.
       -1   -1    0    0    0  501  0.00000000000E+00  0.00000000000E+00 -0.15419958424E+04  0.15419958424E+04  0.50400001928E-02 0. -1.
    10030    2    1    2    0    0  0.00000000000E+00  0.00000000000E+00 -0.26239524608E+03  0.28215964387E+04  0.28093691815E+04 0.  0.
        5    1    3    3  502    0  0.34992554912E+03  0.95762734525E+03 -0.11016424571E+04  0.15010450412E+04  0.46999998093E+01 0. -1.
       -5    1    3    3    0  502 -0.34992554912E+03 -0.95762734525E+03  0.83924721105E+03  0.13205513975E+04  0.46999998093E+01 0.  1.
</event>
<event>
 5   0  0.5866136E-06  0.2806545E+04  0.7818609E-02  0.8301239E-01
       -2   -1    0    0    0  501  0.00000000000E+00  0.00000000000E+00  0.14190748395E+04  0.14190748395E+04  0.25500000920E-02 0. -1.
        2   -1    0    0  501    0  0.00000000000E+00  0.00000000000E+00 -0.13876463270E+04  0.13876463270E+04  0.25500000920E-02 0.  1.
    10030    2    1    2    0    0  0.00000000000E+00  0.00000000000E+00  0.31428512534E+02  0.28067211665E+04  0.28065451992E+04 0.  0.
        5    1    3    3  502    0 -0.13138506207E+04  0.45810224277E+03  0.19763437656E+03  0.14053976501E+04  0.46999998093E+01 0.  1.
       -5    1    3    3    0  502  0.13138506207E+04 -0.45810224277E+03 -0.16620586402E+03  0.14013235163E+04  0.46999998093E+01 0. -1.
</event>
<event>
 5   0  0.2234068E-06  0.2797103E+04  0.7818609E-02  0.8304168E-01
       -1   -1    0    0    0  501  0.00000000000E+00  0.00000000000E+00  0.77672540676E+03  0.77672540677E+03  0.50400001928E-02 0.  1.
        1   -1    0    0  501    0  0.00000000000E+00  0.00000000000E+00 -0.25181954143E+04  0.25181954143E+04  0.50400001928E-02 0. -1.
    10030    2    1    2    0    0  0.00000000000E+00  0.00000000000E+00 -0.17414700075E+04  0.32949208210E+04  0.27971030424E+04 0.  0.
        3    1    3    3  502    0 -0.87671641078E+03 -0.10604717864E+04 -0.11657334386E+04  0.18033764263E+04  0.10100000352E+00 0.  1.
       -3    1    3    3    0  502  0.87671641078E+03  0.10604717864E+04 -0.57573656888E+03  0.14915443948E+04  0.10100000352E+00 0. -1.
</event>
<event>
 5   0  0.5916603E-06  0.2782473E+04  0.7818609E-02  0.8308731E-01
       -2   -1    0    0    0  501  0.00000000000E+00  0.00000000000E+00  0.10041959557E+04  0.10041959557E+04  0.25500000920E-02 0. -1.
        2   -1    0    0  501    0  0.00000000000E+00  0.00000000000E+00 -0.19274510763E+04  0.19274510763E+04  0.25500000920E-02 0.  1.
    10030    2    1    2    0    0  0.00000000000E+00  0.00000000000E+00 -0.92325512057E+03  0.29316470320E+04  0.27824726957E+04 0.  0.
        2    1    3    3  502    0  0.54385903438E+03 -0.79803767221E+02 -0.18081864592E+04  0.18898914154E+04  0.25500000920E-02 0.  1.
       -2    1    3    3    0  502 -0.54385903438E+03  0.79803767221E+02  0.88493133867E+03  0.10417556166E+04  0.25500000920E-02 0. -1.
</event>
<event>
 5   0  0.2267565E-06  0.2800002E+04  0.7818609E-02  0.8303268E-01
        1   -1    0    0  501    0  0.00000000000E+00  0.00000000000E+00  0.11434187066E+04  0.11434187066E+04  0.50400001928E-02 0. -1.
       -1   -1    0    0    0  501  0.00000000000E+00  0.00000000000E+00 -0.17141597010E+04  0.17141597011E+04  0.50400001928E-02 0.  1.
    10030    2    1    2    0    0  0.00000000000E+00  0.00000000000E+00 -0.57074099446E+03  0.28575784077E+04  0.28000016202E+04 0.  0.
        4    1    3    3  502    0 -0.13240949037E+04 -0.50289694140E+02  0.17585661962E+03  0.13366688187E+04  0.12699999809E+01 0. -1.
       -4    1    3    3    0  502  0.13240949037E+04  0.50289694140E+02 -0.74659761408E+03  0.15209095889E+04  0.12699999809E+01 0.  1.
</event>
<event>
 5   0  0.2206967E-06  0.2793891E+04  0.7818609E-02  0.8305167E-01
        1   -1    0    0  501    0  0.00000000000E+00  0.00000000000E+00  0.15049563375E+04  0.15049563375E+04  0.50400001928E-02 0.  1.
       -1   -1    0    0    0  501  0.00000000000E+00  0.00000000000E+00 -0.12966868669E+04  0.12966868669E+04  0.50400001928E-02 0. -1.
    10030    2    1    2    0    0  0.00000000000E+00  0.00000000000E+00  0.20826947057E+03  0.28016432045E+04  0.27938912779E+04 0.  0.
        5    1    3    3  502    0 -0.46086556792E+03 -0.28528472655E+03 -0.11869353527E+04  0.13048456110E+04  0.46999998093E+01 0. -1.
       -5    1    3    3    0  502  0.46086556792E+03  0.28528472655E+03  0.13952048233E+04  0.14967975935E+04  0.46999998093E+01 0.  1.
</event>
<event>
 5   0  0.2277133E-06  0.2798830E+04  0.7818609E-02  0.8303632E-01
        1   -1    0    0  501    0  0.00000000000E+00  0.00000000000E+00  0.11822788346E+04  0.11822788346E+04  0.50400001928E-02 0.  1.
       -1   -1    0    0    0  501  0.00000000000E+00  0.00000000000E+00 -0.16564306421E+04  0.16564306421E+04  0.50400001928E-02 0. -1.
    10030    2    1    2    0    0  0.00000000000E+00  0.00000000000E+00 -0.47415180743E+03  0.28387094767E+04  0.27988303908E+04 0.  0.
        1    1    3    3  502    0  0.25675923611E+03  0.33784160556E+03 -0.15896060637E+04  0.16452688818E+04  0.50400001928E-02 0. -1.
       -1    1    3    3    0  502 -0.25675923611E+03 -0.33784160556E+03  0.11154542562E+04  0.11934405949E+04  0.50400001928E-02 0.  1.
</event>
<event>
 5   0  0.2190865E-06  0.2814481E+04  0.7818609E-02  0.8298787E-01
       -1   -1    0    0    0  501  0.00000000000E+00  0.00000000000E+00  0.12933384725E+04  0.12933384725E+04  0.50400001928E-02 0. -1.
        1   -1    0    0  501    0  0.00000000000E+00  0.00000000000E+00 -0.15311741517E+04  0.15311741517E+04  0.50400001928E-02 0.  1.
    10030    2    1    2    0    0  0.00000000000E+00  0.00000000000E+00 -0.23783567917E+03  0.28245126242E+04  0.28144814360E+04 0.  0.
        2    1    3    3  502    0 -0.94041158106E+03  0.37730618152E+03  0.86108324112E+03  0.13297361560E+04  0.25500000920E-02 0. -1.
       -2    1    3    3    0  502  0.94041158106E+03 -0.37730618152E+03 -0.10989189203E+04  0.14947764682E+04  0.25500000920E-02 0.  1.
</event>
<event>
 5   0  0.5625245E-06  0.2783276E+04  0.7818609E-02  0.8308479E-01
        2   -1    0    0  501    0  0.00000000000E+00  0.00000000000E+00  0.18767342428E+04  0.18767342428E+04  0.25500000920E-02 0. -1.
       -2   -1    0    0    0  501  0.00000000000E+00  0.00000000000E+00 -0.10319287976E+04  0.10319287976E+04  0.25500000920E-02 0.  1.
    10030    2    1    2    0    0  0.00000000000E+00  0.00000000000E+00  0.84480544520E+03  0.29086630405E+04  0.27832758474E+04 0.  0.
        3    1    3    3  502    0  0.62042413252E+02  0.13154568345E+04  0.89253614286E+03  0.15908792289E+04  0.10100000352E+00 0.  1.
       -3    1    3    3    0  502 -0.62042413252E+02 -0.13154568345E+04 -0.47730697664E+02  0.13177838116E+04  0.10100000352E+00 0. -1.
</event>
<event>
 5   0  0.5584205E-06  0.2806559E+04  0.7818609E-02  0.8301235E-01
        2   -1    0    0  501    0  0.00000000000E+00  0.00000000000E+00  0.96876263562E+03  0.96876263562E+03  0.25500000920E-02 0. -1.
       -2   -1    0    0    0  501  0.00000000000E+00  0.00000000000E+00 -0.20326886867E+04  0.20326886867E+04  0.25500000920E-02 0.  1.
    10030    2    1    2    0    0  0.00000000000E+00  0.00000000000E+00 -0.10639260511E+04  0.30014513223E+04  0.28065586397E+04 0.  0.
        1    1    3    3  502    0  0.48843493867E+03 -0.11880658325E+04  0.72175788430E+02  0.12865762536E+04  0.50400001928E-02 0. -1.
       -1    1    3    3    0  502 -0.48843493867E+03  0.11880658325E+04 -0.11361018395E+04  0.17148750688E+04  0.50400001928E-02 0.  1.
</event>
<event>
 5   0  0.2190865E-06  0.2828593E+04  0.7818609E-02  0.8294446E-01
        1   -1    0    0  501    0  0.00000000000E+00  0.00000000000E+00  0.17041979426E+04  0.17041979426E+04  0.50400001928E-02 0.  1.
       -1   -1    0    0    0  501  0.00000000000E+00  0.00000000000E+00 -0.11737105218E+04  0.11737105218E+04  0.50400001928E-02 0. -1.
    10030    2    1    2    0    0  0.00000000000E+00  0.00000000000E+00  0.53048742074E+03  0.28779084644E+04  0.28285933299E+04 0.  0.
        2    1    3    3  502    0  0.50045515105E+03 -0.60440325027E+03  0.14623955676E+04  0.16596262962E+04  0.25500000920E-02 0.  1.
       -2    1    3    3    0  502 -0.50045515105E+03  0.60440325027E+03 -0.93190814682E+03  0.12182821682E+04  0.25500000920E-02 0. -1.
</event>
<event>
 5   0  0.2267565E-06  0.2800830E+04  0.7818609E-02  0.8303011E-01
       -1   -1    0    0    0  501  0.00000000000E+00  0.00000000000E+00  0.94653655106E+03  0.94653655107E+03  0.50400001928E-02 0. -1.
        1   -1    0    0  501    0  0.00000000000E+00  0.00000000000E+00 -0.20719344557E+04  0.20719344557E+04  0.50400001928E-02 0.  1.
    10030    2    1    2    0    0  0.00000000000E+00  0.00000000000E+00 -0.11253979046E+04  0.30184710068E+04  0.28008296583E+04 0.  0.
        4    1    3    3  502    0 -0.74156458888E+03 -0.38978375731E+03 -0.17720900087E+04  0.19601413288E+04  0.12699999809E+01 0.  1.
       -4    1    3    3    0  502  0.74156458888E+03  0.38978375731E+03  0.64669210408E+03  0.10583296780E+04  0.12699999809E+01 0. -1.
</event>
<event>
 5   0  0.2234068E-06  0.2804251E+04  0.7818609E-02  0.8301950E-01
        1   -1    0    0  501    0  0.00000000000E+00  0.00000000000E+00  0.13473683485E+04  0.13473683486E+04  0.50400001928E-02 0.  1.
       -1   -1    0    0    0  501  0.00000000000E+00  0.00000000000E+00 -0.14591080721E+04  0.14591080721E+04  0.50400001928E-02 0. -1.
    10030    2    1    2    0    0  0.00000000000E+00  0.00000000000E+00 -0.11173972353E+03  0.28064764206E+04  0.28042510825E+04 0.  0.
        3    1    3    3  502    0 -0.61886206701E+03 -0.36926249254E+03  0.11478360116E+04  0.13553127189E+04  0.10100000352E+00 0.  1.
       -3    1    3    3    0  502  0.61886206701E+03  0.36926249254E+03 -0.12595757351E+04  0.14511637017E+04  0.10100000352E+00 0. -1.
</event>
<event>
 5   0  0.2267565E-06  0.2791645E+04  0.7818609E-02  0.8305867E-01
        1   -1    0    0  501    0  0.00000000000E+00  0.00000000000E+00  0.23928301213E+04  0.23928301213E+04  0.50400001928E-02 0.  1.
       -1   -1    0    0    0  501  0.00000000000E+00  0.00000000000E+00 -0.81423270394E+03  0.81423270395E+03  0.50400001928E-02 0. -1.
    10030    2    1    2    0    0  0.00000000000E+00  0.00000000000E+00  0.15785974173E+04  0.32070628252E+04  0.27916450632E+04 0.  0.
        4    1    3    3  502    0  0.24387946439E+03 -0.13672744195E+04  0.62927845878E+03  0.15247653993E+04  0.12699999809E+01 0. -1.
       -4    1    3    3    0  502 -0.24387946439E+03  0.13672744195E+04  0.94931895857E+03  0.16822974259E+04  0.12699999809E+01 0.  1.
</event>
<event>
 5   0  0.5916603E-06  0.2808997E+04  0.7818609E-02  0.8300481E-01
       -2   -1    0    0    0  501  0.00000000000E+00  0.00000000000E+00  0.10095877151E+04  0.10095877151E+04  0.25500000920E-02 0.  1.
        2   -1    0    0  501    0  0.00000000000E+00  0.00000000000E+00 -0.19538829792E+04  0.19538829792E+04  0.25500000920E-02 0. -1.
    10030    2    1    2    0    0  0.00000000000E+00  0.00000000000E+00 -0.94429526412E+03  0.29634706943E+04  0.28089971538E+04 0.  0.
        2    1    3    3  502    0 -0.79201765257E+03  0.20392538361E+03 -0.16767525200E+04  0.18655767305E+04  0.25500000920E-02 0. -1.
       -2    1    3    3    0  502  0.79201765257E+03 -0.20392538361E+03  0.73245725589E+03  0.10978939638E+04  0.25500000920E-02 0.  1.
</event>
<event>
 5   0  0.5584205E-06  0.2799644E+04  0.7818609E-02  0.8303379E-01
       -2   -1    0    0    0  501  0.00000000000E+00  0.00000000000E+00  0.12724547626E+04  0.12724547626E+04  0.25500000920E-02 0.  1.
        2   -1    0    0  501    0  0.00000000000E+00  0.00000000000E+00 -0.15399386982E+04  0.15399386982E+04  0.25500000920E-02 0. -1.
    10030    2    1    2    0    0  0.00000000000E+00  0.00000000000E+00 -0.26748393559E+03  0.28123934608E+04  0.27996444993E+04 0.  0.
        1    1    3    3  502    0 -0.72778109078E+03  0.24151635848E+02 -0.13347000693E+04  0.15204186570E+04  0.50400001928E-02 0. -1.
       -1    1    3    3    0  502  0.72778109078E+03 -0.24151635848E+02  0.10672161337E+04  0.12919748038E+04  0.50400001928E-02 0.  1.
</event>
<event>
 5   0  0.2277133E-06  0.2801293E+04  0.7818609E-02  0.8302867E-01
       -1   -1    0    0    0  501  0.00000000000E+00  0.00000000000E+00  0.13920879122E+04  0.13920879122E+04  0.50400001928E-02 0. -1.
        1   -1    0    0  501    0  0.00000000000E+00  0.00000000000E+00 -0.14092577626E+04  0.14092577626E+04  0.50400001928E-02 0.  1.
    10030    2    1    2    0    0  0.00000000000E+00  0.00000000000E+00 -0.17169850365E+02  0.28013456748E+04  0.28012930561E+04 0.  0.
        1    1    3    3  502    0 -0.54473917096E+03 -0.99813246160E+03  0.80923329825E+03  0.13956603119E+04  0.50400001928E-02 0. -1.
       -1    1    3    3    0  502  0.54473917096E+03  0.99813246160E+03 -0.82640314862E+03  0.14056853629E+04  0.50400001928E-02 0.  1.
</event>
<event>
 5   0  0.5916603E-06  0.2810201E+04  0.7818609E-02  0.8300108E-01
       -2   -1    0    0    0  501  0.00000000000E+00  0.00000000000E+00  0.10737144468E+04  0.10737144469E+04  0.25500000920E-02 0.  1.
        2   -1    0    0  501    0  0.00000000000E+00  0.00000000000E+00 -0.18387635557E+04  0.18387635557E+04  0.25500000920E-02 0. -1.
    10030    2    1    2    0    0  0.00000000000E+00  0.00000000000E+00 -0.76504910881E+03  0.29124780025E+04  0.28102007003E+04 0.  0.
        2    1    3    3  502    0 -0.18645591485E+03  0.99308488335E+03 -0.13944429441E+04  0.17220495109E+04  0.25500000920E-02 0. -1.
       -2    1    3    3    0  502  0.18645591485E+03 -0.99308488335E+03  0.62939383528E+03  0.11904284916E+04  0.25500000920E-02 0.  1.
</event>
<event>
 5   0  0.2234068E-06  0.2761119E+04  0.7818609E-02  0.8315442E-01
       -1   -1    0    0    0  501  0.00000000000E+00  0.00000000000E+00  0.14484746601E+04  0.14484746601E+04  0.50400001928E-02 0. -1.
        1   -1    0    0  501    0  0.00000000000E+00  0.00000000000E+00 -0.13158289566E+04  0.13158289566E+04  0.50400001928E-02 0.  1.
    10030    2    1    2    0    0  0.00000000000E+00  0.00000000000E+00  0.13264570350E+03  0.27643036167E+04  0.27611192663E+04 0.  0.
        3    1    3    3  502    0 -0.81646645665E+03  0.80821750376E+03  0.83278522324E+03  0.14189306701E+04  0.10100000352E+00 0. -1.
       -3    1    3    3    0  502  0.81646645665E+03 -0.80821750376E+03 -0.70013951974E+03  0.13453729466E+04  0.10100000352E+00 0.  1.
</event>
<event>
 5   0  0.5584205E-06  0.2807484E+04  0.7818609E-02  0.8300949E-01
       -2   -1    0    0    0  501  0.00000000000E+00  0.00000000000E+00  0.10914194730E+04  0.10914194730E+04  0.25500000920E-02 0.  1.
        2   -1    0    0  501    0  0.00000000000E+00  0.00000000000E+00 -0.18054390796E+04  0.18054390796E+04  0.25500000920E-02 0. -1.
    10030    2    1    2    0    0  0.00000000000E+00  0.00000000000E+00 -0.71401960657E+03  0.28968585526E+04  0.28074838335E+04 0.  0.
        1    1    3    3  502    0 -0.11716833498E+04 -0.23192834079E+03 -0.11179544789E+04  0.16359874218E+04  0.50400001928E-02 0. -1.
       -1    1    3    3    0  502  0.11716833498E+04  0.23192834079E+03  0.40393487230E+03  0.12608711308E+04  0.50400001928E-02 0.  1.
</event>
<event>
 5   0  0.2234068E-06  0.2803442E+04  0.7818609E-02  0.8302201E-01
       -1   -1    0    0    0  501  0.00000000000E+00  0.00000000000E+00  0.97682312570E+03  0.97682312571E+03  0.50400001928E-02 0. -1.
        1   -1    0    0  501    0  0.00000000000E+00  0.00000000000E+00 -0.20114403994E+04  0.20114403994E+04  0.50400001928E-02 0.  1.
    10030    2    1    2    0    0  0.00000000000E+00  0.00000000000E+00 -0.10346172737E+04  0.29882635251E+04  0.28034418119E+04 0.  0.
        3    1    3    3  502    0 -0.35100866111E+03 -0.70308986570E+03 -0.17545548281E+04  0.19224996995E+04  0.10100000352E+00 0.  1.
       -3    1    3    3    0  502  0.35100866111E+03  0.70308986570E+03  0.71993755446E+03  0.10657638256E+04  0.10100000352E+00 0. -1.
</event>
<event>
 5   0  0.5866136E-06  0.2794793E+04  0.7818609E-02  0.8304887E-01
       -2   -1    0    0    0  501  0.00000000000E+00  0.00000000000E+00  0.11758575559E+04  0.11758575559E+04  0.25500000920E-02 0. -1.
        2   -1    0    0  501    0  0.00000000000E+00  0.00000000000E+00 -0.16606745092E+04  0.16606745092E+04  0.25500000920E-02 0.  1.
    10030    2    1    2    0    0  0.00000000000E+00  0.00000000000E+00 -0.48481695332E+03  0.28365320652E+04  0.27947927792E+04 0.  0.
        5    1    3    3  502    0  0.12685800034E+04 -0.55217031520E+03 -0.44157191028E+03  0.14523068285E+04  0.46999998093E+01 0.  1.
       -5    1    3    3    0  502 -0.12685800034E+04  0.55217031520E+03 -0.43245043031E+02  0.13842252367E+04  0.46999998093E+01 0. -1.
</event>
<event>
 5   0  0.5584205E-06  0.2820529E+04  0.7818609E-02  0.8296923E-01
        2   -1    0    0  501    0  0.00000000000E+00  0.00000000000E+00  0.26532402172E+04  0.26532402172E+04  0.25500000920E-02 0. -1.
       -2   -1    0    0    0  501  0.00000000000E+00  0.00000000000E+00 -0.74959127597E+03  0.74959127597E+03  0.25500000920E-02 0.  1.
    10030    2    1    2    0    0  0.00000000000E+00  0.00000000000E+00  0.19036489412E+04  0.34028314932E+04  0.28205288297E+04 0.  0.
        1    1    3    3  502    0 -0.99989570856E+03 -0.55584778289E+03 -0.43105028266E+02  0.11448214836E+04  0.50400001928E-02 0.  1.
       -1    1    3    3    0  502  0.99989570856E+03  0.55584778289E+03  0.19467539695E+04  0.22580100096E+04  0.50400001928E-02 0. -1.
</event>
<event>
 5   0  0.2190865E-06  0.2799894E+04  0.7818609E-02  0.8303301E-01
        1   -1    0    0  501    0  0.00000000000E+00  0.00000000000E+00  0.17333093824E+04  0.17333093824E+04  0.50400001928E-02 0.  1.
       -1   -1    0    0    0  501  0.00000000000E+00  0.00000000000E+00 -0.11306994977E+04  0.11306994977E+04  0.50400001928E-02 0. -1.
    10030    2    1    2    0    0  0.00000000000E+00  0.00000000000E+00  0.60260988475E+03  0.28640088801E+04  0.27998943181E+04 0.  0.
        2    1    3    3  502    0 -0.13270632920E+04  0.39849633424E+03  0.96838376692E+02  0.13889830743E+04  0.25500000920E-02 0. -1.
       -2    1    3    3    0  502  0.13270632920E+04 -0.39849633424E+03  0.50577150805E+03  0.14750258058E+04  0.25500000920E-02 0.  1.
</event>
<event>
 5   0  0.5916603E-06  0.2795234E+04  0.7818609E-02  0.8304749E-01
       -2   -1    0    0    0  501  0.00000000000E+00  0.00000000000E+00  0.18344027371E+04  0.18344027371E+04  0.25500000920E-02 0.  1.
        2   -1    0    0  501    0  0.00000000000E+00  0.00000000000E+00 -0.10648334777E+04  0.10648334777E+04  0.25500000920E-02 0. -1.
    10030    2    1    2    0    0  0.00000000000E+00  0.00000000000E+00  0.76956925945E+03  0.28992362148E+04  0.27952341198E+04 0.  0.
        2    1    3    3  502    0  0.21421545977E+03 -0.13069880423E+03 -0.10412760874E+04  0.10710865189E+04  0.25500000920E-02 0. -1.
       -2    1    3    3    0  502 -0.21421545977E+03  0.13069880423E+03  0.18108453469E+04  0.18281496960E+04  0.25500000920E-02 0.  1.
</event>
<event>
 5   0  0.5584205E-06  0.2829039E+04  0.7818609E-02  0.8294309E-01
       -2   -1    0    0    0  501  0.00000000000E+00  0.00000000000E+00  0.10565616404E+04  0.10565616404E+04  0.25500000920E-02 0.  1.
        2   -1    0    0  501    0  0.00000000000E+00  0.00000000000E+00 -0.18937516628E+04  0.18937516628E+04  0.25500000920E-02 0. -1.
    10030    2    1    2    0    0  0.00000000000E+00  0.00000000000E+00 -0.83719002239E+03  0.29503133032E+04  0.28290389628E+04 0.  0.
        1    1    3    3  502    0 -0.31477194352E+03 -0.37221021515E+03 -0.18033896061E+04  0.18681102463E+04  0.50400001928E-02 0. -1.
       -1    1    3    3    0  502  0.31477194352E+03  0.37221021515E+03  0.96619958374E+03  0.10822030569E+04  0.50400001928E-02 0.  1.
</event>
<event>
 5   0  0.2190865E-06  0.2789050E+04  0.7818609E-02  0.8306676E-01
        1   -1    0    0  501    0  0.00000000000E+00  0.00000000000E+00  0.24577605246E+04  0.24577605246E+04  0.50400001928E-02 0. -1.
       -1   -1    0    0    0  501  0.00000000000E+00  0.00000000000E+00 -0.79124882233E+03  0.79124882235E+03  0.50400001928E-02 0.  1.
    10030    2    1    2    0    0  0.00000000000E+00  0.00000000000E+00  0.16665117022E+04  0.32490093469E+04  0.27890501040E+04 0.  0.
        2    1    3    3  502    0 -0.93969967025E+03  0.10282456452E+04  0.75619910780E+03  0.15849800212E+04  0.25500000920E-02 0. -1.
       -2    1    3    3    0  502  0.93969967025E+03 -0.10282456452E+04  0.91031259444E+03  0.16640293257E+04  0.25500000920E-02 0.  1.
</event>
<event>
 5   0  0.2267565E-06  0.2759992E+04  0.7818609E-02  0.8315798E-01
        1   -1    0    0  501    0  0.00000000000E+00  0.00000000000E+00  0.22484302893E+04  0.22484302893E+04  0.50400001928E-02 0.  1.
       -1   -1    0    0    0  501  0.00000000000E+00  0.00000000000E+00 -0.84698600026E+03  0.84698600027E+03  0.50400001928E-02 0. -1.
    10030    2    1    2    0    0  0.00000000000E+00  0.00000000000E+00  0.14014442891E+04  0.30954162896E+04  0.27599920128E+04 0.  0.
        4    1    3    3  502    0  0.10080318576E+04  0.85751540529E+03  0.26213836243E+03  0.13491401077E+04  0.12699999809E+01 0. -1.
       -4    1    3    3    0  502 -0.10080318576E+04 -0.85751540529E+03  0.11393059266E+04  0.17462761819E+04  0.12699999809E+01 0.  1.
</event>
<event>
 5   0  0.5866136E-06  0.2788950E+04  0.7818609E-02  0.8306707E-01
       -2   -1    0    0    0  501  0.00000000000E+00  0.00000000000E+00  0.85172580664E+03  0.85172580665E+03  0.25500000920E-02 0. -1.
        2   -1    0    0  501    0  0.00000000000E+00  0.00000000000E+00 -0.22830830187E+04  0.22830830187E+04  0.25500000920E-02 0.  1.
    10030    2    1    2    0    0  0.00000000000E+00  0.00000000000E+00 -0.14313572121E+04  0.31348088254E+04  0.27889501435E+04 0.  0.
        5    1    3    3  502    0 -0.44447115354E+01 -0.13944346847E+04 -0.72513568712E+03  0.15717225265E+04  0.46999998093E+01 0. -1.
       -5    1    3    3    0  502  0.44447115354E+01  0.13944346847E+04 -0.70622152494E+03  0.15630862989E+04  0.46999998093E+01 0.  1.
</event>
<event>
 5   0  0.2206967E-06  0.2667128E+04  0.7818609E-02  0.8345750E-01
        1   -1    0    0  501    0  0.00000000000E+00  0.00000000000E+00  0.78993457707E+03  0.78993457708E+03  0.50400001928E-02 0. -1.
       -1   -1    0    0    0  501  0.00000000000E+00  0.00000000000E+00 -0.22513163962E+04  0.22513163962E+04  0.50400001928E-02 0.  1.
    10030    2    1    2    0    0  0.00000000000E+00  0.00000000000E+00 -0.14613818191E+04  0.30412509733E+04  0.26671277924E+04 0.  0.
        5    1    3    3  502    0 -0.25843915807E+03  0.42623440011E+03  0.67970333777E+03  0.84290288862E+03  0.46999998093E+01 0. -1.
       -5    1    3    3    0  502  0.25843915807E+03 -0.42623440011E+03 -0.21410851569E+04  0.21983480846E+04  0.46999998093E+01 0.  1.
</event>
<event>
 5   0  0.2234068E-06  0.2801165E+04  0.7818609E-02  0.8302907E-01
       -1   -1    0    0    0  501  0.00000000000E+00  0.00000000000E+00  0.87409280215E+03  0.87409280216E+03  0.50400001928E-02 0.  1.
        1   -1    0    0  501    0  0.00000000000E+00  0.00000000000E+00 -0.22441903970E+04  0.22441903970E+04  0.50400001928E-02 0. -1.
    10030    2    1    2    0    0  0.00000000000E+00  0.00000000000E+00 -0.13700975949E+04  0.31182831992E+04  0.28011645241E+04 0.  0.
        3    1    3    3  502    0 -0.12328117321E+04  0.54141956815E+03 -0.25581916245E+03  0.13705485652E+04  0.10100000352E+00 0.  1.
       -3    1    3    3    0  502  0.12328117321E+04 -0.54141956815E+03 -0.11142784324E+04  0.17477346340E+04  0.10100000352E+00 0. -1.
</event>
<event>
 5   0  0.5625245E-06  0.2813304E+04  0.7818609E-02  0.8299150E-01
       -2   -1    0    0    0  501  0.00000000000E+00  0.00000000000E+00  0.11225364506E+04  0.11225364506E+04  0.25500000920E-02 0. -1.
        2   -1    0    0  501    0  0.00000000000E+00  0.00000000000E+00 -0.17626775849E+04  0.17626775849E+04  0.25500000920E-02 0.  1.
    10030    2    1    2    0    0  0.00000000000E+00  0.00000000000E+00 -0.64014113433E+03  0.28852140356E+04  0.28133039934E+04 0.  0.
        3    1    3    3  502    0 -0.13163581556E+04 -0.32521541971E+03 -0.70394544297E+03  0.15277771630E+04  0.10100000352E+00 0. -1.
       -3    1    3    3    0  502  0.13163581556E+04  0.32521541971E+03  0.63804308633E+02  0.13574368726E+04  0.10100000352E+00 0.  1.
</event>
<event>
 5   0  0.5866136E-06  0.2798742E+04  0.7818609E-02  0.8303659E-01
        2   -1    0    0  501    0  0.00000000000E+00  0.00000000000E+00  0.14922072854E+04  0.14922072854E+04  0.25500000920E-02 0. -1.
       -2   -1    0    0    0  501  0.00000000000E+00  0.00000000000E+00 -0.13123108147E+04  0.13123108147E+04  0.25500000920E-02 0.  1.
    10030    2    1    2    0    0  0.00000000000E+00  0.00000000000E+00  0.17989647067E+03  0.28045181001E+04  0.27987424021E+04 0.  0.
        5    1    3    3  502    0 -0.33274546408E+03  0.13571527667E+04  0.14730073037E+02  0.13974341634E+04  0.46999998093E+01 0. -1.
       -5    1    3    3    0  502  0.33274546408E+03 -0.13571527667E+04  0.16516639763E+03  0.14070839367E+04  0.46999998093E+01 0.  1.
</event>
<event>
 5   0  0.2206967E-06  0.2811527E+04  0.7818609E-02  0.8299699E-01
        1   -1    0    0  501    0  0.00000000000E+00  0.00000000000E+00  0.14083398912E+04  0.14083398912E+04  0.50400001928E-02 0.  1.
       -1   -1    0    0    0  501  0.00000000000E+00  0.00000000000E+00 -0.14031918970E+04  0.14031918970E+04  0.50400001928E-02 0. -1.
    10030    2    1    2    0    0  0.00000000000E+00  0.00000000000E+00  0.51479941997E+01  0.28115317882E+04  0.28115270751E+04 0.  0.
        5    1    3    3  502    0 -0.18303126750E+02 -0.18564019587E+03  0.13959003248E+04  0.14083171140E+04  0.46999998093E+01 0.  1.
       -5    1    3    3    0  502  0.18303126750E+02  0.18564019587E+03 -0.13907523306E+04  0.14032146742E+04  0.46999998093E+01 0. -1.
</event>
<event>
 5   0  0.2190865E-06  0.2782860E+04  0.7818609E-02  0.8308609E-01
       -1   -1    0    0    0  501  0.00000000000E+00  0.00000000000E+00  0.10459550404E+04  0.10459550404E+04  0.50400001928E-02 0.  1.
        1   -1    0    0  501    0  0.00000000000E+00  0.00000000000E+00 -0.18510146442E+04  0.18510146442E+04  0.50400001928E-02 0. -1.
    10030    2    1    2    0    0  0.00000000000E+00  0.00000000000E+00 -0.80505960383E+03  0.28969696846E+04  0.27828604686E+04 0.  0.
        2    1    3    3  502    0  0.10139433803E+04 -0.65044799807E+03 -0.11274413594E+04  0.16499356943E+04  0.25500000920E-02 0. -1.
       -2    1    3    3    0  502 -0.10139433803E+04  0.65044799807E+03  0.32238175559E+03  0.12470339903E+04  0.25500000920E-02 0.  1.
</event>
<event>
 5   0  0.5546570E-06  0.2809606E+04  0.7818609E-02  0.8300292E-01
       -2   -1    0    0    0  501  0.00000000000E+00  0.00000000000E+00  0.10516462794E+04  0.10516462794E+04  0.25500000920E-02 0. -1.
        2   -1    0    0  501    0  0.00000000000E+00  0.00000000000E+00 -0.18765547210E+04  0.18765547210E+04  0.25500000920E-02 0.  1.
    10030    2    1    2    0    0  0.00000000000E+00  0.00000000000E+00 -0.82490844161E+03  0.29282010004E+04  0.28096062289E+04 0.  0.
        4    1    3    3  502    0 -0.11152217387E+04 -0.48778291654E+03  0.31844558761E+03  0.12581974827E+04  0.12699999809E+01 0. -1.
       -4    1    3    3    0  502  0.11152217387E+04  0.48778291654E+03 -0.11433540292E+04  0.16700035177E+04  0.12699999809E+01 0.  1.
</event>
<event>
 5   0  0.5866136E-06  0.2799147E+04  0.7818609E-02  0.8303533E-01
       -2   -1    0    0    0  501  0.00000000000E+00  0.00000000000E+00  0.94496267269E+03  0.94496267269E+03  0.25500000920E-02 0. -1.
        2   -1    0    0  501    0  0.00000000000E+00  0.00000000000E+00 -0.20728922785E+04  0.20728922785E+04  0.25500000920E-02 0.  1.
    10030    2    1    2    0    0  0.00000000000E+00  0.00000000000E+00 -0.11279296058E+04  0.30178549512E+04  0.27991468898E+04 0.  0.
        5    1    3    3  502    0 -0.40617875093E+03  0.35330073235E+03 -0.19567956899E+04  0.20295009355E+04  0.46999998093E+01 0.  1.
       -5    1    3    3    0  502  0.40617875093E+03 -0.35330073235E+03  0.82886608403E+03  0.98835401575E+03  0.46999998093E+01 0. -1.
</event>
<event>
 5   0  0.2277133E-06  0.2795498E+04  0.7818609E-02  0.8304667E-01
       -1   -1    0    0    0  501  0.00000000000E+00  0.00000000000E+00  0.10841833670E+04  0.10841833670E+04  0.50400001928E-02 0.  1.
        1   -1    0    0  501    0  0.00000000000E+00  0.00000000000E+00 -0.18020040219E+04  0.18020040219E+04  0.50400001928E-02 0. -1.
    10030    2    1    2    0    0  0.00000000000E+00  0.00000000000E+00 -0.71782065490E+03  0.28861873889E+04  0.27954983726E+04 0.  0.
        1    1    3    3  502    0 -0.99812709321E+03  0.34934402241E+03  0.58474526170E+03  0.12083980972E+04  0.50400001928E-02 0.  1.
       -1    1    3    3    0  502  0.99812709321E+03 -0.34934402241E+03 -0.13025659166E+04  0.16777892917E+04  0.50400001928E-02 0. -1.
</event>
<event>
 5   0  0.5916603E-06  0.2785871E+04  0.7818609E-02  0.8307668E-01
        2   -1    0    0  501    0  0.00000000000E+00  0.00000000000E+00  0.21858106337E+04  0.21858106337E+04  0.25500000920E-02 0. -1.
       -2   -1    0    0    0  501  0.00000000000E+00  0.00000000000E+00 -0.88766584135E+03  0.88766584135E+03  0.25500000920E-02 0.  1.
    10030    2    1    2    0    0  0.00000000000E+00  0.00000000000E+00  0.12981447923E+04  0.30734764750E+04  0.27858710919E+04 0.  0.
        2    1    3    3  502    0 -0.11508867339E+04 -0.57327394774E+03  0.12401914942E+04  0.17864093136E+04  0.25500000920E-02 0. -1.
       -2    1    3    3    0  502  0.11508867339E+04  0.57327394774E+03  0.57953298150E+02  0.12870671615E+04  0.25500000920E-02 0.  1.
</event>
<event>
 5   0  0.2190865E-06  0.2818195E+04  0.7818609E-02  0.8297642E-01
        1   -1    0    0  501    0  0.00000000000E+00  0.00000000000E+00  0.10751666245E+04  0.10751666246E+04  0.50400001928E-02 0. -1.
       -1   -1    0    0    0  501  0.00000000000E+00  0.00000000000E+00 -0.18467419758E+04  0.18467419758E+04  0.50400001928E-02 0.  1.
    10030    2    1    2    0    0  0.00000000000E+00  0.00000000000E+00 -0.77157535126E+03  0.29219086004E+04  0.28181946963E+04 0.  0.
        2    1    3    3  502    0  0.13594202164E+04  0.11885334926E+03 -0.21567849121E+02  0.13647763977E+04  0.25500000920E-02 0. -1.
       -2    1    3    3    0  502 -0.13594202164E+04 -0.11885334926E+03 -0.75000750214E+03  0.15571322027E+04  0.25500000920E-02 0.  1.
</event>
<event>
 5   0  0.5584205E-06  0.2799742E+04  0.7818609E-02  0.8303349E-01
        2   -1    0    0  501    0  0.00000000000E+00  0.00000000000E+00  0.25543057271E+04  0.25543057271E+04  0.25500000920E-02 0.  1.
       -2   -1    0    0    0  501  0.00000000000E+00  0.00000000000E+00 -0.76719014014E+03  0.76719014014E+03  0.25500000920E-02 0. -1.
    10030    2    1    2    0    0  0.00000000000E+00  0.00000000000E+00  0.17871155869E+04  0.33214958672E+04  0.27997415372E+04 0.  0.
        1    1    3    3  502    0  0.81566483883E+03  0.69535468049E+02  0.22407371360E+04  0.23855915877E+04  0.50400001928E-02 0.  1.
       -1    1    3    3    0  502 -0.81566483883E+03 -0.69535468049E+02 -0.45362154907E+03  0.93590427952E+03  0.50400001928E-02 0. -1.
</event>
<event>
 5   0  0.2234068E-06  0.2801503E+04  0.7818609E-02  0.8302802E-01
        1   -1    0    0  501    0  0.00000000000E+00  0.00000000000E+00  0.12671230174E+04  0.12671230174E+04  0.50400001928E-02 0.  1.
       -1   -1    0    0    0  501  0.00000000000E+00  0.00000000000E+00 -0.15484721442E+04  0.15484721442E+04  0.50400001928E-02 0. -1.
    10030    2    1    2    0    0  0.00000000000E+00  0.00000000000E+00 -0.28134912681E+03  0.28155951617E+04  0.28015029508E+04 0.  0.
        3    1    3    3  502    0  0.12895356532E+03 -0.59490718419E+03  0.11272423195E+04  0.12811006349E+04  0.10100000352E+00 0.  1.
       -3    1    3    3    0  502 -0.12895356532E+03  0.59490718419E+03 -0.14085914463E+04  0.15344945267E+04  0.10100000352E+00 0. -1.
</event>
<event>
 5   0  0.2234068E-06  0.2808594E+04  0.7818609E-02  0.8300605E-01
        1   -1    0    0  501    0  0.00000000000E+00  0.00000000000E+00  0.16565703722E+04  0.16565703722E+04  0.50400001928E-02 0.  1.
       -1   -1    0    0    0  501  0.00000000000E+00  0.00000000000E+00 -0.11904418581E+04  0.11904418581E+04  0.50400001928E-02 0. -1.
    10030    2    1    2    0    0  0.00000000000E+00  0.00000000000E+00  0.46612851409E+03  0.28470122303E+04  0.28085944613E+04 0.  0.
        3    1    3    3  502    0 -0.75461364917E+03 -0.71300110596E+03  0.11916411302E+04  0.15804495974E+04  0.10100000352E+00 0.  1.
       -3    1    3    3    0  502  0.75461364917E+03  0.71300110596E+03 -0.72551261612E+03  0.12665626329E+04  0.10100000352E+00 0. -1.
</event>
<event>
 5   0  0.5546570E-06  0.2546030E+04  0.7818609E-02  0.8386768E-01
        2   -1    0    0  501    0  0.00000000000E+00  0.00000000000E+00  0.12108674168E+04  0.12108674168E+04  0.25500000920E-02 0.  1.
       -2   -1    0    0    0  501  0.00000000000E+00  0.00000000000E+00 -0.13383520546E+04  0.13383520546E+04  0.25500000920E-02 0. -1.
    10030    2    1    2    0    0  0.00000000000E+00  0.00000000000E+00 -0.12748463779E+03  0.25492194714E+04  0.25460297682E+04 0.  0.
        4    1    3    3  502    0 -0.11856057433E+03 -0.31032297833E+03  0.11667026063E+04  0.12130760673E+04  0.12699999809E+01 0.  1.
       -4    1    3    3    0  502  0.11856057433E+03  0.31032297833E+03 -0.12941872441E+04  0.13361434041E+04  0.12699999809E+01 0. -1.
</event>
<event>
 5   0  0.5584205E-06  0.2724130E+04  0.7818609E-02  0.8327218E-01
       -2   -1    0    0    0  501  0.00000000000E+00  0.00000000000E+00  0.14627912521E+04  0.14627912521E+04  0.25500000920E-02 0. -1.
        2   -1    0    0  501    0  0.00000000000E+00  0.00000000000E+00 -0.12682745533E+04  0.12682745533E+04  0.25500000920E-02 0.  1.
    10030    2    1    2    0    0  0.00000000000E+00  0.00000000000E+00  0.19451669873E+03  0.27310658054E+04  0.27241298955E+04 0.  0.
        1    1    3    3  502    0 -0.87046748709E+03  0.61594795749E+03  0.94683285073E+03  0.14260427692E+04  0.50400001928E-02 0. -1.
       -1    1    3    3    0  502  0.87046748709E+03 -0.61594795749E+03 -0.75231615200E+03  0.13050230362E+04  0.50400001928E-02 0.  1.
</event>
<event>
 5   0  0.1901375E-06  0.2810724E+04  0.7818609E-02  0.8299947E-01
       -4   -1    0    0    0  501  0.00000000000E+00  0.00000000000E+00  0.17524644524E+04  0.17524649126E+04  0.12699999809E+01 0.  1.
        4   -1    0    0  501    0  0.00000000000E+00  0.00000000000E+00 -0.11270073537E+04  0.11270080693E+04  0.12699999809E+01 0. -1.
    10030    2    1    2    0    0  0.00000000000E+00  0.00000000000E+00  0.62545709868E+03  0.28794729819E+04  0.28107237629E+04 0.  0.
        5    1    3    3  502    0  0.91396402162E+03 -0.75852991075E+03  0.10823166783E+04  0.16069005385E+04  0.46999998093E+01 0.  1.
       -5    1    3    3    0  502 -0.91396402162E+03  0.75852991075E+03 -0.45685957964E+03  0.12725724434E+04  0.46999998093E+01 0. -1.
</event>
<event>
 5   0  0.2267565E-06  0.2797933E+04  0.7818609E-02  0.8303910E-01
       -1   -1    0    0    0  501  0.00000000000E+00  0.00000000000E+00  0.14995208678E+04  0.14995208678E+04  0.50400001928E-02 0.  1.
        1   -1    0    0  501    0  0.00000000000E+00  0.00000000000E+00 -0.13051554136E+04  0.13051554136E+04  0.50400001928E-02 0. -1.
    10030    2    1    2    0    0  0.00000000000E+00  0.00000000000E+00  0.19436545419E+03  0.28046762815E+04  0.27979333648E+04 0.  0.
        4    1    3    3  502    0 -0.96021582418E+03  0.80126160234E+03 -0.53128241933E+03  0.13587851951E+04  0.12699999809E+01 0. -1.
       -4    1    3    3    0  502  0.96021582418E+03 -0.80126160234E+03  0.72564787352E+03  0.14458910864E+04  0.12699999809E+01 0.  1.
</event>
<event>
 5   0  0.2206967E-06  0.2798122E+04  0.7818609E-02  0.8303852E-01
       -1   -1    0    0    0  501  0.00000000000E+00  0.00000000000E+00  0.10477960402E+04  0.10477960402E+04  0.50400001928E-02 0. -1.
        1   -1    0    0  501    0  0.00000000000E+00  0.00000000000E+00 -0.18680841860E+04  0.18680841860E+04  0.50400001928E-02 0.  1.
    10030    2    1    2    0    0  0.00000000000E+00  0.00000000000E+00 -0.82028814572E+03  0.29158802262E+04  0.27981216649E+04 0.  0.
        5    1    3    3  502    0 -0.40411643279E+03  0.13028635515E+04 -0.73400553556E+03  0.15490480113E+04  0.46999998093E+01 0.  1.
       -5    1    3    3    0  502  0.40411643279E+03 -0.13028635515E+04 -0.86282610156E+02  0.13668322149E+04  0.46999998093E+01 0. -1.
</event>
<event>
 5   0  0.5916603E-06  0.2796996E+04  0.7818609E-02  0.8304201E-01
       -2   -1    0    0    0  501  0.00000000000E+00  0.00000000000E+00  0.22291092915E+04  0.22291092915E+04  0.25500000920E-02 0.  1.
        2   -1    0    0  501    0  0.00000000000E+00  0.00000000000E+00 -0.87738955353E+03  0.87738955353E+03  0.25500000920E-02 0. -1.
    10030    2    1    2    0    0  0.00000000000E+00  0.00000000000E+00  0.13517197379E+04  0.31064988450E+04  0.27969963933E+04 0.  0.
        2    1    3    3  502    0  0.38126478578E+03 -0.96399356652E+03  0.17184278991E+04  0.20068983227E+04  0.25500000920E-02 0. -1.
       -2    1    3    3    0  502 -0.38126478578E+03  0.96399356652E+03 -0.36670816118E+03  0.10996005223E+04  0.25500000920E-02 0.  1.
</event>
<event>
 5   0  0.2267565E-06  0.2836205E+04  0.7818609E-02  0.8292116E-01
        1   -1    0    0  501    0  0.00000000000E+00  0.00000000000E+00  0.14122481184E+04  0.14122481184E+04  0.50400001928E-02 0.  1.
       -1   -1    0    0    0  501  0.00000000000E+00  0.00000000000E+00 -0.14239809674E+04  0.14239809674E+04  0.50400001928E-02 0. -1.
    10030    2    1    2    0    0  0.00000000000E+00  0.00000000000E+00 -0.11732849002E+02  0.28362290858E+04  0.28362048176E+04 0.  0.
        4    1    3    3  502    0  0.15661023220E+03  0.12717608633E+04  0.60168331619E+03  0.14156012447E+04  0.12699999809E+01 0.  1.
       -4    1    3    3    0  502 -0.15661023220E+03 -0.12717608633E+04 -0.61341616519E+03  0.14206278411E+04  0.12699999809E+01 0. -1.
</event>
<event>
 5   0  0.5866136E-06  0.2810820E+04  0.7818609E-02  0.8299917E-01
        2   -1    0    0  501    0  0.00000000000E+00  0.00000000000E+00  0.13059051775E+04  0.13059051775E+04  0.25500000920E-02 0. -1.
       -2   -1    0    0    0  501  0.00000000000E+00  0.00000000000E+00 -0.15124968363E+04  0.15124968363E+04  0.25500000920E-02 0.  1.
    10030    2    1    2    0    0  0.00000000000E+00  0.00000000000E+00 -0.20659165889E+03  0.28184020138E+04  0.28108201290E+04 0.  0.
        5    1    3    3  502    0  0.97249267605E+03 -0.13850312244E+03  0.90451742934E+03  0.13353272969E+04  0.46999998093E+01 0. -1.
       -5    1    3    3    0  502 -0.97249267605E+03  0.13850312244E+03 -0.11111090882E+04  0.14830747169E+04  0.46999998093E+01 0.  1.
</event>
<event>
 5   0  0.2206967E-06  0.2796975E+04  0.7818609E-02  0.8304208E-01
        1   -1    0    0  501    0  0.00000000000E+00  0.00000000000E+00  0.12603169420E+04  0.12603169420E+04  0.50400001928E-02 0.  1.
       -1   -1    0    0    0  501  0.00000000000E+00  0.00000000000E+00 -0.15518056840E+04  0.15518056840E+04  0.50400001928E-02 0. -1.
    10030    2    1    2    0    0  0.00000000000E+00  0.00000000000E+00 -0.29148874195E+03  0.28121226260E+04  0.27969747902E+04 0.  0.
        5    1    3    3  502    0  0.11770115408E+04  0.34712815078E+03 -0.82011593788E+03  0.14759628592E+04  0.46999998093E+01 0. -1.
       -5    1    3    3    0  502 -0.11770115408E+04 -0.34712815078E+03  0.52862719593E+03  0.13361597668E+04  0.46999998093E+01 0.  1.
</event>
<event>
 5   0  0.2277133E-06  0.2847978E+04  0.7818609E-02  0.8288526E-01
        1   -1    0    0  501    0  0.00000000000E+00  0.00000000000E+00  0.13671607763E+04  0.13671607763E+04  0.50400001928E-02 0.  1.
       -1   -1    0    0    0  501  0.00000000000E+00  0.00000000000E+00 -0.14831792387E+04  0.14831792387E+04  0.50400001928E-02 0. -1.
    10030    2    1    2    0    0  0.00000000000E+00  0.00000000000E+00 -0.11601846236E+03  0.28503400150E+04  0.28479778646E+04 0.  0.
        1    1    3    3  502    0 -0.23796778756E+03  0.11602969945E+03 -0.14583312203E+04  0.14821678404E+04  0.50400001928E-02 0. -1.
       -1    1    3    3    0  502  0.23796778756E+03 -0.11602969945E+03  0.13423127579E+04  0.13681721746E+04  0.50400001928E-02 0.  1.
</event>
<event>
 5   0  0.5916603E-06  0.2811405E+04  0.7818609E-02  0.8299736E-01
        2   -1    0    0  501    0  0.00000000000E+00  0.00000000000E+00  0.22003920784E+04  0.22003920784E+04  0.25500000920E-02 0.  1.
       -2   -1    0    0    0  501  0.00000000000E+00  0.00000000000E+00 -0.89802134487E+03  0.89802134488E+03  0.25500000920E-02 0. -1.
    10030    2    1    2    0    0  0.00000000000E+00  0.00000000000E+00  0.13023707335E+04  0.30984134233E+04  0.28114046692E+04 0.  0.
        2    1    3    3  502    0 -0.11614782301E+04 -0.42211977950E+03  0.13894870310E+04  0.18595405337E+04  0.25500000920E-02 0.  1.
       -2    1    3    3    0  502  0.11614782301E+04  0.42211977950E+03 -0.87116297504E+02  0.12388728896E+04  0.25500000920E-02 0. -1.
</event>
<event>
 5   0  0.2206967E-06  0.2807675E+04  0.7818609E-02  0.8300889E-01
       -1   -1    0    0    0  501  0.00000000000E+00  0.00000000000E+00  0.16279649010E+04  0.16279649010E+04  0.50400001928E-02 0. -1.
        1   -1    0    0  501    0  0.00000000000E+00  0.00000000000E+00 -0.12105667933E+04  0.12105667933E+04  0.50400001928E-02 0.  1.
    10030    2    1    2    0    0  0.00000000000E+00  0.00000000000E+00  0.41739810769E+03  0.28385316943E+04  0.28076753729E+04 0.  0.
        5    1    3    3  502    0 -0.12948083166E+04  0.19342392431E+03 -0.30362132609E+03  0.13439305752E+04  0.46999998093E+01 0.  1.
       -5    1    3    3    0  502  0.12948083166E+04 -0.19342392431E+03  0.72101943379E+03  0.14946011191E+04  0.46999998093E+01 0. -1.
</event>
<event>
 5   0  0.5584205E-06  0.2802858E+04  0.7818609E-02  0.8302381E-01
        2   -1    0    0  501    0  0.00000000000E+00  0.00000000000E+00  0.25564549902E+04  0.25564549902E+04  0.25500000920E-02 0. -1.
       -2   -1    0    0    0  501  0.00000000000E+00  0.00000000000E+00 -0.76825288815E+03  0.76825288815E+03  0.25500000920E-02 0.  1.
    10030    2    1    2    0    0  0.00000000000E+00  0.00000000000E+00  0.17882021020E+04  0.33247078783E+04  0.28028584906E+04 0.  0.
        1    1    3    3  502    0  0.31447691599E+03 -0.64189334751E+03 -0.53577124608E+03  0.89329369662E+03  0.50400001928E-02 0.  1.
       -1    1    3    3    0  502 -0.31447691599E+03  0.64189334751E+03  0.23239733481E+04  0.24314141817E+04  0.50400001928E-02 0. -1.
</event>
<event>
 5   0  0.2277133E-06  0.2775506E+04  0.7818609E-02  0.8310913E-01
       -1   -1    0    0    0  501  0.00000000000E+00  0.00000000000E+00  0.14094529501E+04  0.14094529501E+04  0.50400001928E-02 0.  1.
        1   -1    0    0  501    0  0.00000000000E+00  0.00000000000E+00 -0.13663867793E+04  0.13663867793E+04  0.50400001928E-02 0. -1.
    10030    2    1    2    0    0  0.00000000000E+00  0.00000000000E+00  0.43066170773E+02  0.27758397294E+04  0.27755056311E+04 0.  0.
        1    1    3    3  502    0  0.65652891721E+03 -0.11770558956E+04  0.35227982861E+03  0.13930512834E+04  0.50400001928E-02 0. -1.
       -1    1    3    3    0  502 -0.65652891721E+03  0.11770558956E+04 -0.30921365784E+03  0.13827884461E+04  0.50400001928E-02 0.  1.
</event>
<event>
 5   0  0.2190865E-06  0.2755250E+04  0.7818609E-02  0.8317298E-01
       -1   -1    0    0    0  501  0.00000000000E+00  0.00000000000E+00  0.82729466324E+03  0.82729466325E+03  0.50400001928E-02 0.  1.
        1   -1    0    0  501    0  0.00000000000E+00  0.00000000000E+00 -0.22940447239E+04  0.22940447239E+04  0.50400001928E-02 0. -1.
    10030    2    1    2    0    0  0.00000000000E+00  0.00000000000E+00 -0.14667500607E+04  0.31213393872E+04  0.27552502299E+04 0.  0.
        2    1    3    3  502    0  0.10876790028E+04  0.79827270622E+02 -0.16868939657E+04  0.20087382253E+04  0.25500000920E-02 0. -1.
       -2    1    3    3    0  502 -0.10876790028E+04 -0.79827270622E+02  0.22014390506E+03  0.11126011618E+04  0.25500000920E-02 0.  1.
</event>
<event>
 5   0  0.5546570E-06  0.2773813E+04  0.7818609E-02  0.8311445E-01
        2   -1    0    0  501    0  0.00000000000E+00  0.00000000000E+00  0.17776955285E+04  0.17776955285E+04  0.25500000920E-02 0.  1.
       -2   -1    0    0    0  501  0.00000000000E+00  0.00000000000E+00 -0.10820239591E+04  0.10820239591E+04  0.25500000920E-02 0. -1.
    10030    2    1    2    0    0  0.00000000000E+00  0.00000000000E+00  0.69567156934E+03  0.28597194876E+04  0.27738126496E+04 0.  0.
        4    1    3    3  502    0  0.12965716273E+04 -0.20850978714E+03  0.80766861188E+03  0.15417212833E+04  0.12699999809E+01 0.  1.
       -4    1    3    3    0  502 -0.12965716273E+04  0.20850978714E+03 -0.11199704254E+03  0.13179982042E+04  0.12699999809E+01 0. -1.
</event>
<event>
 5   0  0.5916603E-06  0.2800419E+04  0.7818609E-02  0.8303138E-01
        2   -1    0    0  501    0  0.00000000000E+00  0.00000000000E+00  0.16555762729E+04  0.16555762729E+04  0.25500000920E-02 0. -1.
       -2   -1    0    0    0  501  0.00000000000E+00  0.00000000000E+00 -0.11842322817E+04  0.11842322817E+04  0.25500000920E-02 0.  1.
    10030    2    1    2    0    0  0.00000000000E+00  0.00000000000E+00  0.47134399122E+03  0.28398085546E+04  0.28004191595E+04 0.  0.
        2    1    3    3  502    0  0.39806010011E+03 -0.89122214955E+03  0.12537140507E+04  0.15888762331E+04  0.25500000920E-02 0. -1.
       -2    1    3    3    0  502 -0.39806010011E+03  0.89122214955E+03 -0.78237005947E+03  0.12509323216E+04  0.25500000920E-02 0.  1.
</event>
<event>
 5   0  0.5546570E-06  0.2803161E+04  0.7818609E-02  0.8302288E-01
        2   -1    0    0  501    0  0.00000000000E+00  0.00000000000E+00  0.27132454527E+04  0.27132454527E+04  0.25500000920E-02 0.  1.
       -2   -1    0    0    0  501  0.00000000000E+00  0.00000000000E+00 -0.72401424982E+03  0.72401424983E+03  0.25500000920E-02 0. -1.
    10030    2    1    2    0    0  0.00000000000E+00  0.00000000000E+00  0.19892312029E+04  0.34372597025E+04  0.28031613375E+04 0.  0.
        4    1    3    3  502    0 -0.90128566664E+03  0.82798088299E+03  0.18321783129E+04  0.22033490824E+04  0.12699999809E+01 0. -1.
       -4    1    3    3    0  502  0.90128566664E+03 -0.82798088299E+03  0.15705288998E+03  0.12339106202E+04  0.12699999809E+01 0.  1.
</event>
<event>
 5   0  0.2190865E-06  0.2807382E+04  0.7818609E-02  0.8300980E-01
       -1   -1    0    0    0  501  0.00000000000E+00  0.00000000000E+00  0.10412387171E+04  0.10412387171E+04  0.50400001928E-02 0.  1.
        1   -1    0    0  501    0  0.00000000000E+00  0.00000000000E+00 -0.18923118356E+04  0.18923118356E+04  0.50400001928E-02 0. -1.
    10030    2    1    2    0    0  0.00000000000E+00  0.00000000000E+00 -0.85107311857E+03  0.29335505527E+04  0.28073819463E+04 0.  0.
        2    1    3    3  502    0 -0.36313431848E+03 -0.67627301082E+03 -0.16535705723E+04  0.18230489176E+04  0.25500000920E-02 0. -1.
       -2    1    3    3    0  502  0.36313431848E+03  0.67627301082E+03  0.80249745371E+03  0.11105016351E+04  0.25500000920E-02 0.  1.
</event>
<event>
 5   0  0.5584205E-06  0.2802056E+04  0.7818609E-02  0.8302630E-01
        2   -1    0    0  501    0  0.00000000000E+00  0.00000000000E+00  0.21564818792E+04  0.21564818792E+04  0.25500000920E-02 0.  1.
       -2   -1    0    0    0  501  0.00000000000E+00  0.00000000000E+00 -0.91022304591E+03  0.91022304592E+03  0.25500000920E-02 0. -1.
    10030    2    1    2    0    0  0.00000000000E+00  0.00000000000E+00  0.12462588333E+04  0.30667049252E+04  0.28020560341E+04 0.  0.
        1    1    3    3  502    0 -0.48650323570E+03  0.13159381532E+03 -0.80757724472E+03  0.95193662436E+03  0.50400001928E-02 0. -1.
       -1    1    3    3    0  502  0.48650323570E+03 -0.13159381532E+03  0.20538360780E+04  0.21147683008E+04  0.50400001928E-02 0.  1.
</event>
<event>
 5   0  0.2267565E-06  0.2737520E+04  0.7818609E-02  0.8322933E-01
        1   -1    0    0  501    0  0.00000000000E+00  0.00000000000E+00  0.20576274822E+04  0.20576274823E+04  0.50400001928E-02 0.  1.
       -1   -1    0    0    0  501  0.00000000000E+00  0.00000000000E+00 -0.91051643892E+03  0.91051643893E+03  0.50400001928E-02 0. -1.
    10030    2    1    2    0    0  0.00000000000E+00  0.00000000000E+00  0.11471110433E+04  0.29681439212E+04  0.27375197883E+04 0.  0.
        4    1    3    3  502    0 -0.90626916245E+03 -0.10256255942E+04  0.59138404601E+03  0.14909622253E+04  0.12699999809E+01 0.  1.
       -4    1    3    3    0  502  0.90626916245E+03  0.10256255942E+04  0.55572699731E+03  0.14771816959E+04  0.12699999809E+01 0. -1.
</event>
<event>
 5   0  0.2190865E-06  0.2801637E+04  0.7818609E-02  0.8302760E-01
       -1   -1    0    0    0  501  0.00000000000E+00  0.00000000000E+00  0.14580162474E+04  0.14580162474E+04  0.50400001928E-02 0. -1.
        1   -1    0    0  501    0  0.00000000000E+00  0.00000000000E+00 -0.13458642177E+04  0.13458642177E+04  0.50400001928E-02 0.  1.
    10030    2    1    2    0    0  0.00000000000E+00  0.00000000000E+00  0.11215202970E+03  0.28038804652E+04  0.28016365905E+04 0.  0.
        2    1    3    3  502    0  0.72505788964E+03 -0.62213820052E+03  0.10813607806E+04  0.14429504571E+04  0.25500000920E-02 0. -1.
       -2    1    3    3    0  502 -0.72505788964E+03  0.62213820052E+03 -0.96920875093E+03  0.13609300080E+04  0.25500000920E-02 0.  1.
</event>
<event>
 5   0  0.2277133E-06  0.2784065E+04  0.7818609E-02  0.8308233E-01
        1   -1    0    0  501    0  0.00000000000E+00  0.00000000000E+00  0.17209356829E+04  0.17209356829E+04  0.50400001928E-02 0. -1.
       -1   -1    0    0    0  501  0.00000000000E+00  0.00000000000E+00 -0.11259889508E+04  0.11259889508E+04  0.50400001928E-02 0.  1.
    10030    2    1    2    0    0  0.00000000000E+00  0.00000000000E+00  0.59494673209E+03  0.28469246337E+04  0.27840650596E+04 0.  0.
        1    1    3    3  502    0  0.23192529780E+03 -0.35074583829E+03 -0.10594933255E+04  0.11398851230E+04  0.50400001928E-02 0.  1.
       -1    1    3    3    0  502 -0.23192529780E+03  0.35074583829E+03  0.16544400576E+04  0.17070395107E+04  0.50400001928E-02 0. -1.
</event>
<event>
 5   0  0.5584205E-06  0.2803924E+04  0.7818609E-02  0.8302051E-01
       -2   -1    0    0    0  501  0.00000000000E+00  0.00000000000E+00  0.10867615319E+04  0.10867615319E+04  0.25500000920E-02 0.  1.
        2   -1    0    0  501    0  0.00000000000E+00  0.00000000000E+00 -0.18085823106E+04  0.18085823106E+04  0.25500000920E-02 0. -1.
    10030    2    1    2    0    0  0.00000000000E+00  0.00000000000E+00 -0.72182077871E+03  0.28953438425E+04  0.28039241662E+04 0.  0.
        1    1    3    3  502    0  0.66906719556E+03 -0.67871804857E+03 -0.14226306736E+04  0.17123630267E+04  0.50400001928E-02 0. -1.
       -1    1    3    3    0  502 -0.66906719556E+03  0.67871804857E+03  0.70080989493E+03  0.11829808158E+04  0.50400001928E-02 0.  1.
</event>
<event>
 5   0  0.2234068E-06  0.2667147E+04  0.7818609E-02  0.8345744E-01
       -1   -1    0    0    0  501  0.00000000000E+00  0.00000000000E+00  0.96208190852E+03  0.96208190853E+03  0.50400001928E-02 0.  1.
        1   -1    0    0  501    0  0.00000000000E+00  0.00000000000E+00 -0.18485098314E+04  0.18485098314E+04  0.50400001928E-02 0. -1.
    10030    2    1    2    0    0  0.00000000000E+00  0.00000000000E+00 -0.88642792286E+03  0.28105917399E+04  0.26671466900E+04 0.  0.
        3    1    3    3  502    0 -0.11127819642E+04 -0.63118578705E+03 -0.46483979146E+02  0.12801718510E+04  0.10100000352E+00 0. -1.
       -3    1    3    3    0  502  0.11127819642E+04  0.63118578705E+03 -0.83994394371E+03  0.15304198889E+04  0.10100000352E+00 0.  1.
</event>
<event>
 5   0  0.2206967E-06  0.2773084E+04  0.7818609E-02  0.8311674E-01
       -1   -1    0    0    0  501  0.00000000000E+00  0.00000000000E+00  0.88804819988E+03  0.88804819989E+03  0.50400001928E-02 0. -1.
        1   -1    0    0  501    0  0.00000000000E+00  0.00000000000E+00 -0.21648591706E+04  0.21648591706E+04  0.50400001928E-02 0.  1.
    10030    2    1    2    0    0  0.00000000000E+00  0.00000000000E+00 -0.12768109708E+04  0.30529073705E+04  0.27730844123E+04 0.  0.
        5    1    3    3  502    0  0.66623105308E+03 -0.82065672797E+03  0.34943117265E+03  0.11133128561E+04  0.46999998093E+01 0. -1.
       -5    1    3    3    0  502 -0.66623105308E+03  0.82065672797E+03 -0.16262421434E+04  0.19395945144E+04  0.46999998093E+01 0.  1.
</event>
<event>
 5   0  0.2234068E-06  0.3003423E+04  0.7818609E-02  0.8242754E-01
        1   -1    0    0  501    0  0.00000000000E+00  0.00000000000E+00  0.15303754071E+04  0.15303754071E+04  0.50400001928E-02 0. -1.
       -1   -1    0    0    0  501  0.00000000000E+00  0.00000000000E+00 -0.14735843634E+04  0.14735843634E+04  0.50400001928E-02 0.  1.
    10030    2    1    2    0    0  0.00000000000E+00  0.00000000000E+00  0.56791043733E+02  0.30039597705E+04  0.30034228940E+04 0.  0.
        3    1    3    3  502    0 -0.12601619084E+04 -0.26144189007E+03 -0.74554985758E+03  0.14873481427E+04  0.10100000352E+00 0.  1.
       -3    1    3    3    0  502  0.12601619084E+04  0.26144189007E+03  0.80234090132E+03  0.15166116278E+04  0.10100000352E+00 0. -1.
</event>
<event>
 5   0  0.5916603E-06  0.2884967E+04  0.7818609E-02  0.8277364E-01
       -2   -1    0    0    0  501  0.00000000000E+00  0.00000000000E+00  0.96910017808E+03  0.96910017808E+03  0.25500000920E-02 0.  1.
        2   -1    0    0  501    0  0.00000000000E+00  0.00000000000E+00 -0.21471031142E+04  0.21471031142E+04  0.25500000920E-02 0. -1.
    10030    2    1    2    0    0  0.00000000000E+00  0.00000000000E+00 -0.11780029362E+04  0.31162032923E+04  0.28849665581E+04 0.  0.
        2    1    3    3  502    0 -0.12877205752E+04 -0.62251191165E+03 -0.79111597753E+03  0.16345059957E+04  0.25500000920E-02 0.  1.
       -2    1    3    3    0  502  0.12877205752E+04  0.62251191165E+03 -0.38688695863E+03  0.14816972966E+04  0.25500000920E-02 0. -1.
</event>
<event>
 5   0  0.5916603E-06  0.2858098E+04  0.7818609E-02  0.8285455E-01
        2   -1    0    0  501    0  0.00000000000E+00  0.00000000000E+00  0.13696096657E+04  0.13696096657E+04  0.25500000920E-02 0.  1.
       -2   -1    0    0    0  501  0.00000000000E+00  0.00000000000E+00 -0.14910680813E+04  0.14910680813E+04  0.25500000920E-02 0. -1.
    10030    2    1    2    0    0  0.00000000000E+00  0.00000000000E+00 -0.12145841564E+03  0.28606777470E+04  0.28580981483E+04 0.  0.
        2    1    3    3  502    0  0.65561959161E+03  0.96427995855E+03  0.76615707906E+03  0.13952310049E+04  0.25500000920E-02 0.  1.
       -2    1    3    3    0  502 -0.65561959161E+03 -0.96427995855E+03 -0.88761549470E+03  0.14654467421E+04  0.25500000920E-02 0. -1.
</event>
<event>
 5   0  0.5546570E-06  0.2814723E+04  0.7818609E-02  0.8298712E-01
        2   -1    0    0  501    0  0.00000000000E+00  0.00000000000E+00  0.17839708190E+04  0.17839708190E+04  0.25500000920E-02 0.  1.
       -2   -1    0    0    0  501  0.00000000000E+00  0.00000000000E+00 -0.11102572406E+04  0.11102572406E+04  0.25500000920E-02 0. -1.
    10030    2    1    2    0    0  0.00000000000E+00  0.00000000000E+00  0.67371357845E+03  0.28942280596E+04  0.28147230903E+04 0.  0.
        4    1    3    3  502    0  0.88896923222E+03 -0.10910535166E+04  0.33591775889E+03  0.14468954439E+04  0.12699999809E+01 0.  1.
       -4    1    3    3    0  502 -0.88896923222E+03  0.10910535166E+04  0.33779581956E+03  0.14473326157E+04  0.12699999809E+01 0. -1.
</event>
<event>
 5   0  0.2234068E-06  0.2798104E+04  0.7818609E-02  0.8303857E-01
       -1   -1    0    0    0  501  0.00000000000E+00  0.00000000000E+00  0.17541059789E+04  0.17541059789E+04  0.50400001928E-02 0.  1.
        1   -1    0    0  501    0  0.00000000000E+00  0.00000000000E+00 -0.11158656505E+04  0.11158656505E+04  0.50400001928E-02 0. -1.
    10030    2    1    2    0    0  0.00000000000E+00  0.00000000000E+00  0.63824032838E+03  0.28699716294E+04  0.27981040789E+04 0.  0.
        3    1    3    3  502    0 -0.95566225494E+03 -0.16866059083E+03  0.13527789324E+04  0.16648566277E+04  0.10100000352E+00 0.  1.
       -3    1    3    3    0  502  0.95566225494E+03  0.16866059083E+03 -0.71453860406E+03  0.12051150017E+04  0.10100000352E+00 0. -1.
</event>
<event>
 5   0  0.2267565E-06  0.2760489E+04  0.7818609E-02  0.8315641E-01
       -1   -1    0    0    0  501  0.00000000000E+00  0.00000000000E+00  0.14172669073E+04  0.14172669073E+04  0.50400001928E-02 0.  1.
        1   -1    0    0  501    0  0.00000000000E+00  0.00000000000E+00 -0.13441895370E+04  0.13441895370E+04  0.50400001928E-02 0. -1.
    10030    2    1    2    0    0  0.00000000000E+00  0.00000000000E+00  0.73077370302E+02  0.27614564444E+04  0.27604893392E+04 0.  0.
        4    1    3    3  502    0 -0.98650461163E+03 -0.77951077292E+03 -0.53308625477E+03  0.13656540418E+04  0.12699999809E+01 0. -1.
       -4    1    3    3    0  502  0.98650461163E+03  0.77951077292E+03  0.60616362507E+03  0.13958024026E+04  0.12699999809E+01 0.  1.
</event>
<event>
 5   0  0.5866136E-06  0.2804394E+04  0.7818609E-02  0.8301905E-01
        2   -1    0    0  501    0  0.00000000000E+00  0.00000000000E+00  0.10284485462E+04  0.10284485462E+04  0.25500000920E-02 0. -1.
       -2   -1    0    0    0  501  0.00000000000E+00  0.00000000000E+00 -0.19117694274E+04  0.19117694274E+04  0.25500000920E-02 0.  1.
    10030    2    1    2    0    0  0.00000000000E+00  0.00000000000E+00 -0.88332088119E+03  0.29402179736E+04  0.28043940439E+04 0.  0.
        5    1    3    3  502    0 -0.66767749818E+03  0.10796406471E+03 -0.17294347783E+04  0.18569911748E+04  0.46999998093E+01 0.  1.
       -5    1    3    3    0  502  0.66767749818E+03 -0.10796406471E+03  0.84611389710E+03  0.10832267988E+04  0.46999998093E+01 0. -1.
</event>
<event>
 5   0  0.2206967E-06  0.2871293E+04  0.7818609E-02  0.8281470E-01
       -1   -1    0    0    0  501  0.00000000000E+00  0.00000000000E+00  0.20518364562E+04  0.20518364562E+04  0.50400001928E-02 0.  1.
        1   -1    0    0  501    0  0.00000000000E+00  0.00000000000E+00 -0.10045052240E+04  0.10045052240E+04  0.50400001928E-02 0. -1.
    10030    2    1    2    0    0  0.00000000000E+00  0.00000000000E+00  0.10473312322E+04  0.30563416802E+04  0.28712926978E+04 0.  0.
        5    1    3    3  502    0 -0.12689403747E+04  0.65345342505E+03  0.35928749662E+03  0.14718426031E+04  0.46999998093E+01 0. -1.
       -5    1    3    3    0  502  0.12689403747E+04 -0.65345342505E+03  0.68804373556E+03  0.15844990771E+04  0.46999998093E+01 0.  1.
</event>
<event>
 5   0  0.2190865E-06  0.2762277E+04  0.7818609E-02  0.8315076E-01
        1   -1    0    0  501    0  0.00000000000E+00  0.00000000000E+00  0.14966468996E+04  0.14966468996E+04  0.50400001928E-02 0. -1.
       -1   -1    0    0    0  501  0.00000000000E+00  0.00000000000E+00 -0.12745449549E+04  0.12745449550E+04  0.50400001928E-02 0.  1.
    10030    2    1    2    0    0  0.00000000000E+00  0.00000000000E+00  0.22210194462E+03  0.27711918545E+04  0.27622771441E+04 0.  0.
        2    1    3    3  502    0 -0.69622191894E+03 -0.94698493332E+03 -0.61657474324E+03  0.13272791109E+04  0.25500000920E-02 0.  1.
       -2    1    3    3    0  502  0.69622191894E+03  0.94698493332E+03  0.83867668786E+03  0.14439127436E+04  0.25500000920E-02 0. -1.
</event>
<event>
 5   0  0.5625245E-06  0.2792037E+04  0.7818609E-02  0.8305745E-01
        2   -1    0    0  501    0  0.00000000000E+00  0.00000000000E+00  0.14727838364E+04  0.14727838364E+04  0.25500000920E-02 0.  1.
       -2   -1    0    0    0  501  0.00000000000E+00  0.00000000000E+00 -0.13232540279E+04  0.13232540279E+04  0.25500000920E-02 0. -1.
    10030    2    1    2    0    0  0.00000000000E+00  0.00000000000E+00  0.14952980853E+03  0.27960378643E+04  0.27920366356E+04 0.  0.
        3    1    3    3  502    0 -0.39274403750E+03 -0.80906899290E+03 -0.99448552146E+03  0.13408362976E+04  0.10100000352E+00 0. -1.
       -3    1    3    3    0  502  0.39274403750E+03  0.80906899290E+03  0.11440153300E+04  0.14552015667E+04  0.10100000352E+00 0.  1.
</event>
<event>
 5   0  0.2234068E-06  0.2815703E+04  0.7818609E-02  0.8298410E-01
       -1   -1    0    0    0  501  0.00000000000E+00  0.00000000000E+00  0.78807290403E+03  0.78807290405E+03  0.50400001928E-02 0. -1.
        1   -1    0    0  501    0  0.00000000000E+00  0.00000000000E+00 -0.25150537902E+04  0.25150537902E+04  0.50400001928E-02 0.  1.
    10030    2    1    2    0    0  0.00000000000E+00  0.00000000000E+00 -0.17269808862E+04  0.33031266942E+04  0.28157029277E+04 0.  0.
        3    1    3    3  502    0 -0.79665420940E+03 -0.69972696577E+03  0.22299477069E+03  0.10835139288E+04  0.10100000352E+00 0. -1.
       -3    1    3    3    0  502  0.79665420940E+03  0.69972696577E+03 -0.19499756568E+04  0.22196127654E+04  0.10100000352E+00 0.  1.
</event>
<event>
 5   0  0.2234068E-06  0.2781147E+04  0.7818609E-02  0.8309145E-01
       -1   -1    0    0    0  501  0.00000000000E+00  0.00000000000E+00  0.10014567412E+04  0.10014567412E+04  0.50400001928E-02 0.  1.
        1   -1    0    0  501    0  0.00000000000E+00  0.00000000000E+00 -0.19308824638E+04  0.19308824638E+04  0.50400001928E-02 0. -1.
    10030    2    1    2    0    0  0.00000000000E+00  0.00000000000E+00 -0.92942572256E+03  0.29323392050E+04  0.27811474322E+04 0.  0.
        3    1    3    3  502    0  0.87478985714E+03  0.73852072752E+03  0.36751636516E+03  0.12023886427E+04  0.10100000352E+00 0.  1.
       -3    1    3    3    0  502 -0.87478985714E+03 -0.73852072752E+03 -0.12969420877E+04  0.17299505624E+04  0.10100000352E+00 0. -1.
</event>
<event>
 5   0  0.2234068E-06  0.2709342E+04  0.7818609E-02  0.8331980E-01
        1   -1    0    0  501    0  0.00000000000E+00  0.00000000000E+00  0.18368236349E+04  0.18368236349E+04  0.50400001928E-02 0.  1.
       -1   -1    0    0    0  501  0.00000000000E+00  0.00000000000E+00 -0.99908020413E+03  0.99908020414E+03  0.50400001928E-02 0. -1.
    10030    2    1    2    0    0  0.00000000000E+00  0.00000000000E+00  0.83774343077E+03  0.28359038390E+04  0.27093424532E+04 0.  0.
        3    1    3    3  502    0 -0.12415360930E+04  0.34128331121E+03  0.85954651224E+03  0.15481299640E+04  0.10100000352E+00 0. -1.
       -3    1    3    3    0  502  0.12415360930E+04 -0.34128331121E+03 -0.21803081475E+02  0.12877738750E+04  0.10100000352E+00 0.  1.
</event>
<event>
 5   0  0.2190865E-06  0.2774535E+04  0.7818609E-02  0.8311218E-01
       -1   -1    0    0    0  501  0.00000000000E+00  0.00000000000E+00  0.10748228788E+04  0.10748228788E+04  0.50400001928E-02 0.  1.
        1   -1    0    0  501    0  0.00000000000E+00  0.00000000000E+00 -0.17905374866E+04  0.17905374866E+04  0.50400001928E-02 0. -1.
    10030    2    1    2    0    0  0.00000000000E+00  0.00000000000E+00 -0.71571460784E+03  0.28653603654E+04  0.27745346680E+04 0.  0.
        2    1    3    3  502    0  0.10440556264E+04  0.62695035909E+03 -0.10439790757E+04  0.16040608512E+04  0.25500000920E-02 0. -1.
       -2    1    3    3    0  502 -0.10440556264E+04 -0.62695035909E+03  0.32826446783E+03  0.12612995143E+04  0.25500000920E-02 0.  1.
</event>
<event>
 5   0  0.2267565E-06  0.2789718E+04  0.7818609E-02  0.8306468E-01
       -1   -1    0    0    0  501  0.00000000000E+00  0.00000000000E+00  0.14548190887E+04  0.14548190888E+04  0.50400001928E-02 0.  1.
        1   -1    0    0  501    0  0.00000000000E+00  0.00000000000E+00 -0.13373701166E+04  0.13373701166E+04  0.50400001928E-02 0. -1.
    10030    2    1    2    0    0  0.00000000000E+00  0.00000000000E+00  0.11744897213E+03  0.27921892054E+04  0.27897179602E+04 0.  0.
        4    1    3    3  502    0  0.10521271870E+04 -0.73384822140E+03  0.60704655689E+03  0.14191588934E+04  0.12699999809E+01 0. -1.
       -4    1    3    3    0  502 -0.10521271870E+04  0.73384822140E+03 -0.48959758476E+03  0.13730303120E+04  0.12699999809E+01 0.  1.
</event>
<event>
 5   0  0.2267565E-06  0.2798700E+04  0.7818609E-02  0.8303672E-01
       -1   -1    0    0    0  501  0.00000000000E+00  0.00000000000E+00  0.13484589755E+04  0.13484589755E+04  0.50400001928E-02 0.  1.
        1   -1    0    0  501    0  0.00000000000E+00  0.00000000000E+00 -0.14521618804E+04  0.14521618804E+04  0.50400001928E-02 0. -1.
    10030    2    1    2    0    0  0.00000000000E+00  0.00000000000E+00 -0.10370290494E+03  0.28006208559E+04  0.27987002137E+04 0.  0.
        4    1    3    3  502    0 -0.52942293312E+03 -0.11239271861E+04  0.59254555091E+03  0.13764493469E+04  0.12699999809E+01 0.  1.
       -4    1    3    3    0  502  0.52942293312E+03  0.11239271861E+04 -0.69624845585E+03  0.14241715090E+04  0.12699999809E+01 0. -1.
</event>
<event>
 5   0  0.5625245E-06  0.2787576E+04  0.7818609E-02  0.8307136E-01
        2   -1    0    0  501    0  0.00000000000E+00  0.00000000000E+00  0.72800498626E+03  0.72800498626E+03  0.25500000920E-02 0.  1.
       -2   -1    0    0    0  501  0.00000000000E+00  0.00000000000E+00 -0.26684508815E+04  0.26684508815E+04  0.25500000920E-02 0. -1.
    10030    2    1    2    0    0  0.00000000000E+00  0.00000000000E+00 -0.19404458952E+04  0.33964558677E+04  0.27875764006E+04 0.  0.
        3    1    3    3  502    0  0.58433279401E+03 -0.11960554381E+04 -0.46689038164E+03  0.14106665318E+04  0.10100000352E+00 0.  1.
       -3    1    3    3    0  502 -0.58433279401E+03  0.11960554381E+04 -0.14735555136E+04  0.19857893360E+04  0.10100000352E+00 0. -1.
</event>
<event>
 5   0  0.5546570E-06  0.2821115E+04  0.7818609E-02  0.8296743E-01
       -2   -1    0    0    0  501  0.00000000000E+00  0.00000000000E+00  0.11936931702E+04  0.11936931702E+04  0.25500000920E-02 0.  1.
        2   -1    0    0  501    0  0.00000000000E+00  0.00000000000E+00 -0.16668203331E+04  0.16668203331E+04  0.25500000920E-02 0. -1.
    10030    2    1    2    0    0  0.00000000000E+00  0.00000000000E+00 -0.47312716296E+03  0.28605135033E+04  0.28211147070E+04 0.  0.
        4    1    3    3  502    0  0.10031538121E+04  0.51744318886E+03 -0.10943122743E+04  0.15721278545E+04  0.12699999809E+01 0. -1.
       -4    1    3    3    0  502 -0.10031538121E+04 -0.51744318886E+03  0.62118511133E+03  0.12883856487E+04  0.12699999809E+01 0.  1.
</event>
<event>
 5   0  0.5546570E-06  0.2805496E+04  0.7818609E-02  0.8301564E-01
       -2   -1    0    0    0  501  0.00000000000E+00  0.00000000000E+00  0.13990095651E+04  0.13990095651E+04  0.25500000920E-02 0. -1.
        2   -1    0    0  501    0  0.00000000000E+00  0.00000000000E+00 -0.14064963607E+04  0.14064963607E+04  0.25500000920E-02 0.  1.
    10030    2    1    2    0    0  0.00000000000E+00  0.00000000000E+00 -0.74867955696E+01  0.28055059257E+04  0.28054959361E+04 0.  0.
        4    1    3    3  502    0 -0.13475985315E+03  0.38189032431E+02 -0.13994853159E+04  0.14064776509E+04  0.12699999809E+01 0.  1.
       -4    1    3    3    0  502  0.13475985315E+03 -0.38189032431E+02  0.13919985203E+04  0.13990282748E+04  0.12699999809E+01 0. -1.
</event>
<event>
 5   0  0.2206967E-06  0.2805160E+04  0.7818609E-02  0.8301668E-01
        1   -1    0    0  501    0  0.00000000000E+00  0.00000000000E+00  0.16651615639E+04  0.16651615639E+04  0.50400001928E-02 0.  1.
       -1   -1    0    0    0  501  0.00000000000E+00  0.00000000000E+00 -0.11814052020E+04  0.11814052021E+04  0.50400001928E-02 0. -1.
    10030    2    1    2    0    0  0.00000000000E+00  0.00000000000E+00  0.48375636181E+03  0.28465667659E+04  0.28051599126E+04 0.  0.
        5    1    3    3  502    0  0.94997692818E+03  0.92746634202E+03 -0.21707932605E+03  0.13452864020E+04  0.46999998093E+01 0.  1.
       -5    1    3    3    0  502 -0.94997692818E+03 -0.92746634202E+03  0.70083568786E+03  0.15012803639E+04  0.46999998093E+01 0. -1.
</event>
<event>
 5   0  0.2234068E-06  0.2772012E+04  0.7818609E-02  0.8312010E-01
        1   -1    0    0  501    0  0.00000000000E+00  0.00000000000E+00  0.21591339694E+04  0.21591339694E+04  0.50400001928E-02 0. -1.
       -1   -1    0    0    0  501  0.00000000000E+00  0.00000000000E+00 -0.88971450296E+03  0.88971450297E+03  0.50400001928E-02 0.  1.
    10030    2    1    2    0    0  0.00000000000E+00  0.00000000000E+00  0.12694194664E+04  0.30488484724E+04  0.27720121258E+04 0.  0.
        3    1    3    3  502    0 -0.84413919708E+03  0.85820341476E+03 -0.12086758899E+03  0.12098318352E+04  0.10100000352E+00 0.  1.
       -3    1    3    3    0  502  0.84413919708E+03 -0.85820341476E+03  0.13902870554E+04  0.18390166372E+04  0.10100000352E+00 0. -1.
</event>
<event>
 5   0  0.5546570E-06  0.2792110E+04  0.7818609E-02  0.8305722E-01
       -2   -1    0    0    0  501  0.00000000000E+00  0.00000000000E+00  0.15829329846E+04  0.15829329846E+04  0.25500000920E-02 0.  1.
        2   -1    0    0  501    0  0.00000000000E+00  0.00000000000E+00 -0.12312392479E+04  0.12312392479E+04  0.25500000920E-02 0. -1.
    10030    2    1    2    0    0  0.00000000000E+00  0.00000000000E+00  0.35169373675E+03  0.28141722325E+04  0.27921097525E+04 0.  0.
        4    1    3    3  502    0 -0.10446348471E+03 -0.13222101074E+04 -0.26327385109E+03  0.13522081650E+04  0.12699999809E+01 0.  1.
       -4    1    3    3    0  502  0.10446348471E+03  0.13222101074E+04  0.61496758784E+03  0.14619640676E+04  0.12699999809E+01 0. -1.
</event>
<event>
 5   0  0.5866136E-06  0.2841091E+04  0.7818609E-02  0.8290624E-01
       -2   -1    0    0    0  501  0.00000000000E+00  0.00000000000E+00  0.13109152551E+04  0.13109152551E+04  0.25500000920E-02 0.  1.
        2   -1    0    0  501    0  0.00000000000E+00  0.00000000000E+00 -0.15393443442E+04  0.15393443442E+04  0.25500000920E-02 0. -1.
    10030    2    1    2    0    0  0.00000000000E+00  0.00000000000E+00 -0.22842908912E+03  0.28502595993E+04  0.28410913281E+04 0.  0.
        5    1    3    3  502    0 -0.79606538190E+03  0.87135212905E+03 -0.90730549501E+03  0.14886906920E+04  0.46999998093E+01 0.  1.
       -5    1    3    3    0  502  0.79606538190E+03 -0.87135212905E+03  0.67887640590E+03  0.13615689074E+04  0.46999998093E+01 0. -1.
</event>
<event>
 5   0  0.2206967E-06  0.2791766E+04  0.7818609E-02  0.8305829E-01
       -1   -1    0    0    0  501  0.00000000000E+00  0.00000000000E+00  0.18658355277E+04  0.18658355277E+04  0.50400001928E-02 0.  1.
        1   -1    0    0  501    0  0.00000000000E+00  0.00000000000E+00 -0.10442988257E+04  0.10442988257E+04  0.50400001928E-02 0. -1.
    10030    2    1    2    0    0  0.00000000000E+00  0.00000000000E+00  0.82153670202E+03  0.29101343535E+04  0.27917663589E+04 0.  0.
        5    1    3    3  502    0  0.48164140186E+03  0.61911163760E+03 -0.79282563826E+03  0.11152902055E+04  0.46999998093E+01 0. -1.
       -5    1    3    3    0  502 -0.48164140186E+03 -0.61911163760E+03  0.16143623403E+04  0.17948441480E+04  0.46999998093E+01 0.  1.
</event>
<event>
 5   0  0.2234068E-06  0.2787421E+04  0.7818609E-02  0.8307184E-01
       -1   -1    0    0    0  501  0.00000000000E+00  0.00000000000E+00  0.12270557812E+04  0.12270557812E+04  0.50400001928E-02 0.  1.
        1   -1    0    0  501    0  0.00000000000E+00  0.00000000000E+00 -0.15829995987E+04  0.15829995988E+04  0.50400001928E-02 0. -1.
    10030    2    1    2    0    0  0.00000000000E+00  0.00000000000E+00 -0.35594381753E+03  0.28100553800E+04  0.27874208935E+04 0.  0.
        3    1    3    3  502    0  0.14371724333E+01  0.21328444305E+03  0.12105051939E+04  0.12291522094E+04  0.10100000352E+00 0.  1.
       -3    1    3    3    0  502 -0.14371724333E+01 -0.21328444305E+03 -0.15664490115E+04  0.15809031706E+04  0.10100000352E+00 0. -1.
</event>
<event>
 5   0  0.5916603E-06  0.2836751E+04  0.7818609E-02  0.8291949E-01
       -2   -1    0    0    0  501  0.00000000000E+00  0.00000000000E+00  0.18945905069E+04  0.18945905069E+04  0.25500000920E-02 0. -1.
        2   -1    0    0  501    0  0.00000000000E+00  0.00000000000E+00 -0.10618592123E+04  0.10618592124E+04  0.25500000920E-02 0.  1.
    10030    2    1    2    0    0  0.00000000000E+00  0.00000000000E+00  0.83273129458E+03  0.29564497193E+04  0.28367505237E+04 0.  0.
        2    1    3    3  502    0 -0.11200653295E+04  0.47395865736E+03  0.11769581984E+04  0.16924579026E+04  0.25500000920E-02 0. -1.
       -2    1    3    3    0  502  0.11200653295E+04 -0.47395865736E+03 -0.34422690387E+03  0.12639918167E+04  0.25500000920E-02 0.  1.
</event>
<event>
 5   0  0.5866136E-06  0.2704051E+04  0.7818609E-02  0.8333692E-01
       -2   -1    0    0    0  501  0.00000000000E+00  0.00000000000E+00  0.21405724466E+04  0.21405724466E+04  0.25500000920E-02 0. -1.
        2   -1    0    0  501    0  0.00000000000E+00  0.00000000000E+00 -0.85396431977E+03  0.85396431977E+03  0.25500000920E-02 0.  1.
    10030    2    1    2    0    0  0.00000000000E+00  0.00000000000E+00  0.12866081268E+04  0.29945367663E+04  0.27040506602E+04 0.  0.
        5    1    3    3  502    0  0.13095280703E+04  0.16236091273E+02  0.27132911064E+03  0.13374486733E+04  0.46999998093E+01 0. -1.
       -5    1    3    3    0  502 -0.13095280703E+04 -0.16236091273E+02  0.10152790162E+04  0.16570880930E+04  0.46999998093E+01 0.  1.
</event>
<event>
 5   0  0.5584205E-06  0.2797572E+04  0.7818609E-02  0.8304022E-01
        2   -1    0    0  501    0  0.00000000000E+00  0.00000000000E+00  0.14118781168E+04  0.14118781168E+04  0.25500000920E-02 0. -1.
       -2   -1    0    0    0  501  0.00000000000E+00  0.00000000000E+00 -0.13858156558E+04  0.13858156558E+04  0.25500000920E-02 0.  1.
    10030    2    1    2    0    0  0.00000000000E+00  0.00000000000E+00  0.26062460914E+02  0.27976937726E+04  0.27975723750E+04 0.  0.
        1    1    3    3  502    0  0.84818382158E+03 -0.17961674702E+03 -0.10847070819E+04  0.13886206914E+04  0.50400001928E-02 0.  1.
       -1    1    3    3    0  502 -0.84818382158E+03  0.17961674702E+03  0.11107695428E+04  0.14090730812E+04  0.50400001928E-02 0. -1.
</event>
<event>
 5   0  0.5546570E-06  0.2777640E+04  0.7818609E-02  0.8310244E-01
        2   -1    0    0  501    0  0.00000000000E+00  0.00000000000E+00  0.17749040834E+04  0.17749040834E+04  0.25500000920E-02 0.  1.
       -2   -1    0    0    0  501  0.00000000000E+00  0.00000000000E+00 -0.10867182838E+04  0.10867182838E+04  0.25500000920E-02 0. -1.
    10030    2    1    2    0    0  0.00000000000E+00  0.00000000000E+00  0.68818579966E+03  0.28616223672E+04  0.27776398034E+04 0.  0.
        4    1    3    3  502    0  0.70462918320E+03 -0.57116849303E+03 -0.73941062068E+03  0.11702416042E+04  0.12699999809E+01 0. -1.
       -4    1    3    3    0  502 -0.70462918320E+03  0.57116849303E+03  0.14275964203E+04  0.16913807630E+04  0.12699999809E+01 0.  1.
</event>
<event>
 5   0  0.5866136E-06  0.2787197E+04  0.7818609E-02  0.8307254E-01
       -2   -1    0    0    0  501  0.00000000000E+00  0.00000000000E+00  0.66008332832E+03  0.66008332833E+03  0.25500000920E-02 0. -1.
        2   -1    0    0  501    0  0.00000000000E+00  0.00000000000E+00 -0.29422297812E+04  0.29422297812E+04  0.25500000920E-02 0.  1.
    10030    2    1    2    0    0  0.00000000000E+00  0.00000000000E+00 -0.22821464528E+04  0.36023131095E+04  0.27871970340E+04 0.  0.
        5    1    3    3  502    0 -0.18474174547E+03 -0.10445348786E+04  0.27084416655E+02  0.10611023894E+04  0.46999998093E+01 0. -1.
       -5    1    3    3    0  502  0.18474174547E+03  0.10445348786E+04 -0.23092308695E+04  0.25412107201E+04  0.46999998093E+01 0.  1.
</event>
<event>
 5   0  0.5625245E-06  0.2811692E+04  0.7818609E-02  0.8299648E-01
        2   -1    0    0  501    0  0.00000000000E+00  0.00000000000E+00  0.28038484214E+04  0.28038484214E+04  0.25500000920E-02 0.  1.
       -2   -1    0    0    0  501  0.00000000000E+00  0.00000000000E+00 -0.70488947755E+03  0.70488947755E+03  0.25500000920E-02 0. -1.
    10030    2    1    2    0    0  0.00000000000E+00  0.00000000000E+00  0.20989589439E+04  0.35087378990E+04  0.28116921943E+04 0.  0.
        3    1    3    3  502    0 -0.13488360788E+04  0.32188435630E+03  0.13379462372E+04  0.19269323938E+04  0.10100000352E+00 0.  1.
       -3    1    3    3    0  502  0.13488360788E+04 -0.32188435630E+03  0.76101270669E+03  0.15818055052E+04  0.10100000352E+00 0. -1.
</event>
<event>
 5   0  0.2267565E-06  0.2796495E+04  0.7818609E-02  0.8304357E-01
        1   -1    0    0  501    0  0.00000000000E+00  0.00000000000E+00  0.14117830819E+04  0.14117830819E+04  0.50400001928E-02 0. -1.
       -1   -1    0    0    0  501  0.00000000000E+00  0.00000000000E+00 -0.13848416241E+04  0.13848416242E+04  0.50400001928E-02 0.  1.
    10030    2    1    2    0    0  0.00000000000E+00  0.00000000000E+00  0.26941457747E+02  0.27966247061E+04  0.27964949320E+04 0.  0.
        4    1    3    3  502    0 -0.19762132894E+03  0.13020255839E+04 -0.45641228101E+03  0.13937857059E+04  0.12699999809E+01 0.  1.
       -4    1    3    3    0  502  0.19762132894E+03 -0.13020255839E+04  0.48335373876E+03  0.14028390002E+04  0.12699999809E+01 0. -1.
</event>
<event>
 5   0  0.5866136E-06  0.2879224E+04  0.7818609E-02  0.8279086E-01
       -2   -1    0    0    0  501  0.00000000000E+00  0.00000000000E+00  0.14120536253E+04  0.14120536253E+04  0.25500000920E-02 0. -1.
        2   -1    0    0  501    0  0.00000000000E+00  0.00000000000E+00 -0.14677086110E+04  0.14677086110E+04  0.25500000920E-02 0.  1.
    10030    2    1    2    0    0  0.00000000000E+00  0.00000000000E+00 -0.55654985736E+02  0.28797622363E+04  0.28792243852E+04 0.  0.
        5    1    3    3  502    0 -0.17544050377E+03  0.22500781155E+03 -0.14391379594E+04  0.14671564477E+04  0.46999998093E+01 0.  1.
       -5    1    3    3    0  502  0.17544050377E+03 -0.22500781155E+03  0.13834829737E+04  0.14126057887E+04  0.46999998093E+01 0. -1.
</event>
<event>
 5   0  0.2206967E-06  0.2828779E+04  0.7818609E-02  0.8294389E-01
       -1   -1    0    0    0  501  0.00000000000E+00  0.00000000000E+00  0.10532424737E+04  0.10532424737E+04  0.50400001928E-02 0. -1.
        1   -1    0    0  501    0  0.00000000000E+00  0.00000000000E+00 -0.18993702882E+04  0.18993702883E+04  0.50400001928E-02 0.  1.
    10030    2    1    2    0    0  0.00000000000E+00  0.00000000000E+00 -0.84612781452E+03  0.29526127620E+04  0.28287788609E+04 0.  0.
        5    1    3    3  502    0  0.54056639497E+03 -0.10178063439E+04  0.43279051536E+03  0.12310448819E+04  0.46999998093E+01 0. -1.
       -5    1    3    3    0  502 -0.54056639497E+03  0.10178063439E+04 -0.12789183299E+04  0.17215678801E+04  0.46999998093E+01 0.  1.
</event>
<event>
 5   0  0.2206967E-06  0.2792685E+04  0.7818609E-02  0.8305543E-01
        1   -1    0    0  501    0  0.00000000000E+00  0.00000000000E+00  0.27778885165E+04  0.27778885165E+04  0.50400001928E-02 0.  1.
       -1   -1    0    0    0  501  0.00000000000E+00  0.00000000000E+00 -0.70189013860E+03  0.70189013862E+03  0.50400001928E-02 0. -1.
    10030    2    1    2    0    0  0.00000000000E+00  0.00000000000E+00  0.20759983779E+04  0.34797786552E+04  0.27926851279E+04 0.  0.
        5    1    3    3  502    0 -0.81640710395E+03  0.11302261011E+04  0.94294990224E+03  0.16831839493E+04  0.46999998093E+01 0.  1.
       -5    1    3    3    0  502  0.81640710395E+03 -0.11302261011E+04  0.11330484757E+04  0.17965947059E+04  0.46999998093E+01 0. -1.
</event>
<event>
 5   0  0.2206967E-06  0.2803757E+04  0.7818609E-02  0.8302103E-01
        1   -1    0    0  501    0  0.00000000000E+00  0.00000000000E+00  0.20365513919E+04  0.20365513919E+04  0.50400001928E-02 0.  1.
       -1   -1    0    0    0  501  0.00000000000E+00  0.00000000000E+00 -0.96499565830E+03  0.96499565831E+03  0.50400001928E-02 0. -1.
    10030    2    1    2    0    0  0.00000000000E+00  0.00000000000E+00  0.10715557336E+04  0.30015470502E+04  0.28037569446E+04 0.  0.
        5    1    3    3  502    0  0.96140130872E+03 -0.53137301602E+03 -0.39663605932E+03  0.11679006859E+04  0.46999998093E+01 0. -1.
       -5    1    3    3    0  502 -0.96140130872E+03  0.53137301602E+03  0.14681917929E+04  0.18336463643E+04  0.46999998093E+01 0.  1.
</event>
<event>
 5   0  0.2277133E-06  0.2797344E+04  0.7818609E-02  0.8304093E-01
        1   -1    0    0  501    0  0.00000000000E+00  0.00000000000E+00  0.23186897276E+04  0.23186897276E+04  0.50400001928E-02 0. -1.
       -1   -1    0    0    0  501  0.00000000000E+00  0.00000000000E+00 -0.84370193312E+03  0.84370193314E+03  0.50400001928E-02 0.  1.
    10030    2    1    2    0    0  0.00000000000E+00  0.00000000000E+00  0.14749877945E+04  0.31623916608E+04  0.27973437440E+04 0.  0.
        1    1    3    3  502    0 -0.20968160932E+02 -0.32286075914E+03 -0.80081625561E+03  0.86370446846E+03  0.50400001928E-02 0.  1.
       -1    1    3    3    0  502  0.20968160932E+02  0.32286075914E+03  0.22758040501E+04  0.22986871923E+04  0.50400001928E-02 0. -1.
</event>
<event>
 5   0  0.5625245E-06  0.2748648E+04  0.7818609E-02  0.8319391E-01
        2   -1    0    0  501    0  0.00000000000E+00  0.00000000000E+00  0.19211456839E+04  0.19211456839E+04  0.25500000920E-02 0. -1.
       -2   -1    0    0    0  501  0.00000000000E+00  0.00000000000E+00 -0.98314573746E+03  0.98314573746E+03  0.25500000920E-02 0.  1.
    10030    2    1    2    0    0  0.00000000000E+00  0.00000000000E+00  0.93799994644E+03  0.29042914214E+04  0.27486478059E+04 0.  0.
        3    1    3    3  502    0 -0.52637941355E+03  0.27430383114E+03 -0.84072489028E+03  0.10291434449E+04  0.10100000352E+00 0.  1.
       -3    1    3    3    0  502  0.52637941355E+03 -0.27430383114E+03  0.17787248367E+04  0.18751479765E+04  0.10100000352E+00 0. -1.
</event>
<event>
 5   0  0.1901375E-06  0.2835237E+04  0.7818609E-02  0.8292411E-01
       -4   -1    0    0    0  501  0.00000000000E+00  0.00000000000E+00  0.12995868470E+04  0.12995874675E+04  0.12699999809E+01 0. -1.
        4   -1    0    0  501    0  0.00000000000E+00  0.00000000000E+00 -0.15463690825E+04  0.15463696040E+04  0.12699999809E+01 0.  1.
    10030    2    1    2    0    0  0.00000000000E+00  0.00000000000E+00 -0.24678223547E+03  0.28459570715E+04  0.28352372354E+04 0.  0.
        1    1    3    3  502    0  0.19889377898E+03 -0.50231145826E+02  0.12846100153E+04  0.13008861575E+04  0.50400001928E-02 0. -1.
       -1    1    3    3    0  502 -0.19889377898E+03  0.50231145826E+02 -0.15313922508E+04  0.15450709140E+04  0.50400001928E-02 0.  1.
</event>
<event>
 5   0  0.2267565E-06  0.2796641E+04  0.7818609E-02  0.8304312E-01
       -1   -1    0    0    0  501  0.00000000000E+00  0.00000000000E+00  0.86166615899E+03  0.86166615900E+03  0.50400001928E-02 0.  1.
        1   -1    0    0  501    0  0.00000000000E+00  0.00000000000E+00 -0.22692088619E+04  0.22692088619E+04  0.50400001928E-02 0. -1.
    10030    2    1    2    0    0  0.00000000000E+00  0.00000000000E+00 -0.14075427029E+04  0.31308750209E+04  0.27966411883E+04 0.  0.
        4    1    3    3  502    0 -0.13646094265E+04  0.30452294426E+03 -0.68122044776E+03  0.15552993351E+04  0.12699999809E+01 0. -1.
       -4    1    3    3    0  502  0.13646094265E+04 -0.30452294426E+03 -0.72632225517E+03  0.15755756858E+04  0.12699999809E+01 0.  1.
</event>
<event>
 5   0  0.5546570E-06  0.2921489E+04  0.7818609E-02  0.8266512E-01
        2   -1    0    0  501    0  0.00000000000E+00  0.00000000000E+00  0.18877289528E+04  0.18877289528E+04  0.25500000920E-02 0.  1.
       -2   -1    0    0    0  501  0.00000000000E+00  0.00000000000E+00 -0.11303393841E+04  0.11303393841E+04  0.25500000920E-02 0. -1.
    10030    2    1    2    0    0  0.00000000000E+00  0.00000000000E+00  0.75738956866E+03  0.30180683368E+04  0.29214889230E+04 0.  0.
        4    1    3    3  502    0  0.10804439384E+03 -0.68710200429E+03 -0.94828859393E+03  0.11760253508E+04  0.12699999809E+01 0. -1.
       -4    1    3    3    0  502 -0.10804439384E+03  0.68710200429E+03  0.17056781626E+04  0.18420429861E+04  0.12699999809E+01 0.  1.
</event>
<event>
 5   0  0.5916603E-06  0.2858325E+04  0.7818609E-02  0.8285386E-01
       -2   -1    0    0    0  501  0.00000000000E+00  0.00000000000E+00  0.69531623262E+03  0.69531623262E+03  0.25500000920E-02 0. -1.
        2   -1    0    0  501    0  0.00000000000E+00  0.00000000000E+00 -0.29375196082E+04  0.29375196082E+04  0.25500000920E-02 0.  1.
    10030    2    1    2    0    0  0.00000000000E+00  0.00000000000E+00 -0.22422033756E+04  0.36328358408E+04  0.28583247312E+04 0.  0.
        2    1    3    3  502    0 -0.86647820988E+03 -0.79230004229E+03 -0.21567495314E+04  0.24556246428E+04  0.25500000920E-02 0.  1.
       -2    1    3    3    0  502  0.86647820988E+03  0.79230004229E+03 -0.85453844175E+02  0.11772111980E+04  0.25500000920E-02 0. -1.
</event>
<event>
 5   0  0.2277133E-06  0.2795767E+04  0.7818609E-02  0.8304584E-01
        1   -1    0    0  501    0  0.00000000000E+00  0.00000000000E+00  0.14671911723E+04  0.14671911724E+04  0.50400001928E-02 0.  1.
       -1   -1    0    0    0  501  0.00000000000E+00  0.00000000000E+00 -0.13318496654E+04  0.13318496654E+04  0.50400001928E-02 0. -1.
    10030    2    1    2    0    0  0.00000000000E+00  0.00000000000E+00  0.13534150698E+03  0.27990408377E+04  0.27957668515E+04 0.  0.
        1    1    3    3  502    0 -0.70681818820E+03 -0.70476105312E+03  0.10474883657E+04  0.14468973597E+04  0.50400001928E-02 0.  1.
       -1    1    3    3    0  502  0.70681818820E+03  0.70476105312E+03 -0.91214685877E+03  0.13521434780E+04  0.50400001928E-02 0. -1.
</event>
<event>
 5   0  0.5866136E-06  0.2852275E+04  0.7818609E-02  0.8287220E-01
       -2   -1    0    0    0  501  0.00000000000E+00  0.00000000000E+00  0.10368726756E+04  0.10368726756E+04  0.25500000920E-02 0.  1.
        2   -1    0    0  501    0  0.00000000000E+00  0.00000000000E+00 -0.19615414574E+04  0.19615414575E+04  0.25500000920E-02 0. -1.
    10030    2    1    2    0    0  0.00000000000E+00  0.00000000000E+00 -0.92466878188E+03  0.29984141330E+04  0.28522753999E+04 0.  0.
        5    1    3    3  502    0  0.14255099449E+04 -0.30237786928E+02 -0.43161882609E+03  0.14897348180E+04  0.46999998093E+01 0.  1.
       -5    1    3    3    0  502 -0.14255099449E+04  0.30237786928E+02 -0.49304995579E+03  0.15086793151E+04  0.46999998093E+01 0. -1.
</event>
<event>
 5   0  0.2234068E-06  0.2772048E+04  0.7818609E-02  0.8311999E-01
       -1   -1    0    0    0  501  0.00000000000E+00  0.00000000000E+00  0.13402280774E+04  0.13402280774E+04  0.50400001928E-02 0. -1.
        1   -1    0    0  501    0  0.00000000000E+00  0.00000000000E+00 -0.14333847387E+04  0.14333847387E+04  0.50400001928E-02 0.  1.
    10030    2    1    2    0    0  0.00000000000E+00  0.00000000000E+00 -0.93156661254E+02  0.27736128161E+04  0.27720479596E+04 0.  0.
        3    1    3    3  502    0  0.57447334680E+03  0.12597995185E+04 -0.10944698763E+03  0.13889179624E+04  0.10100000352E+00 0. -1.
       -3    1    3    3    0  502 -0.57447334680E+03 -0.12597995185E+04  0.16290326374E+02  0.13846948537E+04  0.10100000352E+00 0.  1.
</event>
<event>
 5   0  0.5546570E-06  0.2785469E+04  0.7818609E-02  0.8307794E-01
       -2   -1    0    0    0  501  0.00000000000E+00  0.00000000000E+00  0.75571242600E+03  0.75571242601E+03  0.25500000920E-02 0.  1.
        2   -1    0    0  501    0  0.00000000000E+00  0.00000000000E+00 -0.25667300639E+04  0.25667300639E+04  0.25500000920E-02 0. -1.
    10030    2    1    2    0    0  0.00000000000E+00  0.00000000000E+00 -0.18110176379E+04  0.33224424899E+04  0.27854692987E+04 0.  0.
        4    1    3    3  502    0 -0.10406106674E+04 -0.91746694699E+03 -0.75897666445E+03  0.15813485859E+04  0.12699999809E+01 0.  1.
       -4    1    3    3    0  502  0.10406106674E+04  0.91746694699E+03 -0.10520409735E+04  0.17410939041E+04  0.12699999809E+01 0. -1.
</event>
<event>
 5   0  0.1901375E-06  0.2812560E+04  0.7818609E-02  0.8299379E-01
       -4   -1    0    0    0  501  0.00000000000E+00  0.00000000000E+00  0.10156195185E+04  0.10156203125E+04  0.12699999809E+01 0. -1.
        4   -1    0    0  501    0  0.00000000000E+00  0.00000000000E+00 -0.19472075399E+04  0.19472079541E+04  0.12699999809E+01 0.  1.
    10030    2    1    2    0    0  0.00000000000E+00  0.00000000000E+00 -0.93158802140E+03  0.29628282666E+04  0.28125602386E+04 0.  0.
        1    1    3    3  502    0 -0.71394791243E+02  0.17278362093E+03 -0.19340589525E+04  0.19430737062E+04  0.50400001928E-02 0.  1.
       -1    1    3    3    0  502  0.71394791243E+02 -0.17278362093E+03  0.10024709311E+04  0.10197545605E+04  0.50400001928E-02 0. -1.
</event>
<event>
 5   0  0.2234068E-06  0.2554046E+04  0.7818609E-02  0.8383980E-01
       -1   -1    0    0    0  501  0.00000000000E+00  0.00000000000E+00  0.97641708312E+03  0.97641708313E+03  0.50400001928E-02 0.  1.
        1   -1    0    0  501    0  0.00000000000E+00  0.00000000000E+00 -0.16701755638E+04  0.16701755638E+04  0.50400001928E-02 0. -1.
    10030    2    1    2    0    0  0.00000000000E+00  0.00000000000E+00 -0.69375848070E+03  0.26465926470E+04  0.25540461643E+04 0.  0.
        3    1    3    3  502    0  0.61640951240E+03  0.35459797640E+03  0.75225696668E+03  0.10351767801E+04  0.10100000352E+00 0.  1.
       -3    1    3    3    0  502 -0.61640951240E+03 -0.35459797640E+03 -0.14460154474E+04  0.16114158669E+04  0.10100000352E+00 0. -1.
</event>
<event>
 5   0  0.2277133E-06  0.2792696E+04  0.7818609E-02  0.8305539E-01
        1   -1    0    0  501    0  0.00000000000E+00  0.00000000000E+00  0.16381744451E+04  0.16381744451E+04  0.50400001928E-02 0.  1.
       -1   -1    0    0    0  501  0.00000000000E+00  0.00000000000E+00 -0.11902202728E+04  0.11902202728E+04  0.50400001928E-02 0. -1.
    10030    2    1    2    0    0  0.00000000000E+00  0.00000000000E+00  0.44795417225E+03  0.28283947179E+04  0.27926964998E+04 0.  0.
        1    1    3    3  502    0 -0.69176040628E+03  0.12069163272E+04  0.34638960714E+03  0.14335847518E+04  0.50400001928E-02 0. -1.
       -1    1    3    3    0  502  0.69176040628E+03 -0.12069163272E+04  0.10156456511E+03  0.13948099661E+04  0.50400001928E-02 0.  1.
</event>
<event>
 5   0  0.2234068E-06  0.2803485E+04  0.7818609E-02  0.8302187E-01
       -1   -1    0    0    0  501  0.00000000000E+00  0.00000000000E+00  0.11727864227E+04  0.11727864227E+04  0.50400001928E-02 0. -1.
        1   -1    0    0  501    0  0.00000000000E+00  0.00000000000E+00 -0.16753963002E+04  0.16753963002E+04  0.50400001928E-02 0.  1.
    10030    2    1    2    0    0  0.00000000000E+00  0.00000000000E+00 -0.50260987747E+03  0.28481827230E+04  0.28034849981E+04 0.  0.
        3    1    3    3  502    0  0.44881362470E+03  0.36892527574E+03 -0.15473171509E+04  0.16527945742E+04  0.10100000352E+00 0.  1.
       -3    1    3    3    0  502 -0.44881362470E+03 -0.36892527574E+03  0.10447072734E+04  0.11953881488E+04  0.10100000352E+00 0. -1.
</event>
<event>
 5   0  0.5546570E-06  0.2800136E+04  0.7818609E-02  0.8303226E-01
       -2   -1    0    0    0  501  0.00000000000E+00  0.00000000000E+00  0.10830659163E+04  0.10830659163E+04  0.25500000920E-02 0.  1.
        2   -1    0    0  501    0  0.00000000000E+00  0.00000000000E+00 -0.18098538987E+04  0.18098538987E+04  0.25500000920E-02 0. -1.
    10030    2    1    2    0    0  0.00000000000E+00  0.00000000000E+00 -0.72678798239E+03  0.28929198150E+04  0.28001364761E+04 0.  0.
        4    1    3    3  502    0  0.45957843840E+02  0.13600329105E+04 -0.70352594399E+03  0.15319112271E+04  0.12699999809E+01 0.  1.
       -4    1    3    3    0  502 -0.45957843840E+02 -0.13600329105E+04 -0.23262038400E+02  0.13610085879E+04  0.12699999809E+01 0. -1.
</event>
<event>
 5   0  0.5584205E-06  0.2794465E+04  0.7818609E-02  0.8304989E-01
        2   -1    0    0  501    0  0.00000000000E+00  0.00000000000E+00  0.26431554350E+04  0.26431554350E+04  0.25500000920E-02 0.  1.
       -2   -1    0    0    0  501  0.00000000000E+00  0.00000000000E+00 -0.73860933156E+03  0.73860933157E+03  0.25500000920E-02 0. -1.
    10030    2    1    2    0    0  0.00000000000E+00  0.00000000000E+00  0.19045461034E+04  0.33817647665E+04  0.27944654366E+04 0.  0.
        1    1    3    3  502    0 -0.50000327933E+03 -0.82017121944E+02 -0.62351312728E+03  0.80342934198E+03  0.50400001928E-02 0. -1.
       -1    1    3    3    0  502  0.50000327933E+03  0.82017121944E+02  0.25280592307E+04  0.25783354245E+04  0.50400001928E-02 0.  1.
</event>
<event>
 5   0  0.1901375E-06  0.2799795E+04  0.7818609E-02  0.8303332E-01
        4   -1    0    0  501    0  0.00000000000E+00  0.00000000000E+00  0.12713421983E+04  0.12713428326E+04  0.12699999809E+01 0. -1.
       -4   -1    0    0    0  501  0.00000000000E+00  0.00000000000E+00 -0.15414502898E+04  0.15414508130E+04  0.12699999809E+01 0.  1.
    10030    2    1    2    0    0  0.00000000000E+00  0.00000000000E+00 -0.27010809156E+03  0.28127936456E+04  0.27997945838E+04 0.  0.
        3    1    3    3  502    0 -0.13751841730E+03  0.81464220929E+03  0.10003075942E+04  0.12973698537E+04  0.10100000352E+00 0. -1.
       -3    1    3    3    0  502  0.13751841730E+03 -0.81464220929E+03 -0.12704156857E+04  0.15154237919E+04  0.10100000352E+00 0.  1.
</event>
<event>
 5   0  0.2190865E-06  0.2765400E+04  0.7818609E-02  0.8314092E-01
        1   -1    0    0  501    0  0.00000000000E+00  0.00000000000E+00  0.13050932405E+04  0.13050932405E+04  0.50400001928E-02 0. -1.
       -1   -1    0    0    0  501  0.00000000000E+00  0.00000000000E+00 -0.14649211546E+04  0.14649211546E+04  0.50400001928E-02 0.  1.
    10030    2    1    2    0    0  0.00000000000E+00  0.00000000000E+00 -0.15982791412E+03  0.27700143951E+04  0.27653995709E+04 0.  0.
        2    1    3    3  502    0  0.99374368308E+03  0.48888984390E+03 -0.90913533971E+03  0.14328526976E+04  0.25500000920E-02 0.  1.
       -2    1    3    3    0  502 -0.99374368308E+03 -0.48888984390E+03  0.74930742559E+03  0.13371616975E+04  0.25500000920E-02 0. -1.
</event>
<event>
 5   0  0.1901375E-06  0.2804590E+04  0.7818609E-02  0.8301845E-01
       -3   -1    0    0    0  501  0.00000000000E+00  0.00000000000E+00  0.27021086257E+04  0.27021086276E+04  0.10100000352E+00 0.  1.
        3   -1    0    0  501    0  0.00000000000E+00  0.00000000000E+00 -0.72773971225E+03  0.72773971926E+03  0.10100000352E+00 0. -1.
    10030    2    1    2    0    0  0.00000000000E+00  0.00000000000E+00  0.19743689135E+04  0.34298483469E+04  0.28045903580E+04 0.  0.
        3    1    3    3  502    0  0.68136973453E+03  0.75806437794E+03 -0.19059429395E+03  0.10369438323E+04  0.10100000352E+00 0. -1.
       -3    1    3    3    0  502 -0.68136973453E+03 -0.75806437794E+03  0.21649632074E+04  0.23929045146E+04  0.10100000352E+00 0.  1.
</event>
<event>
 5   0  0.5546570E-06  0.2800041E+04  0.7818609E-02  0.8303256E-01
        2   -1    0    0  501    0  0.00000000000E+00  0.00000000000E+00  0.18614299590E+04  0.18614299590E+04  0.25500000920E-02 0. -1.
       -2   -1    0    0    0  501  0.00000000000E+00  0.00000000000E+00 -0.10529844037E+04  0.10529844037E+04  0.25500000920E-02 0.  1.
    10030    2    1    2    0    0  0.00000000000E+00  0.00000000000E+00  0.80844555533E+03  0.29144143628E+04  0.28000405108E+04 0.  0.
        4    1    3    3  502    0 -0.12579215522E+04  0.96545097240E+02  0.10359471698E+04  0.16324447123E+04  0.12699999809E+01 0. -1.
       -4    1    3    3    0  502  0.12579215522E+04 -0.96545097240E+02 -0.22750161446E+03  0.12819696505E+04  0.12699999809E+01 0.  1.
</event>
<event>
 5   0  0.2234068E-06  0.2780379E+04  0.7818609E-02  0.8309386E-01
        1   -1    0    0  501    0  0.00000000000E+00  0.00000000000E+00  0.93919326001E+03  0.93919326002E+03  0.50400001928E-02 0. -1.
       -1   -1    0    0    0  501  0.00000000000E+00  0.00000000000E+00 -0.20577526199E+04  0.20577526199E+04  0.50400001928E-02 0.  1.
    10030    2    1    2    0    0  0.00000000000E+00  0.00000000000E+00 -0.11185593599E+04  0.29969458799E+04  0.27803793924E+04 0.  0.
        3    1    3    3  502    0 -0.61813730555E+03 -0.36833200787E+03  0.72285122723E+03  0.10199392646E+04  0.10100000352E+00 0. -1.
       -3    1    3    3    0  502  0.61813730555E+03  0.36833200787E+03 -0.18414105871E+04  0.19770066154E+04  0.10100000352E+00 0.  1.
</event>
<event>
 5   0  0.5546570E-06  0.2802758E+04  0.7818609E-02  0.8302413E-01
       -2   -1    0    0    0  501  0.00000000000E+00  0.00000000000E+00  0.11958897895E+04  0.11958897896E+04  0.25500000920E-02 0.  1.
        2   -1    0    0  501    0  0.00000000000E+00  0.00000000000E+00 -0.16421775595E+04  0.16421775595E+04  0.25500000920E-02 0. -1.
    10030    2    1    2    0    0  0.00000000000E+00  0.00000000000E+00 -0.44628776993E+03  0.28380673490E+04  0.28027581958E+04 0.  0.
        4    1    3    3  502    0  0.44981818421E+03  0.58624813816E+03 -0.14288749385E+04  0.16086355961E+04  0.12699999809E+01 0. -1.
       -4    1    3    3    0  502 -0.44981818421E+03 -0.58624813816E+03  0.98258716856E+03  0.12294317529E+04  0.12699999809E+01 0.  1.
</event>
<event>
 5   0  0.2234068E-06  0.2812666E+04  0.7818609E-02  0.8299347E-01
       -1   -1    0    0    0  501  0.00000000000E+00  0.00000000000E+00  0.11608748461E+04  0.11608748461E+04  0.50400001928E-02 0. -1.
        1   -1    0    0  501    0  0.00000000000E+00  0.00000000000E+00 -0.17036916810E+04  0.17036916810E+04  0.50400001928E-02 0.  1.
    10030    2    1    2    0    0  0.00000000000E+00  0.00000000000E+00 -0.54281683489E+03  0.28645665271E+04  0.28126662212E+04 0.  0.
        3    1    3    3  502    0 -0.81882879401E+03 -0.57657152484E+03 -0.12769760410E+04  0.16228318263E+04  0.10100000352E+00 0. -1.
       -3    1    3    3    0  502  0.81882879401E+03  0.57657152484E+03  0.73415920607E+03  0.12417347008E+04  0.10100000352E+00 0.  1.
</event>
<event>
 5   0  0.2234068E-06  0.2824580E+04  0.7818609E-02  0.8295678E-01
        1   -1    0    0  501    0  0.00000000000E+00  0.00000000000E+00  0.17146724732E+04  0.17146724732E+04  0.50400001928E-02 0. -1.
       -1   -1    0    0    0  501  0.00000000000E+00  0.00000000000E+00 -0.11632329554E+04  0.11632329555E+04  0.50400001928E-02 0.  1.
    10030    2    1    2    0    0  0.00000000000E+00  0.00000000000E+00  0.55143951772E+03  0.28779054286E+04  0.28245803431E+04 0.  0.
        3    1    3    3  502    0  0.49935798727E+03  0.10210558212E+04  0.11297871708E+04  0.16026017755E+04  0.10100000352E+00 0. -1.
       -3    1    3    3    0  502 -0.49935798727E+03 -0.10210558212E+04 -0.57834765307E+03  0.12753036531E+04  0.10100000352E+00 0.  1.
</event>
<event>
 5   0  0.5546570E-06  0.2802035E+04  0.7818609E-02  0.8302637E-01
        2   -1    0    0  501    0  0.00000000000E+00  0.00000000000E+00  0.12371740895E+04  0.12371740895E+04  0.25500000920E-02 0. -1.
       -2   -1    0    0    0  501  0.00000000000E+00  0.00000000000E+00 -0.15865593671E+04  0.15865593671E+04  0.25500000920E-02 0.  1.
    10030    2    1    2    0    0  0.00000000000E+00  0.00000000000E+00 -0.34938527761E+03  0.28237334566E+04  0.28020350751E+04 0.  0.
        4    1    3    3  502    0 -0.99328899405E+03  0.70556465267E+02 -0.11678430838E+04  0.15347508990E+04  0.12699999809E+01 0.  1.
       -4    1    3    3    0  502  0.99328899405E+03 -0.70556465267E+02  0.81845780622E+03  0.12889825577E+04  0.12699999809E+01 0. -1.
</event>
<event>
 5   0  0.5584205E-06  0.2812069E+04  0.7818609E-02  0.8299531E-01
       -2   -1    0    0    0  501  0.00000000000E+00  0.00000000000E+00  0.81432966927E+03  0.81432966927E+03  0.25500000920E-02 0. -1.
        2   -1    0    0  501    0  0.00000000000E+00  0.00000000000E+00 -0.24276807343E+04  0.24276807343E+04  0.25500000920E-02 0.  1.
    10030    2    1    2    0    0  0.00000000000E+00  0.00000000000E+00 -0.16133510650E+04  0.32420104036E+04  0.28120685976E+04 0.  0.
        1    1    3    3  502    0 -0.67080129360E+03 -0.96240988839E+03 -0.17002411465E+04  0.20656783692E+04  0.50400001928E-02 0.  1.
       -1    1    3    3    0  502  0.67080129360E+03  0.96240988839E+03  0.86890081474E+02  0.11763320344E+04  0.50400001928E-02 0. -1.
</event>
<event>
 5   0  0.5546570E-06  0.2802382E+04  0.7818609E-02  0.8302529E-01
       -2   -1    0    0    0  501  0.00000000000E+00  0.00000000000E+00  0.17542802188E+04  0.17542802188E+04  0.25500000920E-02 0.  1.
        2   -1    0    0  501    0  0.00000000000E+00  0.00000000000E+00 -0.11191687466E+04  0.11191687466E+04  0.25500000920E-02 0. -1.
    10030    2    1    2    0    0  0.00000000000E+00  0.00000000000E+00  0.63511147226E+03  0.28734489654E+04  0.28023815540E+04 0.  0.
        4    1    3    3  502    0 -0.94602021304E+03  0.92970889700E+03  0.78069731217E+03  0.15390915446E+04  0.12699999809E+01 0.  1.
       -4    1    3    3    0  502  0.94602021304E+03 -0.92970889700E+03 -0.14558583991E+03  0.13343574208E+04  0.12699999809E+01 0. -1.
</event>
<event>
 5   0  0.5546570E-06  0.2777374E+04  0.7818609E-02  0.8310327E-01
       -2   -1    0    0    0  501  0.00000000000E+00  0.00000000000E+00  0.10313188792E+04  0.10313188792E+04  0.25500000920E-02 0.  1.
        2   -1    0    0  501    0  0.00000000000E+00  0.00000000000E+00 -0.18698888214E+04  0.18698888214E+04  0.25500000920E-02 0. -1.
    10030    2    1    2    0    0  0.00000000000E+00  0.00000000000E+00 -0.83856994224E+03  0.29012077006E+04  0.27773740429E+04 0.  0.
        4    1    3    3  502    0  0.11275849292E+04 -0.79292390084E+03 -0.59493072567E+03  0.15013727939E+04  0.12699999809E+01 0.  1.
       -4    1    3    3    0  502 -0.11275849292E+04  0.79292390084E+03 -0.24363921657E+03  0.13998349067E+04  0.12699999809E+01 0. -1.
</event>
<event>
 5   0  0.2277133E-06  0.2811813E+04  0.7818609E-02  0.8299610E-01
        1   -1    0    0  501    0  0.00000000000E+00  0.00000000000E+00  0.19364071379E+04  0.19364071379E+04  0.50400001928E-02 0. -1.
       -1   -1    0    0    0  501  0.00000000000E+00  0.00000000000E+00 -0.10207426528E+04  0.10207426528E+04  0.50400001928E-02 0.  1.
    10030    2    1    2    0    0  0.00000000000E+00  0.00000000000E+00  0.91566448516E+03  0.29571497907E+04  0.28118131936E+04 0.  0.
        1    1    3    3  502    0  0.12521050149E+04  0.37508678558E+03 -0.86731174826E+02  0.13099539541E+04  0.50400001928E-02 0.  1.
       -1    1    3    3    0  502 -0.12521050149E+04 -0.37508678558E+03  0.10023956600E+04  0.16471958366E+04  0.50400001928E-02 0. -1.
</event>
<event>
 5   0  0.2234068E-06  0.2790476E+04  0.7818609E-02  0.8306231E-01
        1   -1    0    0  501    0  0.00000000000E+00  0.00000000000E+00  0.20853366397E+04  0.20853366397E+04  0.50400001928E-02 0. -1.
       -1   -1    0    0    0  501  0.00000000000E+00  0.00000000000E+00 -0.93351290876E+03  0.93351290877E+03  0.50400001928E-02 0.  1.
    10030    2    1    2    0    0  0.00000000000E+00  0.00000000000E+00  0.11518237310E+04  0.30188495485E+04  0.27904757102E+04 0.  0.
        3    1    3    3  502    0  0.11527234945E+04  0.12301566325E+03  0.14158440221E+04  0.18298957930E+04  0.10100000352E+00 0. -1.
       -3    1    3    3    0  502 -0.11527234945E+04 -0.12301566325E+03 -0.26402029116E+03  0.11889537554E+04  0.10100000352E+00 0.  1.
</event>
<event>
 5   0  0.5916603E-06  0.2802887E+04  0.7818609E-02  0.8302373E-01
        2   -1    0    0  501    0  0.00000000000E+00  0.00000000000E+00  0.12508990300E+04  0.12508990300E+04  0.25500000920E-02 0.  1.
       -2   -1    0    0    0  501  0.00000000000E+00  0.00000000000E+00 -0.15701056426E+04  0.15701056426E+04  0.25500000920E-02 0. -1.
    10030    2    1    2    0    0  0.00000000000E+00  0.00000000000E+00 -0.31920661254E+03  0.28210046726E+04  0.28028868156E+04 0.  0.
        2    1    3    3  502    0  0.33115412556E+03  0.66640642918E+03 -0.13548330346E+04  0.15457467889E+04  0.25500000920E-02 0. -1.
       -2    1    3    3    0  502 -0.33115412556E+03 -0.66640642918E+03  0.10356264221E+04  0.12752578837E+04  0.25500000920E-02 0.  1.
</event>
<event>
 5   0  0.2190865E-06  0.2733107E+04  0.7818609E-02  0.8324342E-01
        1   -1    0    0  501    0  0.00000000000E+00  0.00000000000E+00  0.16436302562E+04  0.16436302562E+04  0.50400001928E-02 0.  1.
       -1   -1    0    0    0  501  0.00000000000E+00  0.00000000000E+00 -0.11361853968E+04  0.11361853968E+04  0.50400001928E-02 0. -1.
    10030    2    1    2    0    0  0.00000000000E+00  0.00000000000E+00  0.50744485945E+03  0.27798156530E+04  0.27331071658E+04 0.  0.
        2    1    3    3  502    0  0.11731828079E+04  0.10332431209E+03 -0.45125725242E+03  0.12612164454E+04  0.25500000920E-02 0. -1.
       -2    1    3    3    0  502 -0.11731828079E+04 -0.10332431209E+03  0.95870211187E+03  0.15185992077E+04  0.25500000920E-02 0.  1.
</event>
<event>
 5   0  0.2267565E-06  0.2711669E+04  0.7818609E-02  0.8331229E-01
        1   -1    0    0  501    0  0.00000000000E+00  0.00000000000E+00  0.16035693018E+04  0.16035693018E+04  0.50400001928E-02 0. -1.
       -1   -1    0    0    0  501  0.00000000000E+00  0.00000000000E+00 -0.11463722382E+04  0.11463722382E+04  0.50400001928E-02 0.  1.
    10030    2    1    2    0    0  0.00000000000E+00  0.00000000000E+00  0.45719706365E+03  0.27499415401E+04  0.27116691020E+04 0.  0.
        4    1    3    3  502    0  0.75726099174E+03  0.10137327852E+04 -0.26529407807E+03  0.12928576605E+04  0.12699999809E+01 0.  1.
       -4    1    3    3    0  502 -0.75726099174E+03 -0.10137327852E+04  0.72249114171E+03  0.14570838796E+04  0.12699999809E+01 0. -1.
</event>
<event>
 5   0  0.2267565E-06  0.2791694E+04  0.7818609E-02  0.8305852E-01
       -1   -1    0    0    0  501  0.00000000000E+00  0.00000000000E+00  0.12039109008E+04  0.12039109008E+04  0.50400001928E-02 0. -1.
        1   -1    0    0  501    0  0.00000000000E+00  0.00000000000E+00 -0.16183823691E+04  0.16183823691E+04  0.50400001928E-02 0.  1.
    10030    2    1    2    0    0  0.00000000000E+00  0.00000000000E+00 -0.41447146830E+03  0.28222932699E+04  0.27916935188E+04 0.  0.
        4    1    3    3  502    0 -0.44720765716E+02  0.18088501353E+02  0.12030673329E+04  0.12040347840E+04  0.12699999809E+01 0. -1.
       -4    1    3    3    0  502  0.44720765716E+02 -0.18088501353E+02 -0.16175388012E+04  0.16182584858E+04  0.12699999809E+01 0.  1.
</event>
<event>
 5   0  0.5916603E-06  0.2825172E+04  0.7818609E-02  0.8295496E-01
        2   -1    0    0  501    0  0.00000000000E+00  0.00000000000E+00  0.17648037620E+04  0.17648037620E+04  0.25500000920E-02 0. -1.
       -2   -1    0    0    0  501  0.00000000000E+00  0.00000000000E+00 -0.11306635787E+04  0.11306635787E+04  0.25500000920E-02 0.  1.
    10030    2    1    2    0    0  0.00000000000E+00  0.00000000000E+00  0.63414018326E+03  0.28954673407E+04  0.28251720920E+04 0.  0.
        2    1    3    3  502    0  0.72456818303E+03 -0.91266709444E+03 -0.50119325776E+03  0.12685247174E+04  0.25500000920E-02 0. -1.
       -2    1    3    3    0  502 -0.72456818303E+03  0.91266709444E+03  0.11353334410E+04  0.16269426233E+04  0.25500000920E-02 0.  1.
</event>
<event>
 5   0  0.2277133E-06  0.2888553E+04  0.7818609E-02  0.8276291E-01
        1   -1    0    0  501    0  0.00000000000E+00  0.00000000000E+00  0.16339604366E+04  0.16339604366E+04  0.50400001928E-02 0.  1.
       -1   -1    0    0    0  501  0.00000000000E+00  0.00000000000E+00 -0.12766128746E+04  0.12766128746E+04  0.50400001928E-02 0. -1.
    10030    2    1    2    0    0  0.00000000000E+00  0.00000000000E+00  0.35734756195E+03  0.29105733112E+04  0.28885532226E+04 0.  0.
        1    1    3    3  502    0 -0.14388882544E+04 -0.72398241210E+02  0.76440903262E+02  0.14427349465E+04  0.50400001928E-02 0. -1.
       -1    1    3    3    0  502  0.14388882544E+04  0.72398241210E+02  0.28090665869E+03  0.14678383647E+04  0.50400001928E-02 0.  1.
</event>
<event>
 5   0  0.5916603E-06  0.2778725E+04  0.7818609E-02  0.8309904E-01
       -2   -1    0    0    0  501  0.00000000000E+00  0.00000000000E+00  0.13809541481E+04  0.13809541481E+04  0.25500000920E-02 0.  1.
        2   -1    0    0  501    0  0.00000000000E+00  0.00000000000E+00 -0.13978217942E+04  0.13978217942E+04  0.25500000920E-02 0. -1.
    10030    2    1    2    0    0  0.00000000000E+00  0.00000000000E+00 -0.16867646147E+02  0.27787759423E+04  0.27787247470E+04 0.  0.
        2    1    3    3  502    0  0.13490983176E+04  0.27964583568E+03  0.17062181758E+03  0.13883010727E+04  0.25500000920E-02 0. -1.
       -2    1    3    3    0  502 -0.13490983176E+04 -0.27964583568E+03 -0.18748946373E+03  0.13904748696E+04  0.25500000920E-02 0.  1.
</event>
<event>
 5   0  0.5916603E-06  0.2801309E+04  0.7818609E-02  0.8302862E-01
       -2   -1    0    0    0  501  0.00000000000E+00  0.00000000000E+00  0.11634325832E+04  0.11634325832E+04  0.25500000920E-02 0. -1.
        2   -1    0    0  501    0  0.00000000000E+00  0.00000000000E+00 -0.16862458882E+04  0.16862458882E+04  0.25500000920E-02 0.  1.
    10030    2    1    2    0    0  0.00000000000E+00  0.00000000000E+00 -0.52281330496E+03  0.28496784714E+04  0.28013092722E+04 0.  0.
        2    1    3    3  502    0  0.84705482747E+03  0.82351952864E+03  0.50401272355E+03  0.12844123638E+04  0.25500000920E-02 0. -1.
       -2    1    3    3    0  502 -0.84705482747E+03 -0.82351952864E+03 -0.10268260285E+04  0.15652661076E+04  0.25500000920E-02 0.  1.
</event>
<event>
 5   0  0.5916603E-06  0.2794672E+04  0.7818609E-02  0.8304924E-01
        2   -1    0    0  501    0  0.00000000000E+00  0.00000000000E+00  0.20895951747E+04  0.20895951747E+04  0.25500000920E-02 0.  1.
       -2   -1    0    0    0  501  0.00000000000E+00  0.00000000000E+00 -0.93441437028E+03  0.93441437029E+03  0.25500000920E-02 0. -1.
    10030    2    1    2    0    0  0.00000000000E+00  0.00000000000E+00  0.11551808044E+04  0.30240095450E+04  0.27946719015E+04 0.  0.
        2    1    3    3  502    0  0.62487769909E+03 -0.64952976511E+03  0.17330115587E+04  0.19533791535E+04  0.25500000920E-02 0.  1.
       -2    1    3    3    0  502 -0.62487769909E+03  0.64952976511E+03 -0.57783075430E+03  0.10706303915E+04  0.25500000920E-02 0. -1.
</event>
<event>
 5   0  0.5584205E-06  0.2842218E+04  0.7818609E-02  0.8290280E-01
       -2   -1    0    0    0  501  0.00000000000E+00  0.00000000000E+00  0.82783096280E+03  0.82783096280E+03  0.25500000920E-02 0.  1.
        2   -1    0    0  501    0  0.00000000000E+00  0.00000000000E+00 -0.24395688540E+04  0.24395688540E+04  0.25500000920E-02 0. -1.
    10030    2    1    2    0    0  0.00000000000E+00  0.00000000000E+00 -0.16117378912E+04  0.32673998168E+04  0.28422178898E+04 0.  0.
        1    1    3    3  502    0  0.58169258295E+03 -0.74921240805E+03 -0.20224128151E+04  0.22337947730E+04  0.50400001928E-02 0. -1.
       -1    1    3    3    0  502 -0.58169258295E+03  0.74921240805E+03  0.41067492385E+03  0.10336050438E+04  0.50400001928E-02 0.  1.
</event>
<event>
 5   0  0.2190865E-06  0.2795167E+04  0.7818609E-02  0.8304770E-01
       -1   -1    0    0    0  501  0.00000000000E+00  0.00000000000E+00  0.28086449281E+04  0.28086449281E+04  0.50400001928E-02 0.  1.
        1   -1    0    0  501    0  0.00000000000E+00  0.00000000000E+00 -0.69543839828E+03  0.69543839830E+03  0.50400001928E-02 0. -1.
    10030    2    1    2    0    0  0.00000000000E+00  0.00000000000E+00  0.21132065298E+04  0.35040833264E+04  0.27951669218E+04 0.  0.
        2    1    3    3  502    0  0.54711876107E+03  0.54967519407E+03  0.25141286068E+04  0.26310310544E+04  0.25500000920E-02 0.  1.
       -2    1    3    3    0  502 -0.54711876107E+03 -0.54967519407E+03 -0.40092207704E+03  0.87305227195E+03  0.25500000920E-02 0. -1.
</event>
<event>
 5   0  0.5546570E-06  0.2812517E+04  0.7818609E-02  0.8299393E-01
        2   -1    0    0  501    0  0.00000000000E+00  0.00000000000E+00  0.19747868426E+04  0.19747868426E+04  0.25500000920E-02 0. -1.
       -2   -1    0    0    0  501  0.00000000000E+00  0.00000000000E+00 -0.10014057093E+04  0.10014057093E+04  0.25500000920E-02 0.  1.
    10030    2    1    2    0    0  0.00000000000E+00  0.00000000000E+00  0.97338113330E+03  0.29761925520E+04  0.28125168934E+04 0.  0.
        4    1    3    3  502    0 -0.28705144146E+03 -0.81339303821E+03 -0.68859944820E+03  0.11037108216E+04  0.12699999809E+01 0.  1.
       -4    1    3    3    0  502  0.28705144146E+03  0.81339303821E+03  0.16619805815E+04  0.18724817304E+04  0.12699999809E+01 0. -1.
</event>
<event>
 5   0  0.5866136E-06  0.2804951E+04  0.7818609E-02  0.8301733E-01
        2   -1    0    0  501    0  0.00000000000E+00  0.00000000000E+00  0.19887554020E+04  0.19887554020E+04  0.25500000920E-02 0.  1.
       -2   -1    0    0    0  501  0.00000000000E+00  0.00000000000E+00 -0.98902920092E+03  0.98902920093E+03  0.25500000920E-02 0. -1.
    10030    2    1    2    0    0  0.00000000000E+00  0.00000000000E+00  0.99972620107E+03  0.29777846029E+04  0.28049507419E+04 0.  0.
        5    1    3    3  502    0 -0.12190270199E+04 -0.29805039917E+03 -0.16486046351E+03  0.12657258700E+04  0.46999998093E+01 0. -1.
       -5    1    3    3    0  502  0.12190270199E+04  0.29805039917E+03  0.11645866646E+04  0.17120587329E+04  0.46999998093E+01 0.  1.
</event>
<event>
 5   0  0.2206967E-06  0.2790179E+04  0.7818609E-02  0.8306324E-01
       -1   -1    0    0    0  501  0.00000000000E+00  0.00000000000E+00  0.23445069115E+04  0.23445069115E+04  0.50400001928E-02 0. -1.
        1   -1    0    0  501    0  0.00000000000E+00  0.00000000000E+00 -0.83014245221E+03  0.83014245223E+03  0.50400001928E-02 0.  1.
    10030    2    1    2    0    0  0.00000000000E+00  0.00000000000E+00  0.15143644592E+04  0.31746493637E+04  0.27901790027E+04 0.  0.
        5    1    3    3  502    0 -0.19631554151E+03 -0.11569047035E+04  0.16156585457E+04  0.19968332207E+04  0.46999998093E+01 0. -1.
       -5    1    3    3    0  502  0.19631554151E+03  0.11569047035E+04 -0.10129408646E+03  0.11778161430E+04  0.46999998093E+01 0.  1.
</event>
<event>
 5   0  0.5866136E-06  0.2789209E+04  0.7818609E-02  0.8306626E-01
        2   -1    0    0  501    0  0.00000000000E+00  0.00000000000E+00  0.18145345797E+04  0.18145345797E+04  0.25500000920E-02 0. -1.
       -2   -1    0    0    0  501  0.00000000000E+00  0.00000000000E+00 -0.10718570322E+04  0.10718570322E+04  0.25500000920E-02 0.  1.
    10030    2    1    2    0    0  0.00000000000E+00  0.00000000000E+00  0.74267754755E+03  0.28863916119E+04  0.27892089555E+04 0.  0.
        5    1    3    3  502    0  0.11952156755E+04 -0.10496405672E+03 -0.36430358168E+03  0.12539127377E+04  0.46999998093E+01 0.  1.
       -5    1    3    3    0  502 -0.11952156755E+04  0.10496405672E+03  0.11069811292E+04  0.16324788742E+04  0.46999998093E+01 0. -1.
</event>
<event>
 5   0  0.2206967E-06  0.2811456E+04  0.7818609E-02  0.8299720E-01
        1   -1    0    0  501    0  0.00000000000E+00  0.00000000000E+00  0.11441143598E+04  0.11441143598E+04  0.50400001928E-02 0.  1.
       -1   -1    0    0    0  501  0.00000000000E+00  0.00000000000E+00 -0.17271628946E+04  0.17271628946E+04  0.50400001928E-02 0. -1.
    10030    2    1    2    0    0  0.00000000000E+00  0.00000000000E+00 -0.58304853483E+03  0.28712772544E+04  0.28114564691E+04 0.  0.
        5    1    3    3  502    0  0.75900511388E+03  0.29602956550E+03 -0.14614677542E+04  0.16732101939E+04  0.46999998093E+01 0. -1.
       -5    1    3    3    0  502 -0.75900511388E+03 -0.29602956550E+03  0.87841921934E+03  0.11980670605E+04  0.46999998093E+01 0.  1.
</event>
<event>
 5   0  0.5866136E-06  0.2790636E+04  0.7818609E-02  0.8306181E-01
        2   -1    0    0  501    0  0.00000000000E+00  0.00000000000E+00  0.11146699018E+04  0.11146699018E+04  0.25500000920E-02 0.  1.
       -2   -1    0    0    0  501  0.00000000000E+00  0.00000000000E+00 -0.17466268800E+04  0.17466268800E+04  0.25500000920E-02 0. -1.
    10030    2    1    2    0    0  0.00000000000E+00  0.00000000000E+00 -0.63195697812E+03  0.28612967818E+04  0.27906360657E+04 0.  0.
        5    1    3    3  502    0  0.23010225522E+03 -0.78797891506E+03  0.84087790161E+03  0.11751406528E+04  0.46999998093E+01 0.  1.
       -5    1    3    3    0  502 -0.23010225522E+03  0.78797891506E+03 -0.14728348797E+04  0.16861561290E+04  0.46999998093E+01 0. -1.
</event>
<event>
 5   0  0.5916603E-06  0.2807278E+04  0.7818609E-02  0.8301012E-01
       -2   -1    0    0    0  501  0.00000000000E+00  0.00000000000E+00  0.10498984543E+04  0.10498984543E+04  0.25500000920E-02 0. -1.
        2   -1    0    0  501    0  0.00000000000E+00  0.00000000000E+00 -0.18765652154E+04  0.18765652154E+04  0.25500000920E-02 0.  1.
    10030    2    1    2    0    0  0.00000000000E+00  0.00000000000E+00 -0.82666676109E+03  0.29264636698E+04  0.28072783397E+04 0.  0.
        2    1    3    3  502    0 -0.81444583311E+03 -0.11158685764E+04 -0.15435448541E+03  0.13900755382E+04  0.25500000920E-02 0. -1.
       -2    1    3    3    0  502  0.81444583311E+03  0.11158685764E+04 -0.67231227568E+03  0.15363881316E+04  0.25500000920E-02 0.  1.
</event>
<event>
 5   0  0.2277133E-06  0.2798406E+04  0.7818609E-02  0.8303763E-01
       -1   -1    0    0    0  501  0.00000000000E+00  0.00000000000E+00  0.11608214691E+04  0.11608214691E+04  0.50400001928E-02 0.  1.
        1   -1    0    0  501    0  0.00000000000E+00  0.00000000000E+00 -0.16865377109E+04  0.16865377109E+04  0.50400001928E-02 0. -1.
    10030    2    1    2    0    0  0.00000000000E+00  0.00000000000E+00 -0.52571624183E+03  0.28473591800E+04  0.27984061058E+04 0.  0.
        1    1    3    3  502    0 -0.56794938963E+03  0.34380909548E+03 -0.15160685956E+04  0.16550635003E+04  0.50400001928E-02 0. -1.
       -1    1    3    3    0  502  0.56794938963E+03 -0.34380909548E+03  0.99035235375E+03  0.11922956797E+04  0.50400001928E-02 0.  1.
</event>
<event>
 5   0  0.2234068E-06  0.2761848E+04  0.7818609E-02  0.8315212E-01
        1   -1    0    0  501    0  0.00000000000E+00  0.00000000000E+00  0.20094432384E+04  0.20094432384E+04  0.50400001928E-02 0. -1.
       -1   -1    0    0    0  501  0.00000000000E+00  0.00000000000E+00 -0.94899456070E+03  0.94899456072E+03  0.50400001928E-02 0.  1.
    10030    2    1    2    0    0  0.00000000000E+00  0.00000000000E+00  0.10604486777E+04  0.29584377992E+04  0.27618477173E+04 0.  0.
        3    1    3    3  502    0 -0.16654854441E+03  0.27597197975E+03  0.19685817283E+04  0.19947964764E+04  0.10100000352E+00 0. -1.
       -3    1    3    3    0  502  0.16654854441E+03 -0.27597197975E+03 -0.90813305053E+03  0.96364132275E+03  0.10100000352E+00 0.  1.
</event>
<event>
 5   0  0.5546570E-06  0.2811188E+04  0.7818609E-02  0.8299803E-01
       -2   -1    0    0    0  501  0.00000000000E+00  0.00000000000E+00  0.13665267340E+04  0.13665267340E+04  0.25500000920E-02 0.  1.
        2   -1    0    0  501    0  0.00000000000E+00  0.00000000000E+00 -0.14457783815E+04  0.14457783815E+04  0.25500000920E-02 0. -1.
    10030    2    1    2    0    0  0.00000000000E+00  0.00000000000E+00 -0.79251647480E+02  0.28123051155E+04  0.28111882255E+04 0.  0.
        4    1    3    3  502    0  0.10557818379E+04  0.47858056655E+03 -0.83491245193E+03  0.14285639864E+04  0.12699999809E+01 0. -1.
       -4    1    3    3    0  502 -0.10557818379E+04 -0.47858056655E+03  0.75566080445E+03  0.13837411291E+04  0.12699999809E+01 0.  1.
</event>
<event>
 5   0  0.5546570E-06  0.2790654E+04  0.7818609E-02  0.8306176E-01
        2   -1    0    0  501    0  0.00000000000E+00  0.00000000000E+00  0.10178867977E+04  0.10178867977E+04  0.25500000920E-02 0.  1.
       -2   -1    0    0    0  501  0.00000000000E+00  0.00000000000E+00 -0.19127252785E+04  0.19127252785E+04  0.25500000920E-02 0. -1.
    10030    2    1    2    0    0  0.00000000000E+00  0.00000000000E+00 -0.89483848075E+03  0.29306120762E+04  0.27906542664E+04 0.  0.
        4    1    3    3  502    0 -0.67678800712E+03 -0.10103268371E+04  0.27109823014E+03  0.12459125923E+04  0.12699999809E+01 0.  1.
       -4    1    3    3    0  502  0.67678800712E+03  0.10103268371E+04 -0.11659367109E+04  0.16846994839E+04  0.12699999809E+01 0. -1.
</event>
<event>
 5   0  0.5584205E-06  0.2793236E+04  0.7818609E-02  0.8305371E-01
        2   -1    0    0  501    0  0.00000000000E+00  0.00000000000E+00  0.17750650840E+04  0.17750650840E+04  0.25500000920E-02 0.  1.
       -2   -1    0    0    0  501  0.00000000000E+00  0.00000000000E+00 -0.10988564161E+04  0.10988564161E+04  0.25500000920E-02 0. -1.
    10030    2    1    2    0    0  0.00000000000E+00  0.00000000000E+00  0.67620866789E+03  0.28739215001E+04  0.27932358701E+04 0.  0.
        1    1    3    3  502    0 -0.13009073038E+04  0.66712938700E+02 -0.18016349447E+03  0.13150168494E+04  0.50400001928E-02 0. -1.
       -1    1    3    3    0  502  0.13009073038E+04 -0.66712938700E+02  0.85637216235E+03  0.15589046507E+04  0.50400001928E-02 0.  1.
</event>
<event>
 5   0  0.5866136E-06  0.2783870E+04  0.7818609E-02  0.8308294E-01
        2   -1    0    0  501    0  0.00000000000E+00  0.00000000000E+00  0.11267548975E+04  0.11267548975E+04  0.25500000920E-02 0.  1.
       -2   -1    0    0    0  501  0.00000000000E+00  0.00000000000E+00 -0.17195247484E+04  0.17195247484E+04  0.25500000920E-02 0. -1.
    10030    2    1    2    0    0  0.00000000000E+00  0.00000000000E+00 -0.59276985088E+03  0.28462796459E+04  0.27838699191E+04 0.  0.
        5    1    3    3  502    0  0.53254564872E+03 -0.11585228672E+04 -0.86718446194E+03  0.15420152668E+04  0.46999998093E+01 0. -1.
       -5    1    3    3    0  502 -0.53254564872E+03  0.11585228672E+04  0.27441461106E+03  0.13042643791E+04  0.46999998093E+01 0.  1.
</event>
<event>
 5   0  0.2234068E-06  0.2801188E+04  0.7818609E-02  0.8302900E-01
        1   -1    0    0  501    0  0.00000000000E+00  0.00000000000E+00  0.90651795397E+03  0.90651795398E+03  0.50400001928E-02 0.  1.
       -1   -1    0    0    0  501  0.00000000000E+00  0.00000000000E+00 -0.21639538474E+04  0.21639538474E+04  0.50400001928E-02 0. -1.
    10030    2    1    2    0    0  0.00000000000E+00  0.00000000000E+00 -0.12574358934E+04  0.30704718014E+04  0.28011876155E+04 0.  0.
        3    1    3    3  502    0 -0.54734665077E+03  0.10034806168E+04 -0.15159089849E+04  0.18985630790E+04  0.10100000352E+00 0. -1.
       -3    1    3    3    0  502  0.54734665077E+03 -0.10034806168E+04  0.25847309145E+03  0.11719087224E+04  0.10100000352E+00 0.  1.
</event>
<event>
 5   0  0.2277133E-06  0.2823088E+04  0.7818609E-02  0.8296136E-01
        1   -1    0    0  501    0  0.00000000000E+00  0.00000000000E+00  0.98332212594E+03  0.98332212596E+03  0.50400001928E-02 0. -1.
       -1   -1    0    0    0  501  0.00000000000E+00  0.00000000000E+00 -0.20262496430E+04  0.20262496430E+04  0.50400001928E-02 0.  1.
    10030    2    1    2    0    0  0.00000000000E+00  0.00000000000E+00 -0.10429275171E+04  0.30095717690E+04  0.28230877469E+04 0.  0.
        1    1    3    3  502    0 -0.12635463479E+03 -0.10694167414E+04  0.45141945489E+03  0.11676460015E+04  0.50400001928E-02 0. -1.
       -1    1    3    3    0  502  0.12635463479E+03  0.10694167414E+04 -0.14943469720E+04  0.18419257675E+04  0.50400001928E-02 0.  1.
</event>
<event>
 5   0  0.5916603E-06  0.2803116E+04  0.7818609E-02  0.8302302E-01
        2   -1    0    0  501    0  0.00000000000E+00  0.00000000000E+00  0.17495942816E+04  0.17495942816E+04  0.25500000920E-02 0. -1.
       -2   -1    0    0    0  501  0.00000000000E+00  0.00000000000E+00 -0.11227547099E+04  0.11227547099E+04  0.25500000920E-02 0.  1.
    10030    2    1    2    0    0  0.00000000000E+00  0.00000000000E+00  0.62683957170E+03  0.28723489916E+04  0.28031162803E+04 0.  0.
        2    1    3    3  502    0 -0.12086205523E+04  0.53967842454E+03 -0.15877477031E+03  0.13331263515E+04  0.25500000920E-02 0.  1.
       -2    1    3    3    0  502  0.12086205523E+04 -0.53967842454E+03  0.78561434201E+03  0.15392226401E+04  0.25500000920E-02 0. -1.
</event>
<event>
 5   0  0.2206967E-06  0.2802766E+04  0.7818609E-02  0.8302410E-01
       -1   -1    0    0    0  501  0.00000000000E+00  0.00000000000E+00  0.88440023439E+03  0.88440023441E+03  0.50400001928E-02 0.  1.
        1   -1    0    0  501    0  0.00000000000E+00  0.00000000000E+00 -0.22205721193E+04  0.22205721193E+04  0.50400001928E-02 0. -1.
    10030    2    1    2    0    0  0.00000000000E+00  0.00000000000E+00 -0.13361718849E+04  0.31049723537E+04  0.28027661356E+04 0.  0.
        5    1    3    3  502    0 -0.13930483728E+04 -0.37060307274E+02 -0.50416097308E+03  0.14819438627E+04  0.46999998093E+01 0.  1.
       -5    1    3    3    0  502  0.13930483728E+04  0.37060307274E+02 -0.83201091178E+03  0.16230284910E+04  0.46999998093E+01 0. -1.
</event>
<event>
 5   0  0.2234068E-06  0.2777445E+04  0.7818609E-02  0.8310305E-01
       -1   -1    0    0    0  501  0.00000000000E+00  0.00000000000E+00  0.17309118958E+04  0.17309118958E+04  0.50400001928E-02 0. -1.
        1   -1    0    0  501    0  0.00000000000E+00  0.00000000000E+00 -0.11141819720E+04  0.11141819720E+04  0.50400001928E-02 0.  1.
    10030    2    1    2    0    0  0.00000000000E+00  0.00000000000E+00  0.61672992377E+03  0.28450938678E+04  0.27774454662E+04 0.  0.
        3    1    3    3  502    0 -0.27144781251E+02  0.11492443699E+03 -0.11090297462E+04  0.11152988180E+04  0.10100000352E+00 0.  1.
       -3    1    3    3    0  502  0.27144781251E+02 -0.11492443699E+03  0.17257596700E+04  0.17297950497E+04  0.10100000352E+00 0. -1.
</event>
<event>
 5   0  0.2190865E-06  0.2489512E+04  0.7818609E-02  0.8406731E-01
       -1   -1    0    0    0  501  0.00000000000E+00  0.00000000000E+00  0.86529206065E+03  0.86529206067E+03  0.50400001928E-02 0.  1.
        1   -1    0    0  501    0  0.00000000000E+00  0.00000000000E+00 -0.17906295601E+04  0.17906295602E+04  0.50400001928E-02 0. -1.
    10030    2    1    2    0    0  0.00000000000E+00  0.00000000000E+00 -0.92533749949E+03  0.26559216208E+04  0.24895120341E+04 0.  0.
        2    1    3    3  502    0  0.28999676999E+03  0.67139086687E+03  0.61191074254E+03  0.95357148634E+03  0.25500000920E-02 0.  1.
       -2    1    3    3    0  502 -0.28999676999E+03 -0.67139086687E+03 -0.15372482420E+04  0.17023501345E+04  0.25500000920E-02 0. -1.
</event>
<event>
 5   0  0.5916603E-06  0.2790504E+04  0.7818609E-02  0.8306223E-01
        2   -1    0    0  501    0  0.00000000000E+00  0.00000000000E+00  0.18843026680E+04  0.18843026680E+04  0.25500000920E-02 0. -1.
       -2   -1    0    0    0  501  0.00000000000E+00  0.00000000000E+00 -0.10331293083E+04  0.10331293083E+04  0.25500000920E-02 0.  1.
    10030    2    1    2    0    0  0.00000000000E+00  0.00000000000E+00  0.85117335967E+03  0.29174319763E+04  0.27905041208E+04 0.  0.
        2    1    3    3  502    0 -0.46998005754E+03  0.12416923090E+04 -0.22934294835E+02  0.13278580597E+04  0.25500000920E-02 0.  1.
       -2    1    3    3    0  502  0.46998005754E+03 -0.12416923090E+04  0.87410765450E+03  0.15895739166E+04  0.25500000920E-02 0. -1.
</event>
<event>
 5   0  0.5625245E-06  0.2664876E+04  0.7818609E-02  0.8346492E-01
       -2   -1    0    0    0  501  0.00000000000E+00  0.00000000000E+00  0.15986146381E+04  0.15986146381E+04  0.25500000920E-02 0.  1.
        2   -1    0    0  501    0  0.00000000000E+00  0.00000000000E+00 -0.11105808431E+04  0.11105808432E+04  0.25500000920E-02 0. -1.
    10030    2    1    2    0    0  0.00000000000E+00  0.00000000000E+00  0.48803379494E+03  0.27091954812E+04  0.26648758265E+04 0.  0.
        3    1    3    3  502    0 -0.43990380982E+03 -0.55926981879E+03  0.13892925724E+04  0.15609074136E+04  0.10100000352E+00 0.  1.
       -3    1    3    3    0  502  0.43990380982E+03  0.55926981879E+03 -0.90125877743E+03  0.11482880676E+04  0.10100000352E+00 0. -1.
</event>
<event>
 5   0  0.2206967E-06  0.2788289E+04  0.7818609E-02  0.8306913E-01
        1   -1    0    0  501    0  0.00000000000E+00  0.00000000000E+00  0.17863907820E+04  0.17863907820E+04  0.50400001928E-02 0. -1.
       -1   -1    0    0    0  501  0.00000000000E+00  0.00000000000E+00 -0.10880258001E+04  0.10880258001E+04  0.50400001928E-02 0.  1.
    10030    2    1    2    0    0  0.00000000000E+00  0.00000000000E+00  0.69836498195E+03  0.28744165821E+04  0.27882892676E+04 0.  0.
        5    1    3    3  502    0  0.29899133505E+03  0.11441319347E+04 -0.41199024002E+03  0.12522746305E+04  0.46999998093E+01 0.  1.
       -5    1    3    3    0  502 -0.29899133505E+03 -0.11441319347E+04  0.11103552220E+04  0.16221419516E+04  0.46999998093E+01 0. -1.
</event>
<event>
 5   0  0.2277133E-06  0.2814530E+04  0.7818609E-02  0.8298772E-01
        1   -1    0    0  501    0  0.00000000000E+00  0.00000000000E+00  0.11384374134E+04  0.11384374134E+04  0.50400001928E-02 0. -1.
       -1   -1    0    0    0  501  0.00000000000E+00  0.00000000000E+00 -0.17395729087E+04  0.17395729087E+04  0.50400001928E-02 0.  1.
    10030    2    1    2    0    0  0.00000000000E+00  0.00000000000E+00 -0.60113549525E+03  0.28780103221E+04  0.28145300728E+04 0.  0.
        1    1    3    3  502    0  0.26675820970E+03 -0.69329095438E+03  0.92162339163E+03  0.11837237709E+04  0.50400001928E-02 0. -1.
       -1    1    3    3    0  502 -0.26675820970E+03  0.69329095438E+03 -0.15227588869E+04  0.16942865512E+04  0.50400001928E-02 0.  1.
</event>
<event>
 5   0  0.2206967E-06  0.2817687E+04  0.7818609E-02  0.8297798E-01
       -1   -1    0    0    0  501  0.00000000000E+00  0.00000000000E+00  0.94927663569E+03  0.94927663570E+03  0.50400001928E-02 0. -1.
        1   -1    0    0  501    0  0.00000000000E+00  0.00000000000E+00 -0.20908972471E+04  0.20908972471E+04  0.50400001928E-02 0.  1.
    10030    2    1    2    0    0  0.00000000000E+00  0.00000000000E+00 -0.11416206114E+04  0.30401738828E+04  0.28176869268E+04 0.  0.
        5    1    3    3  502    0  0.11388112762E+04  0.62004825259E+03  0.23565768821E+02  0.12968918204E+04  0.46999998093E+01 0. -1.
       -5    1    3    3    0  502 -0.11388112762E+04 -0.62004825259E+03 -0.11651863802E+04  0.17432820624E+04  0.46999998093E+01 0.  1.
</event>
<event>
 5   0  0.5866136E-06  0.2814993E+04  0.7818609E-02  0.8298629E-01
       -2   -1    0    0    0  501  0.00000000000E+00  0.00000000000E+00  0.77699573377E+03  0.77699573378E+03  0.25500000920E-02 0. -1.
        2   -1    0    0  501    0  0.00000000000E+00  0.00000000000E+00 -0.25496231230E+04  0.25496231230E+04  0.25500000920E-02 0.  1.
    10030    2    1    2    0    0  0.00000000000E+00  0.00000000000E+00 -0.17726273893E+04  0.33266188568E+04  0.28149929231E+04 0.  0.
        5    1    3    3  502    0 -0.71033289187E+03  0.76867683788E+02  0.54674693056E+03  0.89968647548E+03  0.46999998093E+01 0. -1.
       -5    1    3    3    0  502  0.71033289187E+03 -0.76867683788E+02 -0.23193743198E+04  0.24269323813E+04  0.46999998093E+01 0.  1.
</event>
<event>
 5   0  0.5916603E-06  0.2810790E+04  0.7818609E-02  0.8299926E-01
        2   -1    0    0  501    0  0.00000000000E+00  0.00000000000E+00  0.19109401399E+04  0.19109401399E+04  0.25500000920E-02 0.  1.
       -2   -1    0    0    0  501  0.00000000000E+00  0.00000000000E+00 -0.10335937334E+04  0.10335937334E+04  0.25500000920E-02 0. -1.
    10030    2    1    2    0    0  0.00000000000E+00  0.00000000000E+00  0.87734640644E+03  0.29445338733E+04  0.28107904608E+04 0.  0.
        2    1    3    3  502    0  0.57481996648E+03  0.99218345377E+03  0.12899197493E+04  0.17259023609E+04  0.25500000920E-02 0. -1.
       -2    1    3    3    0  502 -0.57481996648E+03 -0.99218345377E+03 -0.41257334285E+03  0.12186315124E+04  0.25500000920E-02 0.  1.
</event>
<event>
 5   0  0.5916603E-06  0.2796987E+04  0.7818609E-02  0.8304204E-01
       -2   -1    0    0    0  501  0.00000000000E+00  0.00000000000E+00  0.99369755677E+03  0.99369755677E+03  0.25500000920E-02 0. -1.
        2   -1    0    0  501    0  0.00000000000E+00  0.00000000000E+00 -0.19681883846E+04  0.19681883846E+04  0.25500000920E-02 0.  1.
    10030    2    1    2    0    0  0.00000000000E+00  0.00000000000E+00 -0.97449082783E+03  0.29618859414E+04  0.27969869424E+04 0.  0.
        2    1    3    3  502    0  0.42176718657E+03 -0.90072318490E+03 -0.15283634686E+04  0.18234814800E+04  0.25500000920E-02 0.  1.
       -2    1    3    3    0  502 -0.42176718657E+03  0.90072318490E+03  0.55387264082E+03  0.11384044614E+04  0.25500000920E-02 0. -1.
</event>
<event>
 5   0  0.5866136E-06  0.2786171E+04  0.7818609E-02  0.8307574E-01
       -2   -1    0    0    0  501  0.00000000000E+00  0.00000000000E+00  0.15277518332E+04  0.15277518332E+04  0.25500000920E-02 0.  1.
        2   -1    0    0  501    0  0.00000000000E+00  0.00000000000E+00 -0.12702899158E+04  0.12702899158E+04  0.25500000920E-02 0. -1.
    10030    2    1    2    0    0  0.00000000000E+00  0.00000000000E+00  0.25746191732E+03  0.27980417490E+04  0.27861713857E+04 0.  0.
        5    1    3    3  502    0 -0.22712495167E+03 -0.28467789719E+03 -0.12216309806E+04  0.12747672696E+04  0.46999998093E+01 0. -1.
       -5    1    3    3    0  502  0.22712495167E+03  0.28467789719E+03  0.14790928979E+04  0.15232744794E+04  0.46999998093E+01 0.  1.
</event>
<event>
 5   0  0.5584205E-06  0.2757707E+04  0.7818609E-02  0.8316520E-01
        2   -1    0    0  501    0  0.00000000000E+00  0.00000000000E+00  0.12952284315E+04  0.12952284315E+04  0.25500000920E-02 0. -1.
       -2   -1    0    0    0  501  0.00000000000E+00  0.00000000000E+00 -0.14678773380E+04  0.14678773380E+04  0.25500000920E-02 0.  1.
    10030    2    1    2    0    0  0.00000000000E+00  0.00000000000E+00 -0.17264890655E+03  0.27631057695E+04  0.27577066285E+04 0.  0.
        1    1    3    3  502    0 -0.79439533068E+03 -0.23280509627E+03  0.10185467287E+04  0.13125165114E+04  0.50400001928E-02 0. -1.
       -1    1    3    3    0  502  0.79439533068E+03  0.23280509627E+03 -0.11911956352E+04  0.14505892581E+04  0.50400001928E-02 0.  1.
</event>
<event>
 5   0  0.5916603E-06  0.2789784E+04  0.7818609E-02  0.8306447E-01
       -2   -1    0    0    0  501  0.00000000000E+00  0.00000000000E+00  0.17474825841E+04  0.17474825841E+04  0.25500000920E-02 0.  1.
        2   -1    0    0  501    0  0.00000000000E+00  0.00000000000E+00 -0.11134436078E+04  0.11134436078E+04  0.25500000920E-02 0. -1.
    10030    2    1    2    0    0  0.00000000000E+00  0.00000000000E+00  0.63403897629E+03  0.28609261919E+04  0.27897837286E+04 0.  0.
        2    1    3    3  502    0  0.12861952881E+04  0.53970562485E+03  0.32927550575E+03  0.14331792768E+04  0.25500000920E-02 0. -1.
       -2    1    3    3    0  502 -0.12861952881E+04 -0.53970562485E+03  0.30476347054E+03  0.14277469151E+04  0.25500000920E-02 0.  1.
</event>
<event>
 5   0  0.5584205E-06  0.2757245E+04  0.7818609E-02  0.8316666E-01
        2   -1    0    0  501    0  0.00000000000E+00  0.00000000000E+00  0.15753878900E+04  0.15753878900E+04  0.25500000920E-02 0.  1.
       -2   -1    0    0    0  501  0.00000000000E+00  0.00000000000E+00 -0.12064334664E+04  0.12064334664E+04  0.25500000920E-02 0. -1.
    10030    2    1    2    0    0  0.00000000000E+00  0.00000000000E+00  0.36895442365E+03  0.27818213564E+04  0.27572454900E+04 0.  0.
        1    1    3    3  502    0  0.15500694218E+03  0.93973148013E+03  0.11900950934E+04  0.15242863046E+04  0.50400001928E-02 0.  1.
       -1    1    3    3    0  502 -0.15500694218E+03 -0.93973148013E+03 -0.82114066978E+03  0.12575350518E+04  0.50400001928E-02 0. -1.
</event>
<event>
 5   0  0.2267565E-06  0.2814847E+04  0.7818609E-02  0.8298674E-01
       -1   -1    0    0    0  501  0.00000000000E+00  0.00000000000E+00  0.16069963292E+04  0.16069963292E+04  0.50400001928E-02 0. -1.
        1   -1    0    0  501    0  0.00000000000E+00  0.00000000000E+00 -0.12326357757E+04  0.12326357757E+04  0.50400001928E-02 0.  1.
    10030    2    1    2    0    0  0.00000000000E+00  0.00000000000E+00  0.37436055346E+03  0.28396321049E+04  0.28148471836E+04 0.  0.
        4    1    3    3  502    0 -0.45419405098E+03 -0.11897092231E+04 -0.41737875080E+03  0.13401145123E+04  0.12699999809E+01 0.  1.
       -4    1    3    3    0  502  0.45419405098E+03  0.11897092231E+04  0.79173930425E+03  0.14995175926E+04  0.12699999809E+01 0. -1.
</event>
<event>
 5   0  0.2267565E-06  0.2826770E+04  0.7818609E-02  0.8295005E-01
       -1   -1    0    0    0  501  0.00000000000E+00  0.00000000000E+00  0.10823921765E+04  0.10823921765E+04  0.50400001928E-02 0. -1.
        1   -1    0    0  501    0  0.00000000000E+00  0.00000000000E+00 -0.18455942591E+04  0.18455942591E+04  0.50400001928E-02 0.  1.
    10030    2    1    2    0    0  0.00000000000E+00  0.00000000000E+00 -0.76320208254E+03  0.29279864356E+04  0.28267697374E+04 0.  0.
        4    1    3    3  502    0  0.48875992540E+03  0.20168444613E+03  0.97609287556E+03  0.11100999032E+04  0.12699999809E+01 0. -1.
       -4    1    3    3    0  502 -0.48875992540E+03 -0.20168444613E+03 -0.17392949581E+04  0.18178865324E+04  0.12699999809E+01 0.  1.
</event>
<event>
 5   0  0.2267565E-06  0.2803310E+04  0.7818609E-02  0.8302242E-01
       -1   -1    0    0    0  501  0.00000000000E+00  0.00000000000E+00  0.12149275249E+04  0.12149275249E+04  0.50400001928E-02 0. -1.
        1   -1    0    0  501    0  0.00000000000E+00  0.00000000000E+00 -0.16170811575E+04  0.16170811575E+04  0.50400001928E-02 0.  1.
    10030    2    1    2    0    0  0.00000000000E+00  0.00000000000E+00 -0.40215363267E+03  0.28320086824E+04  0.28033097640E+04 0.  0.
        4    1    3    3  502    0  0.69106924195E+03  0.11466770775E+04  0.21812887860E+03  0.13564758892E+04  0.12699999809E+01 0. -1.
       -4    1    3    3    0  502 -0.69106924195E+03 -0.11466770775E+04 -0.62028251127E+03  0.14755327933E+04  0.12699999809E+01 0.  1.
</event>
<event>
 5   0  0.5546570E-06  0.2813416E+04  0.7818609E-02  0.8299115E-01
       -2   -1    0    0    0  501  0.00000000000E+00  0.00000000000E+00  0.14311875270E+04  0.14311875270E+04  0.25500000920E-02 0.  1.
        2   -1    0    0  501    0  0.00000000000E+00  0.00000000000E+00 -0.13826472017E+04  0.13826472017E+04  0.25500000920E-02 0. -1.
    10030    2    1    2    0    0  0.00000000000E+00  0.00000000000E+00  0.48540325369E+02  0.28138347287E+04  0.28134160228E+04 0.  0.
        4    1    3    3  502    0 -0.10363826266E+04  0.57210906815E+03  0.78427014022E+03  0.14200278167E+04  0.12699999809E+01 0.  1.
       -4    1    3    3    0  502  0.10363826266E+04 -0.57210906815E+03 -0.73572981485E+03  0.13938069120E+04  0.12699999809E+01 0. -1.
</event>
<event>
 5   0  0.2206967E-06  0.2797434E+04  0.7818609E-02  0.8304066E-01
       -1   -1    0    0    0  501  0.00000000000E+00  0.00000000000E+00  0.28448994928E+04  0.28448994928E+04  0.50400001928E-02 0.  1.
        1   -1    0    0  501    0  0.00000000000E+00  0.00000000000E+00 -0.68768997343E+03  0.68768997345E+03  0.50400001928E-02 0. -1.
    10030    2    1    2    0    0  0.00000000000E+00  0.00000000000E+00  0.21572095194E+04  0.35325894663E+04  0.27974337216E+04 0.  0.
        5    1    3    3  502    0  0.46144999260E+03 -0.96048175785E+03 -0.65551200628E+02  0.10676049610E+04  0.46999998093E+01 0. -1.
       -5    1    3    3    0  502 -0.46144999260E+03  0.96048175785E+03  0.22227607200E+04  0.24649845053E+04  0.46999998093E+01 0.  1.
</event>
<event>
 5   0  0.2190865E-06  0.2811031E+04  0.7818609E-02  0.8299852E-01
        1   -1    0    0  501    0  0.00000000000E+00  0.00000000000E+00  0.23280086733E+04  0.23280086733E+04  0.50400001928E-02 0.  1.
       -1   -1    0    0    0  501  0.00000000000E+00  0.00000000000E+00 -0.84856801355E+03  0.84856801357E+03  0.50400001928E-02 0. -1.
    10030    2    1    2    0    0  0.00000000000E+00  0.00000000000E+00  0.14794406597E+04  0.31765766868E+04  0.28110309109E+04 0.  0.
        2    1    3    3  502    0  0.13335259599E+04  0.43570031649E+03  0.64285644903E+03  0.15431755135E+04  0.25500000920E-02 0. -1.
       -2    1    3    3    0  502 -0.13335259599E+04 -0.43570031649E+03  0.83658421069E+03  0.16334011733E+04  0.25500000920E-02 0.  1.
</event>
<event>
 5   0  0.2267565E-06  0.2759543E+04  0.7818609E-02  0.8315940E-01
       -1   -1    0    0    0  501  0.00000000000E+00  0.00000000000E+00  0.12538819591E+04  0.12538819591E+04  0.50400001928E-02 0.  1.
        1   -1    0    0  501    0  0.00000000000E+00  0.00000000000E+00 -0.15183003659E+04  0.15183003659E+04  0.50400001928E-02 0. -1.
    10030    2    1    2    0    0  0.00000000000E+00  0.00000000000E+00 -0.26441840678E+03  0.27721823250E+04  0.27595430327E+04 0.  0.
        4    1    3    3  502    0  0.12171097714E+04 -0.45325224123E+03  0.33572899809E+03  0.13414579244E+04  0.12699999809E+01 0.  1.
       -4    1    3    3    0  502 -0.12171097714E+04  0.45325224123E+03 -0.60014740487E+03  0.14307244006E+04  0.12699999809E+01 0. -1.
</event>
<event>
 5   0  0.2267565E-06  0.2793821E+04  0.7818609E-02  0.8305189E-01
       -1   -1    0    0    0  501  0.00000000000E+00  0.00000000000E+00  0.11783958883E+04  0.11783958884E+04  0.50400001928E-02 0. -1.
        1   -1    0    0  501    0  0.00000000000E+00  0.00000000000E+00 -0.16559447515E+04  0.16559447515E+04  0.50400001928E-02 0.  1.
    10030    2    1    2    0    0  0.00000000000E+00  0.00000000000E+00 -0.47754886313E+03  0.28343406398E+04  0.27938206718E+04 0.  0.
        4    1    3    3  502    0 -0.36157999313E+03 -0.93174279931E+03  0.75132692995E+03  0.12503513522E+04  0.12699999809E+01 0. -1.
       -4    1    3    3    0  502  0.36157999313E+03  0.93174279931E+03 -0.12288757931E+04  0.15839892876E+04  0.12699999809E+01 0.  1.
</event>
<event>
 5   0  0.5625245E-06  0.2819273E+04  0.7818609E-02  0.8297310E-01
        2   -1    0    0  501    0  0.00000000000E+00  0.00000000000E+00  0.12156048776E+04  0.12156048776E+04  0.25500000920E-02 0.  1.
       -2   -1    0    0    0  501  0.00000000000E+00  0.00000000000E+00 -0.16346386061E+04  0.16346386061E+04  0.25500000920E-02 0. -1.
    10030    2    1    2    0    0  0.00000000000E+00  0.00000000000E+00 -0.41903372846E+03  0.28502434836E+04  0.28192727166E+04 0.  0.
        3    1    3    3  502    0  0.63421437315E+03 -0.11155102949E+04  0.38040290268E+03  0.13383936146E+04  0.10100000352E+00 0.  1.
       -3    1    3    3    0  502 -0.63421437315E+03  0.11155102949E+04 -0.79943663114E+03  0.15118498690E+04  0.10100000352E+00 0. -1.
</event>
<event>
 5   0  0.2190865E-06  0.2795569E+04  0.7818609E-02  0.8304645E-01
       -1   -1    0    0    0  501  0.00000000000E+00  0.00000000000E+00  0.98951807392E+03  0.98951807393E+03  0.50400001928E-02 0.  1.
        1   -1    0    0  501    0  0.00000000000E+00  0.00000000000E+00 -0.19744980706E+04  0.19744980706E+04  0.50400001928E-02 0. -1.
    10030    2    1    2    0    0  0.00000000000E+00  0.00000000000E+00 -0.98497999672E+03  0.29640161446E+04  0.27955690139E+04 0.  0.
        2    1    3    3  502    0  0.10945403959E+04 -0.23179714496E+03 -0.13808628452E+04  0.17772255883E+04  0.25500000920E-02 0. -1.
       -2    1    3    3    0  502 -0.10945403959E+04  0.23179714496E+03  0.39588284844E+03  0.11867905562E+04  0.25500000920E-02 0.  1.
</event>
<event>
 5   0  0.5625245E-06  0.2778463E+04  0.7818609E-02  0.8309986E-01
        2   -1    0    0  501    0  0.00000000000E+00  0.00000000000E+00  0.23999380991E+04  0.23999380992E+04  0.25500000920E-02 0. -1.
       -2   -1    0    0    0  501  0.00000000000E+00  0.00000000000E+00 -0.80417249932E+03  0.80417249933E+03  0.25500000920E-02 0.  1.
    10030    2    1    2    0    0  0.00000000000E+00  0.00000000000E+00  0.15957655998E+04  0.32041105985E+04  0.27784630423E+04 0.  0.
        3    1    3    3  502    0 -0.38465375433E+02 -0.81247208869E+03  0.20966355891E+04  0.22488822298E+04  0.10100000352E+00 0. -1.
       -3    1    3    3    0  502  0.38465375433E+02  0.81247208869E+03 -0.50086998923E+03  0.95522836867E+03  0.10100000352E+00 0.  1.
</event>
<event>
 5   0  0.1901375E-06  0.2827049E+04  0.7818609E-02  0.8294920E-01
        3   -1    0    0  501    0  0.00000000000E+00  0.00000000000E+00  0.14663074487E+04  0.14663074522E+04  0.10100000352E+00 0.  1.
       -3   -1    0    0    0  501  0.00000000000E+00  0.00000000000E+00 -0.13626413165E+04  0.13626413202E+04  0.10100000352E+00 0. -1.
    10030    2    1    2    0    0  0.00000000000E+00  0.00000000000E+00  0.10366613223E+03  0.28289487724E+04  0.28270487244E+04 0.  0.
        2    1    3    3  502    0 -0.37377678810E+03 -0.11161558331E+01  0.14159590117E+04  0.14644624461E+04  0.25500000920E-02 0.  1.
       -2    1    3    3    0  502  0.37377678810E+03  0.11161558331E+01 -0.13122928795E+04  0.13644863263E+04  0.25500000920E-02 0. -1.
</event>
<event>
 5   0  0.5625245E-06  0.2704881E+04  0.7818609E-02  0.8333423E-01
        2   -1    0    0  501    0  0.00000000000E+00  0.00000000000E+00  0.23390862543E+04  0.23390862543E+04  0.25500000920E-02 0.  1.
       -2   -1    0    0    0  501  0.00000000000E+00  0.00000000000E+00 -0.78196974679E+03  0.78196974679E+03  0.25500000920E-02 0. -1.
    10030    2    1    2    0    0  0.00000000000E+00  0.00000000000E+00  0.15571165075E+04  0.31210560010E+04  0.27048805415E+04 0.  0.
        3    1    3    3  502    0  0.34545291084E+03 -0.66768836287E+03 -0.51867562843E+03  0.91332901041E+03  0.10100000352E+00 0. -1.
       -3    1    3    3    0  502 -0.34545291084E+03  0.66768836287E+03  0.20757921359E+04  0.22077269906E+04  0.10100000352E+00 0.  1.
</event>
<event>
 5   0  0.2234068E-06  0.2796914E+04  0.7818609E-02  0.8304227E-01
       -1   -1    0    0    0  501  0.00000000000E+00  0.00000000000E+00  0.17320832965E+04  0.17320832966E+04  0.50400001928E-02 0.  1.
        1   -1    0    0  501    0  0.00000000000E+00  0.00000000000E+00 -0.11290924748E+04  0.11290924748E+04  0.50400001928E-02 0. -1.
    10030    2    1    2    0    0  0.00000000000E+00  0.00000000000E+00  0.60299082176E+03  0.28611757714E+04  0.27969141681E+04 0.  0.
        3    1    3    3  502    0  0.32101195635E+03 -0.13405067917E+04  0.54287235750E+03  0.14814579108E+04  0.10100000352E+00 0. -1.
       -3    1    3    3    0  502 -0.32101195635E+03  0.13405067917E+04  0.60118464260E+02  0.13797178605E+04  0.10100000352E+00 0.  1.
</event>
<event>
 5   0  0.2206967E-06  0.2601483E+04  0.7818609E-02  0.8367698E-01
        1   -1    0    0  501    0  0.00000000000E+00  0.00000000000E+00  0.96612278542E+03  0.96612278543E+03  0.50400001928E-02 0. -1.
       -1   -1    0    0    0  501  0.00000000000E+00  0.00000000000E+00 -0.17512561681E+04  0.17512561681E+04  0.50400001928E-02 0.  1.
    10030    2    1    2    0    0  0.00000000000E+00  0.00000000000E+00 -0.78513338264E+03  0.27173789535E+04  0.26014830287E+04 0.  0.
        5    1    3    3  502    0 -0.46679482406E+03 -0.36772910544E+03 -0.16011720482E+04  0.17078923036E+04  0.46999998093E+01 0.  1.
       -5    1    3    3    0  502  0.46679482406E+03  0.36772910544E+03  0.81603866553E+03  0.10094866499E+04  0.46999998093E+01 0. -1.
</event>
<event>
 5   0  0.5866136E-06  0.2787835E+04  0.7818609E-02  0.8307055E-01
       -2   -1    0    0    0  501  0.00000000000E+00  0.00000000000E+00  0.13964803104E+04  0.13964803104E+04  0.25500000920E-02 0. -1.
        2   -1    0    0  501    0  0.00000000000E+00  0.00000000000E+00 -0.13913598084E+04  0.13913598084E+04  0.25500000920E-02 0.  1.
    10030    2    1    2    0    0  0.00000000000E+00  0.00000000000E+00  0.51205020091E+01  0.27878401187E+04  0.27878354162E+04 0.  0.
        5    1    3    3  502    0  0.12076977598E+04 -0.66695106336E+03  0.20162561931E+03  0.13942856882E+04  0.46999998093E+01 0. -1.
       -5    1    3    3    0  502 -0.12076977598E+04  0.66695106336E+03 -0.19650511730E+03  0.13935544306E+04  0.46999998093E+01 0.  1.
</event>
<event>
 5   0  0.2234068E-06  0.2792806E+04  0.7818609E-02  0.8305505E-01
       -1   -1    0    0    0  501  0.00000000000E+00  0.00000000000E+00  0.10868319923E+04  0.10868319923E+04  0.50400001928E-02 0. -1.
        1   -1    0    0  501    0  0.00000000000E+00  0.00000000000E+00 -0.17941517305E+04  0.17941517305E+04  0.50400001928E-02 0.  1.
    10030    2    1    2    0    0  0.00000000000E+00  0.00000000000E+00 -0.70731973818E+03  0.28809837228E+04  0.27928061155E+04 0.  0.
        3    1    3    3  502    0 -0.13824465871E+04 -0.18082783272E+03 -0.43412401564E+03  0.14602468772E+04  0.10100000352E+00 0.  1.
       -3    1    3    3    0  502  0.13824465871E+04  0.18082783272E+03 -0.27319572254E+03  0.14207368455E+04  0.10100000352E+00 0. -1.
</event>
<event>
 5   0  0.2190865E-06  0.2844827E+04  0.7818609E-02  0.8289485E-01
       -1   -1    0    0    0  501  0.00000000000E+00  0.00000000000E+00  0.14844569469E+04  0.14844569469E+04  0.50400001928E-02 0. -1.
        1   -1    0    0  501    0  0.00000000000E+00  0.00000000000E+00 -0.13629635770E+04  0.13629635770E+04  0.50400001928E-02 0.  1.
    10030    2    1    2    0    0  0.00000000000E+00  0.00000000000E+00  0.12149336988E+03  0.28474205239E+04  0.28448274115E+04 0.  0.
        2    1    3    3  502    0 -0.12731316208E+04 -0.46320859629E+03 -0.37304705399E+03  0.14052012069E+04  0.25500000920E-02 0.  1.
       -2    1    3    3    0  502  0.12731316208E+04  0.46320859629E+03  0.49454042387E+03  0.14422193170E+04  0.25500000920E-02 0. -1.
</event>
<event>
 5   0  0.5916603E-06  0.2645404E+04  0.7818609E-02  0.8352940E-01
        2   -1    0    0  501    0  0.00000000000E+00  0.00000000000E+00  0.11083641863E+04  0.11083641863E+04  0.25500000920E-02 0.  1.
       -2   -1    0    0    0  501  0.00000000000E+00  0.00000000000E+00 -0.15784893233E+04  0.15784893233E+04  0.25500000920E-02 0. -1.
    10030    2    1    2    0    0  0.00000000000E+00  0.00000000000E+00 -0.47012513694E+03  0.26868535096E+04  0.26454043429E+04 0.  0.
        2    1    3    3  502    0  0.15346072386E+03 -0.13135588382E+04 -0.25896897992E+03  0.13476097164E+04  0.25500000920E-02 0. -1.
       -2    1    3    3    0  502 -0.15346072386E+03  0.13135588382E+04 -0.21115615702E+03  0.13392437932E+04  0.25500000920E-02 0.  1.
</event>
<event>
 5   0  0.5916603E-06  0.2802419E+04  0.7818609E-02  0.8302518E-01
        2   -1    0    0  501    0  0.00000000000E+00  0.00000000000E+00  0.14843280344E+04  0.14843280344E+04  0.25500000920E-02 0. -1.
       -2   -1    0    0    0  501  0.00000000000E+00  0.00000000000E+00 -0.13227452568E+04  0.13227452568E+04  0.25500000920E-02 0.  1.
    10030    2    1    2    0    0  0.00000000000E+00  0.00000000000E+00  0.16158277759E+03  0.28070732912E+04  0.28024188603E+04 0.  0.
        2    1    3    3  502    0 -0.17245806411E+03  0.18896228694E+03 -0.12991539012E+04  0.13241032395E+04  0.25500000920E-02 0.  1.
       -2    1    3    3    0  502  0.17245806411E+03 -0.18896228694E+03  0.14607366788E+04  0.14829700518E+04  0.25500000920E-02 0. -1.
</event>
<event>
 5   0  0.5546570E-06  0.2798430E+04  0.7818609E-02  0.8303756E-01
       -2   -1    0    0    0  501  0.00000000000E+00  0.00000000000E+00  0.14093285718E+04  0.14093285718E+04  0.25500000920E-02 0. -1.
        2   -1    0    0  501    0  0.00000000000E+00  0.00000000000E+00 -0.13891736601E+04  0.13891736601E+04  0.25500000920E-02 0.  1.
    10030    2    1    2    0    0  0.00000000000E+00  0.00000000000E+00  0.20154911716E+02  0.27985022319E+04  0.27984296528E+04 0.  0.
        4    1    3    3  502    0 -0.12766792554E+03  0.12224529303E+04  0.67875783099E+03  0.14040669756E+04  0.12699999809E+01 0. -1.
       -4    1    3    3    0  502  0.12766792554E+03 -0.12224529303E+04 -0.65860291928E+03  0.13944352563E+04  0.12699999809E+01 0.  1.
</event>
<event>
 5   0  0.5584205E-06  0.2805949E+04  0.7818609E-02  0.8301424E-01
       -2   -1    0    0    0  501  0.00000000000E+00  0.00000000000E+00  0.71821943649E+03  0.71821943649E+03  0.25500000920E-02 0.  1.
        2   -1    0    0  501    0  0.00000000000E+00  0.00000000000E+00 -0.27405791107E+04  0.27405791107E+04  0.25500000920E-02 0. -1.
    10030    2    1    2    0    0  0.00000000000E+00  0.00000000000E+00 -0.20223596742E+04  0.34587985472E+04  0.28059488125E+04 0.  0.
        1    1    3    3  502    0 -0.85274681080E+03 -0.86702769744E+03 -0.18735380936E+04  0.22336201870E+04  0.50400001928E-02 0. -1.
       -1    1    3    3    0  502  0.85274681080E+03  0.86702769744E+03 -0.14882158061E+03  0.12251783602E+04  0.50400001928E-02 0.  1.
</event>
<event>
 5   0  0.1901375E-06  0.2475075E+04  0.7818609E-02  0.8411919E-01
       -4   -1    0    0    0  501  0.00000000000E+00  0.00000000000E+00  0.14348925886E+04  0.14348931506E+04  0.12699999809E+01 0. -1.
        4   -1    0    0  501    0  0.00000000000E+00  0.00000000000E+00 -0.10673255523E+04  0.10673263079E+04  0.12699999809E+01 0.  1.
    10030    2    1    2    0    0  0.00000000000E+00  0.00000000000E+00  0.36756703632E+03  0.25022194585E+04  0.24750750882E+04 0.  0.
        3    1    3    3  502    0 -0.17759699232E+03  0.72168479654E+03  0.11841453002E+04  0.13980592761E+04  0.10100000352E+00 0. -1.
       -3    1    3    3    0  502  0.17759699232E+03 -0.72168479654E+03 -0.81657826388E+03  0.11041601824E+04  0.10100000352E+00 0.  1.
</event>
<event>
 5   0  0.5546570E-06  0.2906735E+04  0.7818609E-02  0.8270877E-01
       -2   -1    0    0    0  501  0.00000000000E+00  0.00000000000E+00  0.77884231561E+03  0.77884231561E+03  0.25500000920E-02 0. -1.
        2   -1    0    0  501    0  0.00000000000E+00  0.00000000000E+00 -0.27120720403E+04  0.27120720403E+04  0.25500000920E-02 0.  1.
    10030    2    1    2    0    0  0.00000000000E+00  0.00000000000E+00 -0.19332297247E+04  0.34909143559E+04  0.29067345720E+04 0.  0.
        4    1    3    3  502    0  0.79400204904E+03 -0.17797548660E+03 -0.24128597210E+04  0.25463715702E+04  0.12699999809E+01 0.  1.
       -4    1    3    3    0  502 -0.79400204904E+03  0.17797548660E+03  0.47962999629E+03  0.94454278566E+03  0.12699999809E+01 0. -1.
</event>
<event>
 5   0  0.5625245E-06  0.2789766E+04  0.7818609E-02  0.8306453E-01
        2   -1    0    0  501    0  0.00000000000E+00  0.00000000000E+00  0.19362037888E+04  0.19362037888E+04  0.25500000920E-02 0.  1.
       -2   -1    0    0    0  501  0.00000000000E+00  0.00000000000E+00 -0.10049038114E+04  0.10049038114E+04  0.25500000920E-02 0. -1.
    10030    2    1    2    0    0  0.00000000000E+00  0.00000000000E+00  0.93129997746E+03  0.29411076002E+04  0.27897659881E+04 0.  0.
        3    1    3    3  502    0 -0.63492119611E+03  0.54690658780E+03 -0.70995179987E+03  0.10983001909E+04  0.10100000352E+00 0. -1.
       -3    1    3    3    0  502  0.63492119611E+03 -0.54690658780E+03  0.16412517773E+04  0.18428074093E+04  0.10100000352E+00 0.  1.
</event>
<event>
 5   0  0.2234068E-06  0.2784765E+04  0.7818609E-02  0.8308014E-01
        1   -1    0    0  501    0  0.00000000000E+00  0.00000000000E+00  0.11967700393E+04  0.11967700394E+04  0.50400001928E-02 0.  1.
       -1   -1    0    0    0  501  0.00000000000E+00  0.00000000000E+00 -0.16199673479E+04  0.16199673480E+04  0.50400001928E-02 0. -1.
    10030    2    1    2    0    0  0.00000000000E+00  0.00000000000E+00 -0.42319730860E+03  0.28167373873E+04  0.27847645407E+04 0.  0.
        3    1    3    3  502    0 -0.34627294572E+03  0.12336934496E+04  0.33947203062E+03  0.13255737438E+04  0.10100000352E+00 0.  1.
       -3    1    3    3    0  502  0.34627294572E+03 -0.12336934496E+04 -0.76266933922E+03  0.14911636435E+04  0.10100000352E+00 0. -1.
</event>
<event>
 5   0  0.5866136E-06  0.2942313E+04  0.7818609E-02  0.8260398E-01
       -2   -1    0    0    0  501  0.00000000000E+00  0.00000000000E+00  0.16098395399E+04  0.16098395399E+04  0.25500000920E-02 0. -1.
        2   -1    0    0  501    0  0.00000000000E+00  0.00000000000E+00 -0.13444201627E+04  0.13444201627E+04  0.25500000920E-02 0.  1.
    10030    2    1    2    0    0  0.00000000000E+00  0.00000000000E+00  0.26541937721E+03  0.29542597027E+04  0.29423125166E+04 0.  0.
        5    1    3    3  502    0 -0.11217176623E+04 -0.68964027899E+03  0.79144102198E+03  0.15363122110E+04  0.46999998093E+01 0. -1.
       -5    1    3    3    0  502  0.11217176623E+04  0.68964027899E+03 -0.52602164476E+03  0.14179474917E+04  0.46999998093E+01 0.  1.
</event>
<event>
 5   0  0.2267565E-06  0.2748957E+04  0.7818609E-02  0.8319293E-01
       -1   -1    0    0    0  501  0.00000000000E+00  0.00000000000E+00  0.11685173639E+04  0.11685173639E+04  0.50400001928E-02 0.  1.
        1   -1    0    0  501    0  0.00000000000E+00  0.00000000000E+00 -0.16167419430E+04  0.16167419430E+04  0.50400001928E-02 0. -1.
    10030    2    1    2    0    0  0.00000000000E+00  0.00000000000E+00 -0.44822457911E+03  0.27852593069E+04  0.27489569173E+04 0.  0.
        4    1    3    3  502    0 -0.76488274062E+03  0.10654974409E+04 -0.64046349738E+03  0.14596319769E+04  0.12699999809E+01 0. -1.
       -4    1    3    3    0  502  0.76488274062E+03 -0.10654974409E+04  0.19223891827E+03  0.13256273300E+04  0.12699999809E+01 0.  1.
</event>
<event>
 5   0  0.5584205E-06  0.2732917E+04  0.7818609E-02  0.8324403E-01
        2   -1    0    0  501    0  0.00000000000E+00  0.00000000000E+00  0.11991455964E+04  0.11991455964E+04  0.25500000920E-02 0. -1.
       -2   -1    0    0    0  501  0.00000000000E+00  0.00000000000E+00 -0.15571156595E+04  0.15571156595E+04  0.25500000920E-02 0.  1.
    10030    2    1    2    0    0  0.00000000000E+00  0.00000000000E+00 -0.35797006309E+03  0.27562612559E+04  0.27329166736E+04 0.  0.
        1    1    3    3  502    0  0.10726660172E+04  0.65758681882E+03  0.35864976073E+03  0.13083051859E+04  0.50400001928E-02 0. -1.
       -1    1    3    3    0  502 -0.10726660172E+04 -0.65758681882E+03 -0.71661982383E+03  0.14479560700E+04  0.50400001928E-02 0.  1.
</event>
<event>
 5   0  0.5916603E-06  0.2809190E+04  0.7818609E-02  0.8300421E-01
        2   -1    0    0  501    0  0.00000000000E+00  0.00000000000E+00  0.15886784575E+04  0.15886784575E+04  0.25500000920E-02 0.  1.
       -2   -1    0    0    0  501  0.00000000000E+00  0.00000000000E+00 -0.12418413469E+04  0.12418413469E+04  0.25500000920E-02 0. -1.
    10030    2    1    2    0    0  0.00000000000E+00  0.00000000000E+00  0.34683711063E+03  0.28305198044E+04  0.28091896308E+04 0.  0.
        2    1    3    3  502    0 -0.83040409956E+03 -0.45898598819E+03  0.12169694903E+04  0.15431311824E+04  0.25500000920E-02 0.  1.
       -2    1    3    3    0  502  0.83040409956E+03  0.45898598819E+03 -0.87013237964E+03  0.12873886220E+04  0.25500000920E-02 0. -1.
</event>
<event>
 5   0  0.2206967E-06  0.2805840E+04  0.7818609E-02  0.8301458E-01
       -1   -1    0    0    0  501  0.00000000000E+00  0.00000000000E+00  0.15713635254E+04  0.15713635254E+04  0.50400001928E-02 0. -1.
        1   -1    0    0  501    0  0.00000000000E+00  0.00000000000E+00 -0.12525326460E+04  0.12525326460E+04  0.50400001928E-02 0.  1.
    10030    2    1    2    0    0  0.00000000000E+00  0.00000000000E+00  0.31883087935E+03  0.28238961714E+04  0.28058397063E+04 0.  0.
        5    1    3    3  502    0  0.67378767545E+02 -0.60975348734E+03  0.14292093202E+04  0.15553136611E+04  0.46999998093E+01 0. -1.
       -5    1    3    3    0  502 -0.67378767545E+02  0.60975348734E+03 -0.11103784408E+04  0.12685825103E+04  0.46999998093E+01 0.  1.
</event>
<event>
 5   0  0.5546570E-06  0.2827073E+04  0.7818609E-02  0.8294912E-01
       -2   -1    0    0    0  501  0.00000000000E+00  0.00000000000E+00  0.13749602326E+04  0.13749602326E+04  0.25500000920E-02 0.  1.
        2   -1    0    0  501    0  0.00000000000E+00  0.00000000000E+00 -0.14531945817E+04  0.14531945817E+04  0.25500000920E-02 0. -1.
    10030    2    1    2    0    0  0.00000000000E+00  0.00000000000E+00 -0.78234349095E+02  0.28281548144E+04  0.28270725213E+04 0.  0.
        4    1    3    3  502    0 -0.56471512505E+02 -0.12496841446E+04 -0.69753603113E+03  0.14322910391E+04  0.12699999809E+01 0. -1.
       -4    1    3    3    0  502  0.56471512505E+02  0.12496841446E+04  0.61930168204E+03  0.13958637753E+04  0.12699999809E+01 0.  1.
</event>
<event>
 5   0  0.5866136E-06  0.2803963E+04  0.7818609E-02  0.8302039E-01
       -2   -1    0    0    0  501  0.00000000000E+00  0.00000000000E+00  0.85499870098E+03  0.85499870099E+03  0.25500000920E-02 0.  1.
        2   -1    0    0  501    0  0.00000000000E+00  0.00000000000E+00 -0.22988944464E+04  0.22988944464E+04  0.25500000920E-02 0. -1.
    10030    2    1    2    0    0  0.00000000000E+00  0.00000000000E+00 -0.14438957454E+04  0.31538931474E+04  0.28039627425E+04 0.  0.
        5    1    3    3  502    0 -0.72008158133E+03 -0.99710477144E+03 -0.14788246778E+04  0.19234552053E+04  0.46999998093E+01 0. -1.
       -5    1    3    3    0  502  0.72008158133E+03  0.99710477144E+03  0.34928932434E+02  0.12304379421E+04  0.46999998093E+01 0.  1.
</event>
<event>
 5   0  0.2267565E-06  0.2793710E+04  0.7818609E-02  0.8305224E-01
       -1   -1    0    0    0  501  0.00000000000E+00  0.00000000000E+00  0.16089813707E+04  0.16089813707E+04  0.50400001928E-02 0. -1.
        1   -1    0    0  501    0  0.00000000000E+00  0.00000000000E+00 -0.12126954054E+04  0.12126954055E+04  0.50400001928E-02 0.  1.
    10030    2    1    2    0    0  0.00000000000E+00  0.00000000000E+00  0.39628596522E+03  0.28216767761E+04  0.27937103040E+04 0.  0.
        4    1    3    3  502    0  0.30714171037E+02 -0.53822786411E+03  0.14996739392E+04  0.15936298601E+04  0.12699999809E+01 0. -1.
       -4    1    3    3    0  502 -0.30714171037E+02  0.53822786411E+03 -0.11033879740E+04  0.12280469161E+04  0.12699999809E+01 0.  1.
</event>
<event>
 5   0  0.5625245E-06  0.2752057E+04  0.7818609E-02  0.8318309E-01
        2   -1    0    0  501    0  0.00000000000E+00  0.00000000000E+00  0.13872671388E+04  0.13872671388E+04  0.25500000920E-02 0.  1.
       -2   -1    0    0    0  501  0.00000000000E+00  0.00000000000E+00 -0.13648811815E+04  0.13648811815E+04  0.25500000920E-02 0. -1.
    10030    2    1    2    0    0  0.00000000000E+00  0.00000000000E+00  0.22385957264E+02  0.27521483203E+04  0.27520572752E+04 0.  0.
        3    1    3    3  502    0 -0.96347089868E+03 -0.84114604386E+03 -0.49641810220E+03  0.13719452548E+04  0.10100000352E+00 0. -1.
       -3    1    3    3    0  502  0.96347089868E+03  0.84114604386E+03  0.51880405947E+03  0.13802030655E+04  0.10100000352E+00 0.  1.
</event>
<event>
 5   0  0.1901375E-06  0.2801871E+04  0.7818609E-02  0.8302688E-01
       -3   -1    0    0    0  501  0.00000000000E+00  0.00000000000E+00  0.13388597893E+04  0.13388597931E+04  0.10100000352E+00 0.  1.
        3   -1    0    0  501    0  0.00000000000E+00  0.00000000000E+00 -0.14658897349E+04  0.14658897384E+04  0.10100000352E+00 0. -1.
    10030    2    1    2    0    0  0.00000000000E+00  0.00000000000E+00 -0.12702994561E+03  0.28047495314E+04  0.28018713973E+04 0.  0.
        1    1    3    3  502    0  0.35525052372E+03 -0.36600076308E+03 -0.13696392910E+04  0.14615304583E+04  0.50400001928E-02 0. -1.
       -1    1    3    3    0  502 -0.35525052372E+03  0.36600076308E+03  0.12426093454E+04  0.13432190731E+04  0.50400001928E-02 0.  1.
</event>
<event>
 5   0  0.2234068E-06  0.2803068E+04  0.7818609E-02  0.8302316E-01
        1   -1    0    0  501    0  0.00000000000E+00  0.00000000000E+00  0.18929005912E+04  0.18929005912E+04  0.50400001928E-02 0. -1.
       -1   -1    0    0    0  501  0.00000000000E+00  0.00000000000E+00 -0.10377183434E+04  0.10377183434E+04  0.50400001928E-02 0.  1.
    10030    2    1    2    0    0  0.00000000000E+00  0.00000000000E+00  0.85518224778E+03  0.29306189347E+04  0.28030680804E+04 0.  0.
        3    1    3    3  502    0  0.45630965024E+03 -0.36740277834E+03  0.17587498773E+04  0.18537541475E+04  0.10100000352E+00 0. -1.
       -3    1    3    3    0  502 -0.45630965024E+03  0.36740277834E+03 -0.90356762952E+03  0.10768647871E+04  0.10100000352E+00 0.  1.
</event>
<event>
 5   0  0.2234068E-06  0.2789361E+04  0.7818609E-02  0.8306579E-01
        1   -1    0    0  501    0  0.00000000000E+00  0.00000000000E+00  0.23175326535E+04  0.23175326535E+04  0.50400001928E-02 0.  1.
       -1   -1    0    0    0  501  0.00000000000E+00  0.00000000000E+00 -0.83931236354E+03  0.83931236355E+03  0.50400001928E-02 0. -1.
    10030    2    1    2    0    0  0.00000000000E+00  0.00000000000E+00  0.14782202899E+04  0.31568450170E+04  0.27893610802E+04 0.  0.
        3    1    3    3  502    0  0.38427142032E+03  0.12878316257E+04  0.31722733498E+03  0.13808721928E+04  0.10100000352E+00 0. -1.
       -3    1    3    3    0  502 -0.38427142032E+03 -0.12878316257E+04  0.11609929549E+04  0.17759728242E+04  0.10100000352E+00 0.  1.
</event>
<event>
 5   0  0.2277133E-06  0.2739414E+04  0.7818609E-02  0.8322329E-01
       -1   -1    0    0    0  501  0.00000000000E+00  0.00000000000E+00  0.19115808354E+04  0.19115808354E+04  0.50400001928E-02 0. -1.
        1   -1    0    0  501    0  0.00000000000E+00  0.00000000000E+00 -0.98143738765E+03  0.98143738766E+03  0.50400001928E-02 0.  1.
    10030    2    1    2    0    0  0.00000000000E+00  0.00000000000E+00  0.93014344772E+03  0.28930182230E+04  0.27394137339E+04 0.  0.
        1    1    3    3  502    0 -0.95755975634E+03  0.85819332069E+03  0.96342185244E+03  0.16067352391E+04  0.50400001928E-02 0.  1.
       -1    1    3    3    0  502  0.95755975634E+03 -0.85819332069E+03 -0.33278404723E+02  0.12862829840E+04  0.50400001928E-02 0. -1.
</event>
<event>
 5   0  0.5625245E-06  0.2796276E+04  0.7818609E-02  0.8304425E-01
        2   -1    0    0  501    0  0.00000000000E+00  0.00000000000E+00  0.17408988180E+04  0.17408988180E+04  0.25500000920E-02 0.  1.
       -2   -1    0    0    0  501  0.00000000000E+00  0.00000000000E+00 -0.11228623117E+04  0.11228623117E+04  0.25500000920E-02 0. -1.
    10030    2    1    2    0    0  0.00000000000E+00  0.00000000000E+00  0.61803650631E+03  0.28637611296E+04  0.27962758599E+04 0.  0.
        3    1    3    3  502    0 -0.44985136082E+03  0.13722006529E+03  0.16574547004E+04  0.17228905035E+04  0.10100000352E+00 0.  1.
       -3    1    3    3    0  502  0.44985136082E+03 -0.13722006529E+03 -0.10394181941E+04  0.11408706261E+04  0.10100000352E+00 0. -1.
</event>
<event>
 5   0  0.5625245E-06  0.2719351E+04  0.7818609E-02  0.8328754E-01
        2   -1    0    0  501    0  0.00000000000E+00  0.00000000000E+00  0.19310280518E+04  0.19310280518E+04  0.25500000920E-02 0. -1.
       -2   -1    0    0    0  501  0.00000000000E+00  0.00000000000E+00 -0.95737441753E+03  0.95737441753E+03  0.25500000920E-02 0.  1.
    10030    2    1    2    0    0  0.00000000000E+00  0.00000000000E+00  0.97365363424E+03  0.28884024693E+04  0.27193505521E+04 0.  0.
        3    1    3    3  502    0 -0.94785229996E+03  0.18881041604E+03 -0.52899710332E+03  0.11017764298E+04  0.10100000352E+00 0.  1.
       -3    1    3    3    0  502  0.94785229996E+03 -0.18881041604E+03  0.15026507376E+04  0.17866260395E+04  0.10100000352E+00 0. -1.
</event>
<event>
 5   0  0.5866136E-06  0.2719337E+04  0.7818609E-02  0.8328758E-01
       -2   -1    0    0    0  501  0.00000000000E+00  0.00000000000E+00  0.96628545142E+03  0.96628545143E+03  0.25500000920E-02 0. -1.
        2   -1    0    0  501    0  0.00000000000E+00  0.00000000000E+00 -0.19132009896E+04  0.19132009896E+04  0.25500000920E-02 0.  1.
    10030    2    1    2    0    0  0.00000000000E+00  0.00000000000E+00 -0.94691553819E+03  0.28794864410E+04  0.27193368912E+04 0.  0.
        5    1    3    3  502    0 -0.97424728242E+03  0.89605229474E+03 -0.14433330551E+03  0.13315110496E+04  0.46999998093E+01 0.  1.
       -5    1    3    3    0  502  0.97424728242E+03 -0.89605229474E+03 -0.80258223268E+03  0.15479753914E+04  0.46999998093E+01 0. -1.
</event>
<event>
 5   0  0.2190865E-06  0.2805185E+04  0.7818609E-02  0.8301660E-01
        1   -1    0    0  501    0  0.00000000000E+00  0.00000000000E+00  0.18302622916E+04  0.18302622916E+04  0.50400001928E-02 0.  1.
       -1   -1    0    0    0  501  0.00000000000E+00  0.00000000000E+00 -0.10748548704E+04  0.10748548704E+04  0.50400001928E-02 0. -1.
    10030    2    1    2    0    0  0.00000000000E+00  0.00000000000E+00  0.75540742117E+03  0.29051171621E+04  0.28051854401E+04 0.  0.
        2    1    3    3  502    0  0.78054189952E+03  0.69894183746E+03 -0.58798491509E+03  0.12014539564E+04  0.25500000920E-02 0. -1.
       -2    1    3    3    0  502 -0.78054189952E+03 -0.69894183746E+03  0.13433923363E+04  0.17036632056E+04  0.25500000920E-02 0.  1.
</event>
<event>
 5   0  0.2267565E-06  0.2788851E+04  0.7818609E-02  0.8306738E-01
        1   -1    0    0  501    0  0.00000000000E+00  0.00000000000E+00  0.16018038910E+04  0.16018038910E+04  0.50400001928E-02 0. -1.
       -1   -1    0    0    0  501  0.00000000000E+00  0.00000000000E+00 -0.12138956340E+04  0.12138956340E+04  0.50400001928E-02 0.  1.
    10030    2    1    2    0    0  0.00000000000E+00  0.00000000000E+00  0.38790825701E+03  0.28156995250E+04  0.27888511971E+04 0.  0.
        4    1    3    3  502    0  0.69725408118E+03  0.11980222334E+04  0.40834573889E+02  0.13867550615E+04  0.12699999809E+01 0.  1.
       -4    1    3    3    0  502 -0.69725408118E+03 -0.11980222334E+04  0.34707368313E+03  0.14289444635E+04  0.12699999809E+01 0. -1.
</event>
<event>
 5   0  0.5916603E-06  0.2816591E+04  0.7818609E-02  0.8298136E-01
       -2   -1    0    0    0  501  0.00000000000E+00  0.00000000000E+00  0.11732978500E+04  0.11732978500E+04  0.25500000920E-02 0.  1.
        2   -1    0    0  501    0  0.00000000000E+00  0.00000000000E+00 -0.16903609290E+04  0.16903609290E+04  0.25500000920E-02 0. -1.
    10030    2    1    2    0    0  0.00000000000E+00  0.00000000000E+00 -0.51706307901E+03  0.28636587791E+04  0.28165914463E+04 0.  0.
        2    1    3    3  502    0 -0.34493070838E+03 -0.59788526499E+03 -0.15065839846E+04  0.16571781094E+04  0.25500000920E-02 0. -1.
       -2    1    3    3    0  502  0.34493070838E+03  0.59788526499E+03  0.98952090558E+03  0.12064806697E+04  0.25500000920E-02 0.  1.
</event>
<event>
 5   0  0.5625245E-06  0.2775851E+04  0.7818609E-02  0.8310805E-01
       -2   -1    0    0    0  501  0.00000000000E+00  0.00000000000E+00  0.10205573933E+04  0.10205573933E+04  0.25500000920E-02 0.  1.
        2   -1    0    0  501    0  0.00000000000E+00  0.00000000000E+00 -0.18875344859E+04  0.18875344859E+04  0.25500000920E-02 0. -1.
    10030    2    1    2    0    0  0.00000000000E+00  0.00000000000E+00 -0.86697709266E+03  0.29080918792E+04  0.27758510585E+04 0.  0.
        3    1    3    3  502    0  0.24299288291E+03 -0.76045752859E+03  0.75593836542E+03  0.10994471413E+04  0.10100000352E+00 0.  1.
       -3    1    3    3    0  502 -0.24299288291E+03  0.76045752859E+03 -0.16229154581E+04  0.18086447380E+04  0.10100000352E+00 0. -1.
</event>
<event>
 5   0  0.2277133E-06  0.2784489E+04  0.7818609E-02  0.8308100E-01
        1   -1    0    0  501    0  0.00000000000E+00  0.00000000000E+00  0.72039086134E+03  0.72039086135E+03  0.50400001928E-02 0. -1.
       -1   -1    0    0    0  501  0.00000000000E+00  0.00000000000E+00 -0.26906856381E+04  0.26906856381E+04  0.50400001928E-02 0.  1.
    10030    2    1    2    0    0  0.00000000000E+00  0.00000000000E+00 -0.19702947768E+04  0.34110764995E+04  0.27844894286E+04 0.  0.
        1    1    3    3  502    0  0.45007726717E+03 -0.11707718326E+04 -0.24497405956E+03  0.12780017685E+04  0.50400001928E-02 0.  1.
       -1    1    3    3    0  502 -0.45007726717E+03  0.11707718326E+04 -0.17253207172E+04  0.21330747309E+04  0.50400001928E-02 0. -1.
</event>
<event>
 5   0  0.5866136E-06  0.2806877E+04  0.7818609E-02  0.8301137E-01
       -2   -1    0    0    0  501  0.00000000000E+00  0.00000000000E+00  0.12969579912E+04  0.12969579912E+04  0.25500000920E-02 0.  1.
        2   -1    0    0  501    0  0.00000000000E+00  0.00000000000E+00 -0.15186609060E+04  0.15186609060E+04  0.25500000920E-02 0. -1.
    10030    2    1    2    0    0  0.00000000000E+00  0.00000000000E+00 -0.22170291479E+03  0.28156188972E+04  0.28068768394E+04 0.  0.
        5    1    3    3  502    0  0.86965741318E+03 -0.28677282905E+03 -0.11776837328E+04  0.14918122322E+04  0.46999998093E+01 0. -1.
       -5    1    3    3    0  502 -0.86965741318E+03  0.28677282905E+03  0.95598081798E+03  0.13238066649E+04  0.46999998093E+01 0.  1.
</event>
<event>
 5   0  0.2267565E-06  0.2796427E+04  0.7818609E-02  0.8304378E-01
       -1   -1    0    0    0  501  0.00000000000E+00  0.00000000000E+00  0.94217207577E+03  0.94217207578E+03  0.50400001928E-02 0. -1.
        1   -1    0    0  501    0  0.00000000000E+00  0.00000000000E+00 -0.20749939892E+04  0.20749939892E+04  0.50400001928E-02 0.  1.
    10030    2    1    2    0    0  0.00000000000E+00  0.00000000000E+00 -0.11328219134E+04  0.30171660650E+04  0.27964272878E+04 0.  0.
        4    1    3    3  502    0  0.36860269370E+03 -0.44440950170E+03 -0.19403638406E+04  0.20244458990E+04  0.12699999809E+01 0.  1.
       -4    1    3    3    0  502 -0.36860269370E+03  0.44440950170E+03  0.80754192717E+03  0.99272016603E+03  0.12699999809E+01 0. -1.
</event>
<event>
 5   0  0.2206967E-06  0.2709709E+04  0.7818609E-02  0.8331862E-01
       -1   -1    0    0    0  501  0.00000000000E+00  0.00000000000E+00  0.10154644669E+04  0.10154644669E+04  0.50400001928E-02 0.  1.
        1   -1    0    0  501    0  0.00000000000E+00  0.00000000000E+00 -0.18076764097E+04  0.18076764097E+04  0.50400001928E-02 0. -1.
    10030    2    1    2    0    0  0.00000000000E+00  0.00000000000E+00 -0.79221194284E+03  0.28231408766E+04  0.27097093289E+04 0.  0.
        5    1    3    3  502    0 -0.10887082112E+04  0.33693263431E+03 -0.11594425217E+04  0.16257731147E+04  0.46999998093E+01 0. -1.
       -5    1    3    3    0  502  0.10887082112E+04 -0.33693263431E+03  0.36723057889E+03  0.11973677619E+04  0.46999998093E+01 0.  1.
</event>
<event>
 5   0  0.5916603E-06  0.2789571E+04  0.7818609E-02  0.8306514E-01
       -2   -1    0    0    0  501  0.00000000000E+00  0.00000000000E+00  0.25027770570E+04  0.25027770570E+04  0.25500000920E-02 0.  1.
        2   -1    0    0  501    0  0.00000000000E+00  0.00000000000E+00 -0.77730699508E+03  0.77730699509E+03  0.25500000920E-02 0. -1.
    10030    2    1    2    0    0  0.00000000000E+00  0.00000000000E+00  0.17254700619E+04  0.32800840521E+04  0.27895706577E+04 0.  0.
        2    1    3    3  502    0 -0.30229215477E+03 -0.12942573906E+04  0.13601346140E+04  0.19016963238E+04  0.25500000920E-02 0.  1.
       -2    1    3    3    0  502  0.30229215477E+03  0.12942573906E+04  0.36533544798E+03  0.13783877283E+04  0.25500000920E-02 0. -1.
</event>
<event>
 5   0  0.2277133E-06  0.2812518E+04  0.7818609E-02  0.8299393E-01
        1   -1    0    0  501    0  0.00000000000E+00  0.00000000000E+00  0.12317233845E+04  0.12317233845E+04  0.50400001928E-02 0. -1.
       -1   -1    0    0    0  501  0.00000000000E+00  0.00000000000E+00 -0.16055263272E+04  0.16055263272E+04  0.50400001928E-02 0.  1.
    10030    2    1    2    0    0  0.00000000000E+00  0.00000000000E+00 -0.37380294269E+03  0.28372497118E+04  0.28125179621E+04 0.  0.
        1    1    3    3  502    0  0.40840023715E+03  0.97160438754E+03  0.75228387098E+03  0.12948887451E+04  0.50400001928E-02 0. -1.
       -1    1    3    3    0  502 -0.40840023715E+03 -0.97160438754E+03 -0.11260868137E+04  0.15423609667E+04  0.50400001928E-02 0.  1.
</event>
<event>
 5   0  0.2190865E-06  0.2793362E+04  0.7818609E-02  0.8305332E-01
        1   -1    0    0  501    0  0.00000000000E+00  0.00000000000E+00  0.20575262998E+04  0.20575262998E+04  0.50400001928E-02 0. -1.
       -1   -1    0    0    0  501  0.00000000000E+00  0.00000000000E+00 -0.94808880923E+03  0.94808880924E+03  0.50400001928E-02 0.  1.
    10030    2    1    2    0    0  0.00000000000E+00  0.00000000000E+00  0.11094374906E+04  0.30056151091E+04  0.27933618882E+04 0.  0.
        2    1    3    3  502    0  0.10095129853E+04 -0.43672821110E+03  0.14808596526E+04  0.18446661781E+04  0.25500000920E-02 0. -1.
       -2    1    3    3    0  502 -0.10095129853E+04  0.43672821110E+03 -0.37142216205E+03  0.11609489310E+04  0.25500000920E-02 0.  1.
</event>
<event>
 5   0  0.5866136E-06  0.2837791E+04  0.7818609E-02  0.8291631E-01
        2   -1    0    0  501    0  0.00000000000E+00  0.00000000000E+00  0.17534649196E+04  0.17534649196E+04  0.25500000920E-02 0. -1.
       -2   -1    0    0    0  501  0.00000000000E+00  0.00000000000E+00 -0.11481636868E+04  0.11481636868E+04  0.25500000920E-02 0.  1.
    10030    2    1    2    0    0  0.00000000000E+00  0.00000000000E+00  0.60530123282E+03  0.29016286065E+04  0.28377912163E+04 0.  0.
        5    1    3    3  502    0  0.10265431682E+04 -0.24449665477E+03 -0.66719759187E+03  0.12484967789E+04  0.46999998093E+01 0. -1.
       -5    1    3    3    0  502 -0.10265431682E+04  0.24449665477E+03  0.12724988247E+04  0.16531318275E+04  0.46999998093E+01 0.  1.
</event>
<event>
 5   0  0.5546570E-06  0.2828262E+04  0.7818609E-02  0.8294547E-01
        2   -1    0    0  501    0  0.00000000000E+00  0.00000000000E+00  0.15483383597E+04  0.15483383597E+04  0.25500000920E-02 0. -1.
       -2   -1    0    0    0  501  0.00000000000E+00  0.00000000000E+00 -0.12915565132E+04  0.12915565132E+04  0.25500000920E-02 0.  1.
    10030    2    1    2    0    0  0.00000000000E+00  0.00000000000E+00  0.25678184649E+03  0.28398948729E+04  0.28282620056E+04 0.  0.
        4    1    3    3  502    0  0.11565050595E+04  0.78613641534E+03 -0.82832238210E+02  0.14008487459E+04  0.12699999809E+01 0.  1.
       -4    1    3    3    0  502 -0.11565050595E+04 -0.78613641534E+03  0.33961408470E+03  0.14390461270E+04  0.12699999809E+01 0. -1.
</event>
<event>
 5   0  0.2190865E-06  0.2828221E+04  0.7818609E-02  0.8294560E-01
        1   -1    0    0  501    0  0.00000000000E+00  0.00000000000E+00  0.96401198078E+03  0.96401198080E+03  0.50400001928E-02 0. -1.
       -1   -1    0    0    0  501  0.00000000000E+00  0.00000000000E+00 -0.20743612487E+04  0.20743612487E+04  0.50400001928E-02 0.  1.
    10030    2    1    2    0    0  0.00000000000E+00  0.00000000000E+00 -0.11103492679E+04  0.30383732295E+04  0.28282214172E+04 0.  0.
        2    1    3    3  502    0 -0.30975079583E+03  0.11416616444E+04  0.27723675270E+03  0.12149885114E+04  0.25500000920E-02 0. -1.
       -2    1    3    3    0  502  0.30975079583E+03 -0.11416616444E+04 -0.13875860206E+04  0.18233847181E+04  0.25500000920E-02 0.  1.
</event>
<event>
 5   0  0.2234068E-06  0.2675661E+04  0.7818609E-02  0.8342946E-01
       -1   -1    0    0    0  501  0.00000000000E+00  0.00000000000E+00  0.10906856702E+04  0.10906856702E+04  0.50400001928E-02 0. -1.
        1   -1    0    0  501    0  0.00000000000E+00  0.00000000000E+00 -0.16409775177E+04  0.16409775177E+04  0.50400001928E-02 0.  1.
    10030    2    1    2    0    0  0.00000000000E+00  0.00000000000E+00 -0.55029184745E+03  0.27316631879E+04  0.26756611622E+04 0.  0.
        3    1    3    3  502    0 -0.52749135063E+03  0.12134914682E+04 -0.47671690548E+03  0.14064379426E+04  0.10100000352E+00 0.  1.
       -3    1    3    3    0  502  0.52749135063E+03 -0.12134914682E+04 -0.73574941970E+02  0.13252252452E+04  0.10100000352E+00 0. -1.
</event>
<event>
 5   0  0.2190865E-06  0.2844606E+04  0.7818609E-02  0.8289552E-01
        1   -1    0    0  501    0  0.00000000000E+00  0.00000000000E+00  0.14428933980E+04  0.14428933980E+04  0.50400001928E-02 0.  1.
       -1   -1    0    0    0  501  0.00000000000E+00  0.00000000000E+00 -0.14020065194E+04  0.14020065194E+04  0.50400001928E-02 0. -1.
    10030    2    1    2    0    0  0.00000000000E+00  0.00000000000E+00  0.40886878617E+02  0.28448999175E+04  0.28446060893E+04 0.  0.
        2    1    3    3  502    0 -0.11573905136E+04 -0.20563070117E+03 -0.78033219448E+03  0.14109412178E+04  0.25500000920E-02 0. -1.
       -2    1    3    3    0  502  0.11573905136E+04  0.20563070117E+03  0.82121907309E+03  0.14339586997E+04  0.25500000920E-02 0.  1.
</event>
<event>
 5   0  0.5625245E-06  0.2758104E+04  0.7818609E-02  0.8316395E-01
        2   -1    0    0  501    0  0.00000000000E+00  0.00000000000E+00  0.16821576054E+04  0.16821576054E+04  0.25500000920E-02 0. -1.
       -2   -1    0    0    0  501  0.00000000000E+00  0.00000000000E+00 -0.11305626658E+04  0.11305626658E+04  0.25500000920E-02 0.  1.
    10030    2    1    2    0    0  0.00000000000E+00  0.00000000000E+00  0.55159493959E+03  0.28127202712E+04  0.27581041218E+04 0.  0.
        3    1    3    3  502    0  0.12435405121E+03  0.39625511731E+03  0.16168672435E+04  0.16693536897E+04  0.10100000352E+00 0. -1.
       -3    1    3    3    0  502 -0.12435405121E+03 -0.39625511731E+03 -0.10652723039E+04  0.11433665815E+04  0.10100000352E+00 0.  1.
</event>
<event>
 5   0  0.1901375E-06  0.2672657E+04  0.7818609E-02  0.8343932E-01
        3   -1    0    0  501    0  0.00000000000E+00  0.00000000000E+00  0.13253555358E+04  0.13253555396E+04  0.10100000352E+00 0. -1.
       -3   -1    0    0    0  501  0.00000000000E+00  0.00000000000E+00 -0.13473920157E+04  0.13473920195E+04  0.10100000352E+00 0.  1.
    10030    2    1    2    0    0  0.00000000000E+00  0.00000000000E+00 -0.22036479907E+02  0.26727475591E+04  0.26726567135E+04 0.  0.
        3    1    3    3  502    0 -0.70879647570E+02  0.98518099600E+03 -0.91114213412E+03  0.13437951920E+04  0.10100000352E+00 0.  1.
       -3    1    3    3    0  502  0.70879647570E+02 -0.98518099600E+03  0.88910565421E+03  0.13289523670E+04  0.10100000352E+00 0. -1.
</event>
<event>
 5   0  0.2267565E-06  0.2799582E+04  0.7818609E-02  0.8303398E-01
        1   -1    0    0  501    0  0.00000000000E+00  0.00000000000E+00  0.19063236468E+04  0.19063236468E+04  0.50400001928E-02 0.  1.
       -1   -1    0    0    0  501  0.00000000000E+00  0.00000000000E+00 -0.10278502345E+04  0.10278502345E+04  0.50400001928E-02 0. -1.
    10030    2    1    2    0    0  0.00000000000E+00  0.00000000000E+00  0.87847341237E+03  0.29341738813E+04  0.27995822598E+04 0.  0.
        4    1    3    3  502    0 -0.91005492779E+02  0.24701967860E+03  0.18801454741E+04  0.18984860647E+04  0.12699999809E+01 0.  1.
       -4    1    3    3    0  502  0.91005492779E+02 -0.24701967860E+03 -0.10016720617E+04  0.10356878166E+04  0.12699999809E+01 0. -1.
</event>
<event>
 5   0  0.2234068E-06  0.2756552E+04  0.7818609E-02  0.8316886E-01
        1   -1    0    0  501    0  0.00000000000E+00  0.00000000000E+00  0.12742503006E+04  0.12742503006E+04  0.50400001928E-02 0. -1.
       -1   -1    0    0    0  501  0.00000000000E+00  0.00000000000E+00 -0.14907939959E+04  0.14907939959E+04  0.50400001928E-02 0.  1.
    10030    2    1    2    0    0  0.00000000000E+00  0.00000000000E+00 -0.21654369531E+03  0.27650442965E+04  0.27565519748E+04 0.  0.
        3    1    3    3  502    0  0.83510852711E+03  0.10048795316E+03 -0.12034875159E+04  0.14682936667E+04  0.10100000352E+00 0.  1.
       -3    1    3    3    0  502 -0.83510852711E+03 -0.10048795316E+03  0.98694382054E+03  0.12967506298E+04  0.10100000352E+00 0. -1.
</event>
<event>
 5   0  0.5584205E-06  0.2750108E+04  0.7818609E-02  0.8318927E-01
        2   -1    0    0  501    0  0.00000000000E+00  0.00000000000E+00  0.18866821777E+04  0.18866821777E+04  0.25500000920E-02 0.  1.
       -2   -1    0    0    0  501  0.00000000000E+00  0.00000000000E+00 -0.10021684043E+04  0.10021684043E+04  0.25500000920E-02 0. -1.
    10030    2    1    2    0    0  0.00000000000E+00  0.00000000000E+00  0.88451377344E+03  0.28888505821E+04  0.27501078288E+04 0.  0.
        1    1    3    3  502    0  0.10866650950E+04  0.82910556670E+03  0.28463268955E+03  0.13961636141E+04  0.50400001928E-02 0. -1.
       -1    1    3    3    0  502 -0.10866650950E+04 -0.82910556670E+03  0.59988108389E+03  0.14926869679E+04  0.50400001928E-02 0.  1.
</event>
<event>
 5   0  0.2277133E-06  0.2749683E+04  0.7818609E-02  0.8319062E-01
       -1   -1    0    0    0  501  0.00000000000E+00  0.00000000000E+00  0.86103728625E+03  0.86103728626E+03  0.50400001928E-02 0.  1.
        1   -1    0    0  501    0  0.00000000000E+00  0.00000000000E+00 -0.21952462584E+04  0.21952462584E+04  0.50400001928E-02 0. -1.
    10030    2    1    2    0    0  0.00000000000E+00  0.00000000000E+00 -0.13342089721E+04  0.30562835447E+04  0.27496828043E+04 0.  0.
        1    1    3    3  502    0 -0.36578726480E+03  0.92590536609E+03  0.38682632340E+03  0.10680522808E+04  0.50400001928E-02 0.  1.
       -1    1    3    3    0  502  0.36578726480E+03 -0.92590536609E+03 -0.17210352955E+04  0.19882312639E+04  0.50400001928E-02 0. -1.
</event>
<event>
 5   0  0.5625245E-06  0.2808694E+04  0.7818609E-02  0.8300574E-01
       -2   -1    0    0    0  501  0.00000000000E+00  0.00000000000E+00  0.93199699918E+03  0.93199699919E+03  0.25500000920E-02 0.  1.
        2   -1    0    0  501    0  0.00000000000E+00  0.00000000000E+00 -0.21160914433E+04  0.21160914433E+04  0.25500000920E-02 0. -1.
    10030    2    1    2    0    0  0.00000000000E+00  0.00000000000E+00 -0.11840944442E+04  0.30480884425E+04  0.28086942697E+04 0.  0.
        3    1    3    3  502    0  0.11544652869E+04  0.36592940634E+02  0.27482371351E+03  0.11872898659E+04  0.10100000352E+00 0. -1.
       -3    1    3    3    0  502 -0.11544652869E+04 -0.36592940634E+02 -0.14589181577E+04  0.18607985767E+04  0.10100000352E+00 0.  1.
</event>
<event>
 5   0  0.5625245E-06  0.2800608E+04  0.7818609E-02  0.8303080E-01
       -2   -1    0    0    0  501  0.00000000000E+00  0.00000000000E+00  0.13772023611E+04  0.13772023611E+04  0.25500000920E-02 0. -1.
        2   -1    0    0  501    0  0.00000000000E+00  0.00000000000E+00 -0.14237932126E+04  0.14237932126E+04  0.25500000920E-02 0.  1.
    10030    2    1    2    0    0  0.00000000000E+00  0.00000000000E+00 -0.46590851529E+02  0.28009955736E+04  0.28006080583E+04 0.  0.
        3    1    3    3  502    0  0.35622853688E+03 -0.11291410971E+04  0.72446635497E+03  0.13880597600E+04  0.10100000352E+00 0. -1.
       -3    1    3    3    0  502 -0.35622853688E+03  0.11291410971E+04 -0.77105720650E+03  0.14129358137E+04  0.10100000352E+00 0.  1.
</event>
<event>
 5   0  0.5546570E-06  0.2820173E+04  0.7818609E-02  0.8297033E-01
        2   -1    0    0  501    0  0.00000000000E+00  0.00000000000E+00  0.23101667887E+04  0.23101667887E+04  0.25500000920E-02 0.  1.
       -2   -1    0    0    0  501  0.00000000000E+00  0.00000000000E+00 -0.86069308302E+03  0.86069308303E+03  0.25500000920E-02 0. -1.
    10030    2    1    2    0    0  0.00000000000E+00  0.00000000000E+00  0.14494737057E+04  0.31708598717E+04  0.28201734526E+04 0.  0.
        4    1    3    3  502    0 -0.26311653222E+03  0.12465969930E+04  0.45357638688E+02  0.12748699153E+04  0.12699999809E+01 0. -1.
       -4    1    3    3    0  502  0.26311653222E+03 -0.12465969930E+04  0.14041160670E+04  0.18959899565E+04  0.12699999809E+01 0.  1.
</event>
<event>
 5   0  0.2206967E-06  0.2792218E+04  0.7818609E-02  0.8305688E-01
       -1   -1    0    0    0  501  0.00000000000E+00  0.00000000000E+00  0.90186633109E+03  0.90186633110E+03  0.50400001928E-02 0. -1.
        1   -1    0    0  501    0  0.00000000000E+00  0.00000000000E+00 -0.21612080571E+04  0.21612080572E+04  0.50400001928E-02 0.  1.
    10030    2    1    2    0    0  0.00000000000E+00  0.00000000000E+00 -0.12593417261E+04  0.30630743883E+04  0.27922183161E+04 0.  0.
        5    1    3    3  502    0  0.12888426581E+04 -0.44557927864E+03 -0.95775096824E+03  0.16664229049E+04  0.46999998093E+01 0.  1.
       -5    1    3    3    0  502 -0.12888426581E+04  0.44557927864E+03 -0.30159075782E+03  0.13966514834E+04  0.46999998093E+01 0. -1.
</event>
<event>
 5   0  0.5546570E-06  0.2756535E+04  0.7818609E-02  0.8316891E-01
        2   -1    0    0  501    0  0.00000000000E+00  0.00000000000E+00  0.93738653084E+03  0.93738653084E+03  0.25500000920E-02 0.  1.
       -2   -1    0    0    0  501  0.00000000000E+00  0.00000000000E+00 -0.20265074523E+04  0.20265074523E+04  0.25500000920E-02 0. -1.
    10030    2    1    2    0    0  0.00000000000E+00  0.00000000000E+00 -0.10891209215E+04  0.29638939831E+04  0.27565346292E+04 0.  0.
        4    1    3    3  502    0  0.42529665192E+03  0.12883416573E+04 -0.28357149878E+03  0.13860432446E+04  0.12699999809E+01 0.  1.
       -4    1    3    3    0  502 -0.42529665192E+03 -0.12883416573E+04 -0.80554942269E+03  0.15778507386E+04  0.12699999809E+01 0. -1.
</event>
<event>
 5   0  0.2206967E-06  0.2777764E+04  0.7818609E-02  0.8310205E-01
       -1   -1    0    0    0  501  0.00000000000E+00  0.00000000000E+00  0.66873872061E+03  0.66873872063E+03  0.50400001928E-02 0. -1.
        1   -1    0    0  501    0  0.00000000000E+00  0.00000000000E+00 -0.28845253503E+04  0.28845253503E+04  0.50400001928E-02 0.  1.
    10030    2    1    2    0    0  0.00000000000E+00  0.00000000000E+00 -0.22157866296E+04  0.35532640709E+04  0.27777644193E+04 0.  0.
        5    1    3    3  502    0 -0.52940940032E+03 -0.99305352931E+03 -0.66682174184E+02  0.11273412206E+04  0.46999998093E+01 0.  1.
       -5    1    3    3    0  502  0.52940940032E+03  0.99305352931E+03 -0.21491044555E+04  0.24259228503E+04  0.46999998093E+01 0. -1.
</event>
<event>
 5   0  0.5584205E-06  0.2745146E+04  0.7818609E-02  0.8320504E-01
        2   -1    0    0  501    0  0.00000000000E+00  0.00000000000E+00  0.19824888834E+04  0.19824888834E+04  0.25500000920E-02 0.  1.
       -2   -1    0    0    0  501  0.00000000000E+00  0.00000000000E+00 -0.95029859820E+03  0.95029859820E+03  0.25500000920E-02 0. -1.
    10030    2    1    2    0    0  0.00000000000E+00  0.00000000000E+00  0.10321902852E+04  0.29327874817E+04  0.27451458299E+04 0.  0.
        1    1    3    3  502    0 -0.14219823152E+03 -0.14477057706E+03 -0.93418409589E+03  0.95597007384E+03  0.50400001928E-02 0. -1.
       -1    1    3    3    0  502  0.14219823152E+03  0.14477057706E+03  0.19663743811E+04  0.19768174078E+04  0.50400001928E-02 0.  1.
</event>
<event>
 5   0  0.2190865E-06  0.2724693E+04  0.7818609E-02  0.8327037E-01
       -1   -1    0    0    0  501  0.00000000000E+00  0.00000000000E+00  0.13622588577E+04  0.13622588577E+04  0.50400001928E-02 0.  1.
        1   -1    0    0  501    0  0.00000000000E+00  0.00000000000E+00 -0.13624341849E+04  0.13624341849E+04  0.50400001928E-02 0. -1.
    10030    2    1    2    0    0  0.00000000000E+00  0.00000000000E+00 -0.17532714669E+00  0.27246930426E+04  0.27246930370E+04 0.  0.
        2    1    3    3  502    0 -0.77063182633E+03  0.91445911887E+03 -0.65268183025E+03  0.13623885141E+04  0.25500000920E-02 0. -1.
       -2    1    3    3    0  502  0.77063182633E+03 -0.91445911887E+03  0.65250650310E+03  0.13623045285E+04  0.25500000920E-02 0.  1.
</event>
<event>
 5   0  0.5866136E-06  0.2831018E+04  0.7818609E-02  0.8293703E-01
       -2   -1    0    0    0  501  0.00000000000E+00  0.00000000000E+00  0.15857239669E+04  0.15857239669E+04  0.25500000920E-02 0. -1.
        2   -1    0    0  501    0  0.00000000000E+00  0.00000000000E+00 -0.12635650169E+04  0.12635650169E+04  0.25500000920E-02 0.  1.
    10030    2    1    2    0    0  0.00000000000E+00  0.00000000000E+00  0.32215894998E+03  0.28492889837E+04  0.28310177187E+04 0.  0.
        5    1    3    3  502    0 -0.45918109745E+03  0.12410378352E+04 -0.34477859338E+03  0.13674489231E+04  0.46999998093E+01 0.  1.
       -5    1    3    3    0  502  0.45918109745E+03 -0.12410378352E+04  0.66693754336E+03  0.14818400607E+04  0.46999998093E+01 0. -1.
</event>
<event>
 5   0  0.2234068E-06  0.2833360E+04  0.7818609E-02  0.8292985E-01
        1   -1    0    0  501    0  0.00000000000E+00  0.00000000000E+00  0.17832396658E+04  0.17832396658E+04  0.50400001928E-02 0. -1.
       -1   -1    0    0    0  501  0.00000000000E+00  0.00000000000E+00 -0.11254700763E+04  0.11254700763E+04  0.50400001928E-02 0.  1.
    10030    2    1    2    0    0  0.00000000000E+00  0.00000000000E+00  0.65776958951E+03  0.29087097421E+04  0.28333604662E+04 0.  0.
        3    1    3    3  502    0  0.11751335911E+03  0.34392298198E+03  0.17345649246E+04  0.17722324608E+04  0.10100000352E+00 0. -1.
       -3    1    3    3    0  502 -0.11751335911E+03 -0.34392298198E+03 -0.10767953351E+04  0.11364772814E+04  0.10100000352E+00 0.  1.
</event>
<event>
 5   0  0.2234068E-06  0.2804866E+04  0.7818609E-02  0.8301759E-01
       -1   -1    0    0    0  501  0.00000000000E+00  0.00000000000E+00  0.14091706969E+04  0.14091706969E+04  0.50400001928E-02 0. -1.
        1   -1    0    0  501    0  0.00000000000E+00  0.00000000000E+00 -0.13957271079E+04  0.13957271079E+04  0.50400001928E-02 0.  1.
    10030    2    1    2    0    0  0.00000000000E+00  0.00000000000E+00  0.13443589021E+02  0.28048978048E+04  0.28048655877E+04 0.  0.
        3    1    3    3  502    0  0.74481473280E+01  0.79267615592E+03  0.11636390408E+04  0.14079938887E+04  0.10100000352E+00 0. -1.
       -3    1    3    3    0  502 -0.74481473280E+01 -0.79267615592E+03 -0.11501954518E+04  0.13969039160E+04  0.10100000352E+00 0.  1.
</event>
<event>
 5   0  0.2234068E-06  0.2782808E+04  0.7818609E-02  0.8308626E-01
        1   -1    0    0  501    0  0.00000000000E+00  0.00000000000E+00  0.17690899036E+04  0.17690899036E+04  0.50400001928E-02 0.  1.
       -1   -1    0    0    0  501  0.00000000000E+00  0.00000000000E+00 -0.10943505006E+04  0.10943505006E+04  0.50400001928E-02 0. -1.
    10030    2    1    2    0    0  0.00000000000E+00  0.00000000000E+00  0.67473940305E+03  0.28634404042E+04  0.27828075188E+04 0.  0.
        3    1    3    3  502    0 -0.13097379287E+04  0.45932909788E+03  0.43822897045E+03  0.14554866206E+04  0.10100000352E+00 0. -1.
       -3    1    3    3    0  502  0.13097379287E+04 -0.45932909788E+03  0.23651043260E+03  0.14079537836E+04  0.10100000352E+00 0.  1.
</event>
<event>
 5   0  0.2190865E-06  0.2795898E+04  0.7818609E-02  0.8304543E-01
       -1   -1    0    0    0  501  0.00000000000E+00  0.00000000000E+00  0.22914099208E+04  0.22914099208E+04  0.50400001928E-02 0.  1.
        1   -1    0    0  501    0  0.00000000000E+00  0.00000000000E+00 -0.85286421418E+03  0.85286421420E+03  0.50400001928E-02 0. -1.
    10030    2    1    2    0    0  0.00000000000E+00  0.00000000000E+00  0.14385457066E+04  0.31442741350E+04  0.27958980822E+04 0.  0.
        2    1    3    3  502    0 -0.65056621196E+03 -0.37443102016E+03 -0.60700815606E+03  0.96534651112E+03  0.25500000920E-02 0. -1.
       -2    1    3    3    0  502  0.65056621196E+03  0.37443102016E+03  0.20455538627E+04  0.21789276239E+04  0.25500000920E-02 0.  1.
</event>
<event>
 5   0  0.2206967E-06  0.2816552E+04  0.7818609E-02  0.8298148E-01
        1   -1    0    0  501    0  0.00000000000E+00  0.00000000000E+00  0.13871271369E+04  0.13871271369E+04  0.50400001928E-02 0.  1.
       -1   -1    0    0    0  501  0.00000000000E+00  0.00000000000E+00 -0.14297472800E+04  0.14297472801E+04  0.50400001928E-02 0. -1.
    10030    2    1    2    0    0  0.00000000000E+00  0.00000000000E+00 -0.42620143174E+02  0.28168744169E+04  0.28165519708E+04 0.  0.
        5    1    3    3  502    0 -0.22409488373E+03  0.91129823869E+03  0.10288273580E+04  0.13925483185E+04  0.46999998093E+01 0.  1.
       -5    1    3    3    0  502  0.22409488373E+03 -0.91129823869E+03 -0.10714475012E+04  0.14243260984E+04  0.46999998093E+01 0. -1.
</event>
<event>
 5   0  0.5866136E-06  0.2772728E+04  0.7818609E-02  0.8311786E-01
        2   -1    0    0  501    0  0.00000000000E+00  0.00000000000E+00  0.17285039576E+04  0.17285039576E+04  0.25500000920E-02 0. -1.
       -2   -1    0    0    0  501  0.00000000000E+00  0.00000000000E+00 -0.11119471571E+04  0.11119471571E+04  0.25500000920E-02 0.  1.
    10030    2    1    2    0    0  0.00000000000E+00  0.00000000000E+00  0.61655680051E+03  0.28404511146E+04  0.27727279431E+04 0.  0.
        5    1    3    3  502    0  0.14743603048E+03  0.75660143368E+02 -0.11017562558E+04  0.11141592245E+04  0.46999998093E+01 0.  1.
       -5    1    3    3    0  502 -0.14743603048E+03 -0.75660143368E+02  0.17183130563E+04  0.17262918901E+04  0.46999998093E+01 0. -1.
</event>
<event>
 5   0  0.1901375E-06  0.2772414E+04  0.7818609E-02  0.8311884E-01
       -3   -1    0    0    0  501  0.00000000000E+00  0.00000000000E+00  0.12907012214E+04  0.12907012253E+04  0.10100000352E+00 0.  1.
        3   -1    0    0  501    0  0.00000000000E+00  0.00000000000E+00 -0.14887797514E+04  0.14887797548E+04  0.10100000352E+00 0. -1.
    10030    2    1    2    0    0  0.00000000000E+00  0.00000000000E+00 -0.19807852998E+03  0.27794809802E+04  0.27724140050E+04 0.  0.
        1    1    3    3  502    0 -0.85002291867E+03  0.10471911875E+04 -0.41988864629E+03  0.14126056848E+04  0.50400001928E-02 0.  1.
       -1    1    3    3    0  502  0.85002291867E+03 -0.10471911875E+04  0.22181011630E+03  0.13668752954E+04  0.50400001928E-02 0. -1.
</event>
<event>
 5   0  0.5584205E-06  0.2807236E+04  0.7818609E-02  0.8301025E-01
        2   -1    0    0  501    0  0.00000000000E+00  0.00000000000E+00  0.13430237360E+04  0.13430237360E+04  0.25500000920E-02 0. -1.
       -2   -1    0    0    0  501  0.00000000000E+00  0.00000000000E+00 -0.14669460549E+04  0.14669460549E+04  0.25500000920E-02 0.  1.
    10030    2    1    2    0    0  0.00000000000E+00  0.00000000000E+00 -0.12392231895E+03  0.28099697909E+04  0.28072359154E+04 0.  0.
        1    1    3    3  502    0  0.55507160097E+03 -0.11099738710E+04  0.59441893026E+03  0.13760379142E+04  0.50400001928E-02 0. -1.
       -1    1    3    3    0  502 -0.55507160097E+03  0.11099738710E+04 -0.71834124922E+03  0.14339318767E+04  0.50400001928E-02 0.  1.
</event>
<event>
 5   0  0.2277133E-06  0.2805974E+04  0.7818609E-02  0.8301416E-01
        1   -1    0    0  501    0  0.00000000000E+00  0.00000000000E+00  0.23040878995E+04  0.23040878995E+04  0.50400001928E-02 0.  1.
       -1   -1    0    0    0  501  0.00000000000E+00  0.00000000000E+00 -0.85429602101E+03  0.85429602102E+03  0.50400001928E-02 0. -1.
    10030    2    1    2    0    0  0.00000000000E+00  0.00000000000E+00  0.14497918785E+04  0.31583839205E+04  0.28059744294E+04 0.  0.
        1    1    3    3  502    0  0.11995346310E+04  0.17145148162E+03 -0.71093145709E+02  0.12138093659E+04  0.50400001928E-02 0. -1.
       -1    1    3    3    0  502 -0.11995346310E+04 -0.17145148162E+03  0.15208850242E+04  0.19445745546E+04  0.50400001928E-02 0.  1.
</event>
<event>
 5   0  0.5546570E-06  0.2799553E+04  0.7818609E-02  0.8303407E-01
       -2   -1    0    0    0  501  0.00000000000E+00  0.00000000000E+00  0.14857505329E+04  0.14857505329E+04  0.25500000920E-02 0. -1.
        2   -1    0    0  501    0  0.00000000000E+00  0.00000000000E+00 -0.13187775090E+04  0.13187775090E+04  0.25500000920E-02 0.  1.
    10030    2    1    2    0    0  0.00000000000E+00  0.00000000000E+00  0.16697302382E+03  0.28045280419E+04  0.27995530978E+04 0.  0.
        4    1    3    3  502    0 -0.67435049659E+03 -0.12155154010E+04  0.24854122603E+03  0.14120908739E+04  0.12699999809E+01 0.  1.
       -4    1    3    3    0  502  0.67435049659E+03  0.12155154010E+04 -0.81568202216E+02  0.13924371680E+04  0.12699999809E+01 0. -1.
</event>
<event>
 5   0  0.5625245E-06  0.2764289E+04  0.7818609E-02  0.8314442E-01
       -2   -1    0    0    0  501  0.00000000000E+00  0.00000000000E+00  0.19540092427E+04  0.19540092427E+04  0.25500000920E-02 0. -1.
        2   -1    0    0  501    0  0.00000000000E+00  0.00000000000E+00 -0.97764316364E+03  0.97764316365E+03  0.25500000920E-02 0.  1.
    10030    2    1    2    0    0  0.00000000000E+00  0.00000000000E+00  0.97636607907E+03  0.29316524064E+04  0.27642892597E+04 0.  0.
        3    1    3    3  502    0  0.75995616182E+03  0.11538402607E+04  0.44789556281E+03  0.14524087443E+04  0.10100000352E+00 0.  1.
       -3    1    3    3    0  502 -0.75995616182E+03 -0.11538402607E+04  0.52847051626E+03  0.14792436621E+04  0.10100000352E+00 0. -1.
</event>
<event>
 5   0  0.2234068E-06  0.2782949E+04  0.7818609E-02  0.8308582E-01
        1   -1    0    0  501    0  0.00000000000E+00  0.00000000000E+00  0.14622545818E+04  0.14622545818E+04  0.50400001928E-02 0.  1.
       -1   -1    0    0    0  501  0.00000000000E+00  0.00000000000E+00 -0.13241204683E+04  0.13241204683E+04  0.50400001928E-02 0. -1.
    10030    2    1    2    0    0  0.00000000000E+00  0.00000000000E+00  0.13813411353E+03  0.27863750501E+04  0.27829489551E+04 0.  0.
        3    1    3    3  502    0 -0.38505322031E+03 -0.11243791518E+04  0.79363383685E+03  0.14291078115E+04  0.10100000352E+00 0.  1.
       -3    1    3    3    0  502  0.38505322031E+03  0.11243791518E+04 -0.65549972332E+03  0.13572672386E+04  0.10100000352E+00 0. -1.
</event>
<event>
 5   0  0.2206967E-06  0.2795573E+04  0.7818609E-02  0.8304644E-01
       -1   -1    0    0    0  501  0.00000000000E+00  0.00000000000E+00  0.15369446531E+04  0.15369446531E+04  0.50400001928E-02 0.  1.
        1   -1    0    0  501    0  0.00000000000E+00  0.00000000000E+00 -0.12712284196E+04  0.12712284196E+04  0.50400001928E-02 0. -1.
    10030    2    1    2    0    0  0.00000000000E+00  0.00000000000E+00  0.26571623349E+03  0.28081730727E+04  0.27955734456E+04 0.  0.
        5    1    3    3  502    0 -0.13685801082E+04  0.72538714149E+02  0.40889154775E+03  0.14302054976E+04  0.46999998093E+01 0. -1.
       -5    1    3    3    0  502  0.13685801082E+04 -0.72538714149E+02 -0.14317531426E+03  0.13779675751E+04  0.46999998093E+01 0.  1.
</event>
<event>
 5   0  0.2267565E-06  0.2857569E+04  0.7818609E-02  0.8285615E-01
        1   -1    0    0  501    0  0.00000000000E+00  0.00000000000E+00  0.16247381041E+04  0.16247381042E+04  0.50400001928E-02 0.  1.
       -1   -1    0    0    0  501  0.00000000000E+00  0.00000000000E+00 -0.12564640819E+04  0.12564640819E+04  0.50400001928E-02 0. -1.
    10030    2    1    2    0    0  0.00000000000E+00  0.00000000000E+00  0.36827402224E+03  0.28812021861E+04  0.28575689461E+04 0.  0.
        4    1    3    3  502    0  0.34663460577E+03 -0.11596285997E+04  0.94971203114E+03  0.15384565623E+04  0.12699999809E+01 0.  1.
       -4    1    3    3    0  502 -0.34663460577E+03  0.11596285997E+04 -0.58143800890E+03  0.13427456238E+04  0.12699999809E+01 0. -1.
</event>
<event>
 5   0  0.5625245E-06  0.2814349E+04  0.7818609E-02  0.8298827E-01
       -2   -1    0    0    0  501  0.00000000000E+00  0.00000000000E+00  0.10338158900E+04  0.10338158900E+04  0.25500000920E-02 0. -1.
        2   -1    0    0  501    0  0.00000000000E+00  0.00000000000E+00 -0.19153698250E+04  0.19153698250E+04  0.25500000920E-02 0.  1.
    10030    2    1    2    0    0  0.00000000000E+00  0.00000000000E+00 -0.88155393505E+03  0.29491857150E+04  0.28143487774E+04 0.  0.
        3    1    3    3  502    0 -0.33951558618E+03  0.44967336087E+03 -0.17919976743E+04  0.18784921186E+04  0.10100000352E+00 0.  1.
       -3    1    3    3    0  502  0.33951558618E+03 -0.44967336087E+03  0.91044373926E+03  0.10706935964E+04  0.10100000352E+00 0. -1.
</event>
<event>
 5   0  0.5916603E-06  0.2790466E+04  0.7818609E-02  0.8306234E-01
        2   -1    0    0  501    0  0.00000000000E+00  0.00000000000E+00  0.17096894524E+04  0.17096894524E+04  0.25500000920E-02 0. -1.
       -2   -1    0    0    0  501  0.00000000000E+00  0.00000000000E+00 -0.11386136744E+04  0.11386136744E+04  0.25500000920E-02 0.  1.
    10030    2    1    2    0    0  0.00000000000E+00  0.00000000000E+00  0.57107577804E+03  0.28483031268E+04  0.27904664767E+04 0.  0.
        2    1    3    3  502    0 -0.11615178615E+04 -0.62926393483E+03 -0.17274324963E+03  0.13322676430E+04  0.25500000920E-02 0. -1.
       -2    1    3    3    0  502  0.11615178615E+04  0.62926393483E+03  0.74381902767E+03  0.15160354838E+04  0.25500000920E-02 0.  1.
</event>
<event>
 5   0  0.5625245E-06  0.2801034E+04  0.7818609E-02  0.8302947E-01
        2   -1    0    0  501    0  0.00000000000E+00  0.00000000000E+00  0.12211969373E+04  0.12211969373E+04  0.25500000920E-02 0. -1.
       -2   -1    0    0    0  501  0.00000000000E+00  0.00000000000E+00 -0.16061680764E+04  0.16061680764E+04  0.25500000920E-02 0.  1.
    10030    2    1    2    0    0  0.00000000000E+00  0.00000000000E+00 -0.38497113914E+03  0.28273650137E+04  0.28010337632E+04 0.  0.
        3    1    3    3  502    0  0.23658776939E+03  0.12635176587E+04 -0.75358597472E+03  0.14900813662E+04  0.10100000352E+00 0. -1.
       -3    1    3    3    0  502 -0.23658776939E+03 -0.12635176587E+04  0.36861483558E+03  0.13372836475E+04  0.10100000352E+00 0.  1.
</event>
<event>
 5   0  0.5916603E-06  0.3009862E+04  0.7818609E-02  0.8240920E-01
       -2   -1    0    0    0  501  0.00000000000E+00  0.00000000000E+00  0.13760333000E+04  0.13760333000E+04  0.25500000920E-02 0. -1.
        2   -1    0    0  501    0  0.00000000000E+00  0.00000000000E+00 -0.16459027261E+04  0.16459027261E+04  0.25500000920E-02 0.  1.
    10030    2    1    2    0    0  0.00000000000E+00  0.00000000000E+00 -0.26986942612E+03  0.30219360261E+04  0.30098617640E+04 0.  0.
        2    1    3    3  502    0 -0.62046717408E+03  0.85389821636E+03  0.94207317073E+03  0.14147874530E+04  0.25500000920E-02 0. -1.
       -2    1    3    3    0  502  0.62046717408E+03 -0.85389821636E+03 -0.12119425968E+04  0.16071485731E+04  0.25500000920E-02 0.  1.
</event>
<event>
 5   0  0.5625245E-06  0.2794012E+04  0.7818609E-02  0.8305130E-01
        2   -1    0    0  501    0  0.00000000000E+00  0.00000000000E+00  0.21255218188E+04  0.21255218188E+04  0.25500000920E-02 0.  1.
       -2   -1    0    0    0  501  0.00000000000E+00  0.00000000000E+00 -0.91818690525E+03  0.91818690526E+03  0.25500000920E-02 0. -1.
    10030    2    1    2    0    0  0.00000000000E+00  0.00000000000E+00  0.12073349136E+04  0.30437087241E+04  0.27940123843E+04 0.  0.
        3    1    3    3  502    0 -0.62144246444E+02 -0.12477895794E+04 -0.77327679150E+02  0.12517269359E+04  0.10100000352E+00 0. -1.
       -3    1    3    3    0  502  0.62144246444E+02  0.12477895794E+04  0.12846625927E+04  0.17919817882E+04  0.10100000352E+00 0.  1.
</event>
<event>
 5   0  0.5866136E-06  0.2767404E+04  0.7818609E-02  0.8313460E-01
        2   -1    0    0  501    0  0.00000000000E+00  0.00000000000E+00  0.14543921826E+04  0.14543921826E+04  0.25500000920E-02 0.  1.
       -2   -1    0    0    0  501  0.00000000000E+00  0.00000000000E+00 -0.13164481436E+04  0.13164481436E+04  0.25500000920E-02 0. -1.
    10030    2    1    2    0    0  0.00000000000E+00  0.00000000000E+00  0.13794403900E+03  0.27708403261E+04  0.27674044798E+04 0.  0.
        5    1    3    3  502    0 -0.83277382579E+03 -0.11048660642E+04  0.49750943451E+02  0.13844632574E+04  0.46999998093E+01 0. -1.
       -5    1    3    3    0  502  0.83277382579E+03  0.11048660642E+04  0.88193095552E+02  0.13863770688E+04  0.46999998093E+01 0.  1.
</event>
<event>
 5   0  0.5546570E-06  0.2728873E+04  0.7818609E-02  0.8325697E-01
       -2   -1    0    0    0  501  0.00000000000E+00  0.00000000000E+00  0.17159782141E+04  0.17159782141E+04  0.25500000920E-02 0.  1.
        2   -1    0    0  501    0  0.00000000000E+00  0.00000000000E+00 -0.10849128717E+04  0.10849128717E+04  0.25500000920E-02 0. -1.
    10030    2    1    2    0    0  0.00000000000E+00  0.00000000000E+00  0.63106534242E+03  0.28008910858E+04  0.27288729190E+04 0.  0.
        4    1    3    3  502    0 -0.31435864008E+03  0.12982260406E+04  0.60121816335E+03  0.14648129915E+04  0.12699999809E+01 0. -1.
       -4    1    3    3    0  502  0.31435864008E+03 -0.12982260406E+04  0.29847179066E+02  0.13360780943E+04  0.12699999809E+01 0.  1.
</event>
<event>
 5   0  0.5546570E-06  0.2777988E+04  0.7818609E-02  0.8310135E-01
       -2   -1    0    0    0  501  0.00000000000E+00  0.00000000000E+00  0.12339060676E+04  0.12339060676E+04  0.25500000920E-02 0.  1.
        2   -1    0    0  501    0  0.00000000000E+00  0.00000000000E+00 -0.15635743199E+04  0.15635743199E+04  0.25500000920E-02 0. -1.
    10030    2    1    2    0    0  0.00000000000E+00  0.00000000000E+00 -0.32966825223E+03  0.27974803875E+04  0.27779876461E+04 0.  0.
        4    1    3    3  502    0  0.67641986245E+03 -0.12486771465E+03  0.10503504566E+04  0.12555371246E+04  0.12699999809E+01 0.  1.
       -4    1    3    3    0  502 -0.67641986245E+03  0.12486771465E+03 -0.13800187089E+04  0.15419432630E+04  0.12699999809E+01 0. -1.
</event>
<event>
 5   0  0.2277133E-06  0.2795377E+04  0.7818609E-02  0.8304705E-01
        1   -1    0    0  501    0  0.00000000000E+00  0.00000000000E+00  0.22522656707E+04  0.22522656707E+04  0.50400001928E-02 0. -1.
       -1   -1    0    0    0  501  0.00000000000E+00  0.00000000000E+00 -0.86736332396E+03  0.86736332398E+03  0.50400001928E-02 0.  1.
    10030    2    1    2    0    0  0.00000000000E+00  0.00000000000E+00  0.13849023467E+04  0.31196289947E+04  0.27953766391E+04 0.  0.
        1    1    3    3  502    0  0.11356163103E+03  0.11404573434E+04 -0.20034100897E+03  0.11634757049E+04  0.50400001928E-02 0.  1.
       -1    1    3    3    0  502 -0.11356163103E+03 -0.11404573434E+04  0.15852433557E+04  0.19561532897E+04  0.50400001928E-02 0. -1.
</event>
<event>
 5   0  0.5916603E-06  0.2768944E+04  0.7818609E-02  0.8312975E-01
       -2   -1    0    0    0  501  0.00000000000E+00  0.00000000000E+00  0.11925809096E+04  0.11925809096E+04  0.25500000920E-02 0.  1.
        2   -1    0    0  501    0  0.00000000000E+00  0.00000000000E+00 -0.16072393041E+04  0.16072393041E+04  0.25500000920E-02 0. -1.
    10030    2    1    2    0    0  0.00000000000E+00  0.00000000000E+00 -0.41465839449E+03  0.27998202137E+04  0.27689441390E+04 0.  0.
        2    1    3    3  502    0 -0.52169108686E+03 -0.65478140016E+03 -0.13222864250E+04  0.15650372717E+04  0.25500000920E-02 0. -1.
       -2    1    3    3    0  502  0.52169108686E+03  0.65478140016E+03  0.90762803047E+03  0.12347829420E+04  0.25500000920E-02 0.  1.
</event>
<event>
 5   0  0.2206967E-06  0.2759351E+04  0.7818609E-02  0.8316000E-01
       -1   -1    0    0    0  501  0.00000000000E+00  0.00000000000E+00  0.66653826957E+03  0.66653826959E+03  0.50400001928E-02 0. -1.
        1   -1    0    0  501    0  0.00000000000E+00  0.00000000000E+00 -0.28558070983E+04  0.28558070983E+04  0.50400001928E-02 0.  1.
    10030    2    1    2    0    0  0.00000000000E+00  0.00000000000E+00 -0.21892688287E+04  0.35223453679E+04  0.27593511713E+04 0.  0.
        5    1    3    3  502    0  0.58883161912E+03 -0.76697150919E+03  0.16162133132E+03  0.98036295132E+03  0.46999998093E+01 0. -1.
       -5    1    3    3    0  502 -0.58883161912E+03  0.76697150919E+03 -0.23508901601E+04  0.25419824166E+04  0.46999998093E+01 0.  1.
</event>
<event>
 5   0  0.2277133E-06  0.2790005E+04  0.7818609E-02  0.8306378E-01
       -1   -1    0    0    0  501  0.00000000000E+00  0.00000000000E+00  0.11581759929E+04  0.11581759929E+04  0.50400001928E-02 0. -1.
        1   -1    0    0  501    0  0.00000000000E+00  0.00000000000E+00 -0.16802554430E+04  0.16802554430E+04  0.50400001928E-02 0.  1.
    10030    2    1    2    0    0  0.00000000000E+00  0.00000000000E+00 -0.52207945010E+03  0.28384314359E+04  0.27900046710E+04 0.  0.
        1    1    3    3  502    0  0.73812779507E+03 -0.96854788167E+03  0.43129700745E+03  0.12918725748E+04  0.50400001928E-02 0. -1.
       -1    1    3    3    0  502 -0.73812779507E+03  0.96854788167E+03 -0.95337645755E+03  0.15465588611E+04  0.50400001928E-02 0.  1.
</event>
<event>
 5   0  0.2206967E-06  0.2827347E+04  0.7818609E-02  0.8294828E-01
        1   -1    0    0  501    0  0.00000000000E+00  0.00000000000E+00  0.19638600003E+04  0.19638600003E+04  0.50400001928E-02 0. -1.
       -1   -1    0    0    0  501  0.00000000000E+00  0.00000000000E+00 -0.10176247761E+04  0.10176247761E+04  0.50400001928E-02 0.  1.
    10030    2    1    2    0    0  0.00000000000E+00  0.00000000000E+00  0.94623522423E+03  0.29814847764E+04  0.28273468787E+04 0.  0.
        5    1    3    3  502    0 -0.51939687556E+02 -0.14126936015E+04  0.46569391255E+03  0.14883863252E+04  0.46999998093E+01 0.  1.
       -5    1    3    3    0  502  0.51939687556E+02  0.14126936015E+04  0.48054131167E+03  0.14930984512E+04  0.46999998093E+01 0. -1.
</event>
<event>
 5   0  0.5584205E-06  0.2796320E+04  0.7818609E-02  0.8304412E-01
        2   -1    0    0  501    0  0.00000000000E+00  0.00000000000E+00  0.14169783240E+04  0.14169783240E+04  0.25500000920E-02 0. -1.
       -2   -1    0    0    0  501  0.00000000000E+00  0.00000000000E+00 -0.13795913633E+04  0.13795913634E+04  0.25500000920E-02 0.  1.
    10030    2    1    2    0    0  0.00000000000E+00  0.00000000000E+00  0.37386960630E+02  0.27965696873E+04  0.27963197656E+04 0.  0.
        1    1    3    3  502    0 -0.14873598177E+03  0.84692510215E+03  0.11212649330E+04  0.14130249718E+04  0.50400001928E-02 0. -1.
       -1    1    3    3    0  502  0.14873598177E+03 -0.84692510215E+03 -0.10838779724E+04  0.13835447155E+04  0.50400001928E-02 0.  1.
</event>
<event>
 5   0  0.5625245E-06  0.2802106E+04  0.7818609E-02  0.8302615E-01
        2   -1    0    0  501    0  0.00000000000E+00  0.00000000000E+00  0.14775945607E+04  0.14775945607E+04  0.25500000920E-02 0.  1.
       -2   -1    0    0    0  501  0.00000000000E+00  0.00000000000E+00 -0.13284759974E+04  0.13284759974E+04  0.25500000920E-02 0. -1.
    10030    2    1    2    0    0  0.00000000000E+00  0.00000000000E+00  0.14911856331E+03  0.28060705582E+04  0.28021055711E+04 0.  0.
        3    1    3    3  502    0  0.11484641713E+04  0.28209407074E+03  0.82688917644E+03  0.14430151551E+04  0.10100000352E+00 0.  1.
       -3    1    3    3    0  502 -0.11484641713E+04 -0.28209407074E+03 -0.67777061313E+03  0.13630554031E+04  0.10100000352E+00 0. -1.
</event>
<event>
 5   0  0.5866136E-06  0.2798389E+04  0.7818609E-02  0.8303769E-01
       -2   -1    0    0    0  501  0.00000000000E+00  0.00000000000E+00  0.13118254534E+04  0.13118254534E+04  0.25500000920E-02 0. -1.
        2   -1    0    0  501    0  0.00000000000E+00  0.00000000000E+00 -0.14923826682E+04  0.14923826682E+04  0.25500000920E-02 0.  1.
    10030    2    1    2    0    0  0.00000000000E+00  0.00000000000E+00 -0.18055721485E+03  0.28042081216E+04  0.27983892297E+04 0.  0.
        5    1    3    3  502    0  0.25346689711E+02  0.12673408715E+04 -0.68390229183E+03  0.14403262734E+04  0.46999998093E+01 0.  1.
       -5    1    3    3    0  502 -0.25346689711E+02 -0.12673408715E+04  0.50334507698E+03  0.13638818481E+04  0.46999998093E+01 0. -1.
</event>
<event>
 5   0  0.2206967E-06  0.2798028E+04  0.7818609E-02  0.8303881E-01
       -1   -1    0    0    0  501  0.00000000000E+00  0.00000000000E+00  0.10096688688E+04  0.10096688688E+04  0.50400001928E-02 0.  1.
        1   -1    0    0  501    0  0.00000000000E+00  0.00000000000E+00 -0.19384973861E+04  0.19384973861E+04  0.50400001928E-02 0. -1.
    10030    2    1    2    0    0  0.00000000000E+00  0.00000000000E+00 -0.92882851725E+03  0.29481662549E+04  0.27980282079E+04 0.  0.
        5    1    3    3  502    0  0.69323694029E+03 -0.58617176408E+03  0.65714749175E+03  0.11207317736E+04  0.46999998093E+01 0.  1.
       -5    1    3    3    0  502 -0.69323694029E+03  0.58617176408E+03 -0.15859760090E+04  0.18274344813E+04  0.46999998093E+01 0. -1.
</event>
<event>
 5   0  0.5625245E-06  0.2701955E+04  0.7818609E-02  0.8334371E-01
       -2   -1    0    0    0  501  0.00000000000E+00  0.00000000000E+00  0.15885441558E+04  0.15885441558E+04  0.25500000920E-02 0. -1.
        2   -1    0    0  501    0  0.00000000000E+00  0.00000000000E+00 -0.11489385499E+04  0.11489385499E+04  0.25500000920E-02 0.  1.
    10030    2    1    2    0    0  0.00000000000E+00  0.00000000000E+00  0.43960560592E+03  0.27374827057E+04  0.27019545657E+04 0.  0.
        3    1    3    3  502    0  0.61264308200E+03 -0.11562007054E+04  0.56038968780E+03  0.14234353619E+04  0.10100000352E+00 0.  1.
       -3    1    3    3    0  502 -0.61264308200E+03  0.11562007054E+04 -0.12078408188E+03  0.13140473438E+04  0.10100000352E+00 0. -1.
</event>
<event>
 5   0  0.5546570E-06  0.2784531E+04  0.7818609E-02  0.8308087E-01
        2   -1    0    0  501    0  0.00000000000E+00  0.00000000000E+00  0.12913618939E+04  0.12913618939E+04  0.25500000920E-02 0. -1.
       -2   -1    0    0    0  501  0.00000000000E+00  0.00000000000E+00 -0.15010532360E+04  0.15010532360E+04  0.25500000920E-02 0.  1.
    10030    2    1    2    0    0  0.00000000000E+00  0.00000000000E+00 -0.20969134210E+03  0.27924151299E+04  0.27845308040E+04 0.  0.
        4    1    3    3  502    0 -0.10965334767E+04 -0.24502034370E+03  0.71966276747E+03  0.13342926014E+04  0.12699999809E+01 0. -1.
       -4    1    3    3    0  502  0.10965334767E+04  0.24502034370E+03 -0.92935410957E+03  0.14581225285E+04  0.12699999809E+01 0.  1.
</event>
<event>
 5   0  0.5866136E-06  0.2826620E+04  0.7818609E-02  0.8295051E-01
       -2   -1    0    0    0  501  0.00000000000E+00  0.00000000000E+00  0.14412205663E+04  0.14412205663E+04  0.25500000920E-02 0.  1.
        2   -1    0    0  501    0  0.00000000000E+00  0.00000000000E+00 -0.13859398303E+04  0.13859398303E+04  0.25500000920E-02 0. -1.
    10030    2    1    2    0    0  0.00000000000E+00  0.00000000000E+00  0.55280736011E+02  0.28271603966E+04  0.28266198805E+04 0.  0.
        5    1    3    3  502    0 -0.71638430934E+03  0.18821117128E+03 -0.11762479628E+04  0.13900400295E+04  0.46999998093E+01 0. -1.
       -5    1    3    3    0  502  0.71638430934E+03 -0.18821117128E+03  0.12315286988E+04  0.14371203671E+04  0.46999998093E+01 0.  1.
</event>
<event>
 5   0  0.2206967E-06  0.3003755E+04  0.7818609E-02  0.8242659E-01
       -1   -1    0    0    0  501  0.00000000000E+00  0.00000000000E+00  0.18707664469E+04  0.18707664469E+04  0.50400001928E-02 0.  1.
        1   -1    0    0  501    0  0.00000000000E+00  0.00000000000E+00 -0.12057281884E+04  0.12057281884E+04  0.50400001928E-02 0. -1.
    10030    2    1    2    0    0  0.00000000000E+00  0.00000000000E+00  0.66503825854E+03  0.30764946353E+04  0.30037548761E+04 0.  0.
        5    1    3    3  502    0 -0.43990759629E+03 -0.13853860952E+04 -0.54521377695E+02  0.14545817257E+04  0.46999998093E+01 0. -1.
       -5    1    3    3    0  502  0.43990759629E+03  0.13853860952E+04  0.71955963623E+03  0.16219129096E+04  0.46999998093E+01 0.  1.
</event>
<event>
 5   0  0.5625245E-06  0.2786915E+04  0.7818609E-02  0.8307342E-01
        2   -1    0    0  501    0  0.00000000000E+00  0.00000000000E+00  0.13365344034E+04  0.13365344034E+04  0.25500000920E-02 0. -1.
       -2   -1    0    0    0  501  0.00000000000E+00  0.00000000000E+00 -0.14528046769E+04  0.14528046769E+04  0.25500000920E-02 0.  1.
    10030    2    1    2    0    0  0.00000000000E+00  0.00000000000E+00 -0.11627027352E+03  0.27893390803E+04  0.27869147329E+04 0.  0.
        3    1    3    3  502    0 -0.50552708843E+03  0.42825590390E+03 -0.12850737336E+04  0.14458130126E+04  0.10100000352E+00 0.  1.
       -3    1    3    3    0  502  0.50552708843E+03 -0.42825590390E+03  0.11688034600E+04  0.13435260678E+04  0.10100000352E+00 0. -1.
</event>
<event>
 5   0  0.5584205E-06  0.2828521E+04  0.7818609E-02  0.8294468E-01
        2   -1    0    0  501    0  0.00000000000E+00  0.00000000000E+00  0.24421138064E+04  0.24421138064E+04  0.25500000920E-02 0. -1.
       -2   -1    0    0    0  501  0.00000000000E+00  0.00000000000E+00 -0.81901725888E+03  0.81901725888E+03  0.25500000920E-02 0.  1.
    10030    2    1    2    0    0  0.00000000000E+00  0.00000000000E+00  0.16230965475E+04  0.32611310653E+04  0.28285214198E+04 0.  0.
        1    1    3    3  502    0 -0.13442993431E+04  0.40324711269E+03  0.10125196001E+04  0.17305909102E+04  0.50400001928E-02 0.  1.
       -1    1    3    3    0  502  0.13442993431E+04 -0.40324711269E+03  0.61057694741E+03  0.15305401551E+04  0.50400001928E-02 0. -1.
</event>
<event>
 5   0  0.5546570E-06  0.2789496E+04  0.7818609E-02  0.8306537E-01
       -2   -1    0    0    0  501  0.00000000000E+00  0.00000000000E+00  0.24210822242E+04  0.24210822242E+04  0.25500000920E-02 0. -1.
        2   -1    0    0  501    0  0.00000000000E+00  0.00000000000E+00 -0.80349267625E+03  0.80349267625E+03  0.25500000920E-02 0.  1.
    10030    2    1    2    0    0  0.00000000000E+00  0.00000000000E+00  0.16175895479E+04  0.32245749004E+04  0.27894958940E+04 0.  0.
        4    1    3    3  502    0  0.32232729775E+02 -0.91040736151E+03 -0.41207626988E+03  0.99984447684E+03  0.12699999809E+01 0.  1.
       -4    1    3    3    0  502 -0.32232729775E+02  0.91040736151E+03  0.20296658178E+04  0.22247304236E+04  0.12699999809E+01 0. -1.
</event>
<event>
 5   0  0.5584205E-06  0.2581137E+04  0.7818609E-02  0.8374637E-01
       -2   -1    0    0    0  501  0.00000000000E+00  0.00000000000E+00  0.76451168323E+03  0.76451168324E+03  0.25500000920E-02 0.  1.
        2   -1    0    0  501    0  0.00000000000E+00  0.00000000000E+00 -0.21786019288E+04  0.21786019288E+04  0.25500000920E-02 0. -1.
    10030    2    1    2    0    0  0.00000000000E+00  0.00000000000E+00 -0.14140902456E+04  0.29431136120E+04  0.25811366703E+04 0.  0.
        1    1    3    3  502    0  0.60628958537E+03 -0.48781729835E+03 -0.18810010592E+04  0.20356123802E+04  0.50400001928E-02 0. -1.
       -1    1    3    3    0  502 -0.60628958537E+03  0.48781729835E+03  0.46691081359E+03  0.90750123183E+03  0.50400001928E-02 0.  1.
</event>
<event>
 5   0  0.5625245E-06  0.2797736E+04  0.7818609E-02  0.8303971E-01
        2   -1    0    0  501    0  0.00000000000E+00  0.00000000000E+00  0.15800340189E+04  0.15800340189E+04  0.25500000920E-02 0. -1.
       -2   -1    0    0    0  501  0.00000000000E+00  0.00000000000E+00 -0.12384747326E+04  0.12384747326E+04  0.25500000920E-02 0.  1.
    10030    2    1    2    0    0  0.00000000000E+00  0.00000000000E+00  0.34155928637E+03  0.28185087515E+04  0.27977363772E+04 0.  0.
        3    1    3    3  502    0  0.76313147024E+03  0.50431352429E+03 -0.89544052987E+03  0.12800451259E+04  0.10100000352E+00 0.  1.
       -3    1    3    3    0  502 -0.76313147024E+03 -0.50431352429E+03  0.12369998162E+04  0.15384636256E+04  0.10100000352E+00 0. -1.
</event>
<event>
 5   0  0.5916603E-06  0.2796982E+04  0.7818609E-02  0.8304206E-01
       -2   -1    0    0    0  501  0.00000000000E+00  0.00000000000E+00  0.10550013830E+04  0.10550013830E+04  0.25500000920E-02 0.  1.
        2   -1    0    0  501    0  0.00000000000E+00  0.00000000000E+00 -0.18538141887E+04  0.18538141887E+04  0.25500000920E-02 0. -1.
    10030    2    1    2    0    0  0.00000000000E+00  0.00000000000E+00 -0.79881280569E+03  0.29088155716E+04  0.27969816108E+04 0.  0.
        2    1    3    3  502    0 -0.29340590493E+03 -0.39653172982E+03 -0.17603364132E+04  0.18281435189E+04  0.25500000920E-02 0. -1.
       -2    1    3    3    0  502  0.29340590493E+03  0.39653172982E+03  0.96152360754E+03  0.10806720528E+04  0.25500000920E-02 0.  1.
</event>
<event>
 5   0  0.5584205E-06  0.2794305E+04  0.7818609E-02  0.8305039E-01
       -2   -1    0    0    0  501  0.00000000000E+00  0.00000000000E+00  0.14797336184E+04  0.14797336184E+04  0.25500000920E-02 0. -1.
        2   -1    0    0  501    0  0.00000000000E+00  0.00000000000E+00 -0.13191796467E+04  0.13191796467E+04  0.25500000920E-02 0.  1.
    10030    2    1    2    0    0  0.00000000000E+00  0.00000000000E+00  0.16055397171E+03  0.27989132652E+04  0.27943045446E+04 0.  0.
        1    1    3    3  502    0  0.14067738268E+03 -0.26870994093E+03 -0.12858050021E+04  0.13210941154E+04  0.50400001928E-02 0.  1.
       -1    1    3    3    0  502 -0.14067738268E+03  0.26870994093E+03  0.14463589738E+04  0.14778191498E+04  0.50400001928E-02 0. -1.
</event>
<event>
 5   0  0.5916603E-06  0.2782420E+04  0.7818609E-02  0.8308747E-01
       -2   -1    0    0    0  501  0.00000000000E+00  0.00000000000E+00  0.83265694020E+03  0.83265694021E+03  0.25500000920E-02 0. -1.
        2   -1    0    0  501    0  0.00000000000E+00  0.00000000000E+00 -0.23244450366E+04  0.23244450366E+04  0.25500000920E-02 0.  1.
    10030    2    1    2    0    0  0.00000000000E+00  0.00000000000E+00 -0.14917880964E+04  0.31571019768E+04  0.27824200200E+04 0.  0.
        2    1    3    3  502    0 -0.10971913746E+04 -0.69015862281E+03 -0.13192260371E+04  0.18494607793E+04  0.25500000920E-02 0.  1.
       -2    1    3    3    0  502  0.10971913746E+04  0.69015862281E+03 -0.17256205928E+03  0.13076411975E+04  0.25500000920E-02 0. -1.
</event>
<event>
 5   0  0.2277133E-06  0.2794712E+04  0.7818609E-02  0.8304912E-01
        1   -1    0    0  501    0  0.00000000000E+00  0.00000000000E+00  0.19916902359E+04  0.19916902359E+04  0.50400001928E-02 0. -1.
       -1   -1    0    0    0  501  0.00000000000E+00  0.00000000000E+00 -0.98037515727E+03  0.98037515729E+03  0.50400001928E-02 0.  1.
    10030    2    1    2    0    0  0.00000000000E+00  0.00000000000E+00  0.10113150786E+04  0.29720653932E+04  0.27947118837E+04 0.  0.
        1    1    3    3  502    0 -0.27006251140E+01  0.25368871520E+03 -0.95567726686E+03  0.98877919477E+03  0.50400001928E-02 0.  1.
       -1    1    3    3    0  502  0.27006251140E+01 -0.25368871520E+03  0.19669923455E+04  0.19832861984E+04  0.50400001928E-02 0. -1.
</event>
<event>
 5   0  0.2190865E-06  0.2813700E+04  0.7818609E-02  0.8299028E-01
        1   -1    0    0  501    0  0.00000000000E+00  0.00000000000E+00  0.18345506504E+04  0.18345506504E+04  0.50400001928E-02 0. -1.
       -1   -1    0    0    0  501  0.00000000000E+00  0.00000000000E+00 -0.10788622570E+04  0.10788622570E+04  0.50400001928E-02 0.  1.
    10030    2    1    2    0    0  0.00000000000E+00  0.00000000000E+00  0.75568839335E+03  0.29134129074E+04  0.28137003787E+04 0.  0.
        2    1    3    3  502    0  0.51961211239E+03 -0.15081179463E+03  0.17225139214E+04  0.18054902808E+04  0.25500000920E-02 0. -1.
       -2    1    3    3    0  502 -0.51961211239E+03  0.15081179463E+03 -0.96682552804E+03  0.11079226266E+04  0.25500000920E-02 0.  1.
</event>
<event>
 5   0  0.2267565E-06  0.2804682E+04  0.7818609E-02  0.8301816E-01
       -1   -1    0    0    0  501  0.00000000000E+00  0.00000000000E+00  0.67518484039E+03  0.67518484040E+03  0.50400001928E-02 0. -1.
        1   -1    0    0  501    0  0.00000000000E+00  0.00000000000E+00 -0.29126259644E+04  0.29126259644E+04  0.50400001928E-02 0.  1.
    10030    2    1    2    0    0  0.00000000000E+00  0.00000000000E+00 -0.22374411240E+04  0.35878108048E+04  0.28046824397E+04 0.  0.
        4    1    3    3  502    0 -0.94681120266E+02  0.43947287071E+02  0.67020756600E+03  0.67828878289E+03  0.12699999809E+01 0. -1.
       -4    1    3    3    0  502  0.94681120266E+02 -0.43947287071E+02 -0.29076486900E+04  0.29095220219E+04  0.12699999809E+01 0.  1.
</event>
<event>
 5   0  0.1901375E-06  0.2800741E+04  0.7818609E-02  0.8303038E-01
        3   -1    0    0  501    0  0.00000000000E+00  0.00000000000E+00  0.19328237017E+04  0.19328237043E+04  0.10100000352E+00 0. -1.
       -3   -1    0    0    0  501  0.00000000000E+00  0.00000000000E+00 -0.10145968611E+04  0.10145968661E+04  0.10100000352E+00 0.  1.
    10030    2    1    2    0    0  0.00000000000E+00  0.00000000000E+00  0.91822684057E+03  0.29474205704E+04  0.28007405250E+04 0.  0.
        4    1    3    3  502    0  0.50434347513E+03  0.13062035743E+04  0.43546100909E+03  0.14663417138E+04  0.12699999809E+01 0. -1.
       -4    1    3    3    0  502 -0.50434347513E+03 -0.13062035743E+04  0.48276583148E+03  0.14810788566E+04  0.12699999809E+01 0.  1.
</event>
<event>
 5   0  0.5625245E-06  0.2828976E+04  0.7818609E-02  0.8294329E-01
       -2   -1    0    0    0  501  0.00000000000E+00  0.00000000000E+00  0.86203639910E+03  0.86203639910E+03  0.25500000920E-02 0. -1.
        2   -1    0    0  501    0  0.00000000000E+00  0.00000000000E+00 -0.23209881885E+04  0.23209881885E+04  0.25500000920E-02 0.  1.
    10030    2    1    2    0    0  0.00000000000E+00  0.00000000000E+00 -0.14589517894E+04  0.31830245876E+04  0.28289759988E+04 0.  0.
        3    1    3    3  502    0  0.12715870320E+04 -0.59926185416E+02 -0.35656822046E+02  0.12734976038E+04  0.10100000352E+00 0. -1.
       -3    1    3    3    0  502 -0.12715870320E+04  0.59926185416E+02 -0.14232949674E+04  0.19095269838E+04  0.10100000352E+00 0.  1.
</event>
<event>
 5   0  0.5625245E-06  0.2790498E+04  0.7818609E-02  0.8306224E-01
       -2   -1    0    0    0  501  0.00000000000E+00  0.00000000000E+00  0.17339444579E+04  0.17339444579E+04  0.25500000920E-02 0. -1.
        2   -1    0    0  501    0  0.00000000000E+00  0.00000000000E+00 -0.11227119416E+04  0.11227119416E+04  0.25500000920E-02 0.  1.
    10030    2    1    2    0    0  0.00000000000E+00  0.00000000000E+00  0.61123251629E+03  0.28566563995E+04  0.27904982702E+04 0.  0.
        3    1    3    3  502    0 -0.99790481393E+03 -0.49249903686E+03 -0.55597334391E+03  0.12439757587E+04  0.10100000352E+00 0.  1.
       -3    1    3    3    0  502  0.99790481393E+03  0.49249903686E+03  0.11672058602E+04  0.16126806408E+04  0.10100000352E+00 0. -1.
</event>
<event>
 5   0  0.2234068E-06  0.2897520E+04  0.7818609E-02  0.8273616E-01
       -1   -1    0    0    0  501  0.00000000000E+00  0.00000000000E+00  0.11417310128E+04  0.11417310129E+04  0.50400001928E-02 0.  1.
        1   -1    0    0  501    0  0.00000000000E+00  0.00000000000E+00 -0.18383537497E+04  0.18383537497E+04  0.50400001928E-02 0. -1.
    10030    2    1    2    0    0  0.00000000000E+00  0.00000000000E+00 -0.69662273685E+03  0.29800847626E+04  0.28975199662E+04 0.  0.
        3    1    3    3  502    0 -0.31444910317E+03  0.13727786790E+04 -0.69785736812E+03  0.15717520340E+04  0.10100000352E+00 0. -1.
       -3    1    3    3    0  502  0.31444910317E+03 -0.13727786790E+04  0.12346312669E+01  0.14083327286E+04  0.10100000352E+00 0.  1.
</event>
<event>
 5   0  0.2267565E-06  0.2820312E+04  0.7818609E-02  0.8296990E-01
       -1   -1    0    0    0  501  0.00000000000E+00  0.00000000000E+00  0.91306887326E+03  0.91306887328E+03  0.50400001928E-02 0. -1.
        1   -1    0    0  501    0  0.00000000000E+00  0.00000000000E+00 -0.21778639498E+04  0.21778639498E+04  0.50400001928E-02 0.  1.
    10030    2    1    2    0    0  0.00000000000E+00  0.00000000000E+00 -0.12647950766E+04  0.30909328231E+04  0.28203118855E+04 0.  0.
        4    1    3    3  502    0 -0.11317464124E+04 -0.83641444876E+03 -0.53376714834E+03  0.15051073230E+04  0.12699999809E+01 0.  1.
       -4    1    3    3    0  502  0.11317464124E+04  0.83641444876E+03 -0.73102792824E+03  0.15858255001E+04  0.12699999809E+01 0. -1.
</event>
<event>
 5   0  0.1901375E-06  0.2681104E+04  0.7818609E-02  0.8341162E-01
       -3   -1    0    0    0  501  0.00000000000E+00  0.00000000000E+00  0.12685604794E+04  0.12685604834E+04  0.10100000352E+00 0.  1.
        3   -1    0    0  501    0  0.00000000000E+00  0.00000000000E+00 -0.14166292263E+04  0.14166292299E+04  0.10100000352E+00 0. -1.
    10030    2    1    2    0    0  0.00000000000E+00  0.00000000000E+00 -0.14806874686E+03  0.26851897133E+04  0.26811041462E+04 0.  0.
        2    1    3    3  502    0 -0.57762491252E+03  0.10239929185E+04  0.57104947356E+03  0.13070231589E+04  0.25500000920E-02 0.  1.
       -2    1    3    3    0  502  0.57762491252E+03 -0.10239929185E+04 -0.71911822042E+03  0.13781665544E+04  0.25500000920E-02 0. -1.
</event>
<event>
 5   0  0.5546570E-06  0.2786430E+04  0.7818609E-02  0.8307494E-01
       -2   -1    0    0    0  501  0.00000000000E+00  0.00000000000E+00  0.10222747946E+04  0.10222747946E+04  0.25500000920E-02 0. -1.
        2   -1    0    0  501    0  0.00000000000E+00  0.00000000000E+00 -0.18987540164E+04  0.18987540164E+04  0.25500000920E-02 0.  1.
    10030    2    1    2    0    0  0.00000000000E+00  0.00000000000E+00 -0.87647922175E+03  0.29210288110E+04  0.27864302411E+04 0.  0.
        4    1    3    3  502    0 -0.81256651342E+03 -0.38237240217E+03  0.67837687241E+03  0.11254642538E+04  0.12699999809E+01 0. -1.
       -4    1    3    3    0  502  0.81256651342E+03  0.38237240217E+03 -0.15548560942E+04  0.17955645572E+04  0.12699999809E+01 0.  1.
</event>
<event>
 5   0  0.5546570E-06  0.2806018E+04  0.7818609E-02  0.8301402E-01
        2   -1    0    0  501    0  0.00000000000E+00  0.00000000000E+00  0.11948903144E+04  0.11948903144E+04  0.25500000920E-02 0. -1.
       -2   -1    0    0    0  501  0.00000000000E+00  0.00000000000E+00 -0.16473765011E+04  0.16473765011E+04  0.25500000920E-02 0.  1.
    10030    2    1    2    0    0  0.00000000000E+00  0.00000000000E+00 -0.45248618671E+03  0.28422668155E+04  0.28060179795E+04 0.  0.
        4    1    3    3  502    0 -0.24077862149E+03  0.12497083983E+04 -0.82436869171E+03  0.15163544369E+04  0.12699999809E+01 0.  1.
       -4    1    3    3    0  502  0.24077862149E+03 -0.12497083983E+04  0.37188250501E+03  0.13259123786E+04  0.12699999809E+01 0. -1.
</event>
<event>
 5   0  0.5625245E-06  0.2722766E+04  0.7818609E-02  0.8327656E-01
       -2   -1    0    0    0  501  0.00000000000E+00  0.00000000000E+00  0.84735573242E+03  0.84735573243E+03  0.25500000920E-02 0. -1.
        2   -1    0    0  501    0  0.00000000000E+00  0.00000000000E+00 -0.21872313623E+04  0.21872313623E+04  0.25500000920E-02 0.  1.
    10030    2    1    2    0    0  0.00000000000E+00  0.00000000000E+00 -0.13398756298E+04  0.30345870947E+04  0.27227655301E+04 0.  0.
        3    1    3    3  502    0  0.34922320132E+03 -0.21235646056E+03 -0.21172365678E+04  0.21563262287E+04  0.10100000352E+00 0.  1.
       -3    1    3    3    0  502 -0.34922320132E+03  0.21235646056E+03  0.77736093791E+03  0.87826086596E+03  0.10100000352E+00 0. -1.
</event>
<event>
 5   0  0.2277133E-06  0.2797405E+04  0.7818609E-02  0.8304075E-01
        1   -1    0    0  501    0  0.00000000000E+00  0.00000000000E+00  0.17813983623E+04  0.17813983623E+04  0.50400001928E-02 0. -1.
       -1   -1    0    0    0  501  0.00000000000E+00  0.00000000000E+00 -0.10982204043E+04  0.10982204043E+04  0.50400001928E-02 0.  1.
    10030    2    1    2    0    0  0.00000000000E+00  0.00000000000E+00  0.68317795799E+03  0.28796187666E+04  0.27974045326E+04 0.  0.
        1    1    3    3  502    0 -0.42884599529E+03 -0.54492087875E+03  0.15919986584E+04  0.17364640452E+04  0.50400001928E-02 0. -1.
       -1    1    3    3    0  502  0.42884599529E+03  0.54492087875E+03 -0.90882070039E+03  0.11431547215E+04  0.50400001928E-02 0.  1.
</event>
<event>
 5   0  0.5546570E-06  0.2851952E+04  0.7818609E-02  0.8287318E-01
       -2   -1    0    0    0  501  0.00000000000E+00  0.00000000000E+00  0.71641487410E+03  0.71641487410E+03  0.25500000920E-02 0.  1.
        2   -1    0    0  501    0  0.00000000000E+00  0.00000000000E+00 -0.28383104527E+04  0.28383104527E+04  0.25500000920E-02 0. -1.
    10030    2    1    2    0    0  0.00000000000E+00  0.00000000000E+00 -0.21218955786E+04  0.35547253268E+04  0.28519521915E+04 0.  0.
        4    1    3    3  502    0  0.81736652011E+03  0.78825949507E+03 -0.21360261104E+04  0.24191011175E+04  0.12699999809E+01 0. -1.
       -4    1    3    3    0  502 -0.81736652011E+03 -0.78825949507E+03  0.14130531815E+02  0.11356242092E+04  0.12699999809E+01 0.  1.
</event>
<event>
 5   0  0.2267565E-06  0.2810384E+04  0.7818609E-02  0.8300052E-01
        1   -1    0    0  501    0  0.00000000000E+00  0.00000000000E+00  0.17751178633E+04  0.17751178633E+04  0.50400001928E-02 0.  1.
       -1   -1    0    0    0  501  0.00000000000E+00  0.00000000000E+00 -0.11123567703E+04  0.11123567703E+04  0.50400001928E-02 0. -1.
    10030    2    1    2    0    0  0.00000000000E+00  0.00000000000E+00  0.66276109295E+03  0.28874746336E+04  0.28103838694E+04 0.  0.
        4    1    3    3  502    0 -0.88680547926E+03  0.16143799425E+03  0.14389472909E+04  0.16979567435E+04  0.12699999809E+01 0.  1.
       -4    1    3    3    0  502  0.88680547926E+03 -0.16143799425E+03 -0.77618619795E+03  0.11895178901E+04  0.12699999809E+01 0. -1.
</event>
<event>
 5   0  0.5584205E-06  0.2809635E+04  0.7818609E-02  0.8300283E-01
        2   -1    0    0  501    0  0.00000000000E+00  0.00000000000E+00  0.17455751681E+04  0.17455751681E+04  0.25500000920E-02 0. -1.
       -2   -1    0    0    0  501  0.00000000000E+00  0.00000000000E+00 -0.11305797755E+04  0.11305797755E+04  0.25500000920E-02 0.  1.
    10030    2    1    2    0    0  0.00000000000E+00  0.00000000000E+00  0.61499539261E+03  0.28761549437E+04  0.28096348387E+04 0.  0.
        1    1    3    3  502    0  0.59445247516E+03  0.18916737523E+03 -0.98101441003E+03  0.11625606710E+04  0.50400001928E-02 0.  1.
       -1    1    3    3    0  502 -0.59445247516E+03 -0.18916737523E+03  0.15960098026E+04  0.17135942726E+04  0.50400001928E-02 0. -1.
</event>
<event>
 5   0  0.5866136E-06  0.2781188E+04  0.7818609E-02  0.8309133E-01
        2   -1    0    0  501    0  0.00000000000E+00  0.00000000000E+00  0.20615195503E+04  0.20615195503E+04  0.25500000920E-02 0. -1.
       -2   -1    0    0    0  501  0.00000000000E+00  0.00000000000E+00 -0.93802221465E+03  0.93802221466E+03  0.25500000920E-02 0.  1.
    10030    2    1    2    0    0  0.00000000000E+00  0.00000000000E+00  0.11234973357E+04  0.29995417650E+04  0.27811876126E+04 0.  0.
        5    1    3    3  502    0  0.59741280730E+03 -0.36763058916E+03  0.18567143826E+04  0.19848084797E+04  0.46999998093E+01 0. -1.
       -5    1    3    3    0  502 -0.59741280730E+03  0.36763058916E+03 -0.73321704693E+03  0.10147332853E+04  0.46999998093E+01 0.  1.
</event>
<event>
 5   0  0.2277133E-06  0.2824441E+04  0.7818609E-02  0.8295720E-01
        1   -1    0    0  501    0  0.00000000000E+00  0.00000000000E+00  0.18359113868E+04  0.18359113868E+04  0.50400001928E-02 0. -1.
       -1   -1    0    0    0  501  0.00000000000E+00  0.00000000000E+00 -0.10863092025E+04  0.10863092025E+04  0.50400001928E-02 0.  1.
    10030    2    1    2    0    0  0.00000000000E+00  0.00000000000E+00  0.74960218431E+03  0.29222205893E+04  0.28244414913E+04 0.  0.
        1    1    3    3  502    0  0.44452647292E+03  0.13131804476E+04  0.96565997503E+02  0.13897379843E+04  0.50400001928E-02 0.  1.
       -1    1    3    3    0  502 -0.44452647292E+03 -0.13131804476E+04  0.65303618681E+03  0.15324826050E+04  0.50400001928E-02 0. -1.
</event>
<event>
 5   0  0.2277133E-06  0.2811711E+04  0.7818609E-02  0.8299642E-01
        1   -1    0    0  501    0  0.00000000000E+00  0.00000000000E+00  0.17303775902E+04  0.17303775902E+04  0.50400001928E-02 0. -1.
       -1   -1    0    0    0  501  0.00000000000E+00  0.00000000000E+00 -0.11421957819E+04  0.11421957819E+04  0.50400001928E-02 0.  1.
    10030    2    1    2    0    0  0.00000000000E+00  0.00000000000E+00  0.58818180836E+03  0.28725733721E+04  0.28117112118E+04 0.  0.
        1    1    3    3  502    0 -0.11034616755E+04 -0.35684059231E+03  0.11059408842E+04  0.16025193031E+04  0.50400001928E-02 0. -1.
       -1    1    3    3    0  502  0.11034616755E+04  0.35684059231E+03 -0.51775907581E+03  0.12700540690E+04  0.50400001928E-02 0.  1.
</event>
<event>
 5   0  0.2267565E-06  0.2816113E+04  0.7818609E-02  0.8298283E-01
        1   -1    0    0  501    0  0.00000000000E+00  0.00000000000E+00  0.84662424237E+03  0.84662424238E+03  0.50400001928E-02 0.  1.
       -1   -1    0    0    0  501  0.00000000000E+00  0.00000000000E+00 -0.23417984193E+04  0.23417984193E+04  0.50400001928E-02 0. -1.
    10030    2    1    2    0    0  0.00000000000E+00  0.00000000000E+00 -0.14951741769E+04  0.31884226617E+04  0.28161131458E+04 0.  0.
        4    1    3    3  502    0  0.34750246025E+03 -0.58456326660E+02  0.79589228607E+03  0.87041441045E+03  0.12699999809E+01 0.  1.
       -4    1    3    3    0  502 -0.34750246025E+03  0.58456326660E+02 -0.22910664630E+04  0.23180082512E+04  0.12699999809E+01 0. -1.
</event>
<event>
 5   0  0.5546570E-06  0.2792391E+04  0.7818609E-02  0.8305634E-01
        2   -1    0    0  501    0  0.00000000000E+00  0.00000000000E+00  0.17934383650E+04  0.17934383650E+04  0.25500000920E-02 0. -1.
       -2   -1    0    0    0  501  0.00000000000E+00  0.00000000000E+00 -0.10869412911E+04  0.10869412911E+04  0.25500000920E-02 0.  1.
    10030    2    1    2    0    0  0.00000000000E+00  0.00000000000E+00  0.70649707390E+03  0.28803796560E+04  0.27923912418E+04 0.  0.
        4    1    3    3  502    0 -0.25276648728E+03  0.11398895973E+03  0.17647509438E+04  0.17864019387E+04  0.12699999809E+01 0. -1.
       -4    1    3    3    0  502  0.25276648728E+03 -0.11398895973E+03 -0.10582538699E+04  0.10939777173E+04  0.12699999809E+01 0.  1.
</event>
<event>
 5   0  0.2277133E-06  0.2796751E+04  0.7818609E-02  0.8304278E-01
        1   -1    0    0  501    0  0.00000000000E+00  0.00000000000E+00  0.22834669335E+04  0.22834669335E+04  0.50400001928E-02 0.  1.
       -1   -1    0    0    0  501  0.00000000000E+00  0.00000000000E+00 -0.85635342452E+03  0.85635342453E+03  0.50400001928E-02 0. -1.
    10030    2    1    2    0    0  0.00000000000E+00  0.00000000000E+00  0.14271135089E+04  0.31398203580E+04  0.27967514929E+04 0.  0.
        1    1    3    3  502    0 -0.12898008551E+04 -0.51638477103E+03  0.53528498813E+03  0.14888819618E+04  0.50400001928E-02 0. -1.
       -1    1    3    3    0  502  0.12898008551E+04  0.51638477103E+03  0.89182852082E+03  0.16509383962E+04  0.50400001928E-02 0.  1.
</event>
<event>
 5   0  0.5584205E-06  0.2817067E+04  0.7818609E-02  0.8297989E-01
        2   -1    0    0  501    0  0.00000000000E+00  0.00000000000E+00  0.17595167732E+04  0.17595167732E+04  0.25500000920E-02 0. -1.
       -2   -1    0    0    0  501  0.00000000000E+00  0.00000000000E+00 -0.11275633141E+04  0.11275633141E+04  0.25500000920E-02 0.  1.
    10030    2    1    2    0    0  0.00000000000E+00  0.00000000000E+00  0.63195345906E+03  0.28870800873E+04  0.28170669598E+04 0.  0.
        1    1    3    3  502    0 -0.93650505621E+03 -0.57457194913E+02 -0.76066729395E+03  0.12078732474E+04  0.50400001928E-02 0.  1.
       -1    1    3    3    0  502  0.93650505621E+03  0.57457194913E+02  0.13926207530E+04  0.16792068399E+04  0.50400001928E-02 0. -1.
</event>
<event>
 5   0  0.1901375E-06  0.2824794E+04  0.7818609E-02  0.8295612E-01
       -3   -1    0    0    0  501  0.00000000000E+00  0.00000000000E+00  0.19760880648E+04  0.19760880674E+04  0.10100000352E+00 0. -1.
        3   -1    0    0  501    0  0.00000000000E+00  0.00000000000E+00 -0.10095019961E+04  0.10095020011E+04  0.10100000352E+00 0.  1.
    10030    2    1    2    0    0  0.00000000000E+00  0.00000000000E+00  0.96658606871E+03  0.29855900685E+04  0.28247936967E+04 0.  0.
        4    1    3    3  502    0  0.17268360166E+01 -0.88813864543E+03  0.16440190031E+04  0.18685805658E+04  0.12699999809E+01 0. -1.
       -4    1    3    3    0  502 -0.17268360166E+01  0.88813864543E+03 -0.67743293442E+03  0.11170095026E+04  0.12699999809E+01 0.  1.
</event>
<event>
 5   0  0.5625245E-06  0.2715954E+04  0.7818609E-02  0.8329847E-01
        2   -1    0    0  501    0  0.00000000000E+00  0.00000000000E+00  0.22419097231E+04  0.22419097231E+04  0.25500000920E-02 0. -1.
       -2   -1    0    0    0  501  0.00000000000E+00  0.00000000000E+00 -0.82255838417E+03  0.82255838417E+03  0.25500000920E-02 0.  1.
    10030    2    1    2    0    0  0.00000000000E+00  0.00000000000E+00  0.14193513390E+04  0.30644681073E+04  0.27159540786E+04 0.  0.
        3    1    3    3  502    0  0.93552216718E+03  0.17155076968E+03  0.18033151912E+04  0.20387685207E+04  0.10100000352E+00 0. -1.
       -3    1    3    3    0  502 -0.93552216718E+03 -0.17155076968E+03 -0.38396385228E+03  0.10256995866E+04  0.10100000352E+00 0.  1.
</event>
<event>
 5   0  0.2277133E-06  0.2803770E+04  0.7818609E-02  0.8302099E-01
        1   -1    0    0  501    0  0.00000000000E+00  0.00000000000E+00  0.13785179623E+04  0.13785179623E+04  0.50400001928E-02 0.  1.
       -1   -1    0    0    0  501  0.00000000000E+00  0.00000000000E+00 -0.14256482070E+04  0.14256482070E+04  0.50400001928E-02 0. -1.
    10030    2    1    2    0    0  0.00000000000E+00  0.00000000000E+00 -0.47130244693E+02  0.28041661694E+04  0.28037700771E+04 0.  0.
        1    1    3    3  502    0  0.44575528918E+02  0.12305316730E+04  0.64666870281E+03  0.13908183157E+04  0.50400001928E-02 0.  1.
       -1    1    3    3    0  502 -0.44575528918E+02 -0.12305316730E+04 -0.69379894751E+03  0.14133478537E+04  0.50400001928E-02 0. -1.
</event>
<event>
 5   0  0.1901375E-06  0.2799326E+04  0.7818609E-02  0.8303478E-01
        3   -1    0    0  501    0  0.00000000000E+00  0.00000000000E+00  0.19304872213E+04  0.19304872240E+04  0.10100000352E+00 0.  1.
       -3   -1    0    0    0  501  0.00000000000E+00  0.00000000000E+00 -0.10147991242E+04  0.10147991292E+04  0.10100000352E+00 0. -1.
    10030    2    1    2    0    0  0.00000000000E+00  0.00000000000E+00  0.91568809712E+03  0.29452863532E+04  0.27993261709E+04 0.  0.
        4    1    3    3  502    0 -0.19989246200E+03 -0.11830602874E+04 -0.30047644587E+03  0.12368817031E+04  0.12699999809E+01 0. -1.
       -4    1    3    3    0  502  0.19989246200E+03  0.11830602874E+04  0.12161645430E+04  0.17084046501E+04  0.12699999809E+01 0.  1.
</event>
<event>
 5   0  0.5866136E-06  0.2672307E+04  0.7818609E-02  0.8344047E-01
       -2   -1    0    0    0  501  0.00000000000E+00  0.00000000000E+00  0.13489235159E+04  0.13489235159E+04  0.25500000920E-02 0.  1.
        2   -1    0    0  501    0  0.00000000000E+00  0.00000000000E+00 -0.13235043119E+04  0.13235043119E+04  0.25500000920E-02 0. -1.
    10030    2    1    2    0    0  0.00000000000E+00  0.00000000000E+00  0.25419203944E+02  0.26724278278E+04  0.26723069358E+04 0.  0.
        5    1    3    3  502    0 -0.85141584719E+03 -0.49967974537E-01  0.10425013260E+04  0.13460089346E+04  0.46999998093E+01 0.  1.
       -5    1    3    3    0  502  0.85141584719E+03  0.49967974537E-01 -0.10170821220E+04  0.13264188932E+04  0.46999998093E+01 0. -1.
</event>
<event>
 5   0  0.2277133E-06  0.2802143E+04  0.7818609E-02  0.8302603E-01
       -1   -1    0    0    0  501  0.00000000000E+00  0.00000000000E+00  0.24822796853E+04  0.24822796853E+04  0.50400001928E-02 0. -1.
        1   -1    0    0  501    0  0.00000000000E+00  0.00000000000E+00 -0.79080572553E+03  0.79080572554E+03  0.50400001928E-02 0.  1.
    10030    2    1    2    0    0  0.00000000000E+00  0.00000000000E+00  0.16914739598E+04  0.32730854109E+04  0.28021427426E+04 0.  0.
        1    1    3    3  502    0 -0.11493941622E+04 -0.68676859764E+03  0.36378736229E+03  0.13874794743E+04  0.50400001928E-02 0. -1.
       -1    1    3    3    0  502  0.11493941622E+04  0.68676859764E+03  0.13276865975E+04  0.18856059365E+04  0.50400001928E-02 0.  1.
</event>
<event>
 5   0  0.2206967E-06  0.2746852E+04  0.7818609E-02  0.8319961E-01
        1   -1    0    0  501    0  0.00000000000E+00  0.00000000000E+00  0.13021055927E+04  0.13021055927E+04  0.50400001928E-02 0.  1.
       -1   -1    0    0    0  501  0.00000000000E+00  0.00000000000E+00 -0.14486526381E+04  0.14486526381E+04  0.50400001928E-02 0. -1.
    10030    2    1    2    0    0  0.00000000000E+00  0.00000000000E+00 -0.14654704538E+03  0.27507582308E+04  0.27468517993E+04 0.  0.
        5    1    3    3  502    0  0.84180812375E+03  0.53948260222E+01  0.10134455925E+04  0.13174839962E+04  0.46999998093E+01 0.  1.
       -5    1    3    3    0  502 -0.84180812375E+03 -0.53948260222E+01 -0.11599926379E+04  0.14332742345E+04  0.46999998093E+01 0. -1.
</event>
<event>
 5   0  0.2234068E-06  0.2801655E+04  0.7818609E-02  0.8302755E-01
        1   -1    0    0  501    0  0.00000000000E+00  0.00000000000E+00  0.12528260907E+04  0.12528260907E+04  0.50400001928E-02 0.  1.
       -1   -1    0    0    0  501  0.00000000000E+00  0.00000000000E+00 -0.15663128624E+04  0.15663128624E+04  0.50400001928E-02 0. -1.
    10030    2    1    2    0    0  0.00000000000E+00  0.00000000000E+00 -0.31348677172E+03  0.28191389530E+04  0.28016549539E+04 0.  0.
        3    1    3    3  502    0  0.51640644471E+01 -0.13802560277E+04 -0.39736797911E+03  0.14363268050E+04  0.10100000352E+00 0.  1.
       -3    1    3    3    0  502 -0.51640644471E+01  0.13802560277E+04  0.83881207389E+02  0.13828121481E+04  0.10100000352E+00 0. -1.
</event>
<event>
 5   0  0.5546570E-06  0.2801653E+04  0.7818609E-02  0.8302755E-01
        2   -1    0    0  501    0  0.00000000000E+00  0.00000000000E+00  0.26904185295E+04  0.26904185295E+04  0.25500000920E-02 0.  1.
       -2   -1    0    0    0  501  0.00000000000E+00  0.00000000000E+00 -0.72937142072E+03  0.72937142072E+03  0.25500000920E-02 0. -1.
    10030    2    1    2    0    0  0.00000000000E+00  0.00000000000E+00  0.19610471088E+04  0.34197899502E+04  0.28016526446E+04 0.  0.
        4    1    3    3  502    0 -0.13911808702E+04  0.10516064300E+03  0.82675382896E+03  0.16217171397E+04  0.12699999809E+01 0.  1.
       -4    1    3    3    0  502  0.13911808702E+04 -0.10516064300E+03  0.11342932798E+04  0.17980728106E+04  0.12699999809E+01 0. -1.
</event>
<event>
 5   0  0.2190865E-06  0.2802700E+04  0.7818609E-02  0.8302431E-01
        1   -1    0    0  501    0  0.00000000000E+00  0.00000000000E+00  0.26029813589E+04  0.26029813589E+04  0.50400001928E-02 0. -1.
       -1   -1    0    0    0  501  0.00000000000E+00  0.00000000000E+00 -0.75443557941E+03  0.75443557943E+03  0.50400001928E-02 0.  1.
    10030    2    1    2    0    0  0.00000000000E+00  0.00000000000E+00  0.18485457795E+04  0.33574169383E+04  0.28026999481E+04 0.  0.
        2    1    3    3  502    0 -0.57708710176E+02  0.74224646924E+03 -0.49793978442E+03  0.89565849811E+03  0.25500000920E-02 0.  1.
       -2    1    3    3    0  502  0.57708710176E+02 -0.74224646924E+03  0.23464855639E+04  0.24617584402E+04  0.25500000920E-02 0. -1.
</event>
<event>
 5   0  0.5584205E-06  0.2809991E+04  0.7818609E-02  0.8300173E-01
        2   -1    0    0  501    0  0.00000000000E+00  0.00000000000E+00  0.12925653571E+04  0.12925653571E+04  0.25500000920E-02 0.  1.
       -2   -1    0    0    0  501  0.00000000000E+00  0.00000000000E+00 -0.15272054244E+04  0.15272054244E+04  0.25500000920E-02 0. -1.
    10030    2    1    2    0    0  0.00000000000E+00  0.00000000000E+00 -0.23464006729E+03  0.28197707815E+04  0.28099913344E+04 0.  0.
        1    1    3    3  502    0  0.21351378485E+03 -0.36776432824E+03  0.12264348408E+04  0.12980682402E+04  0.50400001928E-02 0.  1.
       -1    1    3    3    0  502 -0.21351378485E+03  0.36776432824E+03 -0.14610749080E+04  0.15217025414E+04  0.50400001928E-02 0. -1.
</event>
<event>
 5   0  0.5546570E-06  0.2780225E+04  0.7818609E-02  0.8309434E-01
       -2   -1    0    0    0  501  0.00000000000E+00  0.00000000000E+00  0.14279362721E+04  0.14279362721E+04  0.25500000920E-02 0. -1.
        2   -1    0    0  501    0  0.00000000000E+00  0.00000000000E+00 -0.13532903886E+04  0.13532903886E+04  0.25500000920E-02 0.  1.
    10030    2    1    2    0    0  0.00000000000E+00  0.00000000000E+00  0.74645883534E+02  0.27812266607E+04  0.27802247626E+04 0.  0.
        4    1    3    3  502    0 -0.11594238846E+04  0.65560054574E+03  0.43537964338E+03  0.14012968516E+04  0.12699999809E+01 0. -1.
       -4    1    3    3    0  502  0.11594238846E+04 -0.65560054574E+03 -0.36073375984E+03  0.13799298091E+04  0.12699999809E+01 0.  1.
</event>
<event>
 5   0  0.5546570E-06  0.2709259E+04  0.7818609E-02  0.8332007E-01
       -2   -1    0    0    0  501  0.00000000000E+00  0.00000000000E+00  0.93095422702E+03  0.93095422703E+03  0.25500000920E-02 0. -1.
        2   -1    0    0  501    0  0.00000000000E+00  0.00000000000E+00 -0.19711183113E+04  0.19711183113E+04  0.25500000920E-02 0.  1.
    10030    2    1    2    0    0  0.00000000000E+00  0.00000000000E+00 -0.10401640843E+04  0.29020725384E+04  0.27092588831E+04 0.  0.
        4    1    3    3  502    0  0.25689406717E+03 -0.28039648171E+03 -0.19127668200E+04  0.19502039046E+04  0.12699999809E+01 0.  1.
       -4    1    3    3    0  502 -0.25689406717E+03  0.28039648171E+03  0.87260273572E+03  0.95186863379E+03  0.12699999809E+01 0. -1.
</event>
<event>
 5   0  0.5546570E-06  0.2817711E+04  0.7818609E-02  0.8297791E-01
        2   -1    0    0  501    0  0.00000000000E+00  0.00000000000E+00  0.22344520625E+04  0.22344520625E+04  0.25500000920E-02 0.  1.
       -2   -1    0    0    0  501  0.00000000000E+00  0.00000000000E+00 -0.88830440936E+03  0.88830440937E+03  0.25500000920E-02 0. -1.
    10030    2    1    2    0    0  0.00000000000E+00  0.00000000000E+00  0.13461476532E+04  0.31227564719E+04  0.28177108579E+04 0.  0.
        4    1    3    3  502    0  0.10828544967E+04  0.85198818737E+03  0.99886134041E+03  0.17018176526E+04  0.12699999809E+01 0.  1.
       -4    1    3    3    0  502 -0.10828544967E+04 -0.85198818737E+03  0.34728631277E+03  0.14209388193E+04  0.12699999809E+01 0. -1.
</event>
<event>
 5   0  0.5625245E-06  0.2797460E+04  0.7818609E-02  0.8304057E-01
       -2   -1    0    0    0  501  0.00000000000E+00  0.00000000000E+00  0.11453496792E+04  0.11453496792E+04  0.25500000920E-02 0. -1.
        2   -1    0    0  501    0  0.00000000000E+00  0.00000000000E+00 -0.17081646030E+04  0.17081646030E+04  0.25500000920E-02 0.  1.
    10030    2    1    2    0    0  0.00000000000E+00  0.00000000000E+00 -0.56281492382E+03  0.28535142823E+04  0.27974601196E+04 0.  0.
        3    1    3    3  502    0 -0.10209006374E+04  0.12168132617E+03  0.68596318496E+03  0.12359571019E+04  0.10100000352E+00 0. -1.
       -3    1    3    3    0  502  0.10209006374E+04 -0.12168132617E+03 -0.12487781088E+04  0.16175571803E+04  0.10100000352E+00 0.  1.
</event>
<event>
 5   0  0.2234068E-06  0.2759277E+04  0.7818609E-02  0.8316024E-01
       -1   -1    0    0    0  501  0.00000000000E+00  0.00000000000E+00  0.89228837594E+03  0.89228837596E+03  0.50400001928E-02 0.  1.
        1   -1    0    0  501    0  0.00000000000E+00  0.00000000000E+00 -0.21331693456E+04  0.21331693456E+04  0.50400001928E-02 0. -1.
    10030    2    1    2    0    0  0.00000000000E+00  0.00000000000E+00 -0.12408809697E+04  0.30254577216E+04  0.27592768698E+04 0.  0.
        3    1    3    3  502    0  0.11810819979E+04  0.11541960139E+03 -0.13919718746E+04  0.18291697789E+04  0.10100000352E+00 0.  1.
       -3    1    3    3    0  502 -0.11810819979E+04 -0.11541960139E+03  0.15109090487E+03  0.11962879427E+04  0.10100000352E+00 0. -1.
</event>
<event>
 5   0  0.2267565E-06  0.2787682E+04  0.7818609E-02  0.8307103E-01
        1   -1    0    0  501    0  0.00000000000E+00  0.00000000000E+00  0.15047042530E+04  0.15047042530E+04  0.50400001928E-02 0. -1.
       -1   -1    0    0    0  501  0.00000000000E+00  0.00000000000E+00 -0.12911456569E+04  0.12911456569E+04  0.50400001928E-02 0.  1.
    10030    2    1    2    0    0  0.00000000000E+00  0.00000000000E+00  0.21355859614E+03  0.27958499099E+04  0.27876817330E+04 0.  0.
        4    1    3    3  502    0 -0.12425105778E+04 -0.16182666700E+03 -0.50555888369E+03  0.13511520284E+04  0.12699999809E+01 0.  1.
       -4    1    3    3    0  502  0.12425105778E+04  0.16182666700E+03  0.71911747983E+03  0.14446978815E+04  0.12699999809E+01 0. -1.
</event>
<event>
 5   0  0.5625245E-06  0.2587813E+04  0.7818609E-02  0.8372353E-01
        2   -1    0    0  501    0  0.00000000000E+00  0.00000000000E+00  0.12140133041E+04  0.12140133042E+04  0.25500000920E-02 0. -1.
       -2   -1    0    0    0  501  0.00000000000E+00  0.00000000000E+00 -0.13790577127E+04  0.13790577127E+04  0.25500000920E-02 0.  1.
    10030    2    1    2    0    0  0.00000000000E+00  0.00000000000E+00 -0.16504440851E+03  0.25930710168E+04  0.25878132934E+04 0.  0.
        3    1    3    3  502    0 -0.12645468019E+04  0.71750889135E+02 -0.34757350952E+03  0.13134055577E+04  0.10100000352E+00 0. -1.
       -3    1    3    3    0  502  0.12645468019E+04 -0.71750889135E+02  0.18252910101E+03  0.12796654591E+04  0.10100000352E+00 0.  1.
</event>
<event>
 5   0  0.5916603E-06  0.2792351E+04  0.7818609E-02  0.8305647E-01
        2   -1    0    0  501    0  0.00000000000E+00  0.00000000000E+00  0.11671793811E+04  0.11671793811E+04  0.25500000920E-02 0.  1.
       -2   -1    0    0    0  501  0.00000000000E+00  0.00000000000E+00 -0.16701002171E+04  0.16701002171E+04  0.25500000920E-02 0. -1.
    10030    2    1    2    0    0  0.00000000000E+00  0.00000000000E+00 -0.50292083593E+03  0.28372795982E+04  0.27923513660E+04 0.  0.
        2    1    3    3  502    0  0.54976258602E+03  0.21724938223E+03  0.10337506702E+04  0.11908302328E+04  0.25500000920E-02 0.  1.
       -2    1    3    3    0  502 -0.54976258602E+03 -0.21724938223E+03 -0.15366715062E+04  0.16464493654E+04  0.25500000920E-02 0. -1.
</event>
<event>
 5   0  0.2277133E-06  0.2804116E+04  0.7818609E-02  0.8301992E-01
       -1   -1    0    0    0  501  0.00000000000E+00  0.00000000000E+00  0.10745042459E+04  0.10745042459E+04  0.50400001928E-02 0.  1.
        1   -1    0    0  501    0  0.00000000000E+00  0.00000000000E+00 -0.18294633086E+04  0.18294633086E+04  0.50400001928E-02 0. -1.
    10030    2    1    2    0    0  0.00000000000E+00  0.00000000000E+00 -0.75495906274E+03  0.29039675546E+04  0.28041156131E+04 0.  0.
        1    1    3    3  502    0  0.12529720659E+04  0.14994741000E+03  0.25529614202E+03  0.12874779003E+04  0.50400001928E-02 0.  1.
       -1    1    3    3    0  502 -0.12529720659E+04 -0.14994741000E+03 -0.10102552048E+04  0.16164896543E+04  0.50400001928E-02 0. -1.
</event>
<event>
 5   0  0.5584205E-06  0.2798529E+04  0.7818609E-02  0.8303725E-01
       -2   -1    0    0    0  501  0.00000000000E+00  0.00000000000E+00  0.15028629924E+04  0.15028629924E+04  0.25500000920E-02 0. -1.
        2   -1    0    0  501    0  0.00000000000E+00  0.00000000000E+00 -0.13028070446E+04  0.13028070446E+04  0.25500000920E-02 0.  1.
    10030    2    1    2    0    0  0.00000000000E+00  0.00000000000E+00  0.20005594773E+03  0.28056700370E+04  0.27985285373E+04 0.  0.
        1    1    3    3  502    0  0.13038823515E+03  0.50812287708E+03 -0.12004910938E+04  0.13101025976E+04  0.50400001928E-02 0.  1.
       -1    1    3    3    0  502 -0.13038823515E+03 -0.50812287708E+03  0.14005470415E+04  0.14955674393E+04  0.50400001928E-02 0. -1.
</event>
<event>
 5   0  0.2190865E-06  0.2802686E+04  0.7818609E-02  0.8302435E-01
        1   -1    0    0  501    0  0.00000000000E+00  0.00000000000E+00  0.16862654347E+04  0.16862654347E+04  0.50400001928E-02 0.  1.
       -1   -1    0    0    0  501  0.00000000000E+00  0.00000000000E+00 -0.11645631569E+04  0.11645631569E+04  0.50400001928E-02 0. -1.
    10030    2    1    2    0    0  0.00000000000E+00  0.00000000000E+00  0.52170227784E+03  0.28508285916E+04  0.28026862814E+04 0.  0.
        2    1    3    3  502    0 -0.41301444669E+03  0.94146679089E+03  0.12294804997E+04  0.16026736882E+04  0.25500000920E-02 0.  1.
       -2    1    3    3    0  502  0.41301444669E+03 -0.94146679089E+03 -0.70777822188E+03  0.12481549034E+04  0.25500000920E-02 0. -1.
</event>
<event>
 5   0  0.5866136E-06  0.2797976E+04  0.7818609E-02  0.8303897E-01
        2   -1    0    0  501    0  0.00000000000E+00  0.00000000000E+00  0.21431601393E+04  0.21431601393E+04  0.25500000920E-02 0. -1.
       -2   -1    0    0    0  501  0.00000000000E+00  0.00000000000E+00 -0.91321551792E+03  0.91321551792E+03  0.25500000920E-02 0.  1.
    10030    2    1    2    0    0  0.00000000000E+00  0.00000000000E+00  0.12299446213E+04  0.30563756572E+04  0.27979757658E+04 0.  0.
        5    1    3    3  502    0 -0.17590319293E+02 -0.93210116373E+03  0.17543870235E+04  0.19867103254E+04  0.46999998093E+01 0. -1.
       -5    1    3    3    0  502  0.17590319293E+02  0.93210116373E+03 -0.52444240219E+03  0.10696653318E+04  0.46999998093E+01 0.  1.
</event>
<event>
 5   0  0.2190865E-06  0.2784986E+04  0.7818609E-02  0.8307945E-01
        1   -1    0    0  501    0  0.00000000000E+00  0.00000000000E+00  0.18544989314E+04  0.18544989314E+04  0.50400001928E-02 0.  1.
       -1   -1    0    0    0  501  0.00000000000E+00  0.00000000000E+00 -0.10455850819E+04  0.10455850819E+04  0.50400001928E-02 0. -1.
    10030    2    1    2    0    0  0.00000000000E+00  0.00000000000E+00  0.80891384945E+03  0.29000840133E+04  0.27849857573E+04 0.  0.
        2    1    3    3  502    0 -0.47656064711E+03  0.12336686475E+04  0.85834704143E+03  0.15766445464E+04  0.25500000920E-02 0.  1.
       -2    1    3    3    0  502  0.47656064711E+03 -0.12336686475E+04 -0.49433191975E+02  0.13234394669E+04  0.25500000920E-02 0. -1.
</event>
<event>
 5   0  0.2234068E-06  0.2807447E+04  0.7818609E-02  0.8300960E-01
        1   -1    0    0  501    0  0.00000000000E+00  0.00000000000E+00  0.15927719290E+04  0.15927719290E+04  0.50400001928E-02 0. -1.
       -1   -1    0    0    0  501  0.00000000000E+00  0.00000000000E+00 -0.12371130846E+04  0.12371130847E+04  0.50400001928E-02 0.  1.
    10030    2    1    2    0    0  0.00000000000E+00  0.00000000000E+00  0.35565884436E+03  0.28298850137E+04  0.28074465226E+04 0.  0.
        3    1    3    3  502    0 -0.13345532978E+04 -0.23941200400E+03 -0.18851500556E+03  0.13689004821E+04  0.10100000352E+00 0.  1.
       -3    1    3    3    0  502  0.13345532978E+04  0.23941200400E+03  0.54417384992E+03  0.14609845316E+04  0.10100000352E+00 0. -1.
</event>
<event>
 5   0  0.2206967E-06  0.2796406E+04  0.7818609E-02  0.8304385E-01
       -1   -1    0    0    0  501  0.00000000000E+00  0.00000000000E+00  0.15899028516E+04  0.15899028516E+04  0.50400001928E-02 0.  1.
        1   -1    0    0  501    0  0.00000000000E+00  0.00000000000E+00 -0.12296169331E+04  0.12296169331E+04  0.50400001928E-02 0. -1.
    10030    2    1    2    0    0  0.00000000000E+00  0.00000000000E+00  0.36028591850E+03  0.28195197847E+04  0.27964058849E+04 0.  0.
        5    1    3    3  502    0  0.19303255562E+03 -0.73747760836E+03 -0.10016434761E+04  0.12587480024E+04  0.46999998093E+01 0. -1.
       -5    1    3    3    0  502 -0.19303255562E+03  0.73747760836E+03  0.13619293946E+04  0.15607717822E+04  0.46999998093E+01 0.  1.
</event>
<event>
 5   0  0.5584205E-06  0.2813073E+04  0.7818609E-02  0.8299221E-01
       -2   -1    0    0    0  501  0.00000000000E+00  0.00000000000E+00  0.18102841235E+04  0.18102841235E+04  0.25500000920E-02 0.  1.
        2   -1    0    0  501    0  0.00000000000E+00  0.00000000000E+00 -0.10928365035E+04  0.10928365035E+04  0.25500000920E-02 0. -1.
    10030    2    1    2    0    0  0.00000000000E+00  0.00000000000E+00  0.71744762002E+03  0.29031206270E+04  0.28130727484E+04 0.  0.
        1    1    3    3  502    0  0.10042270282E+04 -0.33171721591E+03 -0.59823228994E+03  0.12150679439E+04  0.50400001928E-02 0. -1.
       -1    1    3    3    0  502 -0.10042270282E+04  0.33171721591E+03  0.13156799100E+04  0.16880526831E+04  0.50400001928E-02 0.  1.
</event>
<event>
 5   0  0.2234068E-06  0.2801079E+04  0.7818609E-02  0.8302934E-01
        1   -1    0    0  501    0  0.00000000000E+00  0.00000000000E+00  0.17798795622E+04  0.17798795622E+04  0.50400001928E-02 0. -1.
       -1   -1    0    0    0  501  0.00000000000E+00  0.00000000000E+00 -0.11020466520E+04  0.11020466520E+04  0.50400001928E-02 0.  1.
    10030    2    1    2    0    0  0.00000000000E+00  0.00000000000E+00  0.67783291023E+03  0.28819262142E+04  0.28010785868E+04 0.  0.
        3    1    3    3  502    0  0.17129394479E+03 -0.13406222573E+04 -0.38972836072E+02  0.13520830390E+04  0.10100000352E+00 0. -1.
       -3    1    3    3    0  502 -0.17129394479E+03  0.13406222573E+04  0.71680574630E+03  0.15298431751E+04  0.10100000352E+00 0.  1.
</event>
<event>
 5   0  0.5916603E-06  0.2872511E+04  0.7818609E-02  0.8281104E-01
        2   -1    0    0  501    0  0.00000000000E+00  0.00000000000E+00  0.13502360675E+04  0.13502360675E+04  0.25500000920E-02 0.  1.
       -2   -1    0    0    0  501  0.00000000000E+00  0.00000000000E+00 -0.15277547032E+04  0.15277547032E+04  0.25500000920E-02 0. -1.
    10030    2    1    2    0    0  0.00000000000E+00  0.00000000000E+00 -0.17751863575E+03  0.28779907707E+04  0.28725107502E+04 0.  0.
        2    1    3    3  502    0 -0.18609538556E+03  0.11977505401E+02 -0.15155739365E+04  0.15270033759E+04  0.25500000920E-02 0. -1.
       -2    1    3    3    0  502  0.18609538556E+03 -0.11977505401E+02  0.13380553007E+04  0.13509873948E+04  0.25500000920E-02 0.  1.
</event>
<event>
 5   0  0.2267565E-06  0.2690530E+04  0.7818609E-02  0.8338084E-01
       -1   -1    0    0    0  501  0.00000000000E+00  0.00000000000E+00  0.20112068748E+04  0.20112068749E+04  0.50400001928E-02 0.  1.
        1   -1    0    0  501    0  0.00000000000E+00  0.00000000000E+00 -0.89982689906E+03  0.89982689908E+03  0.50400001928E-02 0. -1.
    10030    2    1    2    0    0  0.00000000000E+00  0.00000000000E+00  0.11113799758E+04  0.29110337739E+04  0.26905300932E+04 0.  0.
        4    1    3    3  502    0 -0.69787558325E+03  0.66074658055E+03 -0.46279744399E+03  0.10666768304E+04  0.12699999809E+01 0. -1.
       -4    1    3    3    0  502  0.69787558325E+03 -0.66074658055E+03  0.15741774198E+04  0.18443569435E+04  0.12699999809E+01 0.  1.
</event>
<event>
 5   0  0.2206967E-06  0.2737714E+04  0.7818609E-02  0.8322871E-01
       -1   -1    0    0    0  501  0.00000000000E+00  0.00000000000E+00  0.92518799485E+03  0.92518799487E+03  0.50400001928E-02 0. -1.
        1   -1    0    0  501    0  0.00000000000E+00  0.00000000000E+00 -0.20252852394E+04  0.20252852394E+04  0.50400001928E-02 0.  1.
    10030    2    1    2    0    0  0.00000000000E+00  0.00000000000E+00 -0.11000972445E+04  0.29504732342E+04  0.27377140754E+04 0.  0.
        5    1    3    3  502    0  0.63433814337E+03 -0.11240353495E+04 -0.10414521906E+04  0.16584586526E+04  0.46999998093E+01 0. -1.
       -5    1    3    3    0  502 -0.63433814337E+03  0.11240353495E+04 -0.58645053950E+02  0.12920145817E+04  0.46999998093E+01 0.  1.
</event>
<event>
 5   0  0.5866136E-06  0.2790133E+04  0.7818609E-02  0.8306338E-01
        2   -1    0    0  501    0  0.00000000000E+00  0.00000000000E+00  0.30468122089E+04  0.30468122089E+04  0.25500000920E-02 0.  1.
       -2   -1    0    0    0  501  0.00000000000E+00  0.00000000000E+00 -0.63876943887E+03  0.63876943888E+03  0.25500000920E-02 0. -1.
    10030    2    1    2    0    0  0.00000000000E+00  0.00000000000E+00  0.24080427701E+04  0.36855816478E+04  0.27901329897E+04 0.  0.
        5    1    3    3  502    0 -0.64058023115E+02  0.12856067237E+04  0.49353523377E+03  0.13785815882E+04  0.46999998093E+01 0. -1.
       -5    1    3    3    0  502  0.64058023115E+02 -0.12856067237E+04  0.19145075363E+04  0.23070000596E+04  0.46999998093E+01 0.  1.
</event>
<event>
 5   0  0.2206967E-06  0.2799882E+04  0.7818609E-02  0.8303305E-01
        1   -1    0    0  501    0  0.00000000000E+00  0.00000000000E+00  0.12296334336E+04  0.12296334336E+04  0.50400001928E-02 0.  1.
       -1   -1    0    0    0  501  0.00000000000E+00  0.00000000000E+00 -0.15938367564E+04  0.15938367564E+04  0.50400001928E-02 0. -1.
    10030    2    1    2    0    0  0.00000000000E+00  0.00000000000E+00 -0.36420332280E+03  0.28234701900E+04  0.27998821142E+04 0.  0.
        5    1    3    3  502    0 -0.10720720943E+04 -0.35064310669E+03  0.65405431929E+03  0.13038781792E+04  0.46999998093E+01 0. -1.
       -5    1    3    3    0  502  0.10720720943E+04  0.35064310669E+03 -0.10182576421E+04  0.15195920108E+04  0.46999998093E+01 0.  1.
</event>
<event>
 5   0  0.2190865E-06  0.2804932E+04  0.7818609E-02  0.8301739E-01
       -1   -1    0    0    0  501  0.00000000000E+00  0.00000000000E+00  0.99310186868E+03  0.99310186869E+03  0.50400001928E-02 0. -1.
        1   -1    0    0  501    0  0.00000000000E+00  0.00000000000E+00 -0.19805726485E+04  0.19805726485E+04  0.50400001928E-02 0.  1.
    10030    2    1    2    0    0  0.00000000000E+00  0.00000000000E+00 -0.98747077985E+03  0.29736745172E+04  0.28049316557E+04 0.  0.
        2    1    3    3  502    0 -0.15823203420E+03  0.10489636628E+04 -0.14662825264E+04  0.18097918637E+04  0.25500000920E-02 0.  1.
       -2    1    3    3    0  502  0.15823203420E+03 -0.10489636628E+04  0.47881174657E+03  0.11638826535E+04  0.25500000920E-02 0. -1.
</event>
<event>
 5   0  0.5584205E-06  0.2781560E+04  0.7818609E-02  0.8309016E-01
        2   -1    0    0  501    0  0.00000000000E+00  0.00000000000E+00  0.17620671400E+04  0.17620671400E+04  0.25500000920E-02 0. -1.
       -2   -1    0    0    0  501  0.00000000000E+00  0.00000000000E+00 -0.10977272635E+04  0.10977272635E+04  0.25500000920E-02 0.  1.
    10030    2    1    2    0    0  0.00000000000E+00  0.00000000000E+00  0.66433987649E+03  0.28597944035E+04  0.27815600945E+04 0.  0.
        1    1    3    3  502    0 -0.12063724428E+04 -0.29791071992E+03 -0.31004591468E+03  0.12807082951E+04  0.50400001928E-02 0.  1.
       -1    1    3    3    0  502  0.12063724428E+04  0.29791071992E+03  0.97438579117E+03  0.15790861085E+04  0.50400001928E-02 0. -1.
</event>
<event>
 5   0  0.2267565E-06  0.2835050E+04  0.7818609E-02  0.8292469E-01
        1   -1    0    0  501    0  0.00000000000E+00  0.00000000000E+00  0.15500988140E+04  0.15500988140E+04  0.50400001928E-02 0. -1.
       -1   -1    0    0    0  501  0.00000000000E+00  0.00000000000E+00 -0.12962897970E+04  0.12962897971E+04  0.50400001928E-02 0.  1.
    10030    2    1    2    0    0  0.00000000000E+00  0.00000000000E+00  0.25380901695E+03  0.28463886111E+04  0.28350501068E+04 0.  0.
        4    1    3    3  502    0 -0.87572388699E+01  0.13813934198E+04 -0.19225234894E+03  0.13947354760E+04  0.12699999809E+01 0.  1.
       -4    1    3    3    0  502  0.87572388699E+01 -0.13813934198E+04  0.44606136589E+03  0.14516531351E+04  0.12699999809E+01 0. -1.
</event>
<event>
 5   0  0.5584205E-06  0.2541819E+04  0.7818609E-02  0.8388237E-01
        2   -1    0    0  501    0  0.00000000000E+00  0.00000000000E+00  0.15444126580E+04  0.15444126580E+04  0.25500000920E-02 0.  1.
       -2   -1    0    0    0  501  0.00000000000E+00  0.00000000000E+00 -0.10458412629E+04  0.10458412629E+04  0.25500000920E-02 0. -1.
    10030    2    1    2    0    0  0.00000000000E+00  0.00000000000E+00  0.49857139510E+03  0.25902539208E+04  0.25418186281E+04 0.  0.
        1    1    3    3  502    0 -0.11121609108E+04  0.65201248543E+02  0.87254231934E+03  0.14150912315E+04  0.50400001928E-02 0.  1.
       -1    1    3    3    0  502  0.11121609108E+04 -0.65201248543E+02 -0.37397092424E+03  0.11751626894E+04  0.50400001928E-02 0. -1.
</event>
<event>
 5   0  0.5584205E-06  0.2818255E+04  0.7818609E-02  0.8297623E-01
        2   -1    0    0  501    0  0.00000000000E+00  0.00000000000E+00  0.14880085239E+04  0.14880085239E+04  0.25500000920E-02 0.  1.
       -2   -1    0    0    0  501  0.00000000000E+00  0.00000000000E+00 -0.13344279113E+04  0.13344279113E+04  0.25500000920E-02 0. -1.
    10030    2    1    2    0    0  0.00000000000E+00  0.00000000000E+00  0.15358061251E+03  0.28224364352E+04  0.28182548547E+04 0.  0.
        1    1    3    3  502    0  0.17431586722E+03 -0.20890069880E+03 -0.13078726494E+04  0.13358728946E+04  0.50400001928E-02 0. -1.
       -1    1    3    3    0  502 -0.17431586722E+03  0.20890069880E+03  0.14614532619E+04  0.14865635406E+04  0.50400001928E-02 0.  1.
</event>
<event>
 5   0  0.2267565E-06  0.2800325E+04  0.7818609E-02  0.8303167E-01
       -1   -1    0    0    0  501  0.00000000000E+00  0.00000000000E+00  0.12630181571E+04  0.12630181571E+04  0.50400001928E-02 0. -1.
        1   -1    0    0  501    0  0.00000000000E+00  0.00000000000E+00 -0.15521988341E+04  0.15521988341E+04  0.50400001928E-02 0.  1.
    10030    2    1    2    0    0  0.00000000000E+00  0.00000000000E+00 -0.28918067703E+03  0.28152169912E+04  0.28003252032E+04 0.  0.
        4    1    3    3  502    0 -0.28389196468E+03  0.29028561913E+03  0.12025331085E+04  0.12692312154E+04  0.12699999809E+01 0. -1.
       -4    1    3    3    0  502  0.28389196468E+03 -0.29028561913E+03 -0.14917137855E+04  0.15459857758E+04  0.12699999809E+01 0.  1.
</event>
<event>
 5   0  0.2206967E-06  0.2795827E+04  0.7818609E-02  0.8304565E-01
       -1   -1    0    0    0  501  0.00000000000E+00  0.00000000000E+00  0.10327178107E+04  0.10327178107E+04  0.50400001928E-02 0.  1.
        1   -1    0    0  501    0  0.00000000000E+00  0.00000000000E+00 -0.18922513859E+04  0.18922513859E+04  0.50400001928E-02 0. -1.
    10030    2    1    2    0    0  0.00000000000E+00  0.00000000000E+00 -0.85953357522E+03  0.29249691967E+04  0.27958266818E+04 0.  0.
        5    1    3    3  502    0  0.10918578789E+03  0.10523433735E+04 -0.13856394970E+04  0.17433780478E+04  0.46999998093E+01 0. -1.
       -5    1    3    3    0  502 -0.10918578789E+03 -0.10523433735E+04  0.52610592177E+03  0.11815911488E+04  0.46999998093E+01 0.  1.
</event>
<event>
 5   0  0.5546570E-06  0.2800934E+04  0.7818609E-02  0.8302979E-01
        2   -1    0    0  501    0  0.00000000000E+00  0.00000000000E+00  0.28215967312E+04  0.28215967312E+04  0.25500000920E-02 0.  1.
       -2   -1    0    0    0  501  0.00000000000E+00  0.00000000000E+00 -0.69510550383E+03  0.69510550384E+03  0.25500000920E-02 0. -1.
    10030    2    1    2    0    0  0.00000000000E+00  0.00000000000E+00  0.21264912274E+04  0.35167022350E+04  0.28009337139E+04 0.  0.
        4    1    3    3  502    0  0.97666564772E+03  0.31319141690E+03 -0.13403565880E+03  0.10343750876E+04  0.12699999809E+01 0.  1.
       -4    1    3    3    0  502 -0.97666564772E+03 -0.31319141690E+03  0.22605268862E+04  0.24823271475E+04  0.12699999809E+01 0. -1.
</event>
<event>
 5   0  0.2267565E-06  0.2802577E+04  0.7818609E-02  0.8302469E-01
        1   -1    0    0  501    0  0.00000000000E+00  0.00000000000E+00  0.20905175533E+04  0.20905175533E+04  0.50400001928E-02 0.  1.
       -1   -1    0    0    0  501  0.00000000000E+00  0.00000000000E+00 -0.93929377416E+03  0.93929377417E+03  0.50400001928E-02 0. -1.
    10030    2    1    2    0    0  0.00000000000E+00  0.00000000000E+00  0.11512237792E+04  0.30298113275E+04  0.28025774727E+04 0.  0.
        4    1    3    3  502    0  0.58781336310E+03 -0.12402609532E+04  0.27014839037E+03  0.13988400722E+04  0.12699999809E+01 0. -1.
       -4    1    3    3    0  502 -0.58781336310E+03  0.12402609532E+04  0.88107538878E+03  0.16309712553E+04  0.12699999809E+01 0.  1.
</event>
<event>
 5   0  0.2277133E-06  0.2810038E+04  0.7818609E-02  0.8300159E-01
       -1   -1    0    0    0  501  0.00000000000E+00  0.00000000000E+00  0.88687032714E+03  0.88687032715E+03  0.50400001928E-02 0. -1.
        1   -1    0    0  501    0  0.00000000000E+00  0.00000000000E+00 -0.22258932724E+04  0.22258932724E+04  0.50400001928E-02 0.  1.
    10030    2    1    2    0    0  0.00000000000E+00  0.00000000000E+00 -0.13390229453E+04  0.31127635996E+04  0.28100382166E+04 0.  0.
        1    1    3    3  502    0 -0.13973696196E+04 -0.12760897433E+03 -0.58999535679E+03  0.15221762136E+04  0.50400001928E-02 0. -1.
       -1    1    3    3    0  502  0.13973696196E+04  0.12760897433E+03 -0.74902758851E+03  0.15905873860E+04  0.50400001928E-02 0.  1.
</event>
<event>
 5   0  0.2206967E-06  0.2792285E+04  0.7818609E-02  0.8305668E-01
       -1   -1    0    0    0  501  0.00000000000E+00  0.00000000000E+00  0.99128025164E+03  0.99128025165E+03  0.50400001928E-02 0. -1.
        1   -1    0    0  501    0  0.00000000000E+00  0.00000000000E+00 -0.19663597041E+04  0.19663597041E+04  0.50400001928E-02 0.  1.
    10030    2    1    2    0    0  0.00000000000E+00  0.00000000000E+00 -0.97507945251E+03  0.29576399558E+04  0.27922847579E+04 0.  0.
        5    1    3    3  502    0  0.30364572783E+03  0.10223329459E+04  0.46683097081E+03  0.11641815261E+04  0.46999998093E+01 0. -1.
       -5    1    3    3    0  502 -0.30364572783E+03 -0.10223329459E+04 -0.14419104233E+04  0.17934584297E+04  0.46999998093E+01 0.  1.
</event>
<event>
 5   0  0.5546570E-06  0.2576250E+04  0.7818609E-02  0.8376314E-01
        2   -1    0    0  501    0  0.00000000000E+00  0.00000000000E+00  0.18944581961E+04  0.18944581961E+04  0.25500000920E-02 0. -1.
       -2   -1    0    0    0  501  0.00000000000E+00  0.00000000000E+00 -0.87585248363E+03  0.87585248363E+03  0.25500000920E-02 0.  1.
    10030    2    1    2    0    0  0.00000000000E+00  0.00000000000E+00  0.10186057125E+04  0.27703106797E+04  0.25762499228E+04 0.  0.
        4    1    3    3  502    0  0.10151847278E+04  0.77419899388E+03  0.69330692527E+03  0.14528111437E+04  0.12699999809E+01 0.  1.
       -4    1    3    3    0  502 -0.10151847278E+04 -0.77419899388E+03  0.32529878720E+03  0.13174995361E+04  0.12699999809E+01 0. -1.
</event>
<event>
 5   0  0.5916603E-06  0.2791967E+04  0.7818609E-02  0.8305767E-01
       -2   -1    0    0    0  501  0.00000000000E+00  0.00000000000E+00  0.83199444330E+03  0.83199444330E+03  0.25500000920E-02 0.  1.
        2   -1    0    0  501    0  0.00000000000E+00  0.00000000000E+00 -0.23422864233E+04  0.23422864233E+04  0.25500000920E-02 0. -1.
    10030    2    1    2    0    0  0.00000000000E+00  0.00000000000E+00 -0.15102919800E+04  0.31742808666E+04  0.27919665391E+04 0.  0.
        2    1    3    3  502    0 -0.74314468115E+03  0.79573578199E+03 -0.17484577379E+04  0.20597485073E+04  0.25500000920E-02 0. -1.
       -2    1    3    3    0  502  0.74314468115E+03 -0.79573578199E+03  0.23816575788E+03  0.11145323594E+04  0.25500000920E-02 0.  1.
</event>
<event>
 5   0  0.2206967E-06  0.2787447E+04  0.7818609E-02  0.8307176E-01
       -1   -1    0    0    0  501  0.00000000000E+00  0.00000000000E+00  0.14240291224E+04  0.14240291224E+04  0.50400001928E-02 0.  1.
        1   -1    0    0  501    0  0.00000000000E+00  0.00000000000E+00 -0.13640628043E+04  0.13640628043E+04  0.50400001928E-02 0. -1.
    10030    2    1    2    0    0  0.00000000000E+00  0.00000000000E+00  0.59966318127E+02  0.27880919266E+04  0.27874469739E+04 0.  0.
        5    1    3    3  502    0  0.12553845006E+04  0.31154169546E+03  0.54913561641E+03  0.14052119013E+04  0.46999998093E+01 0.  1.
       -5    1    3    3    0  502 -0.12553845006E+04 -0.31154169546E+03 -0.48916929828E+03  0.13828800254E+04  0.46999998093E+01 0. -1.
</event>
<event>
 5   0  0.2277133E-06  0.2770474E+04  0.7818609E-02  0.8312494E-01
       -1   -1    0    0    0  501  0.00000000000E+00  0.00000000000E+00  0.12311328155E+04  0.12311328155E+04  0.50400001928E-02 0.  1.
        1   -1    0    0  501    0  0.00000000000E+00  0.00000000000E+00 -0.15586313627E+04  0.15586313627E+04  0.50400001928E-02 0. -1.
    10030    2    1    2    0    0  0.00000000000E+00  0.00000000000E+00 -0.32749854719E+03  0.27897641781E+04  0.27704744848E+04 0.  0.
        1    1    3    3  502    0  0.13017304713E+04  0.31664466641E+03 -0.51850342931E+03  0.14365277133E+04  0.50400001928E-02 0.  1.
       -1    1    3    3    0  502 -0.13017304713E+04 -0.31664466641E+03  0.19100488212E+03  0.13532364648E+04  0.50400001928E-02 0. -1.
</event>
<event>
 5   0  0.5625245E-06  0.2753457E+04  0.7818609E-02  0.8317866E-01
       -2   -1    0    0    0  501  0.00000000000E+00  0.00000000000E+00  0.12688151240E+04  0.12688151240E+04  0.25500000920E-02 0. -1.
        2   -1    0    0  501    0  0.00000000000E+00  0.00000000000E+00 -0.14938195127E+04  0.14938195127E+04  0.25500000920E-02 0.  1.
    10030    2    1    2    0    0  0.00000000000E+00  0.00000000000E+00 -0.22500438868E+03  0.27626346366E+04  0.27534565841E+04 0.  0.
        3    1    3    3  502    0 -0.13290481400E+04 -0.25665243171E+03 -0.36461920770E+03  0.14018511355E+04  0.10100000352E+00 0.  1.
       -3    1    3    3    0  502  0.13290481400E+04  0.25665243171E+03  0.13961481902E+03  0.13607835012E+04  0.10100000352E+00 0. -1.
</event>
<event>
 5   0  0.5546570E-06  0.2818746E+04  0.7818609E-02  0.8297472E-01
       -2   -1    0    0    0  501  0.00000000000E+00  0.00000000000E+00  0.85095848491E+03  0.85095848492E+03  0.25500000920E-02 0. -1.
        2   -1    0    0  501    0  0.00000000000E+00  0.00000000000E+00 -0.23342296425E+04  0.23342296425E+04  0.25500000920E-02 0.  1.
    10030    2    1    2    0    0  0.00000000000E+00  0.00000000000E+00 -0.14832711576E+04  0.31851881274E+04  0.28187461894E+04 0.  0.
        4    1    3    3  502    0 -0.30996195742E+03 -0.11574270060E+04 -0.15801373995E+04  0.19830656831E+04  0.12699999809E+01 0.  1.
       -4    1    3    3    0  502  0.30996195742E+03  0.11574270060E+04  0.96866241941E+02  0.12021224443E+04  0.12699999809E+01 0. -1.
</event>
<event>
 5   0  0.5546570E-06  0.2784699E+04  0.7818609E-02  0.8308035E-01
       -2   -1    0    0    0  501  0.00000000000E+00  0.00000000000E+00  0.86421326751E+03  0.86421326751E+03  0.25500000920E-02 0.  1.
        2   -1    0    0  501    0  0.00000000000E+00  0.00000000000E+00 -0.22432385881E+04  0.22432385881E+04  0.25500000920E-02 0. -1.
    10030    2    1    2    0    0  0.00000000000E+00  0.00000000000E+00 -0.13790253206E+04  0.31074518556E+04  0.27846985834E+04 0.  0.
        4    1    3    3  502    0  0.26758438855E+03  0.13660664537E+04 -0.65611050923E+03  0.15389027176E+04  0.12699999809E+01 0.  1.
       -4    1    3    3    0  502 -0.26758438855E+03 -0.13660664537E+04 -0.72291481138E+03  0.15685491380E+04  0.12699999809E+01 0. -1.
</event>
<event>
 5   0  0.2234068E-06  0.2803004E+04  0.7818609E-02  0.8302336E-01
       -1   -1    0    0    0  501  0.00000000000E+00  0.00000000000E+00  0.13594230585E+04  0.13594230585E+04  0.50400001928E-02 0. -1.
        1   -1    0    0  501    0  0.00000000000E+00  0.00000000000E+00 -0.14448835942E+04  0.14448835942E+04  0.50400001928E-02 0.  1.
    10030    2    1    2    0    0  0.00000000000E+00  0.00000000000E+00 -0.85460535709E+02  0.28043066527E+04  0.28030041561E+04 0.  0.
        3    1    3    3  502    0 -0.74613297614E+03  0.33955861771E+03 -0.11800054239E+04  0.14368114990E+04  0.10100000352E+00 0.  1.
       -3    1    3    3    0  502  0.74613297614E+03 -0.33955861771E+03  0.10945448882E+04  0.13674951537E+04  0.10100000352E+00 0. -1.
</event>
<event>
 5   0  0.2206967E-06  0.2869086E+04  0.7818609E-02  0.8282135E-01
        1   -1    0    0  501    0  0.00000000000E+00  0.00000000000E+00  0.18946492758E+04  0.18946492759E+04  0.50400001928E-02 0. -1.
       -1   -1    0    0    0  501  0.00000000000E+00  0.00000000000E+00 -0.10861712262E+04  0.10861712262E+04  0.50400001928E-02 0.  1.
    10030    2    1    2    0    0  0.00000000000E+00  0.00000000000E+00  0.80847804967E+03  0.29808205020E+04  0.28690859361E+04 0.  0.
        5    1    3    3  502    0  0.29738204294E+03 -0.70813741814E+03 -0.85455541449E+03  0.11489916139E+04  0.46999998093E+01 0.  1.
       -5    1    3    3    0  502 -0.29738204294E+03  0.70813741814E+03  0.16630334642E+04  0.18318288881E+04  0.46999998093E+01 0. -1.
</event>
<event>
 5   0  0.2234068E-06  0.2755757E+04  0.7818609E-02  0.8317137E-01
        1   -1    0    0  501    0  0.00000000000E+00  0.00000000000E+00  0.20907325008E+04  0.20907325008E+04  0.50400001928E-02 0.  1.
       -1   -1    0    0    0  501  0.00000000000E+00  0.00000000000E+00 -0.90807872330E+03  0.90807872331E+03  0.50400001928E-02 0. -1.
    10030    2    1    2    0    0  0.00000000000E+00  0.00000000000E+00  0.11826537775E+04  0.29988112241E+04  0.27557573914E+04 0.  0.
        3    1    3    3  502    0 -0.11658639172E+03  0.78533498223E+03 -0.63414426966E+03  0.10161114043E+04  0.10100000352E+00 0. -1.
       -3    1    3    3    0  502  0.11658639172E+03 -0.78533498223E+03  0.18167980471E+04  0.19826998198E+04  0.10100000352E+00 0.  1.
</event>
<event>
 5   0  0.2190865E-06  0.2801083E+04  0.7818609E-02  0.8302932E-01
        1   -1    0    0  501    0  0.00000000000E+00  0.00000000000E+00  0.12698885449E+04  0.12698885449E+04  0.50400001928E-02 0. -1.
       -1   -1    0    0    0  501  0.00000000000E+00  0.00000000000E+00 -0.15446365143E+04  0.15446365143E+04  0.50400001928E-02 0.  1.
    10030    2    1    2    0    0  0.00000000000E+00  0.00000000000E+00 -0.27474796945E+03  0.28145250592E+04  0.28010828017E+04 0.  0.
        2    1    3    3  502    0 -0.31261781815E+03 -0.13635959971E+04 -0.20396624924E+03  0.14137631253E+04  0.25500000920E-02 0.  1.
       -2    1    3    3    0  502  0.31261781815E+03  0.13635959971E+04 -0.70781720211E+02  0.14007619339E+04  0.25500000920E-02 0. -1.
</event>
<event>
 5   0  0.5625245E-06  0.2799486E+04  0.7818609E-02  0.8303428E-01
       -2   -1    0    0    0  501  0.00000000000E+00  0.00000000000E+00  0.12043996845E+04  0.12043996845E+04  0.25500000920E-02 0.  1.
        2   -1    0    0  501    0  0.00000000000E+00  0.00000000000E+00 -0.16267692629E+04  0.16267692629E+04  0.25500000920E-02 0. -1.
    10030    2    1    2    0    0  0.00000000000E+00  0.00000000000E+00 -0.42236957837E+03  0.28311689475E+04  0.27994859436E+04 0.  0.
        3    1    3    3  502    0  0.11382606344E+04 -0.78447550321E+00  0.61267742938E+03  0.12926761117E+04  0.10100000352E+00 0.  1.
       -3    1    3    3    0  502 -0.11382606344E+04  0.78447550321E+00 -0.10350470078E+04  0.15384928357E+04  0.10100000352E+00 0. -1.
</event>
<event>
 5   0  0.5625245E-06  0.2802653E+04  0.7818609E-02  0.8302445E-01
        2   -1    0    0  501    0  0.00000000000E+00  0.00000000000E+00  0.19655130692E+04  0.19655130692E+04  0.25500000920E-02 0.  1.
       -2   -1    0    0    0  501  0.00000000000E+00  0.00000000000E+00 -0.99908558290E+03  0.99908558290E+03  0.25500000920E-02 0. -1.
    10030    2    1    2    0    0  0.00000000000E+00  0.00000000000E+00  0.96642748626E+03  0.29645986521E+04  0.28026528650E+04 0.  0.
        3    1    3    3  502    0 -0.26633325454E+02  0.64706695476E+03 -0.83129642247E+03  0.10537830565E+04  0.10100000352E+00 0. -1.
       -3    1    3    3    0  502  0.26633325454E+02 -0.64706695476E+03  0.17977239087E+04  0.19108155955E+04  0.10100000352E+00 0.  1.
</event>
<event>
 5   0  0.2234068E-06  0.2817962E+04  0.7818609E-02  0.8297714E-01
       -1   -1    0    0    0  501  0.00000000000E+00  0.00000000000E+00  0.14576635862E+04  0.14576635862E+04  0.50400001928E-02 0. -1.
        1   -1    0    0  501    0  0.00000000000E+00  0.00000000000E+00 -0.13619242680E+04  0.13619242680E+04  0.50400001928E-02 0.  1.
    10030    2    1    2    0    0  0.00000000000E+00  0.00000000000E+00  0.95739318167E+02  0.28195878542E+04  0.28179619675E+04 0.  0.
        3    1    3    3  502    0  0.10501383404E+04  0.83707102521E+03 -0.37869657960E+03  0.13953098383E+04  0.10100000352E+00 0.  1.
       -3    1    3    3    0  502 -0.10501383404E+04 -0.83707102521E+03  0.47443589777E+03  0.14242780159E+04  0.10100000352E+00 0. -1.
</event>
<event>
 5   0  0.5916603E-06  0.2844903E+04  0.7818609E-02  0.8289462E-01
        2   -1    0    0  501    0  0.00000000000E+00  0.00000000000E+00  0.14754752892E+04  0.14754752892E+04  0.25500000920E-02 0. -1.
       -2   -1    0    0    0  501  0.00000000000E+00  0.00000000000E+00 -0.13713328907E+04  0.13713328907E+04  0.25500000920E-02 0.  1.
    10030    2    1    2    0    0  0.00000000000E+00  0.00000000000E+00  0.10414239853E+03  0.28468081799E+04  0.28449026651E+04 0.  0.
        2    1    3    3  502    0  0.19722162678E+03 -0.14665661058E+03  0.14540675355E+04  0.14746921473E+04  0.25500000920E-02 0. -1.
       -2    1    3    3    0  502 -0.19722162678E+03  0.14665661058E+03 -0.13499251370E+04  0.13721160326E+04  0.25500000920E-02 0.  1.
</event>
<event>
 5   0  0.5584205E-06  0.2801741E+04  0.7818609E-02  0.8302728E-01
        2   -1    0    0  501    0  0.00000000000E+00  0.00000000000E+00  0.19300937749E+04  0.19300937749E+04  0.25500000920E-02 0.  1.
       -2   -1    0    0    0  501  0.00000000000E+00  0.00000000000E+00 -0.10167575791E+04  0.10167575791E+04  0.25500000920E-02 0. -1.
    10030    2    1    2    0    0  0.00000000000E+00  0.00000000000E+00  0.91333619582E+03  0.29468513539E+04  0.28017405118E+04 0.  0.
        1    1    3    3  502    0  0.36662929853E+03  0.85947982640E+03  0.15544271669E+04  0.18136610576E+04  0.50400001928E-02 0.  1.
       -1    1    3    3    0  502 -0.36662929853E+03 -0.85947982640E+03 -0.64109097109E+03  0.11331902964E+04  0.50400001928E-02 0. -1.
</event>
<event>
 5   0  0.5546570E-06  0.2763942E+04  0.7818609E-02  0.8314551E-01
        2   -1    0    0  501    0  0.00000000000E+00  0.00000000000E+00  0.18525259197E+04  0.18525259197E+04  0.25500000920E-02 0. -1.
       -2   -1    0    0    0  501  0.00000000000E+00  0.00000000000E+00 -0.10309403429E+04  0.10309403429E+04  0.25500000920E-02 0.  1.
    10030    2    1    2    0    0  0.00000000000E+00  0.00000000000E+00  0.82158557689E+03  0.28834662626E+04  0.27639419001E+04 0.  0.
        4    1    3    3  502    0 -0.10868267463E+04  0.40867674768E+03  0.11926227086E+04  0.16644998043E+04  0.12699999809E+01 0. -1.
       -4    1    3    3    0  502  0.10868267463E+04 -0.40867674768E+03 -0.37103713168E+03  0.12189664583E+04  0.12699999809E+01 0.  1.
</event>
<event>
 5   0  0.2206967E-06  0.2834317E+04  0.7818609E-02  0.8292693E-01
        1   -1    0    0  501    0  0.00000000000E+00  0.00000000000E+00  0.12542619637E+04  0.12542619637E+04  0.50400001928E-02 0. -1.
       -1   -1    0    0    0  501  0.00000000000E+00  0.00000000000E+00 -0.16012109736E+04  0.16012109736E+04  0.50400001928E-02 0.  1.
    10030    2    1    2    0    0  0.00000000000E+00  0.00000000000E+00 -0.34694900989E+03  0.28554729373E+04  0.28343168631E+04 0.  0.
        5    1    3    3  502    0 -0.45422561743E+03  0.54283749646E+03  0.10634202122E+04  0.12774498412E+04  0.46999998093E+01 0. -1.
       -5    1    3    3    0  502  0.45422561743E+03 -0.54283749646E+03 -0.14103692221E+04  0.15780230961E+04  0.46999998093E+01 0.  1.
</event>
<event>
 5   0  0.5584205E-06  0.2809099E+04  0.7818609E-02  0.8300449E-01
        2   -1    0    0  501    0  0.00000000000E+00  0.00000000000E+00  0.12048230078E+04  0.12048230078E+04  0.25500000920E-02 0. -1.
       -2   -1    0    0    0  501  0.00000000000E+00  0.00000000000E+00 -0.16373856719E+04  0.16373856719E+04  0.25500000920E-02 0.  1.
    10030    2    1    2    0    0  0.00000000000E+00  0.00000000000E+00 -0.43256266415E+03  0.28422086797E+04  0.28090994501E+04 0.  0.
        1    1    3    3  502    0 -0.24094070507E+03 -0.35663598254E+03 -0.15690205869E+04  0.16269810231E+04  0.50400001928E-02 0.  1.
       -1    1    3    3    0  502  0.24094070507E+03  0.35663598254E+03  0.11364579227E+04  0.12152276567E+04  0.50400001928E-02 0. -1.
</event>
<event>
 5   0  0.5625245E-06  0.2802007E+04  0.7818609E-02  0.8302646E-01
       -2   -1    0    0    0  501  0.00000000000E+00  0.00000000000E+00  0.85763378341E+03  0.85763378342E+03  0.25500000920E-02 0. -1.
        2   -1    0    0  501    0  0.00000000000E+00  0.00000000000E+00 -0.22886346065E+04  0.22886346065E+04  0.25500000920E-02 0.  1.
    10030    2    1    2    0    0  0.00000000000E+00  0.00000000000E+00 -0.14310008231E+04  0.31462683899E+04  0.28020066784E+04 0.  0.
        3    1    3    3  502    0  0.13966850747E+04  0.61246280384E+02 -0.81798302331E+03  0.16197458261E+04  0.10100000352E+00 0. -1.
       -3    1    3    3    0  502 -0.13966850747E+04 -0.61246280384E+02 -0.61301779977E+03  0.15265225638E+04  0.10100000352E+00 0.  1.
</event>
<event>
 5   0  0.2267565E-06  0.2810801E+04  0.7818609E-02  0.8299923E-01
       -1   -1    0    0    0  501  0.00000000000E+00  0.00000000000E+00  0.12738863812E+04  0.12738863812E+04  0.50400001928E-02 0. -1.
        1   -1    0    0  501    0  0.00000000000E+00  0.00000000000E+00 -0.15504916381E+04  0.15504916381E+04  0.50400001928E-02 0.  1.
    10030    2    1    2    0    0  0.00000000000E+00  0.00000000000E+00 -0.27660525685E+03  0.28243780193E+04  0.28108007272E+04 0.  0.
        4    1    3    3  502    0 -0.36756872349E+03  0.13559507281E+04 -0.17642565409E+03  0.14159225854E+04  0.12699999809E+01 0. -1.
       -4    1    3    3    0  502  0.36756872349E+03 -0.13559507281E+04 -0.10017960276E+03  0.14084554339E+04  0.12699999809E+01 0.  1.
</event>
<event>
 5   0  0.5866136E-06  0.2796588E+04  0.7818609E-02  0.8304329E-01
       -2   -1    0    0    0  501  0.00000000000E+00  0.00000000000E+00  0.11834808059E+04  0.11834808059E+04  0.25500000920E-02 0.  1.
        2   -1    0    0  501    0  0.00000000000E+00  0.00000000000E+00 -0.16520975496E+04  0.16520975497E+04  0.25500000920E-02 0. -1.
    10030    2    1    2    0    0  0.00000000000E+00  0.00000000000E+00 -0.46861674372E+03  0.28355783556E+04  0.27965877348E+04 0.  0.
        5    1    3    3  502    0  0.57663545882E+03  0.10280762405E+04  0.52834499146E+03  0.12917506449E+04  0.46999998093E+01 0.  1.
       -5    1    3    3    0  502 -0.57663545882E+03 -0.10280762405E+04 -0.99696173518E+03  0.15438277106E+04  0.46999998093E+01 0. -1.
</event>
<event>
 5   0  0.5916603E-06  0.2804808E+04  0.7818609E-02  0.8301777E-01
       -2   -1    0    0    0  501  0.00000000000E+00  0.00000000000E+00  0.77553299447E+03  0.77553299447E+03  0.25500000920E-02 0. -1.
        2   -1    0    0  501    0  0.00000000000E+00  0.00000000000E+00 -0.25359803666E+04  0.25359803666E+04  0.25500000920E-02 0.  1.
    10030    2    1    2    0    0  0.00000000000E+00  0.00000000000E+00 -0.17604473721E+04  0.33115133611E+04  0.28048076209E+04 0.  0.
        2    1    3    3  502    0  0.13933135869E+03  0.93075307477E+03  0.34733054010E+03  0.10031714798E+04  0.25500000920E-02 0. -1.
       -2    1    3    3    0  502 -0.13933135869E+03 -0.93075307477E+03 -0.21077779122E+04  0.23083418813E+04  0.25500000920E-02 0.  1.
</event>
<event>
 5   0  0.5916603E-06  0.2964308E+04  0.7818609E-02  0.8253997E-01
        2   -1    0    0  501    0  0.00000000000E+00  0.00000000000E+00  0.17283424184E+04  0.17283424184E+04  0.25500000920E-02 0.  1.
       -2   -1    0    0    0  501  0.00000000000E+00  0.00000000000E+00 -0.12710333167E+04  0.12710333167E+04  0.25500000920E-02 0. -1.
    10030    2    1    2    0    0  0.00000000000E+00  0.00000000000E+00  0.45730910176E+03  0.29993757351E+04  0.29643082137E+04 0.  0.
        2    1    3    3  502    0  0.29849383436E+03 -0.11970536807E+04 -0.60249133869E+03  0.13729646379E+04  0.25500000920E-02 0. -1.
       -2    1    3    3    0  502 -0.29849383436E+03  0.11970536807E+04  0.10598004405E+04  0.16264110972E+04  0.25500000920E-02 0.  1.
</event>
<event>
 5   0  0.2234068E-06  0.2768374E+04  0.7818609E-02  0.8313155E-01
       -1   -1    0    0    0  501  0.00000000000E+00  0.00000000000E+00  0.17794030336E+04  0.17794030336E+04  0.50400001928E-02 0. -1.
        1   -1    0    0  501    0  0.00000000000E+00  0.00000000000E+00 -0.10767504192E+04  0.10767504192E+04  0.50400001928E-02 0.  1.
    10030    2    1    2    0    0  0.00000000000E+00  0.00000000000E+00  0.70265261439E+03  0.28561534529E+04  0.27683735026E+04 0.  0.
        3    1    3    3  502    0  0.23691560685E+03 -0.13221727029E+04  0.65083789182E+01  0.13432468240E+04  0.10100000352E+00 0.  1.
       -3    1    3    3    0  502 -0.23691560685E+03  0.13221727029E+04  0.69614423547E+03  0.15129066289E+04  0.10100000352E+00 0. -1.
</event>
<event>
 5   0  0.2190865E-06  0.2780428E+04  0.7818609E-02  0.8309371E-01
        1   -1    0    0  501    0  0.00000000000E+00  0.00000000000E+00  0.20902384843E+04  0.20902384843E+04  0.50400001928E-02 0. -1.
       -1   -1    0    0    0  501  0.00000000000E+00  0.00000000000E+00 -0.92462893996E+03  0.92462893997E+03  0.50400001928E-02 0.  1.
    10030    2    1    2    0    0  0.00000000000E+00  0.00000000000E+00  0.11656095444E+04  0.30148674243E+04  0.27804280203E+04 0.  0.
        2    1    3    3  502    0  0.57583127613E+03 -0.12085710314E+04  0.98919889871E+03  0.16645540117E+04  0.25500000920E-02 0.  1.
       -2    1    3    3    0  502 -0.57583127613E+03  0.12085710314E+04  0.17641064566E+03  0.13503134127E+04  0.25500000920E-02 0. -1.
</event>
<event>
 5   0  0.5584205E-06  0.2804837E+04  0.7818609E-02  0.8301768E-01
        2   -1    0    0  501    0  0.00000000000E+00  0.00000000000E+00  0.11636381342E+04  0.11636381342E+04  0.25500000920E-02 0.  1.
       -2   -1    0    0    0  501  0.00000000000E+00  0.00000000000E+00 -0.16901971428E+04  0.16901971428E+04  0.25500000920E-02 0. -1.
    10030    2    1    2    0    0  0.00000000000E+00  0.00000000000E+00 -0.52655900860E+03  0.28538352769E+04  0.28048371429E+04 0.  0.
        1    1    3    3  502    0  0.84801415548E+02  0.79587042855E+03  0.90843544314E+03  0.12107253915E+04  0.50400001928E-02 0.  1.
       -1    1    3    3    0  502 -0.84801415548E+02 -0.79587042855E+03 -0.14349944517E+04  0.16431098855E+04  0.50400001928E-02 0. -1.
</event>
<event>
 5   0  0.2190865E-06  0.2550671E+04  0.7818609E-02  0.8385153E-01
       -1   -1    0    0    0  501  0.00000000000E+00  0.00000000000E+00  0.10243055407E+04  0.10243055407E+04  0.50400001928E-02 0. -1.
        1   -1    0    0  501    0  0.00000000000E+00  0.00000000000E+00 -0.15878860000E+04  0.15878860000E+04  0.50400001928E-02 0.  1.
    10030    2    1    2    0    0  0.00000000000E+00  0.00000000000E+00 -0.56358045927E+03  0.26121915407E+04  0.25506708356E+04 0.  0.
        2    1    3    3  502    0  0.13426525387E+03 -0.11743000546E+04  0.20879680783E+03  0.12002515918E+04  0.25500000920E-02 0. -1.
       -2    1    3    3    0  502 -0.13426525387E+03  0.11743000546E+04 -0.77237726710E+03  0.14119399489E+04  0.25500000920E-02 0.  1.
</event>
<event>
 5   0  0.2206967E-06  0.2795716E+04  0.7818609E-02  0.8304599E-01
       -1   -1    0    0    0  501  0.00000000000E+00  0.00000000000E+00  0.12125371377E+04  0.12125371377E+04  0.50400001928E-02 0. -1.
        1   -1    0    0  501    0  0.00000000000E+00  0.00000000000E+00 -0.16115032642E+04  0.16115032642E+04  0.50400001928E-02 0.  1.
    10030    2    1    2    0    0  0.00000000000E+00  0.00000000000E+00 -0.39896612644E+03  0.28240404019E+04  0.27957164058E+04 0.  0.
        5    1    3    3  502    0 -0.10962997376E+04 -0.63961849447E+03  0.39211288056E+03  0.13284425220E+04  0.46999998093E+01 0. -1.
       -5    1    3    3    0  502  0.10962997376E+04  0.63961849447E+03 -0.79107900700E+03  0.14955978799E+04  0.46999998093E+01 0.  1.
</event>
<event>
 5   0  0.5866136E-06  0.2787543E+04  0.7818609E-02  0.8307146E-01
       -2   -1    0    0    0  501  0.00000000000E+00  0.00000000000E+00  0.16273030958E+04  0.16273030958E+04  0.25500000920E-02 0. -1.
        2   -1    0    0  501    0  0.00000000000E+00  0.00000000000E+00 -0.11937535812E+04  0.11937535812E+04  0.25500000920E-02 0.  1.
    10030    2    1    2    0    0  0.00000000000E+00  0.00000000000E+00  0.43354951465E+03  0.28210566770E+04  0.27875429312E+04 0.  0.
        5    1    3    3  502    0  0.14948027244E+03  0.11293415238E+04 -0.59588650177E+03  0.12856358125E+04  0.46999998093E+01 0.  1.
       -5    1    3    3    0  502 -0.14948027244E+03 -0.11293415238E+04  0.10294360164E+04  0.15354208645E+04  0.46999998093E+01 0. -1.
</event>
<event>
 5   0  0.2190865E-06  0.2801988E+04  0.7818609E-02  0.8302651E-01
        1   -1    0    0  501    0  0.00000000000E+00  0.00000000000E+00  0.20036635130E+04  0.20036635130E+04  0.50400001928E-02 0. -1.
       -1   -1    0    0    0  501  0.00000000000E+00  0.00000000000E+00 -0.97959797978E+03  0.97959797979E+03  0.50400001928E-02 0.  1.
    10030    2    1    2    0    0  0.00000000000E+00  0.00000000000E+00  0.10240655332E+04  0.29832614928E+04  0.28019883865E+04 0.  0.
        2    1    3    3  502    0 -0.14625677970E+03 -0.36750858543E+03  0.19429801800E+04  0.19828327176E+04  0.25500000920E-02 0. -1.
       -2    1    3    3    0  502  0.14625677970E+03  0.36750858543E+03 -0.91891464685E+03  0.10004287752E+04  0.25500000920E-02 0.  1.
</event>
<event>
 5   0  0.2234068E-06  0.2806456E+04  0.7818609E-02  0.8301267E-01
       -1   -1    0    0    0  501  0.00000000000E+00  0.00000000000E+00  0.95960042665E+03  0.95960042667E+03  0.50400001928E-02 0.  1.
        1   -1    0    0  501    0  0.00000000000E+00  0.00000000000E+00 -0.20519468292E+04  0.20519468292E+04  0.50400001928E-02 0. -1.
    10030    2    1    2    0    0  0.00000000000E+00  0.00000000000E+00 -0.10923464025E+04  0.30115472559E+04  0.28064561659E+04 0.  0.
        3    1    3    3  502    0  0.25515969239E+03  0.61087693108E+03  0.78148617409E+03  0.10242059090E+04  0.10100000352E+00 0.  1.
       -3    1    3    3    0  502 -0.25515969239E+03 -0.61087693108E+03 -0.18738325766E+04  0.19873413469E+04  0.10100000352E+00 0. -1.
</event>
<event>
 5   0  0.2206967E-06  0.2792666E+04  0.7818609E-02  0.8305549E-01
       -1   -1    0    0    0  501  0.00000000000E+00  0.00000000000E+00  0.11410266263E+04  0.11410266263E+04  0.50400001928E-02 0.  1.
        1   -1    0    0  501    0  0.00000000000E+00  0.00000000000E+00 -0.17087640670E+04  0.17087640670E+04  0.50400001928E-02 0. -1.
    10030    2    1    2    0    0  0.00000000000E+00  0.00000000000E+00 -0.56773744073E+03  0.28497906933E+04  0.27926656073E+04 0.  0.
        5    1    3    3  502    0 -0.19744660372E+03  0.81596266708E+03 -0.14224623678E+04  0.16517268276E+04  0.46999998093E+01 0. -1.
       -5    1    3    3    0  502  0.19744660372E+03 -0.81596266708E+03  0.85472492703E+03  0.11980638657E+04  0.46999998093E+01 0.  1.
</event>
<event>
 5   0  0.5916603E-06  0.2796693E+04  0.7818609E-02  0.8304296E-01
        2   -1    0    0  501    0  0.00000000000E+00  0.00000000000E+00  0.20266273291E+04  0.20266273291E+04  0.25500000920E-02 0.  1.
       -2   -1    0    0    0  501  0.00000000000E+00  0.00000000000E+00 -0.96484057005E+03  0.96484057005E+03  0.25500000920E-02 0. -1.
    10030    2    1    2    0    0  0.00000000000E+00  0.00000000000E+00  0.10617867591E+04  0.29914678992E+04  0.27966925233E+04 0.  0.
        2    1    3    3  502    0 -0.32203749223E+03 -0.88598995807E+03  0.16356278513E+04  0.18878466093E+04  0.25500000920E-02 0.  1.
       -2    1    3    3    0  502  0.32203749223E+03  0.88598995807E+03 -0.57384109228E+03  0.11036212898E+04  0.25500000920E-02 0. -1.
</event>
<event>
 5   0  0.5584205E-06  0.2793166E+04  0.7818609E-02  0.8305393E-01
        2   -1    0    0  501    0  0.00000000000E+00  0.00000000000E+00  0.24805864775E+04  0.24805864775E+04  0.25500000920E-02 0. -1.
       -2   -1    0    0    0  501  0.00000000000E+00  0.00000000000E+00 -0.78628318453E+03  0.78628318453E+03  0.25500000920E-02 0.  1.
    10030    2    1    2    0    0  0.00000000000E+00  0.00000000000E+00  0.16943032930E+04  0.32668696621E+04  0.27931655411E+04 0.  0.
        1    1    3    3  502    0 -0.92609740320E+02 -0.13838426634E+04  0.10387879511E+04  0.17328235595E+04  0.50400001928E-02 0. -1.
       -1    1    3    3    0  502  0.92609740320E+02  0.13838426634E+04  0.65551534193E+03  0.15340461025E+04  0.50400001928E-02 0.  1.
</event>
<event>
 5   0  0.2234068E-06  0.2793849E+04  0.7818609E-02  0.8305181E-01
        1   -1    0    0  501    0  0.00000000000E+00  0.00000000000E+00  0.14824252250E+04  0.14824252250E+04  0.50400001928E-02 0. -1.
       -1   -1    0    0    0  501  0.00000000000E+00  0.00000000000E+00 -0.13163552322E+04  0.13163552322E+04  0.50400001928E-02 0.  1.
    10030    2    1    2    0    0  0.00000000000E+00  0.00000000000E+00  0.16606999279E+03  0.27987804573E+04  0.27938491021E+04 0.  0.
        3    1    3    3  502    0 -0.12616608387E+04  0.17984580366E+03  0.65611607532E+03  0.14333948861E+04  0.10100000352E+00 0. -1.
       -3    1    3    3    0  502  0.12616608387E+04 -0.17984580366E+03 -0.49004608253E+03  0.13653855712E+04  0.10100000352E+00 0.  1.
</event>
<event>
 5   0  0.5584205E-06  0.2806696E+04  0.7818609E-02  0.8301193E-01
        2   -1    0    0  501    0  0.00000000000E+00  0.00000000000E+00  0.20356828293E+04  0.20356828293E+04  0.25500000920E-02 0.  1.
       -2   -1    0    0    0  501  0.00000000000E+00  0.00000000000E+00 -0.96743236242E+03  0.96743236243E+03  0.25500000920E-02 0. -1.
    10030    2    1    2    0    0  0.00000000000E+00  0.00000000000E+00  0.10682504669E+04  0.30031151917E+04  0.28066958857E+04 0.  0.
        1    1    3    3  502    0 -0.13641684187E+04 -0.26999364344E+03  0.73582019779E+03  0.15733033419E+04  0.50400001928E-02 0.  1.
       -1    1    3    3    0  502  0.13641684187E+04  0.26999364344E+03  0.33243026908E+03  0.14298118498E+04  0.50400001928E-02 0. -1.
</event>
<event>
 5   0  0.5584205E-06  0.2795415E+04  0.7818609E-02  0.8304693E-01
        2   -1    0    0  501    0  0.00000000000E+00  0.00000000000E+00  0.28358583435E+04  0.28358583435E+04  0.25500000920E-02 0. -1.
       -2   -1    0    0    0  501  0.00000000000E+00  0.00000000000E+00 -0.68888723222E+03  0.68888723223E+03  0.25500000920E-02 0.  1.
    10030    2    1    2    0    0  0.00000000000E+00  0.00000000000E+00  0.21469711113E+04  0.35247455757E+04  0.27954152502E+04 0.  0.
        1    1    3    3  502    0  0.77576768916E+03  0.82535747026E+03  0.40964261609E+02  0.11334498366E+04  0.50400001928E-02 0.  1.
       -1    1    3    3    0  502 -0.77576768916E+03 -0.82535747026E+03  0.21060068497E+04  0.23912957392E+04  0.50400001928E-02 0. -1.
</event>
<event>
 5   0  0.5866136E-06  0.2768672E+04  0.7818609E-02  0.8313061E-01
        2   -1    0    0  501    0  0.00000000000E+00  0.00000000000E+00  0.13262688374E+04  0.13262688374E+04  0.25500000920E-02 0.  1.
       -2   -1    0    0    0  501  0.00000000000E+00  0.00000000000E+00 -0.14449456346E+04  0.14449456346E+04  0.25500000920E-02 0. -1.
    10030    2    1    2    0    0  0.00000000000E+00  0.00000000000E+00 -0.11867679726E+03  0.27712144720E+04  0.27686721488E+04 0.  0.
        5    1    3    3  502    0 -0.16377835563E+03 -0.51850226167E+03  0.12148963110E+04  0.13310383472E+04  0.46999998093E+01 0.  1.
       -5    1    3    3    0  502  0.16377835563E+03  0.51850226167E+03 -0.13335731083E+04  0.14401761248E+04  0.46999998093E+01 0. -1.
</event>
<event>
 5   0  0.5625245E-06  0.2799245E+04  0.7818609E-02  0.8303503E-01
        2   -1    0    0  501    0  0.00000000000E+00  0.00000000000E+00  0.13904767175E+04  0.13904767175E+04  0.25500000920E-02 0. -1.
       -2   -1    0    0    0  501  0.00000000000E+00  0.00000000000E+00 -0.14088280485E+04  0.14088280485E+04  0.25500000920E-02 0.  1.
    10030    2    1    2    0    0  0.00000000000E+00  0.00000000000E+00 -0.18351331025E+02  0.27993047661E+04  0.27992446127E+04 0.  0.
        3    1    3    3  502    0  0.79434431580E+03  0.10769432671E+04 -0.41924898173E+03  0.14023406902E+04  0.10100000352E+00 0.  1.
       -3    1    3    3    0  502 -0.79434431580E+03 -0.10769432671E+04  0.40089765071E+03  0.13969640758E+04  0.10100000352E+00 0. -1.
</event>
<event>
 5   0  0.2277133E-06  0.2816829E+04  0.7818609E-02  0.8298063E-01
       -1   -1    0    0    0  501  0.00000000000E+00  0.00000000000E+00  0.92439552482E+03  0.92439552484E+03  0.50400001928E-02 0. -1.
        1   -1    0    0  501    0  0.00000000000E+00  0.00000000000E+00 -0.21458681306E+04  0.21458681306E+04  0.50400001928E-02 0.  1.
    10030    2    1    2    0    0  0.00000000000E+00  0.00000000000E+00 -0.12214726058E+04  0.30702636554E+04  0.28168286400E+04 0.  0.
        1    1    3    3  502    0  0.51221002092E+02  0.12681252836E+04 -0.12763026977E+04  0.17999205266E+04  0.50400001928E-02 0.  1.
       -1    1    3    3    0  502 -0.51221002092E+02 -0.12681252836E+04  0.54830091963E+02  0.12703431288E+04  0.50400001928E-02 0. -1.
</event>
<event>
 5   0  0.2277133E-06  0.2809706E+04  0.7818609E-02  0.8300261E-01
       -1   -1    0    0    0  501  0.00000000000E+00  0.00000000000E+00  0.87608269284E+03  0.87608269286E+03  0.50400001928E-02 0. -1.
        1   -1    0    0  501    0  0.00000000000E+00  0.00000000000E+00 -0.22527696192E+04  0.22527696192E+04  0.50400001928E-02 0.  1.
    10030    2    1    2    0    0  0.00000000000E+00  0.00000000000E+00 -0.13766869263E+04  0.31288523120E+04  0.28097063721E+04 0.  0.
        1    1    3    3  502    0 -0.80834278937E+03  0.95629079983E+03  0.20953124956E+02  0.12523374914E+04  0.50400001928E-02 0. -1.
       -1    1    3    3    0  502  0.80834278937E+03 -0.95629079983E+03 -0.13976400513E+04  0.18765148206E+04  0.50400001928E-02 0.  1.
</event>
<event>
 5   0  0.2234068E-06  0.2787840E+04  0.7818609E-02  0.8307053E-01
        1   -1    0    0  501    0  0.00000000000E+00  0.00000000000E+00  0.17137324800E+04  0.17137324800E+04  0.50400001928E-02 0.  1.
       -1   -1    0    0    0  501  0.00000000000E+00  0.00000000000E+00 -0.11337902440E+04  0.11337902441E+04  0.50400001928E-02 0. -1.
    10030    2    1    2    0    0  0.00000000000E+00  0.00000000000E+00  0.57994223599E+03  0.28475227241E+04  0.27878401438E+04 0.  0.
        3    1    3    3  502    0 -0.63283207322E+03  0.49395187445E+03 -0.87396294989E+03  0.11867081087E+04  0.10100000352E+00 0. -1.
       -3    1    3    3    0  502  0.63283207322E+03 -0.49395187445E+03  0.14539051859E+04  0.16608146154E+04  0.10100000352E+00 0.  1.
</event>
<event>
 5   0  0.5866136E-06  0.2797785E+04  0.7818609E-02  0.8303956E-01
       -2   -1    0    0    0  501  0.00000000000E+00  0.00000000000E+00  0.71843048412E+03  0.71843048413E+03  0.25500000920E-02 0.  1.
        2   -1    0    0  501    0  0.00000000000E+00  0.00000000000E+00 -0.27238548085E+04  0.27238548085E+04  0.25500000920E-02 0. -1.
    10030    2    1    2    0    0  0.00000000000E+00  0.00000000000E+00 -0.20054243244E+04  0.34422852926E+04  0.27977850731E+04 0.  0.
        5    1    3    3  502    0  0.10974368591E+04 -0.81244787727E+03 -0.62863586346E+03  0.15032113464E+04  0.46999998093E+01 0. -1.
       -5    1    3    3    0  502 -0.10974368591E+04  0.81244787727E+03 -0.13767884609E+04  0.19390739463E+04  0.46999998093E+01 0.  1.
</event>
<event>
 5   0  0.5584205E-06  0.2797600E+04  0.7818609E-02  0.8304014E-01
       -2   -1    0    0    0  501  0.00000000000E+00  0.00000000000E+00  0.83467668958E+03  0.83467668958E+03  0.25500000920E-02 0.  1.
        2   -1    0    0  501    0  0.00000000000E+00  0.00000000000E+00 -0.23441903168E+04  0.23441903168E+04  0.25500000920E-02 0. -1.
    10030    2    1    2    0    0  0.00000000000E+00  0.00000000000E+00 -0.15095136272E+04  0.31788670064E+04  0.27975996950E+04 0.  0.
        1    1    3    3  502    0  0.89984021093E+03 -0.31540245460E+03  0.40817276464E+03  0.10372059195E+04  0.50400001928E-02 0.  1.
       -1    1    3    3    0  502 -0.89984021093E+03  0.31540245460E+03 -0.19176863918E+04  0.21416610869E+04  0.50400001928E-02 0. -1.
</event>
<event>
 5   0  0.2206967E-06  0.2802742E+04  0.7818609E-02  0.8302417E-01
       -1   -1    0    0    0  501  0.00000000000E+00  0.00000000000E+00  0.11297642162E+04  0.11297642162E+04  0.50400001928E-02 0.  1.
        1   -1    0    0  501    0  0.00000000000E+00  0.00000000000E+00 -0.17382753416E+04  0.17382753416E+04  0.50400001928E-02 0. -1.
    10030    2    1    2    0    0  0.00000000000E+00  0.00000000000E+00 -0.60851112539E+03  0.28680395578E+04  0.28027424276E+04 0.  0.
        5    1    3    3  502    0  0.70817199813E+03  0.31442203432E+03 -0.14991282118E+04  0.16875355641E+04  0.46999998093E+01 0. -1.
       -5    1    3    3    0  502 -0.70817199813E+03 -0.31442203432E+03  0.89061708640E+03  0.11805039937E+04  0.46999998093E+01 0.  1.
</event>
<event>
 5   0  0.2206967E-06  0.2770522E+04  0.7818609E-02  0.8312479E-01
       -1   -1    0    0    0  501  0.00000000000E+00  0.00000000000E+00  0.86817174998E+03  0.86817175000E+03  0.50400001928E-02 0. -1.
        1   -1    0    0  501    0  0.00000000000E+00  0.00000000000E+00 -0.22103321262E+04  0.22103321262E+04  0.50400001928E-02 0.  1.
    10030    2    1    2    0    0  0.00000000000E+00  0.00000000000E+00 -0.13421603762E+04  0.30785038762E+04  0.27705219076E+04 0.  0.
        5    1    3    3  502    0 -0.10431552195E+04  0.77169255240E+03 -0.12100159915E+04  0.17742161641E+04  0.46999998093E+01 0. -1.
       -5    1    3    3    0  502  0.10431552195E+04 -0.77169255240E+03 -0.13214438474E+03  0.13042877121E+04  0.46999998093E+01 0.  1.
</event>
<event>
 5   0  0.5584205E-06  0.2799798E+04  0.7818609E-02  0.8303331E-01
       -2   -1    0    0    0  501  0.00000000000E+00  0.00000000000E+00  0.14260572808E+04  0.14260572808E+04  0.25500000920E-02 0. -1.
        2   -1    0    0  501    0  0.00000000000E+00  0.00000000000E+00 -0.13742201009E+04  0.13742201009E+04  0.25500000920E-02 0.  1.
    10030    2    1    2    0    0  0.00000000000E+00  0.00000000000E+00  0.51837179888E+02  0.28002773817E+04  0.27997975500E+04 0.  0.
        1    1    3    3  502    0  0.15464889036E+03  0.13803259918E+04 -0.14875514202E+03  0.13969052277E+04  0.50400001928E-02 0.  1.
       -1    1    3    3    0  502 -0.15464889036E+03 -0.13803259918E+04  0.20059232191E+03  0.14033721540E+04  0.50400001928E-02 0. -1.
</event>
<event>
 5   0  0.2234068E-06  0.2794721E+04  0.7818609E-02  0.8304909E-01
        1   -1    0    0  501    0  0.00000000000E+00  0.00000000000E+00  0.18335934948E+04  0.18335934948E+04  0.50400001928E-02 0. -1.
       -1   -1    0    0    0  501  0.00000000000E+00  0.00000000000E+00 -0.10649126605E+04  0.10649126606E+04  0.50400001928E-02 0.  1.
    10030    2    1    2    0    0  0.00000000000E+00  0.00000000000E+00  0.76868083424E+03  0.28985061553E+04  0.27947214007E+04 0.  0.
        3    1    3    3  502    0 -0.65367578915E+03 -0.11974682990E+04  0.70798318287E+02  0.13661020374E+04  0.10100000352E+00 0.  1.
       -3    1    3    3    0  502  0.65367578915E+03  0.11974682990E+04  0.69788251595E+03  0.15324041180E+04  0.10100000352E+00 0. -1.
</event>
<event>
 5   0  0.2190865E-06  0.2816787E+04  0.7818609E-02  0.8298076E-01
       -1   -1    0    0    0  501  0.00000000000E+00  0.00000000000E+00  0.13393209897E+04  0.13393209897E+04  0.50400001928E-02 0. -1.
        1   -1    0    0  501    0  0.00000000000E+00  0.00000000000E+00 -0.14810277754E+04  0.14810277754E+04  0.50400001928E-02 0.  1.
    10030    2    1    2    0    0  0.00000000000E+00  0.00000000000E+00 -0.14170678568E+03  0.28203487652E+04  0.28167865280E+04 0.  0.
        2    1    3    3  502    0 -0.87246186047E+03 -0.89787359928E+03 -0.71680869851E+03  0.14426300318E+04  0.25500000920E-02 0.  1.
       -2    1    3    3    0  502  0.87246186047E+03  0.89787359928E+03  0.57510191284E+03  0.13777187334E+04  0.25500000920E-02 0. -1.
</event>
<event>
 5   0  0.2267565E-06  0.2796163E+04  0.7818609E-02  0.8304461E-01
        1   -1    0    0  501    0  0.00000000000E+00  0.00000000000E+00  0.16038534471E+04  0.16038534471E+04  0.50400001928E-02 0. -1.
       -1   -1    0    0    0  501  0.00000000000E+00  0.00000000000E+00 -0.12187096192E+04  0.12187096192E+04  0.50400001928E-02 0.  1.
    10030    2    1    2    0    0  0.00000000000E+00  0.00000000000E+00  0.38514382792E+03  0.28225630664E+04  0.27961628163E+04 0.  0.
        4    1    3    3  502    0  0.61289393567E+03  0.44700249917E+03  0.13780448461E+04  0.15730414557E+04  0.12699999809E+01 0. -1.
       -4    1    3    3    0  502 -0.61289393567E+03 -0.44700249917E+03 -0.99290101820E+03  0.12495216106E+04  0.12699999809E+01 0.  1.
</event>
<event>
 5   0  0.2267565E-06  0.2800624E+04  0.7818609E-02  0.8303075E-01
        1   -1    0    0  501    0  0.00000000000E+00  0.00000000000E+00  0.12824249972E+04  0.12824249972E+04  0.50400001928E-02 0. -1.
       -1   -1    0    0    0  501  0.00000000000E+00  0.00000000000E+00 -0.15290362255E+04  0.15290362255E+04  0.50400001928E-02 0.  1.
    10030    2    1    2    0    0  0.00000000000E+00  0.00000000000E+00 -0.24661122824E+03  0.28114612227E+04  0.28006244141E+04 0.  0.
        4    1    3    3  502    0 -0.44067164403E+03 -0.13291118716E+04 -0.13530171303E+03  0.14067828658E+04  0.12699999809E+01 0. -1.
       -4    1    3    3    0  502  0.44067164403E+03  0.13291118716E+04 -0.11130951522E+03  0.14046783569E+04  0.12699999809E+01 0.  1.
</event>
<event>
 5   0  0.2277133E-06  0.2779046E+04  0.7818609E-02  0.8309803E-01
       -1   -1    0    0    0  501  0.00000000000E+00  0.00000000000E+00  0.93714708784E+03  0.93714708785E+03  0.50400001928E-02 0.  1.
        1   -1    0    0  501    0  0.00000000000E+00  0.00000000000E+00 -0.20602677097E+04  0.20602677097E+04  0.50400001928E-02 0. -1.
    10030    2    1    2    0    0  0.00000000000E+00  0.00000000000E+00 -0.11231206218E+04  0.29974147975E+04  0.27790457962E+04 0.  0.
        1    1    3    3  502    0  0.75945990391E+02 -0.64526252370E+03 -0.18863419281E+04  0.19950983404E+04  0.50400001928E-02 0. -1.
       -1    1    3    3    0  502 -0.75945990391E+02  0.64526252370E+03  0.76322130628E+03  0.10023164572E+04  0.50400001928E-02 0.  1.
</event>
<event>
 5   0  0.2234068E-06  0.3145832E+04  0.7818609E-02  0.8203271E-01
        1   -1    0    0  501    0  0.00000000000E+00  0.00000000000E+00  0.22171010131E+04  0.22171010131E+04  0.50400001928E-02 0. -1.
       -1   -1    0    0    0  501  0.00000000000E+00  0.00000000000E+00 -0.11159010989E+04  0.11159010989E+04  0.50400001928E-02 0.  1.
    10030    2    1    2    0    0  0.00000000000E+00  0.00000000000E+00  0.11011999142E+04  0.33330021120E+04  0.31458324538E+04 0.  0.
        3    1    3    3  502    0  0.13040921439E+04 -0.84426573910E+03  0.28973001329E+03  0.15803115037E+04  0.10100000352E+00 0.  1.
       -3    1    3    3    0  502 -0.13040921439E+04  0.84426573910E+03  0.81146990088E+03  0.17526906083E+04  0.10100000352E+00 0. -1.
</event>
<event>
 5   0  0.2267565E-06  0.2791641E+04  0.7818609E-02  0.8305868E-01
       -1   -1    0    0    0  501  0.00000000000E+00  0.00000000000E+00  0.14924944477E+04  0.14924944478E+04  0.50400001928E-02 0. -1.
        1   -1    0    0  501    0  0.00000000000E+00  0.00000000000E+00 -0.13054081253E+04  0.13054081253E+04  0.50400001928E-02 0.  1.
    10030    2    1    2    0    0  0.00000000000E+00  0.00000000000E+00  0.18708632248E+03  0.27979025730E+04  0.27916406495E+04 0.  0.
        4    1    3    3  502    0 -0.85602826810E+03 -0.11016885284E+04  0.13619159983E+03  0.14018030440E+04  0.12699999809E+01 0.  1.
       -4    1    3    3    0  502  0.85602826810E+03  0.11016885284E+04  0.50894722649E+02  0.13960995291E+04  0.12699999809E+01 0. -1.
</event>
<event>
 5   0  0.5625245E-06  0.2803475E+04  0.7818609E-02  0.8302190E-01
       -2   -1    0    0    0  501  0.00000000000E+00  0.00000000000E+00  0.17724614430E+04  0.17724614430E+04  0.25500000920E-02 0.  1.
        2   -1    0    0  501    0  0.00000000000E+00  0.00000000000E+00 -0.11085530521E+04  0.11085530521E+04  0.25500000920E-02 0. -1.
    10030    2    1    2    0    0  0.00000000000E+00  0.00000000000E+00  0.66390839097E+03  0.28810144951E+04  0.28034746600E+04 0.  0.
        3    1    3    3  502    0 -0.77835551086E+03  0.64764275130E+03  0.13280882623E+04  0.16700589442E+04  0.10100000352E+00 0.  1.
       -3    1    3    3    0  502  0.77835551086E+03 -0.64764275130E+03 -0.66417987130E+03  0.12109555509E+04  0.10100000352E+00 0. -1.
</event>
<event>
 5   0  0.2190865E-06  0.2832913E+04  0.7818609E-02  0.8293122E-01
        1   -1    0    0  501    0  0.00000000000E+00  0.00000000000E+00  0.11881898344E+04  0.11881898344E+04  0.50400001928E-02 0. -1.
       -1   -1    0    0    0  501  0.00000000000E+00  0.00000000000E+00 -0.16885766611E+04  0.16885766611E+04  0.50400001928E-02 0.  1.
    10030    2    1    2    0    0  0.00000000000E+00  0.00000000000E+00 -0.50038682669E+03  0.28767664956E+04  0.28329134286E+04 0.  0.
        2    1    3    3  502    0 -0.10684619508E+04  0.17193855842E+03 -0.11782196699E+04  0.15998048002E+04  0.25500000920E-02 0.  1.
       -2    1    3    3    0  502  0.10684619508E+04 -0.17193855842E+03  0.67783284320E+03  0.12769616954E+04  0.25500000920E-02 0. -1.
</event>
<event>
 5   0  0.2234068E-06  0.2825131E+04  0.7818609E-02  0.8295508E-01
       -1   -1    0    0    0  501  0.00000000000E+00  0.00000000000E+00  0.12047309929E+04  0.12047309929E+04  0.50400001928E-02 0. -1.
        1   -1    0    0  501    0  0.00000000000E+00  0.00000000000E+00 -0.16562548582E+04  0.16562548582E+04  0.50400001928E-02 0.  1.
    10030    2    1    2    0    0  0.00000000000E+00  0.00000000000E+00 -0.45152386527E+03  0.28609858511E+04  0.28251311897E+04 0.  0.
        3    1    3    3  502    0 -0.11538206192E+04  0.68179438913E+03  0.22621610333E+03  0.13591612656E+04  0.10100000352E+00 0.  1.
       -3    1    3    3    0  502  0.11538206192E+04 -0.68179438913E+03 -0.67773996860E+03  0.15018245855E+04  0.10100000352E+00 0. -1.
</event>
<event>
 5   0  0.2190865E-06  0.2800870E+04  0.7818609E-02  0.8302998E-01
       -1   -1    0    0    0  501  0.00000000000E+00  0.00000000000E+00  0.74127120219E+03  0.74127120221E+03  0.50400001928E-02 0. -1.
        1   -1    0    0  501    0  0.00000000000E+00  0.00000000000E+00 -0.26457503997E+04  0.26457503997E+04  0.50400001928E-02 0.  1.
    10030    2    1    2    0    0  0.00000000000E+00  0.00000000000E+00 -0.19044791975E+04  0.33870216019E+04  0.28008702787E+04 0.  0.
        2    1    3    3  502    0 -0.35041768980E+03 -0.29937897171E+03  0.64693111163E+03  0.79431743606E+03  0.25500000920E-02 0. -1.
       -2    1    3    3    0  502  0.35041768980E+03  0.29937897171E+03 -0.25514103092E+04  0.25927041659E+04  0.25500000920E-02 0.  1.
</event>
<event>
 5   0  0.5584205E-06  0.2796699E+04  0.7818609E-02  0.8304294E-01
        2   -1    0    0  501    0  0.00000000000E+00  0.00000000000E+00  0.17986480265E+04  0.17986480265E+04  0.25500000920E-02 0.  1.
       -2   -1    0    0    0  501  0.00000000000E+00  0.00000000000E+00 -0.10871396154E+04  0.10871396154E+04  0.25500000920E-02 0. -1.
    10030    2    1    2    0    0  0.00000000000E+00  0.00000000000E+00  0.71150841107E+03  0.28857876419E+04  0.27966991428E+04 0.  0.
        1    1    3    3  502    0  0.11243874536E+04 -0.30549302020E+03 -0.44205606679E+03  0.12461888691E+04  0.50400001928E-02 0. -1.
       -1    1    3    3    0  502 -0.11243874536E+04  0.30549302020E+03  0.11535644779E+04  0.16395987728E+04  0.50400001928E-02 0.  1.
</event>
<event>
 5   0  0.2277133E-06  0.2747541E+04  0.7818609E-02  0.8319742E-01
        1   -1    0    0  501    0  0.00000000000E+00  0.00000000000E+00  0.14050851127E+04  0.14050851127E+04  0.50400001928E-02 0.  1.
       -1   -1    0    0    0  501  0.00000000000E+00  0.00000000000E+00 -0.13431538797E+04  0.13431538798E+04  0.50400001928E-02 0. -1.
    10030    2    1    2    0    0  0.00000000000E+00  0.00000000000E+00  0.61931232993E+02  0.27482389925E+04  0.27475410975E+04 0.  0.
        1    1    3    3  502    0 -0.11586820609E+04 -0.73678339005E+03 -0.12075982437E+02  0.13731495590E+04  0.50400001928E-02 0. -1.
       -1    1    3    3    0  502  0.11586820609E+04  0.73678339005E+03  0.74007215430E+02  0.13750894335E+04  0.50400001928E-02 0.  1.
</event>
<event>
 5   0  0.5916603E-06  0.2697117E+04  0.7818609E-02  0.8335941E-01
        2   -1    0    0  501    0  0.00000000000E+00  0.00000000000E+00  0.16724654558E+04  0.16724654558E+04  0.25500000920E-02 0. -1.
       -2   -1    0    0    0  501  0.00000000000E+00  0.00000000000E+00 -0.10873825387E+04  0.10873825387E+04  0.25500000920E-02 0.  1.
    10030    2    1    2    0    0  0.00000000000E+00  0.00000000000E+00  0.58508291712E+03  0.27598479945E+04  0.26971167815E+04 0.  0.
        2    1    3    3  502    0 -0.32197697161E+03  0.33906375583E+03  0.15868630347E+04  0.16543178932E+04  0.25500000920E-02 0. -1.
       -2    1    3    3    0  502  0.32197697161E+03 -0.33906375583E+03 -0.10017801176E+04  0.11055301013E+04  0.25500000920E-02 0.  1.
</event>
<event>
 5   0  0.1901375E-06  0.2817231E+04  0.7818609E-02  0.8297939E-01
        3   -1    0    0  501    0  0.00000000000E+00  0.00000000000E+00  0.15210806104E+04  0.15210806138E+04  0.10100000352E+00 0.  1.
       -3   -1    0    0    0  501  0.00000000000E+00  0.00000000000E+00 -0.13044656827E+04  0.13044656866E+04  0.10100000352E+00 0. -1.
    10030    2    1    2    0    0  0.00000000000E+00  0.00000000000E+00  0.21661492774E+03  0.28255463004E+04  0.28172308867E+04 0.  0.
        3    1    3    3  502    0 -0.75597850639E+03 -0.10026726279E+04  0.74842444172E+03  0.14618464543E+04  0.10100000352E+00 0.  1.
       -3    1    3    3    0  502  0.75597850639E+03  0.10026726279E+04 -0.53180951397E+03  0.13636998461E+04  0.10100000352E+00 0. -1.
</event>
<event>
 5   0  0.2277133E-06  0.2799725E+04  0.7818609E-02  0.8303354E-01
        1   -1    0    0  501    0  0.00000000000E+00  0.00000000000E+00  0.12616034166E+04  0.12616034166E+04  0.50400001928E-02 0.  1.
       -1   -1    0    0    0  501  0.00000000000E+00  0.00000000000E+00 -0.15532729453E+04  0.15532729453E+04  0.50400001928E-02 0. -1.
    10030    2    1    2    0    0  0.00000000000E+00  0.00000000000E+00 -0.29166952874E+03  0.28148763619E+04  0.27997245969E+04 0.  0.
        1    1    3    3  502    0  0.12355638205E+04 -0.48733745928E+03  0.29871046002E+03  0.13613756619E+04  0.50400001928E-02 0.  1.
       -1    1    3    3    0  502 -0.12355638205E+04  0.48733745928E+03 -0.59037998876E+03  0.14535007000E+04  0.50400001928E-02 0. -1.
</event>
<event>
 5   0  0.2234068E-06  0.2802121E+04  0.7818609E-02  0.8302610E-01
        1   -1    0    0  501    0  0.00000000000E+00  0.00000000000E+00  0.20502981955E+04  0.20502981955E+04  0.50400001928E-02 0. -1.
       -1   -1    0    0    0  501  0.00000000000E+00  0.00000000000E+00 -0.95740707369E+03  0.95740707371E+03  0.50400001928E-02 0.  1.
    10030    2    1    2    0    0  0.00000000000E+00  0.00000000000E+00  0.10928911218E+04  0.30077052692E+04  0.28021206223E+04 0.  0.
        3    1    3    3  502    0  0.12460607734E+04  0.41645221155E+03  0.10688460354E+04  0.16936740398E+04  0.10100000352E+00 0. -1.
       -3    1    3    3    0  502 -0.12460607734E+04 -0.41645221155E+03  0.24045086364E+02  0.13140312294E+04  0.10100000352E+00 0.  1.
</event>
<event>
 5   0  0.5625245E-06  0.2798326E+04  0.7818609E-02  0.8303788E-01
        2   -1    0    0  501    0  0.00000000000E+00  0.00000000000E+00  0.13416219174E+04  0.13416219175E+04  0.25500000920E-02 0.  1.
       -2   -1    0    0    0  501  0.00000000000E+00  0.00000000000E+00 -0.14591715779E+04  0.14591715779E+04  0.25500000920E-02 0. -1.
    10030    2    1    2    0    0  0.00000000000E+00  0.00000000000E+00 -0.11754966050E+03  0.28007934954E+04  0.27983256210E+04 0.  0.
        3    1    3    3  502    0 -0.13979642094E+04  0.52250784406E+02 -0.33803177895E+02  0.13993486843E+04  0.10100000352E+00 0. -1.
       -3    1    3    3    0  502  0.13979642094E+04 -0.52250784406E+02 -0.83746482603E+02  0.14014448111E+04  0.10100000352E+00 0.  1.
</event>
<event>
 5   0  0.5546570E-06  0.2901727E+04  0.7818609E-02  0.8272364E-01
        2   -1    0    0  501    0  0.00000000000E+00  0.00000000000E+00  0.20149307186E+04  0.20149307186E+04  0.25500000920E-02 0. -1.
       -2   -1    0    0    0  501  0.00000000000E+00  0.00000000000E+00 -0.10447037111E+04  0.10447037111E+04  0.25500000920E-02 0.  1.
    10030    2    1    2    0    0  0.00000000000E+00  0.00000000000E+00  0.97022700744E+03  0.30596344297E+04  0.29017274851E+04 0.  0.
        4    1    3    3  502    0 -0.11355660036E+04 -0.80387421476E+03  0.91893977684E+03  0.16673859265E+04  0.12699999809E+01 0. -1.
       -4    1    3    3    0  502  0.11355660036E+04  0.80387421476E+03  0.51287230597E+02  0.13922485032E+04  0.12699999809E+01 0.  1.
</event>
<event>
 5   0  0.2277133E-06  0.2762916E+04  0.7818609E-02  0.8314875E-01
        1   -1    0    0  501    0  0.00000000000E+00  0.00000000000E+00  0.21530439340E+04  0.21530439340E+04  0.50400001928E-02 0.  1.
       -1   -1    0    0    0  501  0.00000000000E+00  0.00000000000E+00 -0.88638520670E+03  0.88638520672E+03  0.50400001928E-02 0. -1.
    10030    2    1    2    0    0  0.00000000000E+00  0.00000000000E+00  0.12666587273E+04  0.30394291407E+04  0.27629160628E+04 0.  0.
        1    1    3    3  502    0 -0.85621387412E+03  0.10577766193E+04  0.89465969243E+03  0.16286219758E+04  0.50400001928E-02 0. -1.
       -1    1    3    3    0  502  0.85621387412E+03 -0.10577766193E+04  0.37199903484E+03  0.14108071649E+04  0.50400001928E-02 0.  1.
</event>
<event>
 5   0  0.2206967E-06  0.2772747E+04  0.7818609E-02  0.8311779E-01
       -1   -1    0    0    0  501  0.00000000000E+00  0.00000000000E+00  0.94863682412E+03  0.94863682413E+03  0.50400001928E-02 0. -1.
        1   -1    0    0  501    0  0.00000000000E+00  0.00000000000E+00 -0.20260988643E+04  0.20260988643E+04  0.50400001928E-02 0.  1.
    10030    2    1    2    0    0  0.00000000000E+00  0.00000000000E+00 -0.10774620402E+04  0.29747356885E+04  0.27727473682E+04 0.  0.
        5    1    3    3  502    0  0.20159269134E+03  0.13132352606E+04 -0.11392743287E+03  0.13335021608E+04  0.46999998093E+01 0. -1.
       -5    1    3    3    0  502 -0.20159269134E+03 -0.13132352606E+04 -0.96353460733E+03  0.16412335277E+04  0.46999998093E+01 0.  1.
</event>
<event>
 5   0  0.5625245E-06  0.2778954E+04  0.7818609E-02  0.8309832E-01
        2   -1    0    0  501    0  0.00000000000E+00  0.00000000000E+00  0.14046412110E+04  0.14046412110E+04  0.25500000920E-02 0.  1.
       -2   -1    0    0    0  501  0.00000000000E+00  0.00000000000E+00 -0.13744762243E+04  0.13744762243E+04  0.25500000920E-02 0. -1.
    10030    2    1    2    0    0  0.00000000000E+00  0.00000000000E+00  0.30164986740E+02  0.27791174353E+04  0.27789537226E+04 0.  0.
        3    1    3    3  502    0 -0.40926799237E+03 -0.22833685166E+03 -0.12930495844E+04  0.13753600421E+04  0.10100000352E+00 0. -1.
       -3    1    3    3    0  502  0.40926799237E+03  0.22833685166E+03  0.13232145712E+04  0.14037573932E+04  0.10100000352E+00 0.  1.
</event>
<event>
 5   0  0.2267565E-06  0.2805026E+04  0.7818609E-02  0.8301710E-01
       -1   -1    0    0    0  501  0.00000000000E+00  0.00000000000E+00  0.26324167529E+04  0.26324167529E+04  0.50400001928E-02 0. -1.
        1   -1    0    0  501    0  0.00000000000E+00  0.00000000000E+00 -0.74723839838E+03  0.74723839840E+03  0.50400001928E-02 0.  1.
    10030    2    1    2    0    0  0.00000000000E+00  0.00000000000E+00  0.18851783545E+04  0.33796551513E+04  0.28050261164E+04 0.  0.
        4    1    3    3  502    0  0.70334636322E+03  0.79910149579E+03  0.20427640612E+04  0.23035073106E+04  0.12699999809E+01 0. -1.
       -4    1    3    3    0  502 -0.70334636322E+03 -0.79910149579E+03 -0.15758570670E+03  0.10761478407E+04  0.12699999809E+01 0.  1.
</event>
<event>
 5   0  0.5625245E-06  0.2796692E+04  0.7818609E-02  0.8304296E-01
       -2   -1    0    0    0  501  0.00000000000E+00  0.00000000000E+00  0.11731878762E+04  0.11731878762E+04  0.25500000920E-02 0. -1.
        2   -1    0    0  501    0  0.00000000000E+00  0.00000000000E+00 -0.16667166637E+04  0.16667166637E+04  0.25500000920E-02 0.  1.
    10030    2    1    2    0    0  0.00000000000E+00  0.00000000000E+00 -0.49352878745E+03  0.28399045399E+04  0.27966921768E+04 0.  0.
        3    1    3    3  502    0 -0.80804931509E+03  0.10812608855E+03 -0.14004246330E+04  0.16204394804E+04  0.10100000352E+00 0.  1.
       -3    1    3    3    0  502  0.80804931509E+03 -0.10812608855E+03  0.90689584554E+03  0.12194650596E+04  0.10100000352E+00 0. -1.
</event>
<event>
 5   0  0.1901375E-06  0.2803748E+04  0.7818609E-02  0.8302106E-01
        3   -1    0    0  501    0  0.00000000000E+00  0.00000000000E+00  0.20250378198E+04  0.20250378223E+04  0.10100000352E+00 0. -1.
       -3   -1    0    0    0  501  0.00000000000E+00  0.00000000000E+00 -0.97047608860E+03  0.97047609386E+03  0.10100000352E+00 0.  1.
    10030    2    1    2    0    0  0.00000000000E+00  0.00000000000E+00  0.10545617312E+04  0.29955139162E+04  0.28037480588E+04 0.  0.
        1    1    3    3  502    0 -0.10915203420E+04  0.78033948312E+03  0.96113976942E+03  0.16504956899E+04  0.50400001928E-02 0.  1.
       -1    1    3    3    0  502  0.10915203420E+04 -0.78033948312E+03  0.93421961783E+02  0.13450182263E+04  0.50400001928E-02 0. -1.
</event>
<event>
 5   0  0.2190865E-06  0.2799926E+04  0.7818609E-02  0.8303291E-01
        1   -1    0    0  501    0  0.00000000000E+00  0.00000000000E+00  0.11495502289E+04  0.11495502289E+04  0.50400001928E-02 0.  1.
       -1   -1    0    0    0  501  0.00000000000E+00  0.00000000000E+00 -0.17049243181E+04  0.17049243181E+04  0.50400001928E-02 0. -1.
    10030    2    1    2    0    0  0.00000000000E+00  0.00000000000E+00 -0.55537408919E+03  0.28544745471E+04  0.27999258135E+04 0.  0.
        2    1    3    3  502    0 -0.97847751595E+03 -0.85159413779E+03 -0.81450548105E+03  0.15316820830E+04  0.25500000920E-02 0.  1.
       -2    1    3    3    0  502  0.97847751595E+03  0.85159413779E+03  0.25913139186E+03  0.13227924641E+04  0.25500000920E-02 0. -1.
</event>
<event>
 5   0  0.5866136E-06  0.2777100E+04  0.7818609E-02  0.8310413E-01
       -2   -1    0    0    0  501  0.00000000000E+00  0.00000000000E+00  0.15956011427E+04  0.15956011427E+04  0.25500000920E-02 0.  1.
        2   -1    0    0  501    0  0.00000000000E+00  0.00000000000E+00 -0.12083667355E+04  0.12083667355E+04  0.25500000920E-02 0. -1.
    10030    2    1    2    0    0  0.00000000000E+00  0.00000000000E+00  0.38723440721E+03  0.28039678782E+04  0.27771001739E+04 0.  0.
        5    1    3    3  502    0 -0.16528788703E+03 -0.10463743765E+04  0.10999822716E+04  0.15271550377E+04  0.46999998093E+01 0.  1.
       -5    1    3    3    0  502  0.16528788703E+03  0.10463743765E+04 -0.71274786442E+03  0.12768128405E+04  0.46999998093E+01 0. -1.
</event>
<event>
 5   0  0.2277133E-06  0.2809814E+04  0.7818609E-02  0.8300228E-01
       -1   -1    0    0    0  501  0.00000000000E+00  0.00000000000E+00  0.10036228224E+04  0.10036228225E+04  0.50400001928E-02 0. -1.
        1   -1    0    0  501    0  0.00000000000E+00  0.00000000000E+00 -0.19666384301E+04  0.19666384301E+04  0.50400001928E-02 0.  1.
    10030    2    1    2    0    0  0.00000000000E+00  0.00000000000E+00 -0.96301560761E+03  0.29702612525E+04  0.28098136678E+04 0.  0.
        1    1    3    3  502    0  0.12391845646E+04  0.60616530479E+03 -0.20033352216E+03  0.13939685369E+04  0.50400001928E-02 0. -1.
       -1    1    3    3    0  502 -0.12391845646E+04 -0.60616530479E+03 -0.76268208545E+03  0.15762927156E+04  0.50400001928E-02 0.  1.
</event>
<event>
 5   0  0.2277133E-06  0.2482168E+04  0.7818609E-02  0.8409366E-01
       -1   -1    0    0    0  501  0.00000000000E+00  0.00000000000E+00  0.65272316476E+03  0.65272316477E+03  0.50400001928E-02 0. -1.
        1   -1    0    0  501    0  0.00000000000E+00  0.00000000000E+00 -0.23597890814E+04  0.23597890814E+04  0.50400001928E-02 0.  1.
    10030    2    1    2    0    0  0.00000000000E+00  0.00000000000E+00 -0.17070659166E+04  0.30125122462E+04  0.24821675990E+04 0.  0.
        1    1    3    3  502    0  0.24218341598E+03  0.74822604795E+03 -0.20187709890E+04  0.21665482528E+04  0.50400001928E-02 0.  1.
       -1    1    3    3    0  502 -0.24218341598E+03 -0.74822604795E+03  0.31170507238E+03  0.84596399332E+03  0.50400001928E-02 0. -1.
</event>
<event>
 5   0  0.5625245E-06  0.2810614E+04  0.7818609E-02  0.8299981E-01
        2   -1    0    0  501    0  0.00000000000E+00  0.00000000000E+00  0.13037910948E+04  0.13037910948E+04  0.25500000920E-02 0.  1.
       -2   -1    0    0    0  501  0.00000000000E+00  0.00000000000E+00 -0.15147268369E+04  0.15147268369E+04  0.25500000920E-02 0. -1.
    10030    2    1    2    0    0  0.00000000000E+00  0.00000000000E+00 -0.21093574209E+03  0.28185179317E+04  0.28106137131E+04 0.  0.
        3    1    3    3  502    0 -0.37500904156E+03 -0.13173781237E+04  0.20969362599E+03  0.13856725187E+04  0.10100000352E+00 0.  1.
       -3    1    3    3    0  502  0.37500904156E+03  0.13173781237E+04 -0.42062936809E+03  0.14328454130E+04  0.10100000352E+00 0. -1.
</event>
<event>
 5   0  0.2267565E-06  0.2862607E+04  0.7818609E-02  0.8284091E-01
       -1   -1    0    0    0  501  0.00000000000E+00  0.00000000000E+00  0.96933094529E+03  0.96933094530E+03  0.50400001928E-02 0. -1.
        1   -1    0    0  501    0  0.00000000000E+00  0.00000000000E+00 -0.21134471002E+04  0.21134471002E+04  0.50400001928E-02 0.  1.
    10030    2    1    2    0    0  0.00000000000E+00  0.00000000000E+00 -0.11441161549E+04  0.30827780455E+04  0.28626069765E+04 0.  0.
        4    1    3    3  502    0 -0.21041767612E+02 -0.13457796178E+04 -0.47719288295E+02  0.13467903619E+04  0.12699999809E+01 0. -1.
       -4    1    3    3    0  502  0.21041767612E+02  0.13457796178E+04 -0.10963968666E+04  0.17359876836E+04  0.12699999809E+01 0.  1.
</event>
<event>
 5   0  0.2277133E-06  0.2823147E+04  0.7818609E-02  0.8296118E-01
        1   -1    0    0  501    0  0.00000000000E+00  0.00000000000E+00  0.13972907055E+04  0.13972907055E+04  0.50400001928E-02 0.  1.
       -1   -1    0    0    0  501  0.00000000000E+00  0.00000000000E+00 -0.14260022790E+04  0.14260022790E+04  0.50400001928E-02 0. -1.
    10030    2    1    2    0    0  0.00000000000E+00  0.00000000000E+00 -0.28711573424E+02  0.28232929845E+04  0.28231469891E+04 0.  0.
        1    1    3    3  502    0 -0.99897280873E+02  0.75719543899E+03 -0.12015209337E+04  0.14237194083E+04  0.50400001928E-02 0. -1.
       -1    1    3    3    0  502  0.99897280873E+02 -0.75719543899E+03  0.11728093603E+04  0.13995735762E+04  0.50400001928E-02 0.  1.
</event>
<event>
 5   0  0.5866136E-06  0.2844800E+04  0.7818609E-02  0.8289493E-01
        2   -1    0    0  501    0  0.00000000000E+00  0.00000000000E+00  0.16312456025E+04  0.16312456025E+04  0.25500000920E-02 0.  1.
       -2   -1    0    0    0  501  0.00000000000E+00  0.00000000000E+00 -0.12402923339E+04  0.12402923339E+04  0.25500000920E-02 0. -1.
    10030    2    1    2    0    0  0.00000000000E+00  0.00000000000E+00  0.39095326853E+03  0.28715379364E+04  0.28447997578E+04 0.  0.
        5    1    3    3  502    0  0.92663526842E+03 -0.10078402701E+04 -0.19390076043E+03  0.13827561338E+04  0.46999998093E+01 0. -1.
       -5    1    3    3    0  502 -0.92663526842E+03  0.10078402701E+04  0.58485402896E+03  0.14887818026E+04  0.46999998093E+01 0.  1.
</event>
<event>
 5   0  0.2206967E-06  0.2803073E+04  0.7818609E-02  0.8302315E-01
        1   -1    0    0  501    0  0.00000000000E+00  0.00000000000E+00  0.15060046948E+04  0.15060046948E+04  0.50400001928E-02 0. -1.
       -1   -1    0    0    0  501  0.00000000000E+00  0.00000000000E+00 -0.13043145914E+04  0.13043145914E+04  0.50400001928E-02 0.  1.
    10030    2    1    2    0    0  0.00000000000E+00  0.00000000000E+00  0.20169010335E+03  0.28103192862E+04  0.28030725272E+04 0.  0.
        5    1    3    3  502    0  0.57509685161E+03  0.18638623598E+03  0.13685528385E+04  0.14961400936E+04  0.46999998093E+01 0. -1.
       -5    1    3    3    0  502 -0.57509685161E+03 -0.18638623598E+03 -0.11668627352E+04  0.13141791927E+04  0.46999998093E+01 0.  1.
</event>
<event>
 5   0  0.5625245E-06  0.2819990E+04  0.7818609E-02  0.8297089E-01
       -2   -1    0    0    0  501  0.00000000000E+00  0.00000000000E+00  0.10481851364E+04  0.10481851364E+04  0.25500000920E-02 0.  1.
        2   -1    0    0  501    0  0.00000000000E+00  0.00000000000E+00 -0.18966931336E+04  0.18966931336E+04  0.25500000920E-02 0. -1.
    10030    2    1    2    0    0  0.00000000000E+00  0.00000000000E+00 -0.84850799727E+03  0.29448782700E+04  0.28199897524E+04 0.  0.
        3    1    3    3  502    0  0.96760950816E+03  0.87491344150E+03 -0.98306345595E+03  0.16334489459E+04  0.10100000352E+00 0. -1.
       -3    1    3    3    0  502 -0.96760950816E+03 -0.87491344150E+03  0.13455545868E+03  0.13114293241E+04  0.10100000352E+00 0.  1.
</event>
<event>
 5   0  0.2190865E-06  0.2794479E+04  0.7818609E-02  0.8304984E-01
       -1   -1    0    0    0  501  0.00000000000E+00  0.00000000000E+00  0.10045840442E+04  0.10045840442E+04  0.50400001928E-02 0. -1.
        1   -1    0    0  501    0  0.00000000000E+00  0.00000000000E+00 -0.19433703987E+04  0.19433703987E+04  0.50400001928E-02 0.  1.
    10030    2    1    2    0    0  0.00000000000E+00  0.00000000000E+00 -0.93878635454E+03  0.29479544429E+04  0.27944794825E+04 0.  0.
        2    1    3    3  502    0 -0.47136145100E+02  0.67599295252E+03  0.81963652319E+03  0.10634812261E+04  0.25500000920E-02 0. -1.
       -2    1    3    3    0  502  0.47136145100E+02 -0.67599295252E+03 -0.17584228777E+04  0.18844732168E+04  0.25500000920E-02 0.  1.
</event>
<event>
 5   0  0.2267565E-06  0.2799035E+04  0.7818609E-02  0.8303568E-01
        1   -1    0    0  501    0  0.00000000000E+00  0.00000000000E+00  0.14031864053E+04  0.14031864053E+04  0.50400001928E-02 0. -1.
       -1   -1    0    0    0  501  0.00000000000E+00  0.00000000000E+00 -0.13958584117E+04  0.13958584117E+04  0.50400001928E-02 0.  1.
    10030    2    1    2    0    0  0.00000000000E+00  0.00000000000E+00  0.73279935797E+01  0.27990448171E+04  0.27990352246E+04 0.  0.
        4    1    3    3  502    0 -0.95666201261E+03 -0.33131962223E+03 -0.96260689446E+03  0.13969926788E+04  0.12699999809E+01 0.  1.
       -4    1    3    3    0  502  0.95666201261E+03  0.33131962223E+03  0.96993488804E+03  0.14020521383E+04  0.12699999809E+01 0. -1.
</event>
<event>
 5   0  0.2277133E-06  0.2821636E+04  0.7818609E-02  0.8296582E-01
       -1   -1    0    0    0  501  0.00000000000E+00  0.00000000000E+00  0.23139933539E+04  0.23139933539E+04  0.50400001928E-02 0. -1.
        1   -1    0    0  501    0  0.00000000000E+00  0.00000000000E+00 -0.86016149481E+03  0.86016149482E+03  0.50400001928E-02 0.  1.
    10030    2    1    2    0    0  0.00000000000E+00  0.00000000000E+00  0.14538318591E+04  0.31741548487E+04  0.28216363921E+04 0.  0.
        1    1    3    3  502    0  0.23953980645E+03  0.75783661719E+03 -0.58435012677E+03  0.98648909163E+03  0.50400001928E-02 0.  1.
       -1    1    3    3    0  502 -0.23953980645E+03 -0.75783661719E+03  0.20381819859E+04  0.21876657571E+04  0.50400001928E-02 0. -1.
</event>
<event>
 5   0  0.2267565E-06  0.2784019E+04  0.7818609E-02  0.8308247E-01
        1   -1    0    0  501    0  0.00000000000E+00  0.00000000000E+00  0.16541238710E+04  0.16541238710E+04  0.50400001928E-02 0.  1.
       -1   -1    0    0    0  501  0.00000000000E+00  0.00000000000E+00 -0.11714299430E+04  0.11714299430E+04  0.50400001928E-02 0. -1.
    10030    2    1    2    0    0  0.00000000000E+00  0.00000000000E+00  0.48269392797E+03  0.28255538141E+04  0.27840188448E+04 0.  0.
        4    1    3    3  502    0 -0.71203226625E+03  0.39014794832E+03  0.13889162961E+04  0.16088180321E+04  0.12699999809E+01 0.  1.
       -4    1    3    3    0  502  0.71203226625E+03 -0.39014794832E+03 -0.90622236815E+03  0.12167357820E+04  0.12699999809E+01 0. -1.
</event>
<event>
 5   0  0.5916603E-06  0.2806421E+04  0.7818609E-02  0.8301278E-01
        2   -1    0    0  501    0  0.00000000000E+00  0.00000000000E+00  0.19940640308E+04  0.19940640308E+04  0.25500000920E-02 0. -1.
       -2   -1    0    0    0  501  0.00000000000E+00  0.00000000000E+00 -0.98743046665E+03  0.98743046666E+03  0.25500000920E-02 0.  1.
    10030    2    1    2    0    0  0.00000000000E+00  0.00000000000E+00  0.10066335641E+04  0.29814944974E+04  0.28064209067E+04 0.  0.
        2    1    3    3  502    0  0.13507827655E+04  0.37190892582E+03  0.42055141561E+03  0.14628034119E+04  0.25500000920E-02 0. -1.
       -2    1    3    3    0  502 -0.13507827655E+04 -0.37190892582E+03  0.58608214850E+03  0.15186910856E+04  0.25500000920E-02 0.  1.
</event>
<event>
 5   0  0.5584205E-06  0.2799486E+04  0.7818609E-02  0.8303428E-01
       -2   -1    0    0    0  501  0.00000000000E+00  0.00000000000E+00  0.13297312459E+04  0.13297312459E+04  0.25500000920E-02 0.  1.
        2   -1    0    0  501    0  0.00000000000E+00  0.00000000000E+00 -0.14734412348E+04  0.14734412348E+04  0.25500000920E-02 0. -1.
    10030    2    1    2    0    0  0.00000000000E+00  0.00000000000E+00 -0.14370998887E+03  0.28031724807E+04  0.27994862735E+04 0.  0.
        1    1    3    3  502    0  0.72265287907E+03 -0.88380849141E+03  0.73911032748E+03  0.13600105549E+04  0.50400001928E-02 0.  1.
       -1    1    3    3    0  502 -0.72265287907E+03  0.88380849141E+03 -0.88282031636E+03  0.14431619258E+04  0.50400001928E-02 0. -1.
</event>
<event>
 5   0  0.5625245E-06  0.2784425E+04  0.7818609E-02  0.8308120E-01
       -2   -1    0    0    0  501  0.00000000000E+00  0.00000000000E+00  0.78874281039E+03  0.78874281039E+03  0.25500000920E-02 0. -1.
        2   -1    0    0  501    0  0.00000000000E+00  0.00000000000E+00 -0.24573996824E+04  0.24573996824E+04  0.25500000920E-02 0.  1.
    10030    2    1    2    0    0  0.00000000000E+00  0.00000000000E+00 -0.16686568720E+04  0.32461424928E+04  0.27844254932E+04 0.  0.
        3    1    3    3  502    0  0.46994448990E+03  0.11060750385E+04 -0.14923995462E+02  0.12018621178E+04  0.10100000352E+00 0.  1.
       -3    1    3    3    0  502 -0.46994448990E+03 -0.11060750385E+04 -0.16537328766E+04  0.20442803750E+04  0.10100000352E+00 0. -1.
</event>
<event>
 5   0  0.5584205E-06  0.2800764E+04  0.7818609E-02  0.8303031E-01
        2   -1    0    0  501    0  0.00000000000E+00  0.00000000000E+00  0.13200182514E+04  0.13200182514E+04  0.25500000920E-02 0. -1.
       -2   -1    0    0    0  501  0.00000000000E+00  0.00000000000E+00 -0.14856384789E+04  0.14856384789E+04  0.25500000920E-02 0.  1.
    10030    2    1    2    0    0  0.00000000000E+00  0.00000000000E+00 -0.16562022750E+03  0.28056567302E+04  0.28007641150E+04 0.  0.
        1    1    3    3  502    0  0.12570866021E+04 -0.61708728540E+03 -0.80263252894E+02  0.14026780218E+04  0.50400001928E-02 0. -1.
       -1    1    3    3    0  502 -0.12570866021E+04  0.61708728540E+03 -0.85356974605E+02  0.14029787084E+04  0.50400001928E-02 0.  1.
</event>
<event>
 5   0  0.5546570E-06  0.2791770E+04  0.7818609E-02  0.8305828E-01
        2   -1    0    0  501    0  0.00000000000E+00  0.00000000000E+00  0.21369751561E+04  0.21369751561E+04  0.25500000920E-02 0.  1.
       -2   -1    0    0    0  501  0.00000000000E+00  0.00000000000E+00 -0.91180077994E+03  0.91180077994E+03  0.25500000920E-02 0. -1.
    10030    2    1    2    0    0  0.00000000000E+00  0.00000000000E+00  0.12251743762E+04  0.30487759361E+04  0.27917704878E+04 0.  0.
        4    1    3    3  502    0 -0.93865401011E+03 -0.10187457366E+04  0.42476658663E+03  0.14489107952E+04  0.12699999809E+01 0.  1.
       -4    1    3    3    0  502  0.93865401011E+03  0.10187457366E+04  0.80040778957E+03  0.15998651409E+04  0.12699999809E+01 0. -1.
</event>
<event>
 5   0  0.2234068E-06  0.2852544E+04  0.7818609E-02  0.8287139E-01
        1   -1    0    0  501    0  0.00000000000E+00  0.00000000000E+00  0.19102209560E+04  0.19102209560E+04  0.50400001928E-02 0. -1.
       -1   -1    0    0    0  501  0.00000000000E+00  0.00000000000E+00 -0.10649304256E+04  0.10649304256E+04  0.50400001928E-02 0.  1.
    10030    2    1    2    0    0  0.00000000000E+00  0.00000000000E+00  0.84529053047E+03  0.29751513816E+04  0.28525444190E+04 0.  0.
        3    1    3    3  502    0 -0.12574845325E+04  0.48268218499E+03  0.91185030070E+03  0.16265670667E+04  0.10100000352E+00 0. -1.
       -3    1    3    3    0  502  0.12574845325E+04 -0.48268218499E+03 -0.66559770228E+02  0.13485843149E+04  0.10100000352E+00 0.  1.
</event>
<event>
 5   0  0.2277133E-06  0.2801401E+04  0.7818609E-02  0.8302834E-01
        1   -1    0    0  501    0  0.00000000000E+00  0.00000000000E+00  0.11974638390E+04  0.11974638390E+04  0.50400001928E-02 0.  1.
       -1   -1    0    0    0  501  0.00000000000E+00  0.00000000000E+00 -0.16384306834E+04  0.16384306834E+04  0.50400001928E-02 0. -1.
    10030    2    1    2    0    0  0.00000000000E+00  0.00000000000E+00 -0.44096684443E+03  0.28358945225E+04  0.28014007183E+04 0.  0.
        1    1    3    3  502    0 -0.64318232509E+03 -0.11206645218E+04 -0.76787154488E+03  0.15030632665E+04  0.50400001928E-02 0. -1.
       -1    1    3    3    0  502  0.64318232509E+03  0.11206645218E+04  0.32690470045E+03  0.13328312560E+04  0.50400001928E-02 0.  1.
</event>
<event>
 5   0  0.1901375E-06  0.2794167E+04  0.7818609E-02  0.8305082E-01
        3   -1    0    0  501    0  0.00000000000E+00  0.00000000000E+00  0.21701479747E+04  0.21701479771E+04  0.10100000352E+00 0.  1.
       -3   -1    0    0    0  501  0.00000000000E+00  0.00000000000E+00 -0.89940523036E+03  0.89940523603E+03  0.10100000352E+00 0. -1.
    10030    2    1    2    0    0  0.00000000000E+00  0.00000000000E+00  0.12707427444E+04  0.30695532131E+04  0.27941671041E+04 0.  0.
        5    1    3    3  502    0 -0.82520167109E+03  0.99219778346E+03  0.47457186056E+02  0.12913901479E+04  0.46999998093E+01 0.  1.
       -5    1    3    3    0  502  0.82520167109E+03 -0.99219778346E+03  0.12232855583E+04  0.17781630653E+04  0.46999998093E+01 0. -1.
</event>
<event>
 5   0  0.2277133E-06  0.2825027E+04  0.7818609E-02  0.8295540E-01
       -1   -1    0    0    0  501  0.00000000000E+00  0.00000000000E+00  0.17812850105E+04  0.17812850105E+04  0.50400001928E-02 0.  1.
        1   -1    0    0  501    0  0.00000000000E+00  0.00000000000E+00 -0.11200870600E+04  0.11200870600E+04  0.50400001928E-02 0. -1.
    10030    2    1    2    0    0  0.00000000000E+00  0.00000000000E+00  0.66119795053E+03  0.29013720705E+04  0.28250269311E+04 0.  0.
        1    1    3    3  502    0 -0.73757642565E+03  0.14626230333E+03 -0.89745044495E+03  0.11708240458E+04  0.50400001928E-02 0. -1.
       -1    1    3    3    0  502  0.73757642565E+03 -0.14626230333E+03  0.15586483955E+04  0.17305480247E+04  0.50400001928E-02 0.  1.
</event>
<event>
 5   0  0.2267565E-06  0.2811940E+04  0.7818609E-02  0.8299571E-01
       -1   -1    0    0    0  501  0.00000000000E+00  0.00000000000E+00  0.11219439347E+04  0.11219439347E+04  0.50400001928E-02 0. -1.
        1   -1    0    0  501    0  0.00000000000E+00  0.00000000000E+00 -0.17618983481E+04  0.17618983481E+04  0.50400001928E-02 0.  1.
    10030    2    1    2    0    0  0.00000000000E+00  0.00000000000E+00 -0.63995441344E+03  0.28838422828E+04  0.28119396617E+04 0.  0.
        4    1    3    3  502    0  0.13386757003E+04  0.12375604160E+03 -0.74206065386E+03  0.15355858215E+04  0.12699999809E+01 0.  1.
       -4    1    3    3    0  502 -0.13386757003E+04 -0.12375604160E+03  0.10210624042E+03  0.13482564613E+04  0.12699999809E+01 0. -1.
</event>
<event>
 5   0  0.2234068E-06  0.2798909E+04  0.7818609E-02  0.8303607E-01
        1   -1    0    0  501    0  0.00000000000E+00  0.00000000000E+00  0.83216856187E+03  0.83216856188E+03  0.50400001928E-02 0.  1.
       -1   -1    0    0    0  501  0.00000000000E+00  0.00000000000E+00 -0.23534576540E+04  0.23534576540E+04  0.50400001928E-02 0. -1.
    10030    2    1    2    0    0  0.00000000000E+00  0.00000000000E+00 -0.15212890921E+04  0.31856262159E+04  0.27989094100E+04 0.  0.
        3    1    3    3  502    0  0.68420813592E+03  0.82803737039E+03 -0.17816296678E+04  0.20803824031E+04  0.10100000352E+00 0. -1.
       -3    1    3    3    0  502 -0.68420813592E+03 -0.82803737039E+03  0.26034057566E+03  0.11052438127E+04  0.10100000352E+00 0.  1.
</event>
<event>
 5   0  0.5546570E-06  0.2813299E+04  0.7818609E-02  0.8299152E-01
       -2   -1    0    0    0  501  0.00000000000E+00  0.00000000000E+00  0.10027400082E+04  0.10027400082E+04  0.25500000920E-02 0. -1.
        2   -1    0    0  501    0  0.00000000000E+00  0.00000000000E+00 -0.19732555747E+04  0.19732555747E+04  0.25500000920E-02 0.  1.
    10030    2    1    2    0    0  0.00000000000E+00  0.00000000000E+00 -0.97051556645E+03  0.29759955829E+04  0.28132986412E+04 0.  0.
        4    1    3    3  502    0  0.27011877073E+03 -0.40977068393E+03  0.90922902356E+03  0.10332353042E+04  0.12699999809E+01 0. -1.
       -4    1    3    3    0  502 -0.27011877073E+03  0.40977068393E+03 -0.18797445900E+04  0.19427602786E+04  0.12699999809E+01 0.  1.
</event>
<event>
 5   0  0.2190865E-06  0.2807678E+04  0.7818609E-02  0.8300889E-01
        1   -1    0    0  501    0  0.00000000000E+00  0.00000000000E+00  0.23773049260E+04  0.23773049260E+04  0.50400001928E-02 0. -1.
       -1   -1    0    0    0  501  0.00000000000E+00  0.00000000000E+00 -0.82899095459E+03  0.82899095460E+03  0.50400001928E-02 0.  1.
    10030    2    1    2    0    0  0.00000000000E+00  0.00000000000E+00  0.15483139714E+04  0.32062958806E+04  0.28076782437E+04 0.  0.
        2    1    3    3  502    0  0.50043561270E+03 -0.10073938754E+04  0.17333377880E+04  0.20663344623E+04  0.25500000920E-02 0. -1.
       -2    1    3    3    0  502 -0.50043561270E+03  0.10073938754E+04 -0.18502381661E+03  0.11399614183E+04  0.25500000920E-02 0.  1.
</event>
<event>
 5   0  0.2234068E-06  0.2789082E+04  0.7818609E-02  0.8306666E-01
       -1   -1    0    0    0  501  0.00000000000E+00  0.00000000000E+00  0.95039584197E+03  0.95039584199E+03  0.50400001928E-02 0. -1.
        1   -1    0    0  501    0  0.00000000000E+00  0.00000000000E+00 -0.20462470902E+04  0.20462470902E+04  0.50400001928E-02 0.  1.
    10030    2    1    2    0    0  0.00000000000E+00  0.00000000000E+00 -0.10958512482E+04  0.29966429322E+04  0.27890820900E+04 0.  0.
        3    1    3    3  502    0 -0.75532347672E+03 -0.29230088502E+03 -0.17676592799E+04  0.19443694870E+04  0.10100000352E+00 0.  1.
       -3    1    3    3    0  502  0.75532347672E+03  0.29230088502E+03  0.67180803168E+03  0.10522734452E+04  0.10100000352E+00 0. -1.
</event>
<event>
 5   0  0.5866136E-06  0.2889446E+04  0.7818609E-02  0.8276024E-01
       -2   -1    0    0    0  501  0.00000000000E+00  0.00000000000E+00  0.97377480815E+03  0.97377480815E+03  0.25500000920E-02 0. -1.
        2   -1    0    0  501    0  0.00000000000E+00  0.00000000000E+00 -0.21434369463E+04  0.21434369463E+04  0.25500000920E-02 0.  1.
    10030    2    1    2    0    0  0.00000000000E+00  0.00000000000E+00 -0.11696621382E+04  0.31172117545E+04  0.28894462453E+04 0.  0.
        5    1    3    3  502    0 -0.14310910440E+03 -0.90976737008E+03  0.61603725180E+03  0.11080076123E+04  0.46999998093E+01 0. -1.
       -5    1    3    3    0  502  0.14310910440E+03  0.90976737008E+03 -0.17856993900E+04  0.20092041421E+04  0.46999998093E+01 0.  1.
</event>
<event>
 5   0  0.2190865E-06  0.2845952E+04  0.7818609E-02  0.8289142E-01
        1   -1    0    0  501    0  0.00000000000E+00  0.00000000000E+00  0.10732541791E+04  0.10732541791E+04  0.50400001928E-02 0. -1.
       -1   -1    0    0    0  501  0.00000000000E+00  0.00000000000E+00 -0.18866553502E+04  0.18866553502E+04  0.50400001928E-02 0.  1.
    10030    2    1    2    0    0  0.00000000000E+00  0.00000000000E+00 -0.81340117104E+03  0.29599095293E+04  0.28459520299E+04 0.  0.
        2    1    3    3  502    0 -0.55298043984E+03  0.71369635941E+03 -0.15506100532E+04  0.17943080553E+04  0.25500000920E-02 0.  1.
       -2    1    3    3    0  502  0.55298043984E+03 -0.71369635941E+03  0.73720888212E+03  0.11656014740E+04  0.25500000920E-02 0. -1.
</event>
<event>
 5   0  0.2206967E-06  0.2788039E+04  0.7818609E-02  0.8306991E-01
        1   -1    0    0  501    0  0.00000000000E+00  0.00000000000E+00  0.17229979109E+04  0.17229979109E+04  0.50400001928E-02 0.  1.
       -1   -1    0    0    0  501  0.00000000000E+00  0.00000000000E+00 -0.11278539450E+04  0.11278539450E+04  0.50400001928E-02 0. -1.
    10030    2    1    2    0    0  0.00000000000E+00  0.00000000000E+00  0.59514396586E+03  0.28508518559E+04  0.27880387308E+04 0.  0.
        5    1    3    3  502    0  0.13189319420E+03 -0.36809481738E+03 -0.10706238047E+04  0.11398013118E+04  0.46999998093E+01 0. -1.
       -5    1    3    3    0  502 -0.13189319420E+03  0.36809481738E+03  0.16657677705E+04  0.17110505441E+04  0.46999998093E+01 0.  1.
</event>
<event>
 5   0  0.2206967E-06  0.2778497E+04  0.7818609E-02  0.8309975E-01
       -1   -1    0    0    0  501  0.00000000000E+00  0.00000000000E+00  0.13121641076E+04  0.13121641076E+04  0.50400001928E-02 0. -1.
        1   -1    0    0  501    0  0.00000000000E+00  0.00000000000E+00 -0.14708611184E+04  0.14708611184E+04  0.50400001928E-02 0.  1.
    10030    2    1    2    0    0  0.00000000000E+00  0.00000000000E+00 -0.15869701080E+03  0.27830252261E+04  0.27784968360E+04 0.  0.
        5    1    3    3  502    0  0.12234775472E+04 -0.25593732880E+02  0.57932246514E+03  0.13539530850E+04  0.46999998093E+01 0. -1.
       -5    1    3    3    0  502 -0.12234775472E+04  0.25593732880E+02 -0.73801947595E+03  0.14290721411E+04  0.46999998093E+01 0.  1.
</event>
<event>
 5   0  0.5916603E-06  0.2822969E+04  0.7818609E-02  0.8296173E-01
       -2   -1    0    0    0  501  0.00000000000E+00  0.00000000000E+00  0.86268621311E+03  0.86268621311E+03  0.25500000920E-02 0. -1.
        2   -1    0    0  501    0  0.00000000000E+00  0.00000000000E+00 -0.23094005819E+04  0.23094005819E+04  0.25500000920E-02 0.  1.
    10030    2    1    2    0    0  0.00000000000E+00  0.00000000000E+00 -0.14467143688E+04  0.31720867950E+04  0.28229686804E+04 0.  0.
        2    1    3    3  502    0  0.19731715529E+03 -0.83343047104E+03 -0.19840472646E+04  0.21610145668E+04  0.25500000920E-02 0.  1.
       -2    1    3    3    0  502 -0.19731715529E+03  0.83343047104E+03  0.53733289576E+03  0.10110722282E+04  0.25500000920E-02 0. -1.
</event>
<event>
 5   0  0.5916603E-06  0.2863619E+04  0.7818609E-02  0.8283785E-01
       -2   -1    0    0    0  501  0.00000000000E+00  0.00000000000E+00  0.92743959767E+03  0.92743959768E+03  0.25500000920E-02 0. -1.
        2   -1    0    0  501    0  0.00000000000E+00  0.00000000000E+00 -0.22104715134E+04  0.22104715134E+04  0.25500000920E-02 0.  1.
    10030    2    1    2    0    0  0.00000000000E+00  0.00000000000E+00 -0.12830319157E+04  0.31379111110E+04  0.28636192561E+04 0.  0.
        2    1    3    3  502    0  0.11373960168E+04  0.79146424154E+03 -0.10365969403E+04  0.17304966227E+04  0.25500000920E-02 0. -1.
       -2    1    3    3    0  502 -0.11373960168E+04 -0.79146424154E+03 -0.24643497542E+03  0.14074144883E+04  0.25500000920E-02 0.  1.
</event>
<event>
 5   0  0.5625245E-06  0.2797996E+04  0.7818609E-02  0.8303891E-01
        2   -1    0    0  501    0  0.00000000000E+00  0.00000000000E+00  0.90026849229E+03  0.90026849229E+03  0.25500000920E-02 0. -1.
       -2   -1    0    0    0  501  0.00000000000E+00  0.00000000000E+00 -0.21740129253E+04  0.21740129253E+04  0.25500000920E-02 0.  1.
    10030    2    1    2    0    0  0.00000000000E+00  0.00000000000E+00 -0.12737444330E+04  0.30742814176E+04  0.27979959531E+04 0.  0.
        3    1    3    3  502    0 -0.51591031549E+03  0.12996460054E+04 -0.58832643484E+03  0.15170270917E+04  0.10100000352E+00 0. -1.
       -3    1    3    3    0  502  0.51591031549E+03 -0.12996460054E+04 -0.68541799813E+03  0.15572543258E+04  0.10100000352E+00 0.  1.
</event>
<event>
 5   0  0.5546570E-06  0.2810021E+04  0.7818609E-02  0.8300164E-01
        2   -1    0    0  501    0  0.00000000000E+00  0.00000000000E+00  0.12272986996E+04  0.12272986996E+04  0.25500000920E-02 0. -1.
       -2   -1    0    0    0  501  0.00000000000E+00  0.00000000000E+00 -0.16084553124E+04  0.16084553124E+04  0.25500000920E-02 0.  1.
    10030    2    1    2    0    0  0.00000000000E+00  0.00000000000E+00 -0.38115661278E+03  0.28357540120E+04  0.28100214328E+04 0.  0.
        4    1    3    3  502    0  0.39743260984E+03  0.62284368062E+02  0.11679370735E+04  0.12352775568E+04  0.12699999809E+01 0. -1.
       -4    1    3    3    0  502 -0.39743260984E+03 -0.62284368062E+02 -0.15490936863E+04  0.16004764552E+04  0.12699999809E+01 0.  1.
</event>
<event>
 5   0  0.2277133E-06  0.2883427E+04  0.7818609E-02  0.8277826E-01
       -1   -1    0    0    0  501  0.00000000000E+00  0.00000000000E+00  0.16328045571E+04  0.16328045571E+04  0.50400001928E-02 0. -1.
        1   -1    0    0  501    0  0.00000000000E+00  0.00000000000E+00 -0.12729862199E+04  0.12729862200E+04  0.50400001928E-02 0.  1.
    10030    2    1    2    0    0  0.00000000000E+00  0.00000000000E+00  0.35981833716E+03  0.29057907771E+04  0.28834269202E+04 0.  0.
        1    1    3    3  502    0 -0.39764126332E+02 -0.17497484845E+03 -0.12616893345E+04  0.12743850910E+04  0.50400001928E-02 0.  1.
       -1    1    3    3    0  502  0.39764126332E+02  0.17497484845E+03  0.16215076717E+04  0.16314056861E+04  0.50400001928E-02 0. -1.
</event>
<event>
 5   0  0.5546570E-06  0.2558009E+04  0.7818609E-02  0.8382606E-01
        2   -1    0    0  501    0  0.00000000000E+00  0.00000000000E+00  0.14679097773E+04  0.14679097773E+04  0.25500000920E-02 0.  1.
       -2   -1    0    0    0  501  0.00000000000E+00  0.00000000000E+00 -0.11144096711E+04  0.11144096711E+04  0.25500000920E-02 0. -1.
    10030    2    1    2    0    0  0.00000000000E+00  0.00000000000E+00  0.35350010623E+03  0.25823194483E+04  0.25580092666E+04 0.  0.
        4    1    3    3  502    0  0.21206331577E+03 -0.44462042483E+03  0.13683034387E+04  0.14542744189E+04  0.12699999809E+01 0.  1.
       -4    1    3    3    0  502 -0.21206331577E+03  0.44462042483E+03 -0.10148033325E+04  0.11280450295E+04  0.12699999809E+01 0. -1.
</event>
<event>
 5   0  0.2267565E-06  0.2796515E+04  0.7818609E-02  0.8304351E-01
       -1   -1    0    0    0  501  0.00000000000E+00  0.00000000000E+00  0.16313148276E+04  0.16313148276E+04  0.50400001928E-02 0. -1.
        1   -1    0    0  501    0  0.00000000000E+00  0.00000000000E+00 -0.11984959292E+04  0.11984959292E+04  0.50400001928E-02 0.  1.
    10030    2    1    2    0    0  0.00000000000E+00  0.00000000000E+00  0.43281889838E+03  0.28298107569E+04  0.27965151029E+04 0.  0.
        4    1    3    3  502    0  0.11051434129E+04  0.37837776232E+03 -0.56125266735E+03  0.12959621382E+04  0.12699999809E+01 0.  1.
       -4    1    3    3    0  502 -0.11051434129E+04 -0.37837776232E+03  0.99407156573E+03  0.15338486186E+04  0.12699999809E+01 0. -1.
</event>
<event>
 5   0  0.5584205E-06  0.2818409E+04  0.7818609E-02  0.8297576E-01
       -2   -1    0    0    0  501  0.00000000000E+00  0.00000000000E+00  0.85637597087E+03  0.85637597087E+03  0.25500000920E-02 0.  1.
        2   -1    0    0  501    0  0.00000000000E+00  0.00000000000E+00 -0.23189076185E+04  0.23189076185E+04  0.25500000920E-02 0. -1.
    10030    2    1    2    0    0  0.00000000000E+00  0.00000000000E+00 -0.14625316476E+04  0.31752835894E+04  0.28184086029E+04 0.  0.
        1    1    3    3  502    0  0.11177358538E+04 -0.62567053671E+03 -0.13930641823E+04  0.18924652904E+04  0.50400001928E-02 0. -1.
       -1    1    3    3    0  502 -0.11177358538E+04  0.62567053671E+03 -0.69467465319E+02  0.12828182990E+04  0.50400001928E-02 0.  1.
</event>
<event>
 5   0  0.2234068E-06  0.2776090E+04  0.7818609E-02  0.8310730E-01
        1   -1    0    0  501    0  0.00000000000E+00  0.00000000000E+00  0.21054811569E+04  0.21054811569E+04  0.50400001928E-02 0.  1.
       -1   -1    0    0    0  501  0.00000000000E+00  0.00000000000E+00 -0.91507285661E+03  0.91507285662E+03  0.50400001928E-02 0. -1.
    10030    2    1    2    0    0  0.00000000000E+00  0.00000000000E+00  0.11904083003E+04  0.30205540136E+04  0.27760898089E+04 0.  0.
        3    1    3    3  502    0  0.21993286806E+03  0.68083989098E+03 -0.69897305854E+03  0.10002383568E+04  0.10100000352E+00 0. -1.
       -3    1    3    3    0  502 -0.21993286806E+03 -0.68083989098E+03  0.18893813589E+04  0.20203156568E+04  0.10100000352E+00 0.  1.
</event>
<event>
 5   0  0.5625245E-06  0.2811233E+04  0.7818609E-02  0.8299789E-01
        2   -1    0    0  501    0  0.00000000000E+00  0.00000000000E+00  0.13006199029E+04  0.13006199029E+04  0.25500000920E-02 0. -1.
       -2   -1    0    0    0  501  0.00000000000E+00  0.00000000000E+00 -0.15190893903E+04  0.15190893903E+04  0.25500000920E-02 0.  1.
    10030    2    1    2    0    0  0.00000000000E+00  0.00000000000E+00 -0.21846948738E+03  0.28197092933E+04  0.28112331069E+04 0.  0.
        3    1    3    3  502    0 -0.13168857085E+04  0.51418398245E+02  0.38103968431E+03  0.13718684602E+04  0.10100000352E+00 0. -1.
       -3    1    3    3    0  502  0.13168857085E+04 -0.51418398245E+02 -0.59950917169E+03  0.14478408331E+04  0.10100000352E+00 0.  1.
</event>
<event>
 5   0  0.2206967E-06  0.2817193E+04  0.7818609E-02  0.8297950E-01
       -1   -1    0    0    0  501  0.00000000000E+00  0.00000000000E+00  0.20610644797E+04  0.20610644797E+04  0.50400001928E-02 0. -1.
        1   -1    0    0  501    0  0.00000000000E+00  0.00000000000E+00 -0.96267921134E+03  0.96267921135E+03  0.50400001928E-02 0.  1.
    10030    2    1    2    0    0  0.00000000000E+00  0.00000000000E+00  0.10983852684E+04  0.30237436911E+04  0.28171928779E+04 0.  0.
        5    1    3    3  502    0 -0.11103913010E+04  0.56351617377E+03  0.12559564249E+04  0.17686062170E+04  0.46999998093E+01 0. -1.
       -5    1    3    3    0  502  0.11103913010E+04 -0.56351617377E+03 -0.15757115656E+03  0.12551374741E+04  0.46999998093E+01 0.  1.
</event>
<event>
 5   0  0.5584205E-06  0.2797077E+04  0.7818609E-02  0.8304176E-01
        2   -1    0    0  501    0  0.00000000000E+00  0.00000000000E+00  0.96773046643E+03  0.96773046643E+03  0.25500000920E-02 0.  1.
       -2   -1    0    0    0  501  0.00000000000E+00  0.00000000000E+00 -0.20211314683E+04  0.20211314683E+04  0.25500000920E-02 0. -1.
    10030    2    1    2    0    0  0.00000000000E+00  0.00000000000E+00 -0.10534010018E+04  0.29888619347E+04  0.27970774022E+04 0.  0.
        1    1    3    3  502    0 -0.60747096844E+03  0.85619493589E+03  0.46067982257E+03  0.11464364983E+04  0.50400001928E-02 0.  1.
       -1    1    3    3    0  502  0.60747096844E+03 -0.85619493589E+03 -0.15140808244E+04  0.18424254364E+04  0.50400001928E-02 0. -1.
</event>
<event>
 5   0  0.5625245E-06  0.2756165E+04  0.7818609E-02  0.8317008E-01
        2   -1    0    0  501    0  0.00000000000E+00  0.00000000000E+00  0.20551101834E+04  0.20551101834E+04  0.25500000920E-02 0.  1.
       -2   -1    0    0    0  501  0.00000000000E+00  0.00000000000E+00 -0.92409212681E+03  0.92409212682E+03  0.25500000920E-02 0. -1.
    10030    2    1    2    0    0  0.00000000000E+00  0.00000000000E+00  0.11310180566E+04  0.29792023103E+04  0.27561648284E+04 0.  0.
        3    1    3    3  502    0  0.10961117333E+03  0.11872968618E+04 -0.18136323989E+03  0.12060601487E+04  0.10100000352E+00 0. -1.
       -3    1    3    3    0  502 -0.10961117333E+03 -0.11872968618E+04  0.13123812965E+04  0.17731421615E+04  0.10100000352E+00 0.  1.
</event>
<event>
 5   0  0.1901375E-06  0.2808333E+04  0.7818609E-02  0.8300686E-01
        3   -1    0    0  501    0  0.00000000000E+00  0.00000000000E+00  0.15264747177E+04  0.15264747211E+04  0.10100000352E+00 0. -1.
       -3   -1    0    0    0  501  0.00000000000E+00  0.00000000000E+00 -0.12916577593E+04  0.12916577633E+04  0.10100000352E+00 0.  1.
    10030    2    1    2    0    0  0.00000000000E+00  0.00000000000E+00  0.23481695842E+03  0.28181324843E+04  0.28083325471E+04 0.  0.
        5    1    3    3  502    0 -0.58122595491E+03 -0.12048406454E+04  0.54574251064E+03  0.14447565779E+04  0.46999998093E+01 0. -1.
       -5    1    3    3    0  502  0.58122595491E+03  0.12048406454E+04 -0.31092555223E+03  0.13733759064E+04  0.46999998093E+01 0.  1.
</event>
<event>
 5   0  0.2267565E-06  0.2716554E+04  0.7818609E-02  0.8329654E-01
        1   -1    0    0  501    0  0.00000000000E+00  0.00000000000E+00  0.20040791544E+04  0.20040791544E+04  0.50400001928E-02 0.  1.
       -1   -1    0    0    0  501  0.00000000000E+00  0.00000000000E+00 -0.92058042722E+03  0.92058042724E+03  0.50400001928E-02 0. -1.
    10030    2    1    2    0    0  0.00000000000E+00  0.00000000000E+00  0.10834987271E+04  0.29246595816E+04  0.27165537316E+04 0.  0.
        4    1    3    3  502    0  0.10305092533E+04  0.75396633505E+03  0.10403703415E+04  0.16470539202E+04  0.12699999809E+01 0.  1.
       -4    1    3    3    0  502 -0.10305092533E+04 -0.75396633505E+03  0.43128385638E+02  0.12776056614E+04  0.12699999809E+01 0. -1.
</event>
<event>
 5   0  0.2190865E-06  0.2819776E+04  0.7818609E-02  0.8297155E-01
        1   -1    0    0  501    0  0.00000000000E+00  0.00000000000E+00  0.84656681778E+03  0.84656681779E+03  0.50400001928E-02 0.  1.
       -1   -1    0    0    0  501  0.00000000000E+00  0.00000000000E+00 -0.23480537492E+04  0.23480537492E+04  0.50400001928E-02 0. -1.
    10030    2    1    2    0    0  0.00000000000E+00  0.00000000000E+00 -0.15014869314E+04  0.31946205670E+04  0.28197761546E+04 0.  0.
        2    1    3    3  502    0  0.84529010381E+03 -0.55144223011E+03 -0.18660827085E+04  0.21215250571E+04  0.25500000920E-02 0. -1.
       -2    1    3    3    0  502 -0.84529010381E+03  0.55144223011E+03  0.36459577709E+03  0.10730955099E+04  0.25500000920E-02 0.  1.
</event>
<event>
 5   0  0.5546570E-06  0.2800930E+04  0.7818609E-02  0.8302980E-01
       -2   -1    0    0    0  501  0.00000000000E+00  0.00000000000E+00  0.10240274056E+04  0.10240274056E+04  0.25500000920E-02 0. -1.
        2   -1    0    0  501    0  0.00000000000E+00  0.00000000000E+00 -0.19152827501E+04  0.19152827501E+04  0.25500000920E-02 0.  1.
    10030    2    1    2    0    0  0.00000000000E+00  0.00000000000E+00 -0.89125534448E+03  0.29393101557E+04  0.28009298639E+04 0.  0.
        4    1    3    3  502    0 -0.33125516571E+03 -0.86538313294E+03 -0.15475942292E+04  0.18037925221E+04  0.12699999809E+01 0.  1.
       -4    1    3    3    0  502  0.33125516571E+03  0.86538313294E+03  0.65633888476E+03  0.11355176336E+04  0.12699999809E+01 0. -1.
</event>
<event>
 5   0  0.5584205E-06  0.2797566E+04  0.7818609E-02  0.8304024E-01
        2   -1    0    0  501    0  0.00000000000E+00  0.00000000000E+00  0.26610123081E+04  0.26610123081E+04  0.25500000920E-02 0. -1.
       -2   -1    0    0    0  501  0.00000000000E+00  0.00000000000E+00 -0.73528186351E+03  0.73528186351E+03  0.25500000920E-02 0.  1.
    10030    2    1    2    0    0  0.00000000000E+00  0.00000000000E+00  0.19257304446E+04  0.33962941716E+04  0.27975661484E+04 0.  0.
        1    1    3    3  502    0 -0.98397231252E+03 -0.91026800133E+03  0.47755463292E+03  0.14229714591E+04  0.50400001928E-02 0. -1.
       -1    1    3    3    0  502  0.98397231252E+03  0.91026800133E+03  0.14481758116E+04  0.19733227125E+04  0.50400001928E-02 0.  1.
</event>
<event>
 5   0  0.2277133E-06  0.2666161E+04  0.7818609E-02  0.8346069E-01
       -1   -1    0    0    0  501  0.00000000000E+00  0.00000000000E+00  0.13379336767E+04  0.13379336767E+04  0.50400001928E-02 0.  1.
        1   -1    0    0  501    0  0.00000000000E+00  0.00000000000E+00 -0.13282446989E+04  0.13282446989E+04  0.50400001928E-02 0. -1.
    10030    2    1    2    0    0  0.00000000000E+00  0.00000000000E+00  0.96889778015E+01  0.26661783755E+04  0.26661607705E+04 0.  0.
        1    1    3    3  502    0  0.51440204104E+03  0.78307224253E+03 -0.94347169939E+03  0.13296429763E+04  0.50400001928E-02 0. -1.
       -1    1    3    3    0  502 -0.51440204104E+03 -0.78307224253E+03  0.95316067720E+03  0.13365353992E+04  0.50400001928E-02 0.  1.
</event>
<event>
 5   0  0.5866136E-06  0.2804421E+04  0.7818609E-02  0.8301897E-01
        2   -1    0    0  501    0  0.00000000000E+00  0.00000000000E+00  0.15589246088E+04  0.15589246088E+04  0.25500000920E-02 0. -1.
       -2   -1    0    0    0  501  0.00000000000E+00  0.00000000000E+00 -0.12612505241E+04  0.12612505241E+04  0.25500000920E-02 0.  1.
    10030    2    1    2    0    0  0.00000000000E+00  0.00000000000E+00  0.29767408473E+03  0.28201751329E+04  0.28044211381E+04 0.  0.
        5    1    3    3  502    0 -0.13017957619E+04 -0.15754230617E+03 -0.35062254053E+03  0.13573687929E+04  0.46999998093E+01 0.  1.
       -5    1    3    3    0  502  0.13017957619E+04  0.15754230617E+03  0.64829662526E+03  0.14628063400E+04  0.46999998093E+01 0. -1.
</event>
<event>
 5   0  0.2267565E-06  0.2795337E+04  0.7818609E-02  0.8304718E-01
        1   -1    0    0  501    0  0.00000000000E+00  0.00000000000E+00  0.75575127092E+03  0.75575127093E+03  0.50400001928E-02 0. -1.
       -1   -1    0    0    0  501  0.00000000000E+00  0.00000000000E+00 -0.25848146946E+04  0.25848146946E+04  0.50400001928E-02 0.  1.
    10030    2    1    2    0    0  0.00000000000E+00  0.00000000000E+00 -0.18290634237E+04  0.33405659655E+04  0.27953368245E+04 0.  0.
        4    1    3    3  502    0 -0.76991246170E+03 -0.43495892602E+03 -0.22080153185E+04  0.23785053554E+04  0.12699999809E+01 0.  1.
       -4    1    3    3    0  502  0.76991246170E+03  0.43495892602E+03  0.37895189486E+03  0.96206061011E+03  0.12699999809E+01 0. -1.
</event>
<event>
 5   0  0.2206967E-06  0.2804644E+04  0.7818609E-02  0.8301828E-01
       -1   -1    0    0    0  501  0.00000000000E+00  0.00000000000E+00  0.12702628214E+04  0.12702628215E+04  0.50400001928E-02 0.  1.
        1   -1    0    0  501    0  0.00000000000E+00  0.00000000000E+00 -0.15481107953E+04  0.15481107953E+04  0.50400001928E-02 0. -1.
    10030    2    1    2    0    0  0.00000000000E+00  0.00000000000E+00 -0.27784797385E+03  0.28183736168E+04  0.28046444244E+04 0.  0.
        5    1    3    3  502    0  0.67509076790E+03 -0.38170939465E+02  0.10956178110E+04  0.12874801137E+04  0.46999998093E+01 0.  1.
       -5    1    3    3    0  502 -0.67509076790E+03  0.38170939465E+02 -0.13734657848E+04  0.15308935030E+04  0.46999998093E+01 0. -1.
</event>
<event>
 5   0  0.2190865E-06  0.2781908E+04  0.7818609E-02  0.8308907E-01
       -1   -1    0    0    0  501  0.00000000000E+00  0.00000000000E+00  0.10313728322E+04  0.10313728322E+04  0.50400001928E-02 0. -1.
        1   -1    0    0  501    0  0.00000000000E+00  0.00000000000E+00 -0.18759011971E+04  0.18759011971E+04  0.50400001928E-02 0.  1.
    10030    2    1    2    0    0  0.00000000000E+00  0.00000000000E+00 -0.84452836494E+03  0.29072740294E+04  0.27819083598E+04 0.  0.
        2    1    3    3  502    0  0.13187239092E+04  0.34083319356E+03 -0.12750127012E+03  0.13680119109E+04  0.25500000920E-02 0. -1.
       -2    1    3    3    0  502 -0.13187239092E+04 -0.34083319356E+03 -0.71702709482E+03  0.15392621184E+04  0.25500000920E-02 0.  1.
</event>
<event>
 5   0  0.5546570E-06  0.2809221E+04  0.7818609E-02  0.8300411E-01
       -2   -1    0    0    0  501  0.00000000000E+00  0.00000000000E+00  0.10023605826E+04  0.10023605826E+04  0.25500000920E-02 0. -1.
        2   -1    0    0  501    0  0.00000000000E+00  0.00000000000E+00 -0.19682836658E+04  0.19682836658E+04  0.25500000920E-02 0.  1.
    10030    2    1    2    0    0  0.00000000000E+00  0.00000000000E+00 -0.96592308315E+03  0.29706442484E+04  0.28092205054E+04 0.  0.
        4    1    3    3  502    0 -0.72151545227E+03 -0.90446053729E+03 -0.13251522361E+04  0.17591655616E+04  0.12699999809E+01 0.  1.
       -4    1    3    3    0  502  0.72151545227E+03  0.90446053729E+03  0.35922915296E+03  0.12114786868E+04  0.12699999809E+01 0. -1.
</event>
<event>
 5   0  0.2277133E-06  0.2805947E+04  0.7818609E-02  0.8301424E-01
       -1   -1    0    0    0  501  0.00000000000E+00  0.00000000000E+00  0.22884469602E+04  0.22884469602E+04  0.50400001928E-02 0.  1.
        1   -1    0    0  501    0  0.00000000000E+00  0.00000000000E+00 -0.86011825655E+03  0.86011825656E+03  0.50400001928E-02 0. -1.
    10030    2    1    2    0    0  0.00000000000E+00  0.00000000000E+00  0.14283287036E+04  0.31485652167E+04  0.28059472622E+04 0.  0.
        1    1    3    3  502    0 -0.24384454735E+03 -0.27688764090E+03  0.22330342889E+04  0.22633093170E+04  0.50400001928E-02 0.  1.
       -1    1    3    3    0  502  0.24384454735E+03  0.27688764090E+03 -0.80470558530E+03  0.88525589972E+03  0.50400001928E-02 0. -1.
</event>
<event>
 5   0  0.2234068E-06  0.2797658E+04  0.7818609E-02  0.8303996E-01
       -1   -1    0    0    0  501  0.00000000000E+00  0.00000000000E+00  0.79927599134E+03  0.79927599135E+03  0.50400001928E-02 0.  1.
        1   -1    0    0  501    0  0.00000000000E+00  0.00000000000E+00 -0.24481196433E+04  0.24481196433E+04  0.50400001928E-02 0. -1.
    10030    2    1    2    0    0  0.00000000000E+00  0.00000000000E+00 -0.16488436520E+04  0.32473956347E+04  0.27976584887E+04 0.  0.
        3    1    3    3  502    0 -0.35828485392E+03 -0.13451206550E+04 -0.98444454978E+03  0.17049482968E+04  0.10100000352E+00 0.  1.
       -3    1    3    3    0  502  0.35828485392E+03  0.13451206550E+04 -0.66439910220E+03  0.15424473379E+04  0.10100000352E+00 0. -1.
</event>
<event>
 5   0  0.5916603E-06  0.2798964E+04  0.7818609E-02  0.8303590E-01
        2   -1    0    0  501    0  0.00000000000E+00  0.00000000000E+00  0.86883553611E+03  0.86883553611E+03  0.25500000920E-02 0.  1.
       -2   -1    0    0    0  501  0.00000000000E+00  0.00000000000E+00 -0.22542247415E+04  0.22542247415E+04  0.25500000920E-02 0. -1.
    10030    2    1    2    0    0  0.00000000000E+00  0.00000000000E+00 -0.13853892054E+04  0.31230602776E+04  0.27989644955E+04 0.  0.
        2    1    3    3  502    0 -0.41914321191E+03 -0.56627814933E+03 -0.20419251242E+04  0.21600486539E+04  0.25500000920E-02 0. -1.
       -2    1    3    3    0  502  0.41914321191E+03  0.56627814933E+03  0.65653591886E+03  0.96301162364E+03  0.25500000920E-02 0.  1.
</event>
<event>
 5   0  0.5546570E-06  0.2807547E+04  0.7818609E-02  0.8300929E-01
       -2   -1    0    0    0  501  0.00000000000E+00  0.00000000000E+00  0.10863806155E+04  0.10863806155E+04  0.25500000920E-02 0.  1.
        2   -1    0    0  501    0  0.00000000000E+00  0.00000000000E+00 -0.18138944627E+04  0.18138944627E+04  0.25500000920E-02 0. -1.
    10030    2    1    2    0    0  0.00000000000E+00  0.00000000000E+00 -0.72751384722E+03  0.29002750782E+04  0.28075468173E+04 0.  0.
        4    1    3    3  502    0 -0.27317943159E+03 -0.42464923874E+03 -0.17168362685E+04  0.17895480892E+04  0.12699999809E+01 0. -1.
       -4    1    3    3    0  502  0.27317943159E+03  0.42464923874E+03  0.98932242129E+03  0.11107269890E+04  0.12699999809E+01 0.  1.
</event>
<event>
 5   0  0.2206967E-06  0.2842202E+04  0.7818609E-02  0.8290285E-01
        1   -1    0    0  501    0  0.00000000000E+00  0.00000000000E+00  0.14146259681E+04  0.14146259681E+04  0.50400001928E-02 0. -1.
       -1   -1    0    0    0  501  0.00000000000E+00  0.00000000000E+00 -0.14276054979E+04  0.14276054979E+04  0.50400001928E-02 0.  1.
    10030    2    1    2    0    0  0.00000000000E+00  0.00000000000E+00 -0.12979529838E+02  0.28422314660E+04  0.28422018292E+04 0.  0.
        5    1    3    3  502    0  0.64530483401E+03  0.12640059870E+04 -0.79813482591E+02  0.14214505781E+04  0.46999998093E+01 0.  1.
       -5    1    3    3    0  502 -0.64530483401E+03 -0.12640059870E+04  0.66833952753E+02  0.14207808879E+04  0.46999998093E+01 0. -1.
</event>
<event>
 5   0  0.5546570E-06  0.2792084E+04  0.7818609E-02  0.8305730E-01
        2   -1    0    0  501    0  0.00000000000E+00  0.00000000000E+00  0.21690298562E+04  0.21690298562E+04  0.25500000920E-02 0.  1.
       -2   -1    0    0    0  501  0.00000000000E+00  0.00000000000E+00 -0.89852764059E+03  0.89852764059E+03  0.25500000920E-02 0. -1.
    10030    2    1    2    0    0  0.00000000000E+00  0.00000000000E+00  0.12705022156E+04  0.30675574968E+04  0.27920840095E+04 0.  0.
        4    1    3    3  502    0 -0.11735272490E+04  0.26659471163E+03 -0.14215843873E+03  0.12117960138E+04  0.12699999809E+01 0. -1.
       -4    1    3    3    0  502  0.11735272490E+04 -0.26659471163E+03  0.14126606543E+04  0.18557614830E+04  0.12699999809E+01 0.  1.
</event>
<event>
 5   0  0.2190865E-06  0.2795751E+04  0.7818609E-02  0.8304589E-01
       -1   -1    0    0    0  501  0.00000000000E+00  0.00000000000E+00  0.17974606140E+04  0.17974606140E+04  0.50400001928E-02 0. -1.
        1   -1    0    0  501    0  0.00000000000E+00  0.00000000000E+00 -0.10871203703E+04  0.10871203703E+04  0.50400001928E-02 0.  1.
    10030    2    1    2    0    0  0.00000000000E+00  0.00000000000E+00  0.71034024365E+03  0.28845809843E+04  0.27957510964E+04 0.  0.
        2    1    3    3  502    0  0.12468984235E+04 -0.42313026708E+02 -0.29534627736E+03  0.12820980829E+04  0.25500000920E-02 0.  1.
       -2    1    3    3    0  502 -0.12468984235E+04  0.42313026708E+02  0.10056865210E+04  0.16024829014E+04  0.25500000920E-02 0. -1.
</event>
<event>
 5   0  0.5866136E-06  0.2725091E+04  0.7818609E-02  0.8326910E-01
       -2   -1    0    0    0  501  0.00000000000E+00  0.00000000000E+00  0.98745525279E+03  0.98745525279E+03  0.25500000920E-02 0.  1.
        2   -1    0    0  501    0  0.00000000000E+00  0.00000000000E+00 -0.18801155990E+04  0.18801155991E+04  0.25500000920E-02 0. -1.
    10030    2    1    2    0    0  0.00000000000E+00  0.00000000000E+00 -0.89266034626E+03  0.28675708518E+04  0.27250908419E+04 0.  0.
        5    1    3    3  502    0 -0.66852858277E+03 -0.69455408134E+03  0.56691221406E+03  0.11183681801E+04  0.46999998093E+01 0.  1.
       -5    1    3    3    0  502  0.66852858277E+03  0.69455408134E+03 -0.14595725603E+04  0.17492026717E+04  0.46999998093E+01 0. -1.
</event>
<event>
 5   0  0.2267565E-06  0.2849717E+04  0.7818609E-02  0.8287997E-01
        1   -1    0    0  501    0  0.00000000000E+00  0.00000000000E+00  0.18261518697E+04  0.18261518697E+04  0.50400001928E-02 0. -1.
       -1   -1    0    0    0  501  0.00000000000E+00  0.00000000000E+00 -0.11117488908E+04  0.11117488908E+04  0.50400001928E-02 0.  1.
    10030    2    1    2    0    0  0.00000000000E+00  0.00000000000E+00  0.71440297892E+03  0.29379007605E+04  0.28497174004E+04 0.  0.
        4    1    3    3  502    0  0.10309789942E+04 -0.97942794160E+03  0.26485323060E+03  0.14464942537E+04  0.12699999809E+01 0. -1.
       -4    1    3    3    0  502 -0.10309789942E+04  0.97942794160E+03  0.44954974832E+03  0.14914065068E+04  0.12699999809E+01 0.  1.
</event>
<event>
 5   0  0.5625245E-06  0.2580257E+04  0.7818609E-02  0.8374938E-01
        2   -1    0    0  501    0  0.00000000000E+00  0.00000000000E+00  0.14071446109E+04  0.14071446109E+04  0.25500000920E-02 0. -1.
       -2   -1    0    0    0  501  0.00000000000E+00  0.00000000000E+00 -0.11828433773E+04  0.11828433773E+04  0.25500000920E-02 0.  1.
    10030    2    1    2    0    0  0.00000000000E+00  0.00000000000E+00  0.22430123361E+03  0.25899879881E+04  0.25802571064E+04 0.  0.
        3    1    3    3  502    0 -0.30361453247E+02 -0.12658966996E+04  0.36009513145E+03  0.13164667811E+04  0.10100000352E+00 0. -1.
       -3    1    3    3    0  502  0.30361453247E+02  0.12658966996E+04 -0.13579389785E+03  0.12735212070E+04  0.10100000352E+00 0.  1.
</event>
<event>
 5   0  0.2190865E-06  0.2797437E+04  0.7818609E-02  0.8304064E-01
       -1   -1    0    0    0  501  0.00000000000E+00  0.00000000000E+00  0.13626158496E+04  0.13626158496E+04  0.50400001928E-02 0.  1.
        1   -1    0    0  501    0  0.00000000000E+00  0.00000000000E+00 -0.14357778423E+04  0.14357778423E+04  0.50400001928E-02 0. -1.
    10030    2    1    2    0    0  0.00000000000E+00  0.00000000000E+00 -0.73161992768E+02  0.27983936919E+04  0.27974371446E+04 0.  0.
        2    1    3    3  502    0 -0.24859240247E+02  0.62874452656E+03  0.12130362788E+04  0.13665265000E+04  0.25500000920E-02 0.  1.
       -2    1    3    3    0  502  0.24859240247E+02 -0.62874452656E+03 -0.12861982716E+04  0.14318671919E+04  0.25500000920E-02 0. -1.
</event>
<event>
 5   0  0.5916603E-06  0.2789411E+04  0.7818609E-02  0.8306563E-01
        2   -1    0    0  501    0  0.00000000000E+00  0.00000000000E+00  0.18754905812E+04  0.18754905812E+04  0.25500000920E-02 0.  1.
       -2   -1    0    0    0  501  0.00000000000E+00  0.00000000000E+00 -0.10371706548E+04  0.10371706548E+04  0.25500000920E-02 0. -1.
    10030    2    1    2    0    0  0.00000000000E+00  0.00000000000E+00  0.83831992633E+03  0.29126612360E+04  0.27894112599E+04 0.  0.
        2    1    3    3  502    0  0.46466717816E+03 -0.35154616409E+03  0.17423130782E+04  0.18371595343E+04  0.25500000920E-02 0.  1.
       -2    1    3    3    0  502 -0.46466717816E+03  0.35154616409E+03 -0.90399315183E+03  0.10755017018E+04  0.25500000920E-02 0. -1.
</event>
<event>
 5   0  0.5546570E-06  0.2816264E+04  0.7818609E-02  0.8298237E-01
        2   -1    0    0  501    0  0.00000000000E+00  0.00000000000E+00  0.16329958135E+04  0.16329958135E+04  0.25500000920E-02 0. -1.
       -2   -1    0    0    0  501  0.00000000000E+00  0.00000000000E+00 -0.12142323984E+04  0.12142323984E+04  0.25500000920E-02 0.  1.
    10030    2    1    2    0    0  0.00000000000E+00  0.00000000000E+00  0.41876341506E+03  0.28472282119E+04  0.28162644927E+04 0.  0.
        4    1    3    3  502    0 -0.18518942409E+03 -0.13004292972E+04 -0.30356564303E+03  0.13481710546E+04  0.12699999809E+01 0.  1.
       -4    1    3    3    0  502  0.18518942409E+03  0.13004292972E+04  0.72232905809E+03  0.14990571573E+04  0.12699999809E+01 0. -1.
</event>
<event>
 5   0  0.5866136E-06  0.2793001E+04  0.7818609E-02  0.8305445E-01
       -2   -1    0    0    0  501  0.00000000000E+00  0.00000000000E+00  0.10313434662E+04  0.10313434662E+04  0.25500000920E-02 0.  1.
        2   -1    0    0  501    0  0.00000000000E+00  0.00000000000E+00 -0.18909445382E+04  0.18909445382E+04  0.25500000920E-02 0. -1.
    10030    2    1    2    0    0  0.00000000000E+00  0.00000000000E+00 -0.85960107197E+03  0.29222880045E+04  0.27930007480E+04 0.  0.
        5    1    3    3  502    0 -0.11726392948E+04 -0.63638262234E+03  0.17549112448E+01  0.13342004825E+04  0.46999998093E+01 0.  1.
       -5    1    3    3    0  502  0.11726392948E+04  0.63638262234E+03 -0.86135598321E+03  0.15880875220E+04  0.46999998093E+01 0. -1.
</event>
<event>
 5   0  0.2277133E-06  0.2818701E+04  0.7818609E-02  0.8297486E-01
        1   -1    0    0  501    0  0.00000000000E+00  0.00000000000E+00  0.11707064288E+04  0.11707064288E+04  0.50400001928E-02 0. -1.
       -1   -1    0    0    0  501  0.00000000000E+00  0.00000000000E+00 -0.16966409760E+04  0.16966409761E+04  0.50400001928E-02 0.  1.
    10030    2    1    2    0    0  0.00000000000E+00  0.00000000000E+00 -0.52593454724E+03  0.28673474049E+04  0.28187007632E+04 0.  0.
        1    1    3    3  502    0 -0.85538942577E+03  0.40650969299E+03 -0.13246885859E+04  0.16284167310E+04  0.50400001928E-02 0.  1.
       -1    1    3    3    0  502  0.85538942577E+03 -0.40650969299E+03  0.79875403868E+03  0.12389306738E+04  0.50400001928E-02 0. -1.
</event>
<event>
 5   0  0.2190865E-06  0.2853787E+04  0.7818609E-02  0.8286762E-01
       -1   -1    0    0    0  501  0.00000000000E+00  0.00000000000E+00  0.27123441352E+04  0.27123441352E+04  0.50400001928E-02 0.  1.
        1   -1    0    0  501    0  0.00000000000E+00  0.00000000000E+00 -0.75065129803E+03  0.75065129805E+03  0.50400001928E-02 0. -1.
    10030    2    1    2    0    0  0.00000000000E+00  0.00000000000E+00  0.19616928372E+04  0.34629954333E+04  0.28537867095E+04 0.  0.
        2    1    3    3  502    0  0.90060048715E+02 -0.14231932721E+04  0.10407230042E+04  0.17654161758E+04  0.25500000920E-02 0.  1.
       -2    1    3    3    0  502 -0.90060048715E+02  0.14231932721E+04  0.92096983300E+03  0.16975792575E+04  0.25500000920E-02 0. -1.
</event>
<event>
 5   0  0.5866136E-06  0.2805096E+04  0.7818609E-02  0.8301688E-01
        2   -1    0    0  501    0  0.00000000000E+00  0.00000000000E+00  0.16215962538E+04  0.16215962538E+04  0.25500000920E-02 0. -1.
       -2   -1    0    0    0  501  0.00000000000E+00  0.00000000000E+00 -0.12130894453E+04  0.12130894453E+04  0.25500000920E-02 0.  1.
    10030    2    1    2    0    0  0.00000000000E+00  0.00000000000E+00  0.40850680842E+03  0.28346856991E+04  0.28050962907E+04 0.  0.
        5    1    3    3  502    0 -0.11543701430E+04  0.79536601436E+03  0.15972402174E+03  0.14109257163E+04  0.46999998093E+01 0.  1.
       -5    1    3    3    0  502  0.11543701430E+04 -0.79536601436E+03  0.24878278669E+03  0.14237599828E+04  0.46999998093E+01 0. -1.
</event>
<event>
 5   0  0.2234068E-06  0.2798576E+04  0.7818609E-02  0.8303711E-01
        1   -1    0    0  501    0  0.00000000000E+00  0.00000000000E+00  0.14569683579E+04  0.14569683579E+04  0.50400001928E-02 0.  1.
       -1   -1    0    0    0  501  0.00000000000E+00  0.00000000000E+00 -0.13438907011E+04  0.13438907011E+04  0.50400001928E-02 0. -1.
    10030    2    1    2    0    0  0.00000000000E+00  0.00000000000E+00  0.11307765681E+03  0.28008590591E+04  0.27985755148E+04 0.  0.
        3    1    3    3  502    0 -0.31344254141E+02  0.97516995757E+03 -0.94730867694E+03  0.13599017053E+04  0.10100000352E+00 0. -1.
       -3    1    3    3    0  502  0.31344254141E+02 -0.97516995757E+03  0.10603863337E+04  0.14409573538E+04  0.10100000352E+00 0.  1.
</event>
<event>
 5   0  0.5584205E-06  0.2807685E+04  0.7818609E-02  0.8300886E-01
       -2   -1    0    0    0  501  0.00000000000E+00  0.00000000000E+00  0.11245067745E+04  0.11245067745E+04  0.25500000920E-02 0. -1.
        2   -1    0    0  501    0  0.00000000000E+00  0.00000000000E+00 -0.17525674255E+04  0.17525674255E+04  0.25500000920E-02 0.  1.
    10030    2    1    2    0    0  0.00000000000E+00  0.00000000000E+00 -0.62806065095E+03  0.28770742000E+04  0.28076851268E+04 0.  0.
        1    1    3    3  502    0  0.90356144999E+03  0.84979342532E+03 -0.98769835639E+03  0.15855977431E+04  0.50400001928E-02 0.  1.
       -1    1    3    3    0  502 -0.90356144999E+03 -0.84979342532E+03  0.35963770544E+03  0.12914764569E+04  0.50400001928E-02 0. -1.
</event>
<event>
 5   0  0.2277133E-06  0.2773012E+04  0.7818609E-02  0.8311696E-01
        1   -1    0    0  501    0  0.00000000000E+00  0.00000000000E+00  0.22429677552E+04  0.22429677552E+04  0.50400001928E-02 0.  1.
       -1   -1    0    0    0  501  0.00000000000E+00  0.00000000000E+00 -0.85707835087E+03  0.85707835089E+03  0.50400001928E-02 0. -1.
    10030    2    1    2    0    0  0.00000000000E+00  0.00000000000E+00  0.13858894043E+04  0.31000461061E+04  0.27730121563E+04 0.  0.
        1    1    3    3  502    0 -0.12773962526E+04  0.32030746768E+03  0.20814114043E+03  0.13332894638E+04  0.50400001928E-02 0. -1.
       -1    1    3    3    0  502  0.12773962526E+04 -0.32030746768E+03  0.11777482639E+04  0.17667566423E+04  0.50400001928E-02 0.  1.
</event>
<event>
 5   0  0.5584205E-06  0.2798344E+04  0.7818609E-02  0.8303783E-01
       -2   -1    0    0    0  501  0.00000000000E+00  0.00000000000E+00  0.14744467481E+04  0.14744467481E+04  0.25500000920E-02 0. -1.
        2   -1    0    0  501    0  0.00000000000E+00  0.00000000000E+00 -0.13277401447E+04  0.13277401447E+04  0.25500000920E-02 0.  1.
    10030    2    1    2    0    0  0.00000000000E+00  0.00000000000E+00  0.14670660332E+03  0.28021868928E+04  0.27983438950E+04 0.  0.
        1    1    3    3  502    0 -0.85990371210E+03  0.92190923634E+02 -0.10280428954E+04  0.13434305919E+04  0.50400001928E-02 0.  1.
       -1    1    3    3    0  502  0.85990371210E+03 -0.92190923634E+02  0.11747494987E+04  0.14587563009E+04  0.50400001928E-02 0. -1.
</event>
<event>
 5   0  0.5584205E-06  0.2790492E+04  0.7818609E-02  0.8306226E-01
       -2   -1    0    0    0  501  0.00000000000E+00  0.00000000000E+00  0.11193081798E+04  0.11193081798E+04  0.25500000920E-02 0.  1.
        2   -1    0    0  501    0  0.00000000000E+00  0.00000000000E+00 -0.17392088638E+04  0.17392088638E+04  0.25500000920E-02 0. -1.
    10030    2    1    2    0    0  0.00000000000E+00  0.00000000000E+00 -0.61990068405E+03  0.28585170436E+04  0.27904915034E+04 0.  0.
        1    1    3    3  502    0 -0.12369163468E+04 -0.47241009625E+03 -0.76065013890E+03  0.15269977020E+04  0.50400001928E-02 0. -1.
       -1    1    3    3    0  502  0.12369163468E+04  0.47241009625E+03  0.14074945485E+03  0.13315193416E+04  0.50400001928E-02 0.  1.
</event>
<event>
 5   0  0.5866136E-06  0.2804854E+04  0.7818609E-02  0.8301763E-01
       -2   -1    0    0    0  501  0.00000000000E+00  0.00000000000E+00  0.76849097784E+03  0.76849097784E+03  0.25500000920E-02 0.  1.
        2   -1    0    0  501    0  0.00000000000E+00  0.00000000000E+00 -0.25593028777E+04  0.25593028777E+04  0.25500000920E-02 0. -1.
    10030    2    1    2    0    0  0.00000000000E+00  0.00000000000E+00 -0.17908118999E+04  0.33277938556E+04  0.28048537724E+04 0.  0.
        5    1    3    3  502    0  0.52128169516E+03 -0.45854209325E+03 -0.23411045992E+04  0.24418821207E+04  0.46999998093E+01 0. -1.
       -5    1    3    3    0  502 -0.52128169516E+03  0.45854209325E+03  0.55029269935E+03  0.88591173484E+03  0.46999998093E+01 0.  1.
</event>
<event>
 5   0  0.5625245E-06  0.2797966E+04  0.7818609E-02  0.8303900E-01
       -2   -1    0    0    0  501  0.00000000000E+00  0.00000000000E+00  0.12267521092E+04  0.12267521092E+04  0.25500000920E-02 0.  1.
        2   -1    0    0  501    0  0.00000000000E+00  0.00000000000E+00 -0.15953947628E+04  0.15953947628E+04  0.25500000920E-02 0. -1.
    10030    2    1    2    0    0  0.00000000000E+00  0.00000000000E+00 -0.36864265368E+03  0.28221468720E+04  0.27979663259E+04 0.  0.
        3    1    3    3  502    0  0.13136804992E+04 -0.38996897780E+03  0.99753612408E+02  0.13739661754E+04  0.10100000352E+00 0.  1.
       -3    1    3    3    0  502 -0.13136804992E+04  0.38996897780E+03 -0.46839626609E+03  0.14481806966E+04  0.10100000352E+00 0. -1.
</event>
<event>
 5   0  0.2190865E-06  0.2825273E+04  0.7818609E-02  0.8295465E-01
       -1   -1    0    0    0  501  0.00000000000E+00  0.00000000000E+00  0.14667931253E+04  0.14667931253E+04  0.50400001928E-02 0. -1.
        1   -1    0    0  501    0  0.00000000000E+00  0.00000000000E+00 -0.13604790471E+04  0.13604790471E+04  0.50400001928E-02 0.  1.
    10030    2    1    2    0    0  0.00000000000E+00  0.00000000000E+00  0.10631407821E+03  0.28272721725E+04  0.28252725982E+04 0.  0.
        2    1    3    3  502    0  0.27377552764E+03  0.53053533940E+03 -0.12280304996E+04  0.13654595175E+04  0.25500000920E-02 0.  1.
       -2    1    3    3    0  502 -0.27377552764E+03 -0.53053533940E+03  0.13343445778E+04  0.14618126550E+04  0.25500000920E-02 0. -1.
</event>
<event>
 5   0  0.2234068E-06  0.2806388E+04  0.7818609E-02  0.8301288E-01
        1   -1    0    0  501    0  0.00000000000E+00  0.00000000000E+00  0.20677292758E+04  0.20677292758E+04  0.50400001928E-02 0.  1.
       -1   -1    0    0    0  501  0.00000000000E+00  0.00000000000E+00 -0.95222947011E+03  0.95222947013E+03  0.50400001928E-02 0. -1.
    10030    2    1    2    0    0  0.00000000000E+00  0.00000000000E+00  0.11154998057E+04  0.30199587459E+04  0.28063875375E+04 0.  0.
        3    1    3    3  502    0  0.12955546122E+04  0.23564006513E+03  0.10793704891E+04  0.17026534164E+04  0.10100000352E+00 0.  1.
       -3    1    3    3    0  502 -0.12955546122E+04 -0.23564006513E+03  0.36129316530E+02  0.13173053295E+04  0.10100000352E+00 0. -1.
</event>
<event>
 5   0  0.2190865E-06  0.2812483E+04  0.7818609E-02  0.8299403E-01
       -1   -1    0    0    0  501  0.00000000000E+00  0.00000000000E+00  0.13374713900E+04  0.13374713901E+04  0.50400001928E-02 0.  1.
        1   -1    0    0  501    0  0.00000000000E+00  0.00000000000E+00 -0.14785472247E+04  0.14785472248E+04  0.50400001928E-02 0. -1.
    10030    2    1    2    0    0  0.00000000000E+00  0.00000000000E+00 -0.14107583470E+03  0.28160186148E+04  0.28124826129E+04 0.  0.
        2    1    3    3  502    0 -0.46669943341E+03 -0.12017756469E+04 -0.63288587320E+03  0.14361816024E+04  0.25500000920E-02 0.  1.
       -2    1    3    3    0  502  0.46669943341E+03  0.12017756469E+04  0.49181003850E+03  0.13798370124E+04  0.25500000920E-02 0. -1.
</event>
<event>
 5   0  0.2277133E-06  0.2792098E+04  0.7818609E-02  0.8305726E-01
        1   -1    0    0  501    0  0.00000000000E+00  0.00000000000E+00  0.83215763072E+03  0.83215763074E+03  0.50400001928E-02 0.  1.
       -1   -1    0    0    0  501  0.00000000000E+00  0.00000000000E+00 -0.23420475460E+04  0.23420475460E+04  0.50400001928E-02 0. -1.
    10030    2    1    2    0    0  0.00000000000E+00  0.00000000000E+00 -0.15098899153E+04  0.31742051768E+04  0.27920979474E+04 0.  0.
        1    1    3    3  502    0  0.11705799400E+04 -0.75615622743E+03 -0.84953701442E+03  0.16320976611E+04  0.50400001928E-02 0.  1.
       -1    1    3    3    0  502 -0.11705799400E+04  0.75615622743E+03 -0.66035290089E+03  0.15421075157E+04  0.50400001928E-02 0. -1.
</event>
<event>
 5   0  0.5584205E-06  0.2820111E+04  0.7818609E-02  0.8297052E-01
        2   -1    0    0  501    0  0.00000000000E+00  0.00000000000E+00  0.12608795059E+04  0.12608795059E+04  0.25500000920E-02 0. -1.
       -2   -1    0    0    0  501  0.00000000000E+00  0.00000000000E+00 -0.15768803385E+04  0.15768803385E+04  0.25500000920E-02 0.  1.
    10030    2    1    2    0    0  0.00000000000E+00  0.00000000000E+00 -0.31600083265E+03  0.28377598444E+04  0.28201107085E+04 0.  0.
        1    1    3    3  502    0  0.36986882297E+03 -0.16179218504E+03  0.12014826610E+04  0.12674936852E+04  0.50400001928E-02 0. -1.
       -1    1    3    3    0  502 -0.36986882297E+03  0.16179218504E+03 -0.15174834936E+04  0.15702661592E+04  0.50400001928E-02 0.  1.
</event>
<event>
 5   0  0.2234068E-06  0.2812044E+04  0.7818609E-02  0.8299539E-01
        1   -1    0    0  501    0  0.00000000000E+00  0.00000000000E+00  0.15765694423E+04  0.15765694423E+04  0.50400001928E-02 0. -1.
       -1   -1    0    0    0  501  0.00000000000E+00  0.00000000000E+00 -0.12539238438E+04  0.12539238438E+04  0.50400001928E-02 0.  1.
    10030    2    1    2    0    0  0.00000000000E+00  0.00000000000E+00  0.32264559844E+03  0.28304932861E+04  0.28120441071E+04 0.  0.
        3    1    3    3  502    0  0.11184025759E+04  0.75810735347E+03  0.55290847752E+03  0.14598831720E+04  0.10100000352E+00 0. -1.
       -3    1    3    3    0  502 -0.11184025759E+04 -0.75810735347E+03 -0.23026287908E+03  0.13706101141E+04  0.10100000352E+00 0.  1.
</event>
<event>
 5   0  0.5916603E-06  0.2808009E+04  0.7818609E-02  0.8300786E-01
       -2   -1    0    0    0  501  0.00000000000E+00  0.00000000000E+00  0.84710241235E+03  0.84710241235E+03  0.25500000920E-02 0. -1.
        2   -1    0    0  501    0  0.00000000000E+00  0.00000000000E+00 -0.23270255739E+04  0.23270255739E+04  0.25500000920E-02 0.  1.
    10030    2    1    2    0    0  0.00000000000E+00  0.00000000000E+00 -0.14799231616E+04  0.31741279863E+04  0.28080092431E+04 0.  0.
        2    1    3    3  502    0  0.61271783139E+02 -0.17311812070E+03 -0.23133911291E+04  0.23206685742E+04  0.25500000920E-02 0.  1.
       -2    1    3    3    0  502 -0.61271783139E+02  0.17311812070E+03  0.83346796753E+03  0.85345941206E+03  0.25500000920E-02 0. -1.
</event>
<event>
 5   0  0.2206967E-06  0.2800300E+04  0.7818609E-02  0.8303175E-01
        1   -1    0    0  501    0  0.00000000000E+00  0.00000000000E+00  0.11308402554E+04  0.11308402554E+04  0.50400001928E-02 0. -1.
       -1   -1    0    0    0  501  0.00000000000E+00  0.00000000000E+00 -0.17335959558E+04  0.17335959558E+04  0.50400001928E-02 0.  1.
    10030    2    1    2    0    0  0.00000000000E+00  0.00000000000E+00 -0.60275570038E+03  0.28644362112E+04  0.28003000506E+04 0.  0.
        5    1    3    3  502    0  0.21160369462E+03  0.12832042543E+04 -0.83191740329E+03  0.15438581340E+04  0.46999998093E+01 0.  1.
       -5    1    3    3    0  502 -0.21160369462E+03 -0.12832042543E+04  0.22916170291E+03  0.13205780772E+04  0.46999998093E+01 0. -1.
</event>
<event>
 5   0  0.5546570E-06  0.2787251E+04  0.7818609E-02  0.8307237E-01
       -2   -1    0    0    0  501  0.00000000000E+00  0.00000000000E+00  0.11886418194E+04  0.11886418194E+04  0.25500000920E-02 0.  1.
        2   -1    0    0  501    0  0.00000000000E+00  0.00000000000E+00 -0.16339585516E+04  0.16339585516E+04  0.25500000920E-02 0. -1.
    10030    2    1    2    0    0  0.00000000000E+00  0.00000000000E+00 -0.44531673224E+03  0.28226003710E+04  0.27872505919E+04 0.  0.
        4    1    3    3  502    0  0.10659864400E+04 -0.84104239911E+03  0.95186000882E+02  0.13611544347E+04  0.12699999809E+01 0.  1.
       -4    1    3    3    0  502 -0.10659864400E+04  0.84104239911E+03 -0.54050273312E+03  0.14614459363E+04  0.12699999809E+01 0. -1.
</event>
<event>
 5   0  0.5584205E-06  0.2814042E+04  0.7818609E-02  0.8298922E-01
        2   -1    0    0  501    0  0.00000000000E+00  0.00000000000E+00  0.24611433717E+04  0.24611433717E+04  0.25500000920E-02 0.  1.
       -2   -1    0    0    0  501  0.00000000000E+00  0.00000000000E+00 -0.80438533461E+03  0.80438533461E+03  0.25500000920E-02 0. -1.
    10030    2    1    2    0    0  0.00000000000E+00  0.00000000000E+00  0.16567580371E+04  0.32655287063E+04  0.28140416732E+04 0.  0.
        1    1    3    3  502    0  0.25433996107E+03 -0.72787086887E+03  0.21941654678E+04  0.23256927823E+04  0.50400001928E-02 0.  1.
       -1    1    3    3    0  502 -0.25433996107E+03  0.72787086887E+03 -0.53740743068E+03  0.93983592404E+03  0.50400001928E-02 0. -1.
</event>
<event>
 5   0  0.5584205E-06  0.2808359E+04  0.7818609E-02  0.8300678E-01
       -2   -1    0    0    0  501  0.00000000000E+00  0.00000000000E+00  0.95230797267E+03  0.95230797267E+03  0.25500000920E-02 0.  1.
        2   -1    0    0  501    0  0.00000000000E+00  0.00000000000E+00 -0.20704640068E+04  0.20704640068E+04  0.25500000920E-02 0. -1.
    10030    2    1    2    0    0  0.00000000000E+00  0.00000000000E+00 -0.11181560341E+04  0.30227719795E+04  0.28083585104E+04 0.  0.
        1    1    3    3  502    0 -0.38638668159E+03  0.13425249461E+04 -0.40666358971E+03  0.14550062453E+04  0.50400001928E-02 0.  1.
       -1    1    3    3    0  502  0.38638668159E+03 -0.13425249461E+04 -0.71149244442E+03  0.15677657342E+04  0.50400001928E-02 0. -1.
</event>
<event>
 5   0  0.2267565E-06  0.2816219E+04  0.7818609E-02  0.8298251E-01
        1   -1    0    0  501    0  0.00000000000E+00  0.00000000000E+00  0.13889479361E+04  0.13889479361E+04  0.50400001928E-02 0.  1.
       -1   -1    0    0    0  501  0.00000000000E+00  0.00000000000E+00 -0.14275356359E+04  0.14275356359E+04  0.50400001928E-02 0. -1.
    10030    2    1    2    0    0  0.00000000000E+00  0.00000000000E+00 -0.38587699762E+02  0.28164835720E+04  0.28162192210E+04 0.  0.
        4    1    3    3  502    0 -0.70859551525E+00  0.13110199613E+04  0.49456097882E+03  0.14012016328E+04  0.12699999809E+01 0.  1.
       -4    1    3    3    0  502  0.70859551525E+00 -0.13110199613E+04 -0.53314867858E+03  0.14152819392E+04  0.12699999809E+01 0. -1.
</event>
<event>
 5   0  0.5546570E-06  0.2791045E+04  0.7818609E-02  0.8306054E-01
        2   -1    0    0  501    0  0.00000000000E+00  0.00000000000E+00  0.15571080536E+04  0.15571080536E+04  0.25500000920E-02 0.  1.
       -2   -1    0    0    0  501  0.00000000000E+00  0.00000000000E+00 -0.12507053560E+04  0.12507053560E+04  0.25500000920E-02 0. -1.
    10030    2    1    2    0    0  0.00000000000E+00  0.00000000000E+00  0.30640269758E+03  0.28078134095E+04  0.27910452396E+04 0.  0.
        4    1    3    3  502    0 -0.50723396716E+03 -0.13511006017E+02 -0.11546138519E+04  0.12611913434E+04  0.12699999809E+01 0. -1.
       -4    1    3    3    0  502  0.50723396716E+03  0.13511006017E+02  0.14610165495E+04  0.15466220661E+04  0.12699999809E+01 0.  1.
</event>
<event>
 5   0  0.5546570E-06  0.2867944E+04  0.7818609E-02  0.8282479E-01
       -2   -1    0    0    0  501  0.00000000000E+00  0.00000000000E+00  0.14676980073E+04  0.14676980073E+04  0.25500000920E-02 0.  1.
        2   -1    0    0  501    0  0.00000000000E+00  0.00000000000E+00 -0.14010211552E+04  0.14010211552E+04  0.25500000920E-02 0. -1.
    10030    2    1    2    0    0  0.00000000000E+00  0.00000000000E+00  0.66676852101E+02  0.28687191625E+04  0.28679441819E+04 0.  0.
        4    1    3    3  502    0 -0.62477814081E+03 -0.47115276362E+03  0.12353043852E+04  0.14622965461E+04  0.12699999809E+01 0.  1.
       -4    1    3    3    0  502  0.62477814081E+03  0.47115276362E+03 -0.11686275331E+04  0.14064226164E+04  0.12699999809E+01 0. -1.
</event>
<event>
 5   0  0.2190865E-06  0.2754600E+04  0.7818609E-02  0.8317503E-01
        1   -1    0    0  501    0  0.00000000000E+00  0.00000000000E+00  0.17977192136E+04  0.17977192136E+04  0.50400001928E-02 0. -1.
       -1   -1    0    0    0  501  0.00000000000E+00  0.00000000000E+00 -0.10552010300E+04  0.10552010300E+04  0.50400001928E-02 0.  1.
    10030    2    1    2    0    0  0.00000000000E+00  0.00000000000E+00  0.74251818360E+03  0.28529202436E+04  0.27545999099E+04 0.  0.
        2    1    3    3  502    0 -0.59922639495E+03 -0.93593903459E+03  0.12138710649E+04  0.16457633824E+04  0.25500000920E-02 0. -1.
       -2    1    3    3    0  502  0.59922639495E+03  0.93593903459E+03 -0.47135288126E+03  0.12071568612E+04  0.25500000920E-02 0.  1.
</event>
<event>
 5   0  0.5584205E-06  0.2801306E+04  0.7818609E-02  0.8302863E-01
       -2   -1    0    0    0  501  0.00000000000E+00  0.00000000000E+00  0.10355903553E+04  0.10355903553E+04  0.25500000920E-02 0.  1.
        2   -1    0    0  501    0  0.00000000000E+00  0.00000000000E+00 -0.18944060696E+04  0.18944060696E+04  0.25500000920E-02 0. -1.
    10030    2    1    2    0    0  0.00000000000E+00  0.00000000000E+00 -0.85881571437E+03  0.29299964249E+04  0.28013058774E+04 0.  0.
        1    1    3    3  502    0  0.14098817978E+03 -0.58413539852E+03 -0.17527328836E+04  0.18528800263E+04  0.50400001928E-02 0. -1.
       -1    1    3    3    0  502 -0.14098817978E+03  0.58413539852E+03  0.89391716921E+03  0.10771163986E+04  0.50400001928E-02 0.  1.
</event>
<event>
 5   0  0.2206967E-06  0.2760305E+04  0.7818609E-02  0.8315699E-01
        1   -1    0    0  501    0  0.00000000000E+00  0.00000000000E+00  0.21601950661E+04  0.21601950661E+04  0.50400001928E-02 0. -1.
       -1   -1    0    0    0  501  0.00000000000E+00  0.00000000000E+00 -0.88178207590E+03  0.88178207591E+03  0.50400001928E-02 0.  1.
    10030    2    1    2    0    0  0.00000000000E+00  0.00000000000E+00  0.12784129902E+04  0.30419771420E+04  0.27603052655E+04 0.  0.
        5    1    3    3  502    0  0.32734775996E+02  0.50688300751E+03  0.20534327615E+04  0.21153274321E+04  0.46999998093E+01 0. -1.
       -5    1    3    3    0  502 -0.32734775996E+02 -0.50688300751E+03 -0.77501977135E+03  0.92664970990E+03  0.46999998093E+01 0.  1.
</event>
<event>
 5   0  0.2206967E-06  0.2804557E+04  0.7818609E-02  0.8301855E-01
        1   -1    0    0  501    0  0.00000000000E+00  0.00000000000E+00  0.25279675170E+04  0.25279675170E+04  0.50400001928E-02 0. -1.
       -1   -1    0    0    0  501  0.00000000000E+00  0.00000000000E+00 -0.77785198898E+03  0.77785198900E+03  0.50400001928E-02 0.  1.
    10030    2    1    2    0    0  0.00000000000E+00  0.00000000000E+00  0.17501155280E+04  0.33058195060E+04  0.28045566931E+04 0.  0.
        5    1    3    3  502    0  0.56961620362E+03  0.11279609935E+04  0.15916682469E+04  0.20322865252E+04  0.46999998093E+01 0. -1.
       -5    1    3    3    0  502 -0.56961620362E+03 -0.11279609935E+04  0.15844728116E+03  0.12735329808E+04  0.46999998093E+01 0.  1.
</event>
<event>
 5   0  0.2206967E-06  0.2791986E+04  0.7818609E-02  0.8305761E-01
        1   -1    0    0  501    0  0.00000000000E+00  0.00000000000E+00  0.21148194154E+04  0.21148194154E+04  0.50400001928E-02 0. -1.
       -1   -1    0    0    0  501  0.00000000000E+00  0.00000000000E+00 -0.92149547851E+03  0.92149547852E+03  0.50400001928E-02 0.  1.
    10030    2    1    2    0    0  0.00000000000E+00  0.00000000000E+00  0.11933239369E+04  0.30363148939E+04  0.27919860524E+04 0.  0.
        5    1    3    3  502    0  0.11702078131E+04 -0.20801990250E+03  0.13929366047E+04  0.18311070642E+04  0.46999998093E+01 0. -1.
       -5    1    3    3    0  502 -0.11702078131E+04  0.20801990250E+03 -0.19961266778E+03  0.12052078298E+04  0.46999998093E+01 0.  1.
</event>
<event>
 5   0  0.2190865E-06  0.2745229E+04  0.7818609E-02  0.8320477E-01
       -1   -1    0    0    0  501  0.00000000000E+00  0.00000000000E+00  0.11196577320E+04  0.11196577320E+04  0.50400001928E-02 0.  1.
        1   -1    0    0  501    0  0.00000000000E+00  0.00000000000E+00 -0.16827198719E+04  0.16827198719E+04  0.50400001928E-02 0. -1.
    10030    2    1    2    0    0  0.00000000000E+00  0.00000000000E+00 -0.56306213990E+03  0.28023776039E+04  0.27452288177E+04 0.  0.
        2    1    3    3  502    0  0.76128818117E+03  0.40835471203E+03  0.80733100576E+03  0.11824113576E+04  0.25500000920E-02 0.  1.
       -2    1    3    3    0  502 -0.76128818117E+03 -0.40835471203E+03 -0.13703931457E+04  0.16199662463E+04  0.25500000920E-02 0. -1.
</event>
<event>
 5   0  0.5625245E-06  0.2811056E+04  0.7818609E-02  0.8299844E-01
        2   -1    0    0  501    0  0.00000000000E+00  0.00000000000E+00  0.19725324322E+04  0.19725324322E+04  0.25500000920E-02 0.  1.
       -2   -1    0    0    0  501  0.00000000000E+00  0.00000000000E+00 -0.10015088948E+04  0.10015088948E+04  0.25500000920E-02 0. -1.
    10030    2    1    2    0    0  0.00000000000E+00  0.00000000000E+00  0.97102353742E+03  0.29740413270E+04  0.28110558701E+04 0.  0.
        3    1    3    3  502    0 -0.39244958936E+03 -0.47143851326E+03 -0.85242024904E+03  0.10501862897E+04  0.10100000352E+00 0. -1.
       -3    1    3    3    0  502  0.39244958936E+03  0.47143851326E+03  0.18234437865E+04  0.19238550373E+04  0.10100000352E+00 0.  1.
</event>
<event>
 5   0  0.5866136E-06  0.2829384E+04  0.7818609E-02  0.8294203E-01
       -2   -1    0    0    0  501  0.00000000000E+00  0.00000000000E+00  0.12488193508E+04  0.12488193508E+04  0.25500000920E-02 0.  1.
        2   -1    0    0  501    0  0.00000000000E+00  0.00000000000E+00 -0.16025968050E+04  0.16025968050E+04  0.25500000920E-02 0. -1.
    10030    2    1    2    0    0  0.00000000000E+00  0.00000000000E+00 -0.35377745415E+03  0.28514161558E+04  0.28293843158E+04 0.  0.
        5    1    3    3  502    0  0.99410949556E+03  0.20703787115E+03 -0.11695528092E+04  0.15488686944E+04  0.46999998093E+01 0. -1.
       -5    1    3    3    0  502 -0.99410949556E+03 -0.20703787115E+03  0.81577535500E+03  0.13025474614E+04  0.46999998093E+01 0.  1.
</event>
<event>
 5   0  0.5916603E-06  0.2805390E+04  0.7818609E-02  0.8301597E-01
        2   -1    0    0  501    0  0.00000000000E+00  0.00000000000E+00  0.20988239260E+04  0.20988239260E+04  0.25500000920E-02 0.  1.
       -2   -1    0    0    0  501  0.00000000000E+00  0.00000000000E+00 -0.93745538150E+03  0.93745538150E+03  0.25500000920E-02 0. -1.
    10030    2    1    2    0    0  0.00000000000E+00  0.00000000000E+00  0.11613685445E+04  0.30362793075E+04  0.28053903716E+04 0.  0.
        2    1    3    3  502    0  0.13321499159E+04 -0.43457365578E+03  0.51158522026E+03  0.14917094550E+04  0.25500000920E-02 0. -1.
       -2    1    3    3    0  502 -0.13321499159E+04  0.43457365578E+03  0.64978332427E+03  0.15445698525E+04  0.25500000920E-02 0.  1.
</event>
<event>
 5   0  0.2267565E-06  0.2798139E+04  0.7818609E-02  0.8303846E-01
        1   -1    0    0  501    0  0.00000000000E+00  0.00000000000E+00  0.14204366541E+04  0.14204366541E+04  0.50400001928E-02 0. -1.
       -1   -1    0    0    0  501  0.00000000000E+00  0.00000000000E+00 -0.13780233318E+04  0.13780233318E+04  0.50400001928E-02 0.  1.
    10030    2    1    2    0    0  0.00000000000E+00  0.00000000000E+00  0.42413322326E+02  0.27984599859E+04  0.27981385604E+04 0.  0.
        4    1    3    3  502    0 -0.23600967088E+02  0.91506471479E+03 -0.10369757474E+04  0.13831922323E+04  0.12699999809E+01 0.  1.
       -4    1    3    3    0  502  0.23600967088E+02 -0.91506471479E+03  0.10793890697E+04  0.14152677537E+04  0.12699999809E+01 0. -1.
</event>
<event>
 5   0  0.5584205E-06  0.3090997E+04  0.7818609E-02  0.8218213E-01
       -2   -1    0    0    0  501  0.00000000000E+00  0.00000000000E+00  0.78960782245E+03  0.78960782245E+03  0.25500000920E-02 0. -1.
        2   -1    0    0  501    0  0.00000000000E+00  0.00000000000E+00 -0.30250020586E+04  0.30250020586E+04  0.25500000920E-02 0.  1.
    10030    2    1    2    0    0  0.00000000000E+00  0.00000000000E+00 -0.22353942362E+04  0.38146098811E+04  0.30909967897E+04 0.  0.
        1    1    3    3  502    0 -0.68771456030E+03 -0.88228442566E+03 -0.24337330313E+04  0.26785133175E+04  0.50400001928E-02 0.  1.
       -1    1    3    3    0  502  0.68771456030E+03  0.88228442566E+03  0.19833879511E+03  0.11360965636E+04  0.50400001928E-02 0. -1.
</event>
<event>
 5   0  0.2190865E-06  0.2807162E+04  0.7818609E-02  0.8301048E-01
        1   -1    0    0  501    0  0.00000000000E+00  0.00000000000E+00  0.25010504965E+04  0.25010504965E+04  0.50400001928E-02 0. -1.
       -1   -1    0    0    0  501  0.00000000000E+00  0.00000000000E+00 -0.78768489447E+03  0.78768489449E+03  0.50400001928E-02 0.  1.
    10030    2    1    2    0    0  0.00000000000E+00  0.00000000000E+00  0.17133656020E+04  0.32887353910E+04  0.28071620519E+04 0.  0.
        2    1    3    3  502    0  0.85675996529E+03  0.10656945882E+04  0.12277099097E+04  0.18376654254E+04  0.25500000920E-02 0. -1.
       -2    1    3    3    0  502 -0.85675996529E+03 -0.10656945882E+04  0.48565569231E+03  0.14510699656E+04  0.25500000920E-02 0.  1.
</event>
<event>
 5   0  0.2277133E-06  0.2720238E+04  0.7818609E-02  0.8328468E-01
       -1   -1    0    0    0  501  0.00000000000E+00  0.00000000000E+00  0.92041417912E+03  0.92041417914E+03  0.50400001928E-02 0. -1.
        1   -1    0    0  501    0  0.00000000000E+00  0.00000000000E+00 -0.20098819196E+04  0.20098819196E+04  0.50400001928E-02 0.  1.
    10030    2    1    2    0    0  0.00000000000E+00  0.00000000000E+00 -0.10894677405E+04  0.29302960987E+04  0.27202380905E+04 0.  0.
        1    1    3    3  502    0 -0.48696788686E+03  0.12310984688E+04 -0.20891973862E+03  0.13402942288E+04  0.50400001928E-02 0. -1.
       -1    1    3    3    0  502  0.48696788686E+03 -0.12310984688E+04 -0.88054800186E+03  0.15900018699E+04  0.50400001928E-02 0.  1.
</event>
<event>
 5   0  0.2234068E-06  0.2787620E+04  0.7818609E-02  0.8307122E-01
       -1   -1    0    0    0  501  0.00000000000E+00  0.00000000000E+00  0.12529296262E+04  0.12529296262E+04  0.50400001928E-02 0. -1.
        1   -1    0    0  501    0  0.00000000000E+00  0.00000000000E+00 -0.15505306963E+04  0.15505306963E+04  0.50400001928E-02 0.  1.
    10030    2    1    2    0    0  0.00000000000E+00  0.00000000000E+00 -0.29760107017E+03  0.28034603225E+04  0.27876196625E+04 0.  0.
        3    1    3    3  502    0 -0.11799171152E+04  0.23741220044E+03  0.55814268027E+03  0.13266846699E+04  0.10100000352E+00 0. -1.
       -3    1    3    3    0  502  0.11799171152E+04 -0.23741220044E+03 -0.85574375044E+03  0.14767756526E+04  0.10100000352E+00 0.  1.
</event>
<event>
 5   0  0.2190865E-06  0.2599523E+04  0.7818609E-02  0.8368363E-01
       -1   -1    0    0    0  501  0.00000000000E+00  0.00000000000E+00  0.13932096659E+04  0.13932096659E+04  0.50400001928E-02 0. -1.
        1   -1    0    0  501    0  0.00000000000E+00  0.00000000000E+00 -0.12125816247E+04  0.12125816247E+04  0.50400001928E-02 0.  1.
    10030    2    1    2    0    0  0.00000000000E+00  0.00000000000E+00  0.18062804115E+03  0.26057912906E+04  0.25995233719E+04 0.  0.
        2    1    3    3  502    0  0.71017955312E+03  0.76583684144E+03 -0.68519170500E+03  0.12491391988E+04  0.25500000920E-02 0.  1.
       -2    1    3    3    0  502 -0.71017955312E+03 -0.76583684144E+03  0.86581974615E+03  0.13566520918E+04  0.25500000920E-02 0. -1.
</event>
<event>
 5   0  0.2234068E-06  0.2811622E+04  0.7818609E-02  0.8299669E-01
       -1   -1    0    0    0  501  0.00000000000E+00  0.00000000000E+00  0.13701858373E+04  0.13701858373E+04  0.50400001928E-02 0. -1.
        1   -1    0    0  501    0  0.00000000000E+00  0.00000000000E+00 -0.14423629316E+04  0.14423629316E+04  0.50400001928E-02 0.  1.
    10030    2    1    2    0    0  0.00000000000E+00  0.00000000000E+00 -0.72177094342E+02  0.28125487689E+04  0.28116224933E+04 0.  0.
        3    1    3    3  502    0  0.36833093853E+03  0.49002565226E+03  0.12294418424E+04  0.13737976831E+04  0.10100000352E+00 0. -1.
       -3    1    3    3    0  502 -0.36833093853E+03 -0.49002565226E+03 -0.13016189367E+04  0.14387510858E+04  0.10100000352E+00 0.  1.
</event>
<event>
 5   0  0.2277133E-06  0.2784791E+04  0.7818609E-02  0.8308006E-01
       -1   -1    0    0    0  501  0.00000000000E+00  0.00000000000E+00  0.20910065668E+04  0.20910065668E+04  0.50400001928E-02 0.  1.
        1   -1    0    0  501    0  0.00000000000E+00  0.00000000000E+00 -0.92719248681E+03  0.92719248682E+03  0.50400001928E-02 0. -1.
    10030    2    1    2    0    0  0.00000000000E+00  0.00000000000E+00  0.11638140800E+04  0.30181990536E+04  0.27847912515E+04 0.  0.
        1    1    3    3  502    0 -0.70436537629E+03  0.27899378609E+03 -0.68425513641E+03  0.10208688494E+04  0.50400001928E-02 0. -1.
       -1    1    3    3    0  502  0.70436537629E+03 -0.27899378609E+03  0.18480692164E+04  0.19973302042E+04  0.50400001928E-02 0.  1.
</event>
<event>
 5   0  0.2190865E-06  0.2768244E+04  0.7818609E-02  0.8313196E-01
        1   -1    0    0  501    0  0.00000000000E+00  0.00000000000E+00  0.14983002804E+04  0.14983002804E+04  0.50400001928E-02 0.  1.
       -1   -1    0    0    0  501  0.00000000000E+00  0.00000000000E+00 -0.12786451282E+04  0.12786451283E+04  0.50400001928E-02 0. -1.
    10030    2    1    2    0    0  0.00000000000E+00  0.00000000000E+00  0.21965515218E+03  0.27769454087E+04  0.27682444648E+04 0.  0.
        2    1    3    3  502    0  0.11548515481E+04 -0.54406743295E+03 -0.42673949918E+03  0.13460304863E+04  0.25500000920E-02 0. -1.
       -2    1    3    3    0  502 -0.11548515481E+04  0.54406743295E+03  0.64639465136E+03  0.14309149224E+04  0.25500000920E-02 0.  1.
</event>
<event>
 5   0  0.5916603E-06  0.2813181E+04  0.7818609E-02  0.8299188E-01
       -2   -1    0    0    0  501  0.00000000000E+00  0.00000000000E+00  0.12249444058E+04  0.12249444058E+04  0.25500000920E-02 0. -1.
        2   -1    0    0  501    0  0.00000000000E+00  0.00000000000E+00 -0.16151730756E+04  0.16151730756E+04  0.25500000920E-02 0.  1.
    10030    2    1    2    0    0  0.00000000000E+00  0.00000000000E+00 -0.39022866974E+03  0.28401174814E+04  0.28131812764E+04 0.  0.
        2    1    3    3  502    0 -0.11964901084E+04  0.10422304786E+02 -0.94165393105E+03  0.15226323685E+04  0.25500000920E-02 0.  1.
       -2    1    3    3    0  502  0.11964901084E+04 -0.10422304786E+02  0.55142526131E+03  0.13174851129E+04  0.25500000920E-02 0. -1.
</event>
<event>
 5   0  0.2190865E-06  0.2803324E+04  0.7818609E-02  0.8302237E-01
        1   -1    0    0  501    0  0.00000000000E+00  0.00000000000E+00  0.10304679433E+04  0.10304679433E+04  0.50400001928E-02 0.  1.
       -1   -1    0    0    0  501  0.00000000000E+00  0.00000000000E+00 -0.19065669534E+04  0.19065669534E+04  0.50400001928E-02 0. -1.
    10030    2    1    2    0    0  0.00000000000E+00  0.00000000000E+00 -0.87609901016E+03  0.29370348967E+04  0.28033238324E+04 0.  0.
        2    1    3    3  502    0 -0.78354717666E+03  0.46025214603E+03  0.68003446849E+03  0.11350000415E+04  0.25500000920E-02 0.  1.
       -2    1    3    3    0  502  0.78354717666E+03 -0.46025214603E+03 -0.15561334786E+04  0.18020348552E+04  0.25500000920E-02 0. -1.
</event>
<event>
 5   0  0.2206967E-06  0.2811612E+04  0.7818609E-02  0.8299672E-01
        1   -1    0    0  501    0  0.00000000000E+00  0.00000000000E+00  0.19520699528E+04  0.19520699528E+04  0.50400001928E-02 0.  1.
       -1   -1    0    0    0  501  0.00000000000E+00  0.00000000000E+00 -0.10124076245E+04  0.10124076245E+04  0.50400001928E-02 0. -1.
    10030    2    1    2    0    0  0.00000000000E+00  0.00000000000E+00  0.93966232828E+03  0.29644775774E+04  0.28116119959E+04 0.  0.
        5    1    3    3  502    0  0.10555015351E+03 -0.10197650918E+04  0.14840044702E+04  0.18037053625E+04  0.46999998093E+01 0.  1.
       -5    1    3    3    0  502 -0.10555015351E+03  0.10197650918E+04 -0.54434214189E+03  0.11607722148E+04  0.46999998093E+01 0. -1.
</event>
<event>
 5   0  0.5625245E-06  0.2809772E+04  0.7818609E-02  0.8300241E-01
       -2   -1    0    0    0  501  0.00000000000E+00  0.00000000000E+00  0.15001821959E+04  0.15001821959E+04  0.25500000920E-02 0. -1.
        2   -1    0    0  501    0  0.00000000000E+00  0.00000000000E+00 -0.13156433160E+04  0.13156433160E+04  0.25500000920E-02 0.  1.
    10030    2    1    2    0    0  0.00000000000E+00  0.00000000000E+00  0.18453887989E+03  0.28158255119E+04  0.28097720041E+04 0.  0.
        3    1    3    3  502    0 -0.13008423294E+04  0.24998135700E+03 -0.37673801069E+03  0.13771757272E+04  0.10100000352E+00 0. -1.
       -3    1    3    3    0  502  0.13008423294E+04 -0.24998135700E+03  0.56127689058E+03  0.14386497847E+04  0.10100000352E+00 0.  1.
</event>
<event>
 5   0  0.5625245E-06  0.2815328E+04  0.7818609E-02  0.8298525E-01
        2   -1    0    0  501    0  0.00000000000E+00  0.00000000000E+00  0.14397328388E+04  0.14397328388E+04  0.25500000920E-02 0. -1.
       -2   -1    0    0    0  501  0.00000000000E+00  0.00000000000E+00 -0.13763097712E+04  0.13763097712E+04  0.25500000920E-02 0.  1.
    10030    2    1    2    0    0  0.00000000000E+00  0.00000000000E+00  0.63423067679E+02  0.28160426100E+04  0.28153283105E+04 0.  0.
        3    1    3    3  502    0 -0.69582751614E+03  0.76361952155E+03 -0.92468358783E+03  0.13864813211E+04  0.10100000352E+00 0.  1.
       -3    1    3    3    0  502  0.69582751614E+03 -0.76361952155E+03  0.98810665551E+03  0.14295612889E+04  0.10100000352E+00 0. -1.
</event>
<event>
 5   0  0.5546570E-06  0.2789212E+04  0.7818609E-02  0.8306626E-01
       -2   -1    0    0    0  501  0.00000000000E+00  0.00000000000E+00  0.81410447670E+03  0.81410447671E+03  0.25500000920E-02 0. -1.
        2   -1    0    0  501    0  0.00000000000E+00  0.00000000000E+00 -0.23890365775E+04  0.23890365775E+04  0.25500000920E-02 0.  1.
    10030    2    1    2    0    0  0.00000000000E+00  0.00000000000E+00 -0.15749321008E+04  0.32031410542E+04  0.27892116253E+04 0.  0.
        4    1    3    3  502    0 -0.53699499339E+03 -0.67949896295E+03 -0.20427723528E+04  0.22187841179E+04  0.12699999809E+01 0.  1.
       -4    1    3    3    0  502  0.53699499339E+03  0.67949896295E+03  0.46784025207E+03  0.98435693624E+03  0.12699999809E+01 0. -1.
</event>
<event>
 5   0  0.5625245E-06  0.2784935E+04  0.7818609E-02  0.8307961E-01
        2   -1    0    0  501    0  0.00000000000E+00  0.00000000000E+00  0.12813207818E+04  0.12813207818E+04  0.25500000920E-02 0. -1.
       -2   -1    0    0    0  501  0.00000000000E+00  0.00000000000E+00 -0.15132550672E+04  0.15132550672E+04  0.25500000920E-02 0.  1.
    10030    2    1    2    0    0  0.00000000000E+00  0.00000000000E+00 -0.23193428546E+03  0.27945758490E+04  0.27849345887E+04 0.  0.
        3    1    3    3  502    0 -0.10921812575E+04 -0.85620871204E+03 -0.23043175007E+03  0.14067878516E+04  0.10100000352E+00 0. -1.
       -3    1    3    3    0  502  0.10921812575E+04  0.85620871204E+03 -0.15025353894E+01  0.13877879974E+04  0.10100000352E+00 0.  1.
</event>
<event>
 5   0  0.5584205E-06  0.2754924E+04  0.7818609E-02  0.8317401E-01
       -2   -1    0    0    0  501  0.00000000000E+00  0.00000000000E+00  0.15139175438E+04  0.15139175438E+04  0.25500000920E-02 0.  1.
        2   -1    0    0  501    0  0.00000000000E+00  0.00000000000E+00 -0.12533054538E+04  0.12533054538E+04  0.25500000920E-02 0. -1.
    10030    2    1    2    0    0  0.00000000000E+00  0.00000000000E+00  0.26061209002E+03  0.27672229975E+04  0.27549236753E+04 0.  0.
        1    1    3    3  502    0  0.30176432857E+03 -0.90008235212E+03  0.11328557870E+04  0.14780298322E+04  0.50400001928E-02 0.  1.
       -1    1    3    3    0  502 -0.30176432857E+03  0.90008235212E+03 -0.87224369701E+03  0.12891931654E+04  0.50400001928E-02 0. -1.
</event>
<event>
 5   0  0.5625245E-06  0.2734368E+04  0.7818609E-02  0.8323939E-01
        2   -1    0    0  501    0  0.00000000000E+00  0.00000000000E+00  0.91801524353E+03  0.91801524354E+03  0.25500000920E-02 0. -1.
       -2   -1    0    0    0  501  0.00000000000E+00  0.00000000000E+00 -0.20361234795E+04  0.20361234795E+04  0.25500000920E-02 0.  1.
    10030    2    1    2    0    0  0.00000000000E+00  0.00000000000E+00 -0.11181082360E+04  0.29541387231E+04  0.27343682209E+04 0.  0.
        3    1    3    3  502    0 -0.12375529020E+04  0.30516194966E+03 -0.24808230513E+02  0.12748633100E+04  0.10100000352E+00 0. -1.
       -3    1    3    3    0  502  0.12375529020E+04 -0.30516194966E+03 -0.10933000055E+04  0.16792754130E+04  0.10100000352E+00 0.  1.
</event>
<event>
 5   0  0.5866136E-06  0.2834647E+04  0.7818609E-02  0.8292592E-01
       -2   -1    0    0    0  501  0.00000000000E+00  0.00000000000E+00  0.20012331269E+04  0.20012331269E+04  0.25500000920E-02 0.  1.
        2   -1    0    0  501    0  0.00000000000E+00  0.00000000000E+00 -0.10037842926E+04  0.10037842926E+04  0.25500000920E-02 0. -1.
    10030    2    1    2    0    0  0.00000000000E+00  0.00000000000E+00  0.99744883434E+03  0.30050174195E+04  0.28346473351E+04 0.  0.
        5    1    3    3  502    0  0.13054264288E+04 -0.21557108424E+03 -0.39923828106E+02  0.13237163803E+04  0.46999998093E+01 0. -1.
       -5    1    3    3    0  502 -0.13054264288E+04  0.21557108424E+03  0.10373726624E+04  0.16813010392E+04  0.46999998093E+01 0.  1.
</event>
<event>
 5   0  0.2206967E-06  0.3017734E+04  0.7818609E-02  0.8238685E-01
       -1   -1    0    0    0  501  0.00000000000E+00  0.00000000000E+00  0.15468011244E+04  0.15468011244E+04  0.50400001928E-02 0.  1.
        1   -1    0    0  501    0  0.00000000000E+00  0.00000000000E+00 -0.14718634911E+04  0.14718634911E+04  0.50400001928E-02 0. -1.
    10030    2    1    2    0    0  0.00000000000E+00  0.00000000000E+00  0.74937633279E+02  0.30186646156E+04  0.30177343177E+04 0.  0.
        5    1    3    3  502    0  0.12183740516E+04 -0.11739204541E+03 -0.84509665769E+03  0.14874228292E+04  0.46999998093E+01 0. -1.
       -5    1    3    3    0  502 -0.12183740516E+04  0.11739204541E+03  0.92003429097E+03  0.15312417864E+04  0.46999998093E+01 0.  1.
</event>
<event>
 5   0  0.2277133E-06  0.2764330E+04  0.7818609E-02  0.8314429E-01
        1   -1    0    0  501    0  0.00000000000E+00  0.00000000000E+00  0.11171337545E+04  0.11171337545E+04  0.50400001928E-02 0. -1.
       -1   -1    0    0    0  501  0.00000000000E+00  0.00000000000E+00 -0.17100731522E+04  0.17100731522E+04  0.50400001928E-02 0.  1.
    10030    2    1    2    0    0  0.00000000000E+00  0.00000000000E+00 -0.59293939769E+03  0.28272069068E+04  0.27643302560E+04 0.  0.
        1    1    3    3  502    0  0.11990958651E+04  0.43683022311E+03 -0.83932410664E+03  0.15274542525E+04  0.50400001928E-02 0.  1.
       -1    1    3    3    0  502 -0.11990958651E+04 -0.43683022311E+03  0.24638470896E+03  0.12997526543E+04  0.50400001928E-02 0. -1.
</event>
<event>
 5   0  0.2234068E-06  0.2800414E+04  0.7818609E-02  0.8303140E-01
        1   -1    0    0  501    0  0.00000000000E+00  0.00000000000E+00  0.19214222754E+04  0.19214222755E+04  0.50400001928E-02 0. -1.
       -1   -1    0    0    0  501  0.00000000000E+00  0.00000000000E+00 -0.10203794239E+04  0.10203794239E+04  0.50400001928E-02 0.  1.
    10030    2    1    2    0    0  0.00000000000E+00  0.00000000000E+00  0.90104285159E+03  0.29418016993E+04  0.28004140797E+04 0.  0.
        3    1    3    3  502    0 -0.93330132340E+03 -0.18445114135E+03 -0.62872725929E+03  0.11403383536E+04  0.10100000352E+00 0.  1.
       -3    1    3    3    0  502  0.93330132340E+03  0.18445114135E+03  0.15297701109E+04  0.18014633458E+04  0.10100000352E+00 0. -1.
</event>
<event>
 5   0  0.2277133E-06  0.2805598E+04  0.7818609E-02  0.8301533E-01
       -1   -1    0    0    0  501  0.00000000000E+00  0.00000000000E+00  0.74132055481E+03  0.74132055482E+03  0.50400001928E-02 0.  1.
        1   -1    0    0  501    0  0.00000000000E+00  0.00000000000E+00 -0.26545128793E+04  0.26545128793E+04  0.50400001928E-02 0. -1.
    10030    2    1    2    0    0  0.00000000000E+00  0.00000000000E+00 -0.19131923245E+04  0.33958334341E+04  0.28055979473E+04 0.  0.
        1    1    3    3  502    0 -0.35346588289E+03  0.10073497801E+04  0.14488303715E+03  0.10773498987E+04  0.50400001928E-02 0.  1.
       -1    1    3    3    0  502  0.35346588289E+03 -0.10073497801E+04 -0.20580753616E+04  0.23184835354E+04  0.50400001928E-02 0. -1.
</event>
<event>
 5   0  0.2267565E-06  0.2852092E+04  0.7818609E-02  0.8287276E-01
        1   -1    0    0  501    0  0.00000000000E+00  0.00000000000E+00  0.16010664899E+04  0.16010664900E+04  0.50400001928E-02 0. -1.
       -1   -1    0    0    0  501  0.00000000000E+00  0.00000000000E+00 -0.12701574370E+04  0.12701574370E+04  0.50400001928E-02 0.  1.
    10030    2    1    2    0    0  0.00000000000E+00  0.00000000000E+00  0.33090905295E+03  0.28712239270E+04  0.28520915198E+04 0.  0.
        4    1    3    3  502    0 -0.88092063160E+01 -0.69818697674E+03 -0.10862940143E+04  0.12913477282E+04  0.12699999809E+01 0.  1.
       -4    1    3    3    0  502  0.88092063160E+01  0.69818697674E+03  0.14172030673E+04  0.15798761988E+04  0.12699999809E+01 0. -1.
</event>
<event>
 5   0  0.5546570E-06  0.2717407E+04  0.7818609E-02  0.8329379E-01
        2   -1    0    0  501    0  0.00000000000E+00  0.00000000000E+00  0.14137504119E+04  0.14137504119E+04  0.25500000920E-02 0.  1.
       -2   -1    0    0    0  501  0.00000000000E+00  0.00000000000E+00 -0.13058001028E+04  0.13058001028E+04  0.25500000920E-02 0. -1.
    10030    2    1    2    0    0  0.00000000000E+00  0.00000000000E+00  0.10795030910E+03  0.27195505147E+04  0.27174071710E+04 0.  0.
        4    1    3    3  502    0  0.46677391060E+03 -0.11419797633E+04 -0.51575249019E+03  0.13371603896E+04  0.12699999809E+01 0. -1.
       -4    1    3    3    0  502 -0.46677391060E+03  0.11419797633E+04  0.62370279930E+03  0.13823901252E+04  0.12699999809E+01 0.  1.
</event>
<event>
 5   0  0.5866136E-06  0.2651470E+04  0.7818609E-02  0.8350925E-01
       -2   -1    0    0    0  501  0.00000000000E+00  0.00000000000E+00  0.10805454930E+04  0.10805454930E+04  0.25500000920E-02 0. -1.
        2   -1    0    0  501    0  0.00000000000E+00  0.00000000000E+00 -0.16265605251E+04  0.16265605251E+04  0.25500000920E-02 0.  1.
    10030    2    1    2    0    0  0.00000000000E+00  0.00000000000E+00 -0.54601503218E+03  0.27071060181E+04  0.26514695129E+04 0.  0.
        5    1    3    3  502    0  0.33655618334E+02 -0.17566146047E+03 -0.16141773384E+04  0.16240628741E+04  0.46999998093E+01 0.  1.
       -5    1    3    3    0  502 -0.33655618334E+02  0.17566146047E+03  0.10681623062E+04  0.10830431440E+04  0.46999998093E+01 0. -1.
</event>
<event>
 5   0  0.2277133E-06  0.2816180E+04  0.7818609E-02  0.8298263E-01
       -1   -1    0    0    0  501  0.00000000000E+00  0.00000000000E+00  0.89555331478E+03  0.89555331479E+03  0.50400001928E-02 0.  1.
        1   -1    0    0  501    0  0.00000000000E+00  0.00000000000E+00 -0.22139574856E+04  0.22139574856E+04  0.50400001928E-02 0. -1.
    10030    2    1    2    0    0  0.00000000000E+00  0.00000000000E+00 -0.13184041709E+04  0.31095108004E+04  0.28161796570E+04 0.  0.
        1    1    3    3  502    0 -0.58678509986E+03  0.49991908678E+03 -0.19602751972E+04  0.21063985130E+04  0.50400001928E-02 0. -1.
       -1    1    3    3    0  502  0.58678509986E+03 -0.49991908678E+03  0.64187102634E+03  0.10031122874E+04  0.50400001928E-02 0.  1.
</event>
<event>
 5   0  0.5625245E-06  0.2820929E+04  0.7818609E-02  0.8296800E-01
        2   -1    0    0  501    0  0.00000000000E+00  0.00000000000E+00  0.27704446530E+04  0.27704446530E+04  0.25500000920E-02 0.  1.
       -2   -1    0    0    0  501  0.00000000000E+00  0.00000000000E+00 -0.71808324224E+03  0.71808324225E+03  0.25500000920E-02 0. -1.
    10030    2    1    2    0    0  0.00000000000E+00  0.00000000000E+00  0.20523614107E+04  0.34885278952E+04  0.28209288392E+04 0.  0.
        3    1    3    3  502    0 -0.68629674457E+03 -0.12099155389E+04  0.13149109549E+04  0.19141289566E+04  0.10100000352E+00 0.  1.
       -3    1    3    3    0  502  0.68629674457E+03  0.12099155389E+04  0.73745045584E+03  0.15743989386E+04  0.10100000352E+00 0. -1.
</event>
<event>
 5   0  0.5584205E-06  0.2802126E+04  0.7818609E-02  0.8302609E-01
        2   -1    0    0  501    0  0.00000000000E+00  0.00000000000E+00  0.19216306231E+04  0.19216306231E+04  0.25500000920E-02 0. -1.
       -2   -1    0    0    0  501  0.00000000000E+00  0.00000000000E+00 -0.10215165676E+04  0.10215165676E+04  0.25500000920E-02 0.  1.
    10030    2    1    2    0    0  0.00000000000E+00  0.00000000000E+00  0.90011405552E+03  0.29431471908E+04  0.28021259917E+04 0.  0.
        1    1    3    3  502    0 -0.89392485495E+03 -0.88513005671E+03 -0.19776597999E+03  0.12734473866E+04  0.50400001928E-02 0.  1.
       -1    1    3    3    0  502  0.89392485495E+03  0.88513005671E+03  0.10978800355E+04  0.16696998042E+04  0.50400001928E-02 0. -1.
</event>
<event>
 5   0  0.5916603E-06  0.2770233E+04  0.7818609E-02  0.8312570E-01
        2   -1    0    0  501    0  0.00000000000E+00  0.00000000000E+00  0.16846731033E+04  0.16846731033E+04  0.25500000920E-02 0.  1.
       -2   -1    0    0    0  501  0.00000000000E+00  0.00000000000E+00 -0.11388252900E+04  0.11388252900E+04  0.25500000920E-02 0. -1.
    10030    2    1    2    0    0  0.00000000000E+00  0.00000000000E+00  0.54584781329E+03  0.28234983933E+04  0.27702334453E+04 0.  0.
        2    1    3    3  502    0  0.91480752445E+03  0.92422444735E+03  0.75904814138E+03  0.15057283011E+04  0.25500000920E-02 0.  1.
       -2    1    3    3    0  502 -0.91480752445E+03 -0.92422444735E+03 -0.21320032808E+03  0.13177700921E+04  0.25500000920E-02 0. -1.
</event>
<event>
 5   0  0.2190865E-06  0.2799303E+04  0.7818609E-02  0.8303485E-01
       -1   -1    0    0    0  501  0.00000000000E+00  0.00000000000E+00  0.15526839107E+04  0.15526839107E+04  0.50400001928E-02 0.  1.
        1   -1    0    0  501    0  0.00000000000E+00  0.00000000000E+00 -0.12617022066E+04  0.12617022066E+04  0.50400001928E-02 0. -1.
    10030    2    1    2    0    0  0.00000000000E+00  0.00000000000E+00  0.29098170403E+03  0.28143861173E+04  0.27993032821E+04 0.  0.
        2    1    3    3  502    0  0.97462269177E+02 -0.56079391009E+03  0.14310657619E+04  0.15401097099E+04  0.25500000920E-02 0.  1.
       -2    1    3    3    0  502 -0.97462269177E+02  0.56079391009E+03 -0.11400840579E+04  0.12742764074E+04  0.25500000920E-02 0. -1.
</event>
<event>
 5   0  0.2267565E-06  0.2805188E+04  0.7818609E-02  0.8301660E-01
       -1   -1    0    0    0  501  0.00000000000E+00  0.00000000000E+00  0.10741700484E+04  0.10741700484E+04  0.50400001928E-02 0. -1.
        1   -1    0    0  501    0  0.00000000000E+00  0.00000000000E+00 -0.18314324409E+04  0.18314324409E+04  0.50400001928E-02 0.  1.
    10030    2    1    2    0    0  0.00000000000E+00  0.00000000000E+00 -0.75726239250E+03  0.29056024893E+04  0.28051879607E+04 0.  0.
        4    1    3    3  502    0 -0.69035834853E+03  0.12206634703E+04 -0.35213619480E+03  0.14458960784E+04  0.12699999809E+01 0. -1.
       -4    1    3    3    0  502  0.69035834853E+03 -0.12206634703E+04 -0.40512619770E+03  0.14597064109E+04  0.12699999809E+01 0.  1.
</event>
<event>
 5   0  0.5866136E-06  0.2741222E+04  0.7818609E-02  0.8321752E-01
       -2   -1    0    0    0  501  0.00000000000E+00  0.00000000000E+00  0.13366819409E+04  0.13366819409E+04  0.25500000920E-02 0. -1.
        2   -1    0    0  501    0  0.00000000000E+00  0.00000000000E+00 -0.14054015705E+04  0.14054015705E+04  0.25500000920E-02 0.  1.
    10030    2    1    2    0    0  0.00000000000E+00  0.00000000000E+00 -0.68719629654E+02  0.27420835114E+04  0.27412222814E+04 0.  0.
        5    1    3    3  502    0 -0.31707302912E+02 -0.12980183710E+04  0.40474935710E+03  0.13600371968E+04  0.46999998093E+01 0. -1.
       -5    1    3    3    0  502  0.31707302912E+02  0.12980183710E+04 -0.47346898676E+03  0.13820463147E+04  0.46999998093E+01 0.  1.
</event>
<event>
 5   0  0.2190865E-06  0.2803657E+04  0.7818609E-02  0.8302134E-01
        1   -1    0    0  501    0  0.00000000000E+00  0.00000000000E+00  0.16978923359E+04  0.16978923359E+04  0.50400001928E-02 0.  1.
       -1   -1    0    0    0  501  0.00000000000E+00  0.00000000000E+00 -0.11573896282E+04  0.11573896282E+04  0.50400001928E-02 0. -1.
    10030    2    1    2    0    0  0.00000000000E+00  0.00000000000E+00  0.54050270766E+03  0.28552819641E+04  0.28036568830E+04 0.  0.
        2    1    3    3  502    0 -0.12030834011E+04  0.71306805372E+03  0.36818471854E+03  0.14461796936E+04  0.25500000920E-02 0. -1.
       -2    1    3    3    0  502  0.12030834011E+04 -0.71306805372E+03  0.17231798912E+03  0.14091022705E+04  0.25500000920E-02 0.  1.
</event>
<event>
 5   0  0.2206967E-06  0.2801094E+04  0.7818609E-02  0.8302929E-01
       -1   -1    0    0    0  501  0.00000000000E+00  0.00000000000E+00  0.90249039668E+03  0.90249039669E+03  0.50400001928E-02 0.  1.
        1   -1    0    0  501    0  0.00000000000E+00  0.00000000000E+00 -0.21734654867E+04  0.21734654867E+04  0.50400001928E-02 0. -1.
    10030    2    1    2    0    0  0.00000000000E+00  0.00000000000E+00 -0.12709750900E+04  0.30759558834E+04  0.28010938787E+04 0.  0.
        5    1    3    3  502    0 -0.94116441504E+03 -0.94928244687E+03 -0.10943179550E+04  0.17275651932E+04  0.46999998093E+01 0. -1.
       -5    1    3    3    0  502  0.94116441504E+03  0.94928244687E+03 -0.17665713503E+03  0.13483906902E+04  0.46999998093E+01 0.  1.
</event>
<event>
 5   0  0.2267565E-06  0.2800011E+04  0.7818609E-02  0.8303265E-01
       -1   -1    0    0    0  501  0.00000000000E+00  0.00000000000E+00  0.22248453552E+04  0.22248453553E+04  0.50400001928E-02 0. -1.
        1   -1    0    0  501    0  0.00000000000E+00  0.00000000000E+00 -0.88096709075E+03  0.88096709077E+03  0.50400001928E-02 0.  1.
    10030    2    1    2    0    0  0.00000000000E+00  0.00000000000E+00  0.13438782645E+04  0.31058124460E+04  0.28000111000E+04 0.  0.
        4    1    3    3  502    0  0.31153694116E+03 -0.10457429383E+04 -0.30100078842E+03  0.11319172435E+04  0.12699999809E+01 0.  1.
       -4    1    3    3    0  502 -0.31153694116E+03  0.10457429383E+04  0.16448790529E+04  0.19738952025E+04  0.12699999809E+01 0. -1.
</event>
<event>
 5   0  0.2234068E-06  0.2806461E+04  0.7818609E-02  0.8301265E-01
       -1   -1    0    0    0  501  0.00000000000E+00  0.00000000000E+00  0.14421360933E+04  0.14421360933E+04  0.50400001928E-02 0. -1.
        1   -1    0    0  501    0  0.00000000000E+00  0.00000000000E+00 -0.13653741241E+04  0.13653741241E+04  0.50400001928E-02 0.  1.
    10030    2    1    2    0    0  0.00000000000E+00  0.00000000000E+00  0.76761969127E+02  0.28075102174E+04  0.28064606217E+04 0.  0.
        3    1    3    3  502    0  0.62940611675E+03  0.12390432713E+04 -0.15579211505E+03  0.13984460953E+04  0.10100000352E+00 0.  1.
       -3    1    3    3    0  502 -0.62940611675E+03 -0.12390432713E+04  0.23255408417E+03  0.14090641221E+04  0.10100000352E+00 0. -1.
</event>
<event>
 5   0  0.2206967E-06  0.2784569E+04  0.7818609E-02  0.8308075E-01
        1   -1    0    0  501    0  0.00000000000E+00  0.00000000000E+00  0.15504261086E+04  0.15504261086E+04  0.50400001928E-02 0. -1.
       -1   -1    0    0    0  501  0.00000000000E+00  0.00000000000E+00 -0.12502734758E+04  0.12502734758E+04  0.50400001928E-02 0.  1.
    10030    2    1    2    0    0  0.00000000000E+00  0.00000000000E+00  0.30015263283E+03  0.28006995844E+04  0.27845693669E+04 0.  0.
        5    1    3    3  502    0  0.85548707862E+03  0.93071941168E+03 -0.43668783106E+03  0.13374659311E+04  0.46999998093E+01 0.  1.
       -5    1    3    3    0  502 -0.85548707862E+03 -0.93071941168E+03  0.73684046390E+03  0.14632336533E+04  0.46999998093E+01 0. -1.
</event>
<event>
 5   0  0.2277133E-06  0.2771997E+04  0.7818609E-02  0.8312015E-01
       -1   -1    0    0    0  501  0.00000000000E+00  0.00000000000E+00  0.12934239761E+04  0.12934239761E+04  0.50400001928E-02 0.  1.
        1   -1    0    0  501    0  0.00000000000E+00  0.00000000000E+00 -0.14851988916E+04  0.14851988916E+04  0.50400001928E-02 0. -1.
    10030    2    1    2    0    0  0.00000000000E+00  0.00000000000E+00 -0.19177491550E+03  0.27786228677E+04  0.27719970099E+04 0.  0.
        1    1    3    3  502    0 -0.63148322034E+03  0.92492406690E+03 -0.91437841975E+03  0.14458020202E+04  0.50400001928E-02 0. -1.
       -1    1    3    3    0  502  0.63148322034E+03 -0.92492406690E+03  0.72260350426E+03  0.13328208475E+04  0.50400001928E-02 0.  1.
</event>
<event>
 5   0  0.5584205E-06  0.2793728E+04  0.7818609E-02  0.8305218E-01
       -2   -1    0    0    0  501  0.00000000000E+00  0.00000000000E+00  0.11674940475E+04  0.11674940475E+04  0.25500000920E-02 0. -1.
        2   -1    0    0  501    0  0.00000000000E+00  0.00000000000E+00 -0.16712967572E+04  0.16712967573E+04  0.25500000920E-02 0.  1.
    10030    2    1    2    0    0  0.00000000000E+00  0.00000000000E+00 -0.50380270971E+03  0.28387908048E+04  0.27937279866E+04 0.  0.
        1    1    3    3  502    0 -0.79594732737E+03 -0.63277269321E+03 -0.12251054402E+04  0.15921107904E+04  0.50400001928E-02 0.  1.
       -1    1    3    3    0  502  0.79594732737E+03  0.63277269321E+03  0.72130273051E+03  0.12466800144E+04  0.50400001928E-02 0. -1.
</event>
<event>
 5   0  0.2277133E-06  0.2768622E+04  0.7818609E-02  0.8313077E-01
        1   -1    0    0  501    0  0.00000000000E+00  0.00000000000E+00  0.13063277053E+04  0.13063277053E+04  0.50400001928E-02 0.  1.
       -1   -1    0    0    0  501  0.00000000000E+00  0.00000000000E+00 -0.14669493882E+04  0.14669493882E+04  0.50400001928E-02 0. -1.
    10030    2    1    2    0    0  0.00000000000E+00  0.00000000000E+00 -0.16062168287E+03  0.27732770935E+04  0.27686217713E+04 0.  0.
        1    1    3    3  502    0 -0.13054562782E+04  0.32885144247E+03  0.24265534279E+03  0.13679331054E+04  0.50400001928E-02 0.  1.
       -1    1    3    3    0  502  0.13054562782E+04 -0.32885144247E+03 -0.40327702566E+03  0.14053439881E+04  0.50400001928E-02 0. -1.
</event>
<event>
 5   0  0.5546570E-06  0.2792021E+04  0.7818609E-02  0.8305750E-01
        2   -1    0    0  501    0  0.00000000000E+00  0.00000000000E+00  0.23767331663E+04  0.23767331663E+04  0.25500000920E-02 0. -1.
       -2   -1    0    0    0  501  0.00000000000E+00  0.00000000000E+00 -0.81996784727E+03  0.81996784727E+03  0.25500000920E-02 0.  1.
    10030    2    1    2    0    0  0.00000000000E+00  0.00000000000E+00  0.15567653190E+04  0.31967010135E+04  0.27920206144E+04 0.  0.
        4    1    3    3  502    0 -0.12528829081E+03  0.30650622103E+03  0.23311195489E+04  0.23545197352E+04  0.12699999809E+01 0. -1.
       -4    1    3    3    0  502  0.12528829081E+03 -0.30650622103E+03 -0.77435422989E+03  0.84218127834E+03  0.12699999809E+01 0.  1.
</event>
<event>
 5   0  0.5866136E-06  0.2740331E+04  0.7818609E-02  0.8322036E-01
        2   -1    0    0  501    0  0.00000000000E+00  0.00000000000E+00  0.18998229364E+04  0.18998229364E+04  0.25500000920E-02 0. -1.
       -2   -1    0    0    0  501  0.00000000000E+00  0.00000000000E+00 -0.98817302245E+03  0.98817302245E+03  0.25500000920E-02 0.  1.
    10030    2    1    2    0    0  0.00000000000E+00  0.00000000000E+00  0.91164991395E+03  0.28879959589E+04  0.27403312013E+04 0.  0.
        5    1    3    3  502    0 -0.13407843195E+04  0.10840634681E+03  0.73039638587E+03  0.15306715839E+04  0.46999998093E+01 0. -1.
       -5    1    3    3    0  502  0.13407843195E+04 -0.10840634681E+03  0.18125352808E+03  0.13573243749E+04  0.46999998093E+01 0.  1.
</event>
<event>
 5   0  0.2190865E-06  0.2788248E+04  0.7818609E-02  0.8306926E-01
        1   -1    0    0  501    0  0.00000000000E+00  0.00000000000E+00  0.16049472117E+04  0.16049472117E+04  0.50400001928E-02 0.  1.
       -1   -1    0    0    0  501  0.00000000000E+00  0.00000000000E+00 -0.12109945859E+04  0.12109945859E+04  0.50400001928E-02 0. -1.
    10030    2    1    2    0    0  0.00000000000E+00  0.00000000000E+00  0.39395262584E+03  0.28159417976E+04  0.27882484710E+04 0.  0.
        2    1    3    3  502    0 -0.27688640612E+03 -0.51009152267E+03  0.14771317312E+04  0.15870657185E+04  0.25500000920E-02 0.  1.
       -2    1    3    3    0  502  0.27688640612E+03  0.51009152267E+03 -0.10831791054E+04  0.12288760791E+04  0.25500000920E-02 0. -1.
</event>
<event>
 5   0  0.2277133E-06  0.2785553E+04  0.7818609E-02  0.8307768E-01
        1   -1    0    0  501    0  0.00000000000E+00  0.00000000000E+00  0.10871868976E+04  0.10871868976E+04  0.50400001928E-02 0.  1.
       -1   -1    0    0    0  501  0.00000000000E+00  0.00000000000E+00 -0.17842625846E+04  0.17842625846E+04  0.50400001928E-02 0. -1.
    10030    2    1    2    0    0  0.00000000000E+00  0.00000000000E+00 -0.69707568705E+03  0.28714494822E+04  0.27855533769E+04 0.  0.
        1    1    3    3  502    0 -0.10268034581E+04 -0.39740496347E+03 -0.12278181431E+04  0.16491796261E+04  0.50400001928E-02 0. -1.
       -1    1    3    3    0  502  0.10268034581E+04  0.39740496347E+03  0.53074245605E+03  0.12222698561E+04  0.50400001928E-02 0.  1.
</event>
<event>
 5   0  0.5916603E-06  0.2815337E+04  0.7818609E-02  0.8298522E-01
        2   -1    0    0  501    0  0.00000000000E+00  0.00000000000E+00  0.11203353331E+04  0.11203353331E+04  0.25500000920E-02 0. -1.
       -2   -1    0    0    0  501  0.00000000000E+00  0.00000000000E+00 -0.17686947445E+04  0.17686947445E+04  0.25500000920E-02 0.  1.
    10030    2    1    2    0    0  0.00000000000E+00  0.00000000000E+00 -0.64835941133E+03  0.28890300776E+04  0.28153374333E+04 0.  0.
        2    1    3    3  502    0 -0.65975631780E+03  0.12315249401E+04 -0.50072703278E+03  0.14841359905E+04  0.25500000920E-02 0. -1.
       -2    1    3    3    0  502  0.65975631780E+03 -0.12315249401E+04 -0.14763237855E+03  0.14048940871E+04  0.25500000920E-02 0.  1.
</event>
<event>
 5   0  0.2234068E-06  0.2768337E+04  0.7818609E-02  0.8313166E-01
        1   -1    0    0  501    0  0.00000000000E+00  0.00000000000E+00  0.17835555762E+04  0.17835555762E+04  0.50400001928E-02 0. -1.
       -1   -1    0    0    0  501  0.00000000000E+00  0.00000000000E+00 -0.10742155344E+04  0.10742155344E+04  0.50400001928E-02 0.  1.
    10030    2    1    2    0    0  0.00000000000E+00  0.00000000000E+00  0.70934004184E+03  0.28577711106E+04  0.27683374841E+04 0.  0.
        3    1    3    3  502    0  0.28347210197E+02 -0.11216042091E+04 -0.48214972153E+03  0.12211748157E+04  0.10100000352E+00 0.  1.
       -3    1    3    3    0  502 -0.28347210197E+02  0.11216042091E+04  0.11914897634E+04  0.16365962950E+04  0.10100000352E+00 0. -1.
</event>
<event>
 5   0  0.2234068E-06  0.2790587E+04  0.7818609E-02  0.8306197E-01
        1   -1    0    0  501    0  0.00000000000E+00  0.00000000000E+00  0.15268669020E+04  0.15268669020E+04  0.50400001928E-02 0. -1.
       -1   -1    0    0    0  501  0.00000000000E+00  0.00000000000E+00 -0.12750577813E+04  0.12750577813E+04  0.50400001928E-02 0.  1.
    10030    2    1    2    0    0  0.00000000000E+00  0.00000000000E+00  0.25180912072E+03  0.28019246833E+04  0.27905866941E+04 0.  0.
        3    1    3    3  502    0 -0.61397172083E+03  0.97555915068E+03  0.91533469459E+03  0.14719084699E+04  0.10100000352E+00 0. -1.
       -3    1    3    3    0  502  0.61397172083E+03 -0.97555915068E+03 -0.66352557387E+03  0.13300162134E+04  0.10100000352E+00 0.  1.
</event>
<event>
 5   0  0.5916603E-06  0.2793461E+04  0.7818609E-02  0.8305301E-01
       -2   -1    0    0    0  501  0.00000000000E+00  0.00000000000E+00  0.11378151455E+04  0.11378151455E+04  0.25500000920E-02 0.  1.
        2   -1    0    0  501    0  0.00000000000E+00  0.00000000000E+00 -0.17145635729E+04  0.17145635729E+04  0.25500000920E-02 0. -1.
    10030    2    1    2    0    0  0.00000000000E+00  0.00000000000E+00 -0.57674842742E+03  0.28523787185E+04  0.27934612231E+04 0.  0.
        2    1    3    3  502    0  0.12583632713E+04 -0.35323899623E+03 -0.79130749689E+03  0.15278820196E+04  0.25500000920E-02 0. -1.
       -2    1    3    3    0  502 -0.12583632713E+04  0.35323899623E+03  0.21455906947E+03  0.13244966989E+04  0.25500000920E-02 0.  1.
</event>
<event>
 5   0  0.2206967E-06  0.2791450E+04  0.7818609E-02  0.8305928E-01
        1   -1    0    0  501    0  0.00000000000E+00  0.00000000000E+00  0.22885804109E+04  0.22885804109E+04  0.50400001928E-02 0.  1.
       -1   -1    0    0    0  501  0.00000000000E+00  0.00000000000E+00 -0.85120388205E+03  0.85120388206E+03  0.50400001928E-02 0. -1.
    10030    2    1    2    0    0  0.00000000000E+00  0.00000000000E+00  0.14373765289E+04  0.31397842930E+04  0.27914501824E+04 0.  0.
        5    1    3    3  502    0 -0.86760773132E+03  0.64221212187E+03  0.17138836109E+04  0.20254872763E+04  0.46999998093E+01 0.  1.
       -5    1    3    3    0  502  0.86760773132E+03 -0.64221212187E+03 -0.27650708201E+03  0.11142970167E+04  0.46999998093E+01 0. -1.
</event>
<event>
 5   0  0.5625245E-06  0.2767886E+04  0.7818609E-02  0.8313308E-01
        2   -1    0    0  501    0  0.00000000000E+00  0.00000000000E+00  0.11736364795E+04  0.11736364796E+04  0.25500000920E-02 0. -1.
       -2   -1    0    0    0  501  0.00000000000E+00  0.00000000000E+00 -0.16319353301E+04  0.16319353301E+04  0.25500000920E-02 0.  1.
    10030    2    1    2    0    0  0.00000000000E+00  0.00000000000E+00 -0.45829885050E+03  0.28055718096E+04  0.27678864396E+04 0.  0.
        3    1    3    3  502    0  0.92212673587E+03 -0.73321532225E+03  0.50694489485E+03  0.12825426162E+04  0.10100000352E+00 0. -1.
       -3    1    3    3    0  502 -0.92212673587E+03  0.73321532225E+03 -0.96524374536E+03  0.15230291934E+04  0.10100000352E+00 0.  1.
</event>
<event>
 5   0  0.5625245E-06  0.2804195E+04  0.7818609E-02  0.8301967E-01
       -2   -1    0    0    0  501  0.00000000000E+00  0.00000000000E+00  0.73630509354E+03  0.73630509355E+03  0.25500000920E-02 0. -1.
        2   -1    0    0  501    0  0.00000000000E+00  0.00000000000E+00 -0.26699217877E+04  0.26699217877E+04  0.25500000920E-02 0.  1.
    10030    2    1    2    0    0  0.00000000000E+00  0.00000000000E+00 -0.19336166941E+04  0.34062268812E+04  0.28041947234E+04 0.  0.
        3    1    3    3  502    0  0.75822675507E+03 -0.69988386415E+03  0.18627195690E+03  0.10485430308E+04  0.10100000352E+00 0. -1.
       -3    1    3    3    0  502 -0.75822675507E+03  0.69988386415E+03 -0.21198886510E+04  0.23576838504E+04  0.10100000352E+00 0.  1.
</event>
<event>
 5   0  0.5916603E-06  0.2816260E+04  0.7818609E-02  0.8298238E-01
       -2   -1    0    0    0  501  0.00000000000E+00  0.00000000000E+00  0.10759958149E+04  0.10759958149E+04  0.25500000920E-02 0. -1.
        2   -1    0    0  501    0  0.00000000000E+00  0.00000000000E+00 -0.18427859479E+04  0.18427859479E+04  0.25500000920E-02 0.  1.
    10030    2    1    2    0    0  0.00000000000E+00  0.00000000000E+00 -0.76679013298E+03  0.29187817628E+04  0.28162599082E+04 0.  0.
        2    1    3    3  502    0  0.37765765322E+03  0.40887534891E+03 -0.17239363290E+04  0.18115630876E+04  0.25500000920E-02 0.  1.
       -2    1    3    3    0  502 -0.37765765322E+03 -0.40887534891E+03  0.95714619603E+03  0.11072186751E+04  0.25500000920E-02 0. -1.
</event>
<event>
 5   0  0.2267565E-06  0.2808259E+04  0.7818609E-02  0.8300709E-01
       -1   -1    0    0    0  501  0.00000000000E+00  0.00000000000E+00  0.73666567910E+03  0.73666567912E+03  0.50400001928E-02 0.  1.
        1   -1    0    0  501    0  0.00000000000E+00  0.00000000000E+00 -0.26763567014E+04  0.26763567014E+04  0.50400001928E-02 0. -1.
    10030    2    1    2    0    0  0.00000000000E+00  0.00000000000E+00 -0.19396910223E+04  0.34130223805E+04  0.28082593377E+04 0.  0.
        4    1    3    3  502    0 -0.10538945997E+04 -0.92759015638E+03 -0.94374546855E+03  0.16916779977E+04  0.12699999809E+01 0.  1.
       -4    1    3    3    0  502  0.10538945997E+04  0.92759015638E+03 -0.99594555375E+03  0.17213443829E+04  0.12699999809E+01 0. -1.
</event>
<event>
 5   0  0.5584205E-06  0.3107496E+04  0.7818609E-02  0.8213684E-01
       -2   -1    0    0    0  501  0.00000000000E+00  0.00000000000E+00  0.97212181787E+03  0.97212181787E+03  0.25500000920E-02 0.  1.
        2   -1    0    0  501    0  0.00000000000E+00  0.00000000000E+00 -0.24833652734E+04  0.24833652734E+04  0.25500000920E-02 0. -1.
    10030    2    1    2    0    0  0.00000000000E+00  0.00000000000E+00 -0.15112434556E+04  0.34554870913E+04  0.31074964612E+04 0.  0.
        1    1    3    3  502    0 -0.11432636822E+04 -0.93048954936E+03 -0.13018210014E+04  0.19666216129E+04  0.50400001928E-02 0.  1.
       -1    1    3    3    0  502  0.11432636822E+04  0.93048954936E+03 -0.20942245422E+03  0.14888654785E+04  0.50400001928E-02 0. -1.
</event>
<event>
 5   0  0.5916603E-06  0.2804468E+04  0.7818609E-02  0.8301883E-01
       -2   -1    0    0    0  501  0.00000000000E+00  0.00000000000E+00  0.67038589058E+03  0.67038589059E+03  0.25500000920E-02 0. -1.
        2   -1    0    0  501    0  0.00000000000E+00  0.00000000000E+00 -0.29330274321E+04  0.29330274321E+04  0.25500000920E-02 0.  1.
    10030    2    1    2    0    0  0.00000000000E+00  0.00000000000E+00 -0.22626415415E+04  0.36034133227E+04  0.28044680117E+04 0.  0.
        2    1    3    3  502    0  0.73830311178E+03  0.11337654554E+04 -0.65792443354E+03  0.15044534399E+04  0.25500000920E-02 0.  1.
       -2    1    3    3    0  502 -0.73830311178E+03 -0.11337654554E+04 -0.16047171080E+04  0.20989598827E+04  0.25500000920E-02 0. -1.
</event>
<event>
 5   0  0.5584205E-06  0.2872805E+04  0.7818609E-02  0.8281015E-01
        2   -1    0    0  501    0  0.00000000000E+00  0.00000000000E+00  0.15509319606E+04  0.15509319606E+04  0.25500000920E-02 0. -1.
       -2   -1    0    0    0  501  0.00000000000E+00  0.00000000000E+00 -0.13303309019E+04  0.13303309019E+04  0.25500000920E-02 0.  1.
    10030    2    1    2    0    0  0.00000000000E+00  0.00000000000E+00  0.22060105864E+03  0.28812628625E+04  0.28728053982E+04 0.  0.
        1    1    3    3  502    0 -0.31009283348E+03 -0.28188624988E+03 -0.12676566359E+04  0.13351294955E+04  0.50400001928E-02 0.  1.
       -1    1    3    3    0  502  0.31009283348E+03  0.28188624988E+03  0.14882576945E+04  0.15461333670E+04  0.50400001928E-02 0. -1.
</event>
<event>
 5   0  0.5625245E-06  0.2792625E+04  0.7818609E-02  0.8305562E-01
       -2   -1    0    0    0  501  0.00000000000E+00  0.00000000000E+00  0.14322578333E+04  0.14322578333E+04  0.25500000920E-02 0. -1.
        2   -1    0    0  501    0  0.00000000000E+00  0.00000000000E+00 -0.13612689447E+04  0.13612689447E+04  0.25500000920E-02 0.  1.
    10030    2    1    2    0    0  0.00000000000E+00  0.00000000000E+00  0.70988888652E+02  0.27935267780E+04  0.27926246502E+04 0.  0.
        3    1    3    3  502    0  0.34983873125E+03 -0.55953205051E+03 -0.11954415053E+04  0.13654829389E+04  0.10100000352E+00 0.  1.
       -3    1    3    3    0  502 -0.34983873125E+03  0.55953205051E+03  0.12664303940E+04  0.14280438391E+04  0.10100000352E+00 0. -1.
</event>
<event>
 5   0  0.2190865E-06  0.2802159E+04  0.7818609E-02  0.8302598E-01
       -1   -1    0    0    0  501  0.00000000000E+00  0.00000000000E+00  0.85925332217E+03  0.85925332218E+03  0.50400001928E-02 0. -1.
        1   -1    0    0  501    0  0.00000000000E+00  0.00000000000E+00 -0.22845694896E+04  0.22845694896E+04  0.50400001928E-02 0.  1.
    10030    2    1    2    0    0  0.00000000000E+00  0.00000000000E+00 -0.14253161675E+04  0.31438228118E+04  0.28021591131E+04 0.  0.
        2    1    3    3  502    0 -0.24685456533E+03  0.30882438116E+03 -0.22206881622E+04  0.22556075874E+04  0.25500000920E-02 0.  1.
       -2    1    3    3    0  502  0.24685456533E+03 -0.30882438116E+03  0.79537199472E+03  0.88821522438E+03  0.25500000920E-02 0. -1.
</event>
<event>
 5   0  0.5584205E-06  0.2807542E+04  0.7818609E-02  0.8300931E-01
        2   -1    0    0  501    0  0.00000000000E+00  0.00000000000E+00  0.20858962782E+04  0.20858962782E+04  0.25500000920E-02 0. -1.
       -2   -1    0    0    0  501  0.00000000000E+00  0.00000000000E+00 -0.94471283326E+03  0.94471283326E+03  0.25500000920E-02 0.  1.
    10030    2    1    2    0    0  0.00000000000E+00  0.00000000000E+00  0.11411834449E+04  0.30306091115E+04  0.28075419732E+04 0.  0.
        1    1    3    3  502    0 -0.50076772466E+03 -0.13110081842E+04  0.60577277469E+03  0.15285520690E+04  0.50400001928E-02 0.  1.
       -1    1    3    3    0  502  0.50076772466E+03  0.13110081842E+04  0.53541067025E+03  0.15020570425E+04  0.50400001928E-02 0. -1.
</event>
<event>
 5   0  0.5546570E-06  0.2817884E+04  0.7818609E-02  0.8297737E-01
       -2   -1    0    0    0  501  0.00000000000E+00  0.00000000000E+00  0.11366285769E+04  0.11366285769E+04  0.25500000920E-02 0.  1.
        2   -1    0    0  501    0  0.00000000000E+00  0.00000000000E+00 -0.17464964807E+04  0.17464964807E+04  0.25500000920E-02 0. -1.
    10030    2    1    2    0    0  0.00000000000E+00  0.00000000000E+00 -0.60986790378E+03  0.28831250577E+04  0.28178841775E+04 0.  0.
        4    1    3    3  502    0  0.52400019747E+03 -0.24268166378E+03  0.10099843629E+04  0.11634176478E+04  0.12699999809E+01 0.  1.
       -4    1    3    3    0  502 -0.52400019747E+03  0.24268166378E+03 -0.16198522667E+04  0.17197074099E+04  0.12699999809E+01 0. -1.
</event>
<event>
 5   0  0.2277133E-06  0.2792301E+04  0.7818609E-02  0.8305663E-01
       -1   -1    0    0    0  501  0.00000000000E+00  0.00000000000E+00  0.13094642451E+04  0.13094642451E+04  0.50400001928E-02 0. -1.
        1   -1    0    0  501    0  0.00000000000E+00  0.00000000000E+00 -0.14885748352E+04  0.14885748352E+04  0.50400001928E-02 0.  1.
    10030    2    1    2    0    0  0.00000000000E+00  0.00000000000E+00 -0.17911059010E+03  0.27980390804E+04  0.27923005017E+04 0.  0.
        1    1    3    3  502    0  0.26633884218E+03 -0.10553338405E+04 -0.96574902893E+03  0.14551072403E+04  0.50400001928E-02 0.  1.
       -1    1    3    3    0  502 -0.26633884218E+03  0.10553338405E+04  0.78663843882E+03  0.13429318401E+04  0.50400001928E-02 0. -1.
</event>
<event>
 5   0  0.2190865E-06  0.2809751E+04  0.7818609E-02  0.8300247E-01
       -1   -1    0    0    0  501  0.00000000000E+00  0.00000000000E+00  0.17400167993E+04  0.17400167993E+04  0.50400001928E-02 0.  1.
        1   -1    0    0  501    0  0.00000000000E+00  0.00000000000E+00 -0.11342853642E+04  0.11342853642E+04  0.50400001928E-02 0. -1.
    10030    2    1    2    0    0  0.00000000000E+00  0.00000000000E+00  0.60573143513E+03  0.28743021635E+04  0.28097512978E+04 0.  0.
        2    1    3    3  502    0 -0.41767081779E+03  0.37559032316E+03 -0.10144126908E+04  0.11595473729E+04  0.25500000920E-02 0. -1.
       -2    1    3    3    0  502  0.41767081779E+03 -0.37559032316E+03  0.16201441259E+04  0.17147547905E+04  0.25500000920E-02 0.  1.
</event>
<event>
 5   0  0.2206967E-06  0.2665466E+04  0.7818609E-02  0.8346298E-01
        1   -1    0    0  501    0  0.00000000000E+00  0.00000000000E+00  0.17217673018E+04  0.17217673018E+04  0.50400001928E-02 0.  1.
       -1   -1    0    0    0  501  0.00000000000E+00  0.00000000000E+00 -0.10316009611E+04  0.10316009611E+04  0.50400001928E-02 0. -1.
    10030    2    1    2    0    0  0.00000000000E+00  0.00000000000E+00  0.69016634071E+03  0.27533682628E+04  0.26654656653E+04 0.  0.
        5    1    3    3  502    0 -0.38243881326E+03  0.41316673372E+03  0.15928887155E+04  0.16894622653E+04  0.46999998093E+01 0.  1.
       -5    1    3    3    0  502  0.38243881326E+03 -0.41316673372E+03 -0.90272237480E+03  0.10639059976E+04  0.46999998093E+01 0. -1.
</event>
<event>
 5   0  0.2234068E-06  0.2796995E+04  0.7818609E-02  0.8304202E-01
       -1   -1    0    0    0  501  0.00000000000E+00  0.00000000000E+00  0.12890431754E+04  0.12890431754E+04  0.50400001928E-02 0.  1.
        1   -1    0    0  501    0  0.00000000000E+00  0.00000000000E+00 -0.15172454198E+04  0.15172454198E+04  0.50400001928E-02 0. -1.
    10030    2    1    2    0    0  0.00000000000E+00  0.00000000000E+00 -0.22820224443E+03  0.28062885952E+04  0.27969947114E+04 0.  0.
        3    1    3    3  502    0  0.14476666679E+03  0.12210398989E+04  0.55437019877E+03  0.13487854352E+04  0.10100000352E+00 0.  1.
       -3    1    3    3    0  502 -0.14476666679E+03 -0.12210398989E+04 -0.78257244320E+03  0.14575031601E+04  0.10100000352E+00 0. -1.
</event>
<event>
 5   0  0.5546570E-06  0.2851156E+04  0.7818609E-02  0.8287560E-01
       -2   -1    0    0    0  501  0.00000000000E+00  0.00000000000E+00  0.12589386473E+04  0.12589386473E+04  0.25500000920E-02 0.  1.
        2   -1    0    0  501    0  0.00000000000E+00  0.00000000000E+00 -0.16142743331E+04  0.16142743331E+04  0.25500000920E-02 0. -1.
    10030    2    1    2    0    0  0.00000000000E+00  0.00000000000E+00 -0.35533568579E+03  0.28732129804E+04  0.28511557975E+04 0.  0.
        4    1    3    3  502    0 -0.74492200318E+03  0.80380411237E+03 -0.10964563297E+04  0.15502348009E+04  0.12699999809E+01 0. -1.
       -4    1    3    3    0  502  0.74492200318E+03 -0.80380411237E+03  0.74112064394E+03  0.13229781796E+04  0.12699999809E+01 0.  1.
</event>
<event>
 5   0  0.2277133E-06  0.2766628E+04  0.7818609E-02  0.8313705E-01
       -1   -1    0    0    0  501  0.00000000000E+00  0.00000000000E+00  0.11929603709E+04  0.11929603709E+04  0.50400001928E-02 0. -1.
        1   -1    0    0  501    0  0.00000000000E+00  0.00000000000E+00 -0.16040410264E+04  0.16040410264E+04  0.50400001928E-02 0.  1.
    10030    2    1    2    0    0  0.00000000000E+00  0.00000000000E+00 -0.41108065549E+03  0.27970013974E+04  0.27666278231E+04 0.  0.
        1    1    3    3  502    0 -0.32368315163E+03 -0.74613177167E+03 -0.13367860172E+04  0.15647620456E+04  0.50400001928E-02 0.  1.
       -1    1    3    3    0  502  0.32368315163E+03  0.74613177167E+03  0.92570536174E+03  0.12322393518E+04  0.50400001928E-02 0. -1.
</event>
<event>
 5   0  0.5866136E-06  0.2772767E+04  0.7818609E-02  0.8311773E-01
        2   -1    0    0  501    0  0.00000000000E+00  0.00000000000E+00  0.96053322259E+03  0.96053322259E+03  0.25500000920E-02 0.  1.
       -2   -1    0    0    0  501  0.00000000000E+00  0.00000000000E+00 -0.20010334371E+04  0.20010334371E+04  0.25500000920E-02 0. -1.
    10030    2    1    2    0    0  0.00000000000E+00  0.00000000000E+00 -0.10405002145E+04  0.29615666597E+04  0.27727669183E+04 0.  0.
        5    1    3    3  502    0  0.81794360659E+03  0.10884800101E+04 -0.79921718965E+03  0.15787940594E+04  0.46999998093E+01 0. -1.
       -5    1    3    3    0  502 -0.81794360659E+03 -0.10884800101E+04 -0.24128302487E+03  0.13827726003E+04  0.46999998093E+01 0.  1.
</event>
<event>
 5   0  0.5866136E-06  0.2705023E+04  0.7818609E-02  0.8333377E-01
        2   -1    0    0  501    0  0.00000000000E+00  0.00000000000E+00  0.11494344249E+04  0.11494344249E+04  0.25500000920E-02 0.  1.
       -2   -1    0    0    0  501  0.00000000000E+00  0.00000000000E+00 -0.15914675120E+04  0.15914675120E+04  0.25500000920E-02 0. -1.
    10030    2    1    2    0    0  0.00000000000E+00  0.00000000000E+00 -0.44203308708E+03  0.27409019369E+04  0.27050231381E+04 0.  0.
        5    1    3    3  502    0 -0.63007226683E+03 -0.76505181574E+03 -0.11535331104E+04  0.15208405797E+04  0.46999998093E+01 0.  1.
       -5    1    3    3    0  502  0.63007226683E+03  0.76505181574E+03  0.71150002329E+03  0.12200613572E+04  0.46999998093E+01 0. -1.
</event>
<event>
 5   0  0.5866136E-06  0.2794847E+04  0.7818609E-02  0.8304870E-01
       -2   -1    0    0    0  501  0.00000000000E+00  0.00000000000E+00  0.11779355000E+04  0.11779355001E+04  0.25500000920E-02 0. -1.
        2   -1    0    0  501    0  0.00000000000E+00  0.00000000000E+00 -0.16578094306E+04  0.16578094306E+04  0.25500000920E-02 0.  1.
    10030    2    1    2    0    0  0.00000000000E+00  0.00000000000E+00 -0.47987393055E+03  0.28357449306E+04  0.27948471018E+04 0.  0.
        5    1    3    3  502    0 -0.65048795521E+03 -0.70394276782E+03  0.79185105844E+03  0.12432699582E+04  0.46999998093E+01 0. -1.
       -5    1    3    3    0  502  0.65048795521E+03  0.70394276782E+03 -0.12717249890E+04  0.15924749724E+04  0.46999998093E+01 0.  1.
</event>
<event>
 5   0  0.5916603E-06  0.2823991E+04  0.7818609E-02  0.8295858E-01
       -2   -1    0    0    0  501  0.00000000000E+00  0.00000000000E+00  0.14883488101E+04  0.14883488102E+04  0.25500000920E-02 0. -1.
        2   -1    0    0  501    0  0.00000000000E+00  0.00000000000E+00 -0.13395595289E+04  0.13395595289E+04  0.25500000920E-02 0.  1.
    10030    2    1    2    0    0  0.00000000000E+00  0.00000000000E+00  0.14878928127E+03  0.28279083390E+04  0.28239913817E+04 0.  0.
        2    1    3    3  502    0  0.64710355006E+03  0.17350104595E+03  0.13190531436E+04  0.14794413855E+04  0.25500000920E-02 0. -1.
       -2    1    3    3    0  502 -0.64710355006E+03 -0.17350104595E+03 -0.11702638623E+04  0.13484669536E+04  0.25500000920E-02 0.  1.
</event>
<event>
 5   0  0.2267565E-06  0.2778996E+04  0.7818609E-02  0.8309819E-01
       -1   -1    0    0    0  501  0.00000000000E+00  0.00000000000E+00  0.12646919395E+04  0.12646919395E+04  0.50400001928E-02 0.  1.
        1   -1    0    0  501    0  0.00000000000E+00  0.00000000000E+00 -0.15266209755E+04  0.15266209755E+04  0.50400001928E-02 0. -1.
    10030    2    1    2    0    0  0.00000000000E+00  0.00000000000E+00 -0.26192903600E+03  0.27913129151E+04  0.27789963962E+04 0.  0.
        4    1    3    3  502    0 -0.89400667757E+03 -0.10166198511E+04 -0.44530482853E+03  0.14251532775E+04  0.12699999809E+01 0. -1.
       -4    1    3    3    0  502  0.89400667757E+03  0.10166198511E+04  0.18337579252E+03  0.13661596376E+04  0.12699999809E+01 0.  1.
</event>
<event>
 5   0  0.5584205E-06  0.2816758E+04  0.7818609E-02  0.8298084E-01
        2   -1    0    0  501    0  0.00000000000E+00  0.00000000000E+00  0.25564884863E+04  0.25564884863E+04  0.25500000920E-02 0.  1.
       -2   -1    0    0    0  501  0.00000000000E+00  0.00000000000E+00 -0.77588137542E+03  0.77588137542E+03  0.25500000920E-02 0. -1.
    10030    2    1    2    0    0  0.00000000000E+00  0.00000000000E+00  0.17806071109E+04  0.33323698618E+04  0.28167582807E+04 0.  0.
        1    1    3    3  502    0  0.13959312409E+04  0.15326419174E+03  0.76388931497E+03  0.15986371781E+04  0.50400001928E-02 0.  1.
       -1    1    3    3    0  502 -0.13959312409E+04 -0.15326419174E+03  0.10167177960E+04  0.17337326837E+04  0.50400001928E-02 0. -1.
</event>
<event>
 5   0  0.5866136E-06  0.2814180E+04  0.7818609E-02  0.8298880E-01
       -2   -1    0    0    0  501  0.00000000000E+00  0.00000000000E+00  0.13584850332E+04  0.13584850332E+04  0.25500000920E-02 0. -1.
        2   -1    0    0  501    0  0.00000000000E+00  0.00000000000E+00 -0.14574335020E+04  0.14574335020E+04  0.25500000920E-02 0.  1.
    10030    2    1    2    0    0  0.00000000000E+00  0.00000000000E+00 -0.98948468802E+02  0.28159185351E+04  0.28141795246E+04 0.  0.
        5    1    3    3  502    0  0.17993896297E+03  0.30590940467E+02  0.13465816960E+04  0.13589033041E+04  0.46999998093E+01 0. -1.
       -5    1    3    3    0  502 -0.17993896297E+03 -0.30590940467E+02 -0.14455301648E+04  0.14570152310E+04  0.46999998093E+01 0.  1.
</event>
<event>
 5   0  0.5546570E-06  0.2821064E+04  0.7818609E-02  0.8296758E-01
        2   -1    0    0  501    0  0.00000000000E+00  0.00000000000E+00  0.30360978522E+04  0.30360978522E+04  0.25500000920E-02 0.  1.
       -2   -1    0    0    0  501  0.00000000000E+00  0.00000000000E+00 -0.65531511140E+03  0.65531511141E+03  0.25500000920E-02 0. -1.
    10030    2    1    2    0    0  0.00000000000E+00  0.00000000000E+00  0.23807827408E+04  0.36914129636E+04  0.28210641979E+04 0.  0.
        4    1    3    3  502    0 -0.12136817076E+03  0.13832685742E+04  0.86605571684E+03  0.16365256793E+04  0.12699999809E+01 0. -1.
       -4    1    3    3    0  502  0.12136817076E+03 -0.13832685742E+04  0.15147270239E+04  0.20548872843E+04  0.12699999809E+01 0.  1.
</event>
<event>
 5   0  0.5625245E-06  0.2784992E+04  0.7818609E-02  0.8307943E-01
       -2   -1    0    0    0  501  0.00000000000E+00  0.00000000000E+00  0.14042146994E+04  0.14042146994E+04  0.25500000920E-02 0.  1.
        2   -1    0    0  501    0  0.00000000000E+00  0.00000000000E+00 -0.13808747785E+04  0.13808747785E+04  0.25500000920E-02 0. -1.
    10030    2    1    2    0    0  0.00000000000E+00  0.00000000000E+00  0.23339920894E+02  0.27850894780E+04  0.27849916783E+04 0.  0.
        3    1    3    3  502    0 -0.42350851611E+03  0.13223921909E+04  0.11638315092E+03  0.13934222683E+04  0.10100000352E+00 0. -1.
       -3    1    3    3    0  502  0.42350851611E+03 -0.13223921909E+04 -0.93043230026E+02  0.13916672097E+04  0.10100000352E+00 0.  1.
</event>
<event>
 5   0  0.5866136E-06  0.2808445E+04  0.7818609E-02  0.8300651E-01
        2   -1    0    0  501    0  0.00000000000E+00  0.00000000000E+00  0.23790659027E+04  0.23790659027E+04  0.25500000920E-02 0.  1.
       -2   -1    0    0    0  501  0.00000000000E+00  0.00000000000E+00 -0.82882994013E+03  0.82882994013E+03  0.25500000920E-02 0. -1.
    10030    2    1    2    0    0  0.00000000000E+00  0.00000000000E+00  0.15502359625E+04  0.32078958428E+04  0.28084451568E+04 0.  0.
        5    1    3    3  502    0  0.11351822281E+03 -0.48344829605E+03 -0.72517243395E+03  0.87892308584E+03  0.46999998093E+01 0. -1.
       -5    1    3    3    0  502 -0.11351822281E+03  0.48344829605E+03  0.22754083965E+04  0.23289727570E+04  0.46999998093E+01 0.  1.
</event>
<event>
 5   0  0.2267565E-06  0.2862619E+04  0.7818609E-02  0.8284087E-01
        1   -1    0    0  501    0  0.00000000000E+00  0.00000000000E+00  0.17905684310E+04  0.17905684310E+04  0.50400001928E-02 0. -1.
       -1   -1    0    0    0  501  0.00000000000E+00  0.00000000000E+00 -0.11441321896E+04  0.11441321896E+04  0.50400001928E-02 0.  1.
    10030    2    1    2    0    0  0.00000000000E+00  0.00000000000E+00  0.64643624136E+03  0.29347006206E+04  0.28626190663E+04 0.  0.
        4    1    3    3  502    0  0.62971315031E+03 -0.57484828040E+03 -0.85536302220E+03  0.12077403321E+04  0.12699999809E+01 0.  1.
       -4    1    3    3    0  502 -0.62971315031E+03  0.57484828040E+03  0.15017992636E+04  0.17269602885E+04  0.12699999809E+01 0. -1.
</event>
<event>
 5   0  0.2234068E-06  0.2788241E+04  0.7818609E-02  0.8306928E-01
       -1   -1    0    0    0  501  0.00000000000E+00  0.00000000000E+00  0.14525136282E+04  0.14525136282E+04  0.50400001928E-02 0.  1.
        1   -1    0    0  501    0  0.00000000000E+00  0.00000000000E+00 -0.13380751178E+04  0.13380751178E+04  0.50400001928E-02 0. -1.
    10030    2    1    2    0    0  0.00000000000E+00  0.00000000000E+00  0.11443851042E+03  0.27905887459E+04  0.27882412694E+04 0.  0.
        3    1    3    3  502    0 -0.83951604783E+03 -0.62572046509E+03 -0.86402245487E+03  0.13575154171E+04  0.10100000352E+00 0. -1.
       -3    1    3    3    0  502  0.83951604783E+03  0.62572046509E+03  0.97846096529E+03  0.14330733288E+04  0.10100000352E+00 0.  1.
</event>
<event>
 5   0  0.2206967E-06  0.2809542E+04  0.7818609E-02  0.8300312E-01
        1   -1    0    0  501    0  0.00000000000E+00  0.00000000000E+00  0.16275858104E+04  0.16275858105E+04  0.50400001928E-02 0. -1.
       -1   -1    0    0    0  501  0.00000000000E+00  0.00000000000E+00 -0.12124588977E+04  0.12124588977E+04  0.50400001928E-02 0.  1.
    10030    2    1    2    0    0  0.00000000000E+00  0.00000000000E+00  0.41512691272E+03  0.28400447082E+04  0.28095415268E+04 0.  0.
        5    1    3    3  502    0 -0.26552291576E+03 -0.32163612964E+03  0.15635468610E+04  0.16182252918E+04  0.46999998093E+01 0. -1.
       -5    1    3    3    0  502  0.26552291576E+03  0.32163612964E+03 -0.11484199482E+04  0.12218194164E+04  0.46999998093E+01 0.  1.
</event>
<event>
 5   0  0.5584205E-06  0.2803135E+04  0.7818609E-02  0.8302296E-01
        2   -1    0    0  501    0  0.00000000000E+00  0.00000000000E+00  0.18754860907E+04  0.18754860907E+04  0.25500000920E-02 0. -1.
       -2   -1    0    0    0  501  0.00000000000E+00  0.00000000000E+00 -0.10474042209E+04  0.10474042209E+04  0.25500000920E-02 0.  1.
    10030    2    1    2    0    0  0.00000000000E+00  0.00000000000E+00  0.82808186980E+03  0.29228903115E+04  0.28031354213E+04 0.  0.
        1    1    3    3  502    0 -0.11626936316E+03 -0.78036310370E+03  0.16219371847E+04  0.18036533396E+04  0.50400001928E-02 0. -1.
       -1    1    3    3    0  502  0.11626936316E+03  0.78036310370E+03 -0.79385531485E+03  0.11192369719E+04  0.50400001928E-02 0.  1.
</event>
<event>
 5   0  0.5866136E-06  0.2760837E+04  0.7818609E-02  0.8315531E-01
        2   -1    0    0  501    0  0.00000000000E+00  0.00000000000E+00  0.18312540814E+04  0.18312540814E+04  0.25500000920E-02 0. -1.
       -2   -1    0    0    0  501  0.00000000000E+00  0.00000000000E+00 -0.10405741837E+04  0.10405741837E+04  0.25500000920E-02 0.  1.
    10030    2    1    2    0    0  0.00000000000E+00  0.00000000000E+00  0.79067989775E+03  0.28718282651E+04  0.27608373519E+04 0.  0.
        5    1    3    3  502    0  0.57208009851E+03  0.11349117593E+04 -0.16505118606E+03  0.12816256569E+04  0.46999998093E+01 0.  1.
       -5    1    3    3    0  502 -0.57208009851E+03 -0.11349117593E+04  0.95573108381E+03  0.15902026082E+04  0.46999998093E+01 0. -1.
</event>
<event>
 5   0  0.2206967E-06  0.2801679E+04  0.7818609E-02  0.8302747E-01
       -1   -1    0    0    0  501  0.00000000000E+00  0.00000000000E+00  0.95704809354E+03  0.95704809355E+03  0.50400001928E-02 0.  1.
        1   -1    0    0  501    0  0.00000000000E+00  0.00000000000E+00 -0.20504202357E+04  0.20504202357E+04  0.50400001928E-02 0. -1.
    10030    2    1    2    0    0  0.00000000000E+00  0.00000000000E+00 -0.10933721422E+04  0.30074683293E+04  0.28016786237E+04 0.  0.
        5    1    3    3  502    0 -0.50809880586E+03  0.13001518148E+04 -0.42072318217E+03  0.14579400619E+04  0.46999998093E+01 0. -1.
       -5    1    3    3    0  502  0.50809880586E+03 -0.13001518148E+04 -0.67264896001E+03  0.15495282674E+04  0.46999998093E+01 0.  1.
</event>
<event>
 5   0  0.2277133E-06  0.2818259E+04  0.7818609E-02  0.8297622E-01
        1   -1    0    0  501    0  0.00000000000E+00  0.00000000000E+00  0.23840881584E+04  0.23840881584E+04  0.50400001928E-02 0. -1.
       -1   -1    0    0    0  501  0.00000000000E+00  0.00000000000E+00 -0.83287422151E+03  0.83287422152E+03  0.50400001928E-02 0.  1.
    10030    2    1    2    0    0  0.00000000000E+00  0.00000000000E+00  0.15512139369E+04  0.32169623799E+04  0.28182587312E+04 0.  0.
        1    1    3    3  502    0 -0.78352143302E+02  0.14037139380E+04  0.66675526914E+03  0.15559930807E+04  0.50400001928E-02 0.  1.
       -1    1    3    3    0  502  0.78352143302E+02 -0.14037139380E+04  0.88445866776E+03  0.16609692993E+04  0.50400001928E-02 0. -1.
</event>
<event>
 5   0  0.5546570E-06  0.2792386E+04  0.7818609E-02  0.8305636E-01
        2   -1    0    0  501    0  0.00000000000E+00  0.00000000000E+00  0.23385967190E+04  0.23385967190E+04  0.25500000920E-02 0. -1.
       -2   -1    0    0    0  501  0.00000000000E+00  0.00000000000E+00 -0.83355753135E+03  0.83355753135E+03  0.25500000920E-02 0.  1.
    10030    2    1    2    0    0  0.00000000000E+00  0.00000000000E+00  0.15050391876E+04  0.31721542503E+04  0.27923860105E+04 0.  0.
        4    1    3    3  502    0  0.74065575985E+03  0.25196129914E+03 -0.56117047264E+03  0.96279248186E+03  0.12699999809E+01 0.  1.
       -4    1    3    3    0  502 -0.74065575985E+03 -0.25196129914E+03  0.20662096603E+04  0.22093617685E+04  0.12699999809E+01 0. -1.
</event>
<event>
 5   0  0.2277133E-06  0.2770698E+04  0.7818609E-02  0.8312424E-01
        1   -1    0    0  501    0  0.00000000000E+00  0.00000000000E+00  0.11474100044E+04  0.11474100044E+04  0.50400001928E-02 0.  1.
       -1   -1    0    0    0  501  0.00000000000E+00  0.00000000000E+00 -0.16726299091E+04  0.16726299092E+04  0.50400001928E-02 0. -1.
    10030    2    1    2    0    0  0.00000000000E+00  0.00000000000E+00 -0.52521990474E+03  0.28200399136E+04  0.27706983174E+04 0.  0.
        1    1    3    3  502    0 -0.85964830005E+03 -0.79763004993E+02  0.84012091941E+03  0.12046412312E+04  0.50400001928E-02 0.  1.
       -1    1    3    3    0  502  0.85964830005E+03  0.79763004993E+02 -0.13653408241E+04  0.16153986823E+04  0.50400001928E-02 0. -1.
</event>
<event>
 5   0  0.5546570E-06  0.2744471E+04  0.7818609E-02  0.8320718E-01
       -2   -1    0    0    0  501  0.00000000000E+00  0.00000000000E+00  0.19079642621E+04  0.19079642621E+04  0.25500000920E-02 0.  1.
        2   -1    0    0  501    0  0.00000000000E+00  0.00000000000E+00 -0.98693182667E+03  0.98693182668E+03  0.25500000920E-02 0. -1.
    10030    2    1    2    0    0  0.00000000000E+00  0.00000000000E+00  0.92103243539E+03  0.28948960887E+04  0.27444712820E+04 0.  0.
        4    1    3    3  502    0  0.57990161648E+03  0.16710631168E+02  0.17722454095E+04  0.18647843131E+04  0.12699999809E+01 0.  1.
       -4    1    3    3    0  502 -0.57990161648E+03 -0.16710631168E+02 -0.85121297414E+03  0.10301117756E+04  0.12699999809E+01 0. -1.
</event>
<event>
 5   0  0.5584205E-06  0.2788282E+04  0.7818609E-02  0.8306916E-01
        2   -1    0    0  501    0  0.00000000000E+00  0.00000000000E+00  0.20141773773E+04  0.20141773773E+04  0.25500000920E-02 0. -1.
       -2   -1    0    0    0  501  0.00000000000E+00  0.00000000000E+00 -0.96497419533E+03  0.96497419533E+03  0.25500000920E-02 0.  1.
    10030    2    1    2    0    0  0.00000000000E+00  0.00000000000E+00  0.10492031820E+04  0.29791515727E+04  0.27882820474E+04 0.  0.
        1    1    3    3  502    0  0.64070164094E+02 -0.13495638536E+04  0.89194106415E+03  0.16189460902E+04  0.50400001928E-02 0. -1.
       -1    1    3    3    0  502 -0.64070164094E+02  0.13495638536E+04  0.15726211785E+03  0.13602054825E+04  0.50400001928E-02 0.  1.
</event>
<event>
 5   0  0.1901375E-06  0.2813204E+04  0.7818609E-02  0.8299181E-01
        4   -1    0    0  501    0  0.00000000000E+00  0.00000000000E+00  0.13581963502E+04  0.13581969440E+04  0.12699999809E+01 0. -1.
       -4   -1    0    0    0  501  0.00000000000E+00  0.00000000000E+00 -0.14567314517E+04  0.14567320053E+04  0.12699999809E+01 0.  1.
    10030    2    1    2    0    0  0.00000000000E+00  0.00000000000E+00 -0.98535101502E+02  0.28149289493E+04  0.28132038360E+04 0.  0.
        3    1    3    3  502    0  0.12262828780E+04  0.55755225284E+03 -0.45435495218E+03  0.14216443452E+04  0.10100000352E+00 0.  1.
       -3    1    3    3    0  502 -0.12262828780E+04 -0.55755225284E+03  0.35581985067E+03  0.13932846040E+04  0.10100000352E+00 0. -1.
</event>
<event>
 5   0  0.2277133E-06  0.2786108E+04  0.7818609E-02  0.8307594E-01
        1   -1    0    0  501    0  0.00000000000E+00  0.00000000000E+00  0.12461055191E+04  0.12461055191E+04  0.50400001928E-02 0. -1.
       -1   -1    0    0    0  501  0.00000000000E+00  0.00000000000E+00 -0.15573314375E+04  0.15573314375E+04  0.50400001928E-02 0.  1.
    10030    2    1    2    0    0  0.00000000000E+00  0.00000000000E+00 -0.31122591843E+03  0.28034369566E+04  0.27861078941E+04 0.  0.
        1    1    3    3  502    0  0.87378802438E+03  0.32418209659E+03  0.88620108259E+03  0.12860606137E+04  0.50400001928E-02 0. -1.
       -1    1    3    3    0  502 -0.87378802438E+03 -0.32418209659E+03 -0.11974270010E+04  0.15173763429E+04  0.50400001928E-02 0.  1.
</event>
<event>
 5   0  0.5546570E-06  0.2831437E+04  0.7818609E-02  0.8293574E-01
       -2   -1    0    0    0  501  0.00000000000E+00  0.00000000000E+00  0.21119860027E+04  0.21119860027E+04  0.25500000920E-02 0. -1.
        2   -1    0    0  501    0  0.00000000000E+00  0.00000000000E+00 -0.94899260228E+03  0.94899260228E+03  0.25500000920E-02 0.  1.
    10030    2    1    2    0    0  0.00000000000E+00  0.00000000000E+00  0.11629934004E+04  0.30609786050E+04  0.28314371564E+04 0.  0.
        4    1    3    3  502    0 -0.97448501529E+03  0.61515658046E+03  0.14704869397E+04  0.18682537612E+04  0.12699999809E+01 0. -1.
       -4    1    3    3    0  502  0.97448501529E+03 -0.61515658046E+03 -0.30749353923E+03  0.11927248438E+04  0.12699999809E+01 0.  1.
</event>
<event>
 5   0  0.2267565E-06  0.2828564E+04  0.7818609E-02  0.8294455E-01
       -1   -1    0    0    0  501  0.00000000000E+00  0.00000000000E+00  0.10199135393E+04  0.10199135393E+04  0.50400001928E-02 0.  1.
        1   -1    0    0  501    0  0.00000000000E+00  0.00000000000E+00 -0.19611402176E+04  0.19611402176E+04  0.50400001928E-02 0. -1.
    10030    2    1    2    0    0  0.00000000000E+00  0.00000000000E+00 -0.94122667829E+03  0.29810537569E+04  0.28285639186E+04 0.  0.
        4    1    3    3  502    0  0.96732707999E+03 -0.69723368775E+03 -0.12720951686E+04  0.17435837307E+04  0.12699999809E+01 0. -1.
       -4    1    3    3    0  502 -0.96732707999E+03  0.69723368775E+03  0.33086849036E+03  0.12374700262E+04  0.12699999809E+01 0.  1.
</event>
<event>
 5   0  0.5546570E-06  0.2813497E+04  0.7818609E-02  0.8299090E-01
       -2   -1    0    0    0  501  0.00000000000E+00  0.00000000000E+00  0.12723637014E+04  0.12723637014E+04  0.25500000920E-02 0.  1.
        2   -1    0    0  501    0  0.00000000000E+00  0.00000000000E+00 -0.15553267843E+04  0.15553267843E+04  0.25500000920E-02 0. -1.
    10030    2    1    2    0    0  0.00000000000E+00  0.00000000000E+00 -0.28296308282E+03  0.28276904857E+04  0.28134970014E+04 0.  0.
        4    1    3    3  502    0 -0.12624957762E+03 -0.13717483073E+04 -0.42806448248E+03  0.14425232021E+04  0.12699999809E+01 0. -1.
       -4    1    3    3    0  502  0.12624957762E+03  0.13717483073E+04  0.14510139966E+03  0.13851672836E+04  0.12699999809E+01 0.  1.
</event>
<event>
 5   0  0.2190865E-06  0.2786625E+04  0.7818609E-02  0.8307433E-01
        1   -1    0    0  501    0  0.00000000000E+00  0.00000000000E+00  0.20471278816E+04  0.20471278816E+04  0.50400001928E-02 0. -1.
       -1   -1    0    0    0  501  0.00000000000E+00  0.00000000000E+00 -0.94831400931E+03  0.94831400932E+03  0.50400001928E-02 0.  1.
    10030    2    1    2    0    0  0.00000000000E+00  0.00000000000E+00  0.10988138723E+04  0.29954418910E+04  0.27866252342E+04 0.  0.
        2    1    3    3  502    0 -0.70358555430E+03 -0.69232778663E+03  0.16064404467E+04  0.18854711096E+04  0.25500000920E-02 0. -1.
       -2    1    3    3    0  502  0.70358555430E+03  0.69232778663E+03 -0.50762657441E+03  0.11099707813E+04  0.25500000920E-02 0.  1.
</event>
<event>
 5   0  0.5584205E-06  0.2800673E+04  0.7818609E-02  0.8303060E-01
       -2   -1    0    0    0  501  0.00000000000E+00  0.00000000000E+00  0.12342901942E+04  0.12342901942E+04  0.25500000920E-02 0.  1.
        2   -1    0    0  501    0  0.00000000000E+00  0.00000000000E+00 -0.15887203672E+04  0.15887203672E+04  0.25500000920E-02 0. -1.
    10030    2    1    2    0    0  0.00000000000E+00  0.00000000000E+00 -0.35443017304E+03  0.28230105614E+04  0.28006727552E+04 0.  0.
        1    1    3    3  502    0 -0.37209821694E+03  0.77205029983E+03  0.93905765275E+03  0.12713567649E+04  0.50400001928E-02 0.  1.
       -1    1    3    3    0  502  0.37209821694E+03 -0.77205029983E+03 -0.12934878258E+04  0.15516537964E+04  0.50400001928E-02 0. -1.
</event>
<event>
 5   0  0.2234068E-06  0.2818259E+04  0.7818609E-02  0.8297622E-01
       -1   -1    0    0    0  501  0.00000000000E+00  0.00000000000E+00  0.16847337955E+04  0.16847337955E+04  0.50400001928E-02 0. -1.
        1   -1    0    0  501    0  0.00000000000E+00  0.00000000000E+00 -0.11786115102E+04  0.11786115102E+04  0.50400001928E-02 0.  1.
    10030    2    1    2    0    0  0.00000000000E+00  0.00000000000E+00  0.50612228534E+03  0.28633453057E+04  0.28182594933E+04 0.  0.
        3    1    3    3  502    0  0.91097272374E+03 -0.82198334600E+03 -0.45092978250E+03  0.13072358637E+04  0.10100000352E+00 0.  1.
       -3    1    3    3    0  502 -0.91097272374E+03  0.82198334600E+03  0.95705206784E+03  0.15561094419E+04  0.10100000352E+00 0. -1.
</event>
<event>
 5   0  0.2277133E-06  0.2800339E+04  0.7818609E-02  0.8303163E-01
        1   -1    0    0  501    0  0.00000000000E+00  0.00000000000E+00  0.17109456918E+04  0.17109456918E+04  0.50400001928E-02 0.  1.
       -1   -1    0    0    0  501  0.00000000000E+00  0.00000000000E+00 -0.11458427705E+04  0.11458427705E+04  0.50400001928E-02 0. -1.
    10030    2    1    2    0    0  0.00000000000E+00  0.00000000000E+00  0.56510292132E+03  0.28567884624E+04  0.28003390879E+04 0.  0.
        1    1    3    3  502    0  0.34455120634E+03  0.26572575205E+03 -0.10751210199E+04  0.11598322795E+04  0.50400001928E-02 0. -1.
       -1    1    3    3    0  502 -0.34455120634E+03 -0.26572575205E+03  0.16402239412E+04  0.16969561829E+04  0.50400001928E-02 0.  1.
</event>
<event>
 5   0  0.2234068E-06  0.2858996E+04  0.7818609E-02  0.8285183E-01
        1   -1    0    0  501    0  0.00000000000E+00  0.00000000000E+00  0.23871012189E+04  0.23871012189E+04  0.50400001928E-02 0.  1.
       -1   -1    0    0    0  501  0.00000000000E+00  0.00000000000E+00 -0.85604447534E+03  0.85604447535E+03  0.50400001928E-02 0. -1.
    10030    2    1    2    0    0  0.00000000000E+00  0.00000000000E+00  0.15310567436E+04  0.32431456943E+04  0.28589961949E+04 0.  0.
        3    1    3    3  502    0 -0.10026981267E+04  0.51607945633E+03 -0.23098625475E+03  0.11511282286E+04  0.10100000352E+00 0. -1.
       -3    1    3    3    0  502  0.10026981267E+04 -0.51607945633E+03  0.17620429984E+04  0.20920174657E+04  0.10100000352E+00 0.  1.
</event>
<event>
 5   0  0.5625245E-06  0.2776219E+04  0.7818609E-02  0.8310690E-01
       -2   -1    0    0    0  501  0.00000000000E+00  0.00000000000E+00  0.15988700825E+04  0.15988700825E+04  0.25500000920E-02 0. -1.
        2   -1    0    0  501    0  0.00000000000E+00  0.00000000000E+00 -0.12051313033E+04  0.12051313033E+04  0.25500000920E-02 0.  1.
    10030    2    1    2    0    0  0.00000000000E+00  0.00000000000E+00  0.39373877921E+03  0.28040013858E+04  0.27762192899E+04 0.  0.
        3    1    3    3  502    0 -0.82325348263E+03 -0.42364945141E+03 -0.84770618858E+03  0.12553210532E+04  0.10100000352E+00 0.  1.
       -3    1    3    3    0  502  0.82325348263E+03  0.42364945141E+03  0.12414449678E+04  0.15486803326E+04  0.10100000352E+00 0. -1.
</event>
<event>
 5   0  0.5916603E-06  0.2834588E+04  0.7818609E-02  0.8292610E-01
        2   -1    0    0  501    0  0.00000000000E+00  0.00000000000E+00  0.15757625530E+04  0.15757625530E+04  0.25500000920E-02 0.  1.
       -2   -1    0    0    0  501  0.00000000000E+00  0.00000000000E+00 -0.12747620010E+04  0.12747620010E+04  0.25500000920E-02 0. -1.
    10030    2    1    2    0    0  0.00000000000E+00  0.00000000000E+00  0.30100055208E+03  0.28505245540E+04  0.28345879596E+04 0.  0.
        2    1    3    3  502    0 -0.27073269362E+02  0.13894755719E+04 -0.12917643250E+03  0.13957298727E+04  0.25500000920E-02 0. -1.
       -2    1    3    3    0  502  0.27073269362E+02 -0.13894755719E+04  0.43017698457E+03  0.14547946813E+04  0.25500000920E-02 0.  1.
</event>
<event>
 5   0  0.2267565E-06  0.2813937E+04  0.7818609E-02  0.8298955E-01
        1   -1    0    0  501    0  0.00000000000E+00  0.00000000000E+00  0.13984242082E+04  0.13984242082E+04  0.50400001928E-02 0. -1.
       -1   -1    0    0    0  501  0.00000000000E+00  0.00000000000E+00 -0.14155647721E+04  0.14155647721E+04  0.50400001928E-02 0.  1.
    10030    2    1    2    0    0  0.00000000000E+00  0.00000000000E+00 -0.17140563951E+02  0.28139889803E+04  0.28139367765E+04 0.  0.
        4    1    3    3  502    0  0.80488375406E+03 -0.36320954820E+03  0.10868035887E+04  0.14003223510E+04  0.12699999809E+01 0. -1.
       -4    1    3    3    0  502 -0.80488375406E+03  0.36320954820E+03 -0.11039441527E+04  0.14136666292E+04  0.12699999809E+01 0.  1.
</event>
<event>
 5   0  0.5584205E-06  0.2795993E+04  0.7818609E-02  0.8304513E-01
       -2   -1    0    0    0  501  0.00000000000E+00  0.00000000000E+00  0.13289424369E+04  0.13289424369E+04  0.25500000920E-02 0.  1.
        2   -1    0    0  501    0  0.00000000000E+00  0.00000000000E+00 -0.14706386713E+04  0.14706386713E+04  0.25500000920E-02 0. -1.
    10030    2    1    2    0    0  0.00000000000E+00  0.00000000000E+00 -0.14169623442E+03  0.27995811082E+04  0.27959929468E+04 0.  0.
        1    1    3    3  502    0  0.77206010806E+03  0.26360117329E+03  0.10658760567E+04  0.13422571129E+04  0.50400001928E-02 0.  1.
       -1    1    3    3    0  502 -0.77206010806E+03 -0.26360117329E+03 -0.12075722911E+04  0.14573239953E+04  0.50400001928E-02 0. -1.
</event>
<event>
 5   0  0.5866136E-06  0.2789979E+04  0.7818609E-02  0.8306386E-01
       -2   -1    0    0    0  501  0.00000000000E+00  0.00000000000E+00  0.12853719348E+04  0.12853719348E+04  0.25500000920E-02 0. -1.
        2   -1    0    0  501    0  0.00000000000E+00  0.00000000000E+00 -0.15139550933E+04  0.15139550933E+04  0.25500000920E-02 0.  1.
    10030    2    1    2    0    0  0.00000000000E+00  0.00000000000E+00 -0.22858315850E+03  0.27993270280E+04  0.27899787722E+04 0.  0.
        5    1    3    3  502    0  0.10217114268E+04  0.91757629634E+03 -0.36033312410E+03  0.14197543976E+04  0.46999998093E+01 0.  1.
       -5    1    3    3    0  502 -0.10217114268E+04 -0.91757629634E+03  0.13174996560E+03  0.13795726304E+04  0.46999998093E+01 0. -1.
</event>
<event>
 5   0  0.2267565E-06  0.2783854E+04  0.7818609E-02  0.8308299E-01
        1   -1    0    0  501    0  0.00000000000E+00  0.00000000000E+00  0.12920105977E+04  0.12920105977E+04  0.50400001928E-02 0. -1.
       -1   -1    0    0    0  501  0.00000000000E+00  0.00000000000E+00 -0.14995705470E+04  0.14995705470E+04  0.50400001928E-02 0.  1.
    10030    2    1    2    0    0  0.00000000000E+00  0.00000000000E+00 -0.20755994930E+03  0.27915811447E+04  0.27838541907E+04 0.  0.
        4    1    3    3  502    0  0.51511630405E+03 -0.57114724360E+03  0.10595717736E+04  0.13092929148E+04  0.12699999809E+01 0. -1.
       -4    1    3    3    0  502 -0.51511630405E+03  0.57114724360E+03 -0.12671317229E+04  0.14822882299E+04  0.12699999809E+01 0.  1.
</event>
<event>
 5   0  0.5584205E-06  0.2791061E+04  0.7818609E-02  0.8306049E-01
        2   -1    0    0  501    0  0.00000000000E+00  0.00000000000E+00  0.13659195652E+04  0.13659195652E+04  0.25500000920E-02 0. -1.
       -2   -1    0    0    0  501  0.00000000000E+00  0.00000000000E+00 -0.14257837340E+04  0.14257837340E+04  0.25500000920E-02 0.  1.
    10030    2    1    2    0    0  0.00000000000E+00  0.00000000000E+00 -0.59864168823E+02  0.27917032991E+04  0.27910613737E+04 0.  0.
        1    1    3    3  502    0  0.29605470983E+01  0.70634503573E+03 -0.12337760215E+04  0.14216663974E+04  0.50400001928E-02 0.  1.
       -1    1    3    3    0  502 -0.29605470983E+01 -0.70634503573E+03  0.11739118526E+04  0.13700369017E+04  0.50400001928E-02 0. -1.
</event>
<event>
 5   0  0.2277133E-06  0.2713909E+04  0.7818609E-02  0.8330506E-01
       -1   -1    0    0    0  501  0.00000000000E+00  0.00000000000E+00  0.11109613299E+04  0.11109613299E+04  0.50400001928E-02 0.  1.
        1   -1    0    0  501    0  0.00000000000E+00  0.00000000000E+00 -0.16574166258E+04  0.16574166258E+04  0.50400001928E-02 0. -1.
    10030    2    1    2    0    0  0.00000000000E+00  0.00000000000E+00 -0.54645529590E+03  0.27683779558E+04  0.27139091944E+04 0.  0.
        1    1    3    3  502    0  0.11578378591E+04  0.21105761394E+03  0.41574801406E+03  0.12481907850E+04  0.50400001928E-02 0. -1.
       -1    1    3    3    0  502 -0.11578378591E+04 -0.21105761394E+03 -0.96220330996E+03  0.15201871708E+04  0.50400001928E-02 0.  1.
</event>
<event>
 5   0  0.5584205E-06  0.2792141E+04  0.7818609E-02  0.8305712E-01
       -2   -1    0    0    0  501  0.00000000000E+00  0.00000000000E+00  0.14748140634E+04  0.14748140634E+04  0.25500000920E-02 0. -1.
        2   -1    0    0  501    0  0.00000000000E+00  0.00000000000E+00 -0.13215316447E+04  0.13215316447E+04  0.25500000920E-02 0.  1.
    10030    2    1    2    0    0  0.00000000000E+00  0.00000000000E+00  0.15328241871E+03  0.27963457081E+04  0.27921414397E+04 0.  0.
        1    1    3    3  502    0 -0.84992779937E+02 -0.28140974617E+03 -0.12901841915E+04  0.13232499635E+04  0.50400001928E-02 0.  1.
       -1    1    3    3    0  502  0.84992779937E+02  0.28140974617E+03  0.14434666102E+04  0.14730957446E+04  0.50400001928E-02 0. -1.
</event>
<event>
 5   0  0.2267565E-06  0.2798119E+04  0.7818609E-02  0.8303853E-01
       -1   -1    0    0    0  501  0.00000000000E+00  0.00000000000E+00  0.15750086044E+04  0.15750086044E+04  0.50400001928E-02 0. -1.
        1   -1    0    0  501    0  0.00000000000E+00  0.00000000000E+00 -0.12427658369E+04  0.12427658369E+04  0.50400001928E-02 0.  1.
    10030    2    1    2    0    0  0.00000000000E+00  0.00000000000E+00  0.33224276749E+03  0.28177744413E+04  0.27981185724E+04 0.  0.
        4    1    3    3  502    0  0.18691109278E+03 -0.46329242827E+03 -0.11498828883E+04  0.12537176318E+04  0.12699999809E+01 0.  1.
       -4    1    3    3    0  502 -0.18691109278E+03  0.46329242827E+03  0.14821256558E+04  0.15640568094E+04  0.12699999809E+01 0. -1.
</event>
<event>
 5   0  0.5916603E-06  0.2786685E+04  0.7818609E-02  0.8307414E-01
        2   -1    0    0  501    0  0.00000000000E+00  0.00000000000E+00  0.23553765055E+04  0.23553765055E+04  0.25500000920E-02 0.  1.
       -2   -1    0    0    0  501  0.00000000000E+00  0.00000000000E+00 -0.82424359422E+03  0.82424359422E+03  0.25500000920E-02 0. -1.
    10030    2    1    2    0    0  0.00000000000E+00  0.00000000000E+00  0.15311329113E+04  0.31796200997E+04  0.27866854840E+04 0.  0.
        2    1    3    3  502    0 -0.72127962960E+03 -0.10053655747E+04  0.34611147818E+02  0.12378215439E+04  0.25500000920E-02 0. -1.
       -2    1    3    3    0  502  0.72127962960E+03  0.10053655747E+04  0.14965217635E+04  0.19417985558E+04  0.25500000920E-02 0.  1.
</event>
<event>
 5   0  0.5916603E-06  0.2810697E+04  0.7818609E-02  0.8299955E-01
       -2   -1    0    0    0  501  0.00000000000E+00  0.00000000000E+00  0.14260451677E+04  0.14260451678E+04  0.25500000920E-02 0. -1.
        2   -1    0    0  501    0  0.00000000000E+00  0.00000000000E+00 -0.13849521807E+04  0.13849521807E+04  0.25500000920E-02 0.  1.
    10030    2    1    2    0    0  0.00000000000E+00  0.00000000000E+00  0.41092987072E+02  0.28109973484E+04  0.28106969704E+04 0.  0.
        2    1    3    3  502    0  0.47208351378E+03 -0.63934333964E+03 -0.11386207781E+04  0.13885532133E+04  0.25500000920E-02 0.  1.
       -2    1    3    3    0  502 -0.47208351378E+03  0.63934333964E+03  0.11797137651E+04  0.14224441351E+04  0.25500000920E-02 0. -1.
</event>
<event>
 5   0  0.2267565E-06  0.2800483E+04  0.7818609E-02  0.8303118E-01
       -1   -1    0    0    0  501  0.00000000000E+00  0.00000000000E+00  0.10558823042E+04  0.10558823042E+04  0.50400001928E-02 0. -1.
        1   -1    0    0  501    0  0.00000000000E+00  0.00000000000E+00 -0.18569082516E+04  0.18569082516E+04  0.50400001928E-02 0.  1.
    10030    2    1    2    0    0  0.00000000000E+00  0.00000000000E+00 -0.80102594739E+03  0.29127905558E+04  0.28004832179E+04 0.  0.
        4    1    3    3  502    0  0.13421027306E+04  0.20598176121E+03 -0.44732838923E+02  0.13585546972E+04  0.12699999809E+01 0. -1.
       -4    1    3    3    0  502 -0.13421027306E+04 -0.20598176121E+03 -0.75629310846E+03  0.15542358586E+04  0.12699999809E+01 0.  1.
</event>
<event>
 5   0  0.2206967E-06  0.2837186E+04  0.7818609E-02  0.8291816E-01
        1   -1    0    0  501    0  0.00000000000E+00  0.00000000000E+00  0.16057925922E+04  0.16057925923E+04  0.50400001928E-02 0.  1.
       -1   -1    0    0    0  501  0.00000000000E+00  0.00000000000E+00 -0.12532169539E+04  0.12532169539E+04  0.50400001928E-02 0. -1.
    10030    2    1    2    0    0  0.00000000000E+00  0.00000000000E+00  0.35257563832E+03  0.28590095462E+04  0.28371862830E+04 0.  0.
        5    1    3    3  502    0 -0.11448337719E+04  0.46598029525E+03 -0.52520065376E+03  0.13429965813E+04  0.46999998093E+01 0.  1.
       -5    1    3    3    0  502  0.11448337719E+04 -0.46598029525E+03  0.87777629208E+03  0.15160129649E+04  0.46999998093E+01 0. -1.
</event>
<event>
 5   0  0.2190865E-06  0.2799741E+04  0.7818609E-02  0.8303349E-01
       -1   -1    0    0    0  501  0.00000000000E+00  0.00000000000E+00  0.97057440508E+03  0.97057440510E+03  0.50400001928E-02 0. -1.
        1   -1    0    0  501    0  0.00000000000E+00  0.00000000000E+00 -0.20190487721E+04  0.20190487722E+04  0.50400001928E-02 0.  1.
    10030    2    1    2    0    0  0.00000000000E+00  0.00000000000E+00 -0.10484743671E+04  0.29896231773E+04  0.27997407458E+04 0.  0.
        2    1    3    3  502    0 -0.70784469893E+03  0.83075130207E+03 -0.14603002067E+04  0.18230931237E+04  0.25500000920E-02 0.  1.
       -2    1    3    3    0  502  0.70784469893E+03 -0.83075130207E+03  0.41182583968E+03  0.11665300536E+04  0.25500000920E-02 0. -1.
</event>
<event>
 5   0  0.5625245E-06  0.2801073E+04  0.7818609E-02  0.8302935E-01
        2   -1    0    0  501    0  0.00000000000E+00  0.00000000000E+00  0.13422829153E+04  0.13422829153E+04  0.25500000920E-02 0. -1.
       -2   -1    0    0    0  501  0.00000000000E+00  0.00000000000E+00 -0.14613180079E+04  0.14613180080E+04  0.25500000920E-02 0.  1.
    10030    2    1    2    0    0  0.00000000000E+00  0.00000000000E+00 -0.11903509266E+03  0.28036009232E+04  0.28010727915E+04 0.  0.
        3    1    3    3  502    0 -0.44168718615E+03 -0.13230683234E+04  0.66710619769E+02  0.13964410749E+04  0.10100000352E+00 0. -1.
       -3    1    3    3    0  502  0.44168718615E+03  0.13230683234E+04 -0.18574571243E+03  0.14071598483E+04  0.10100000352E+00 0.  1.
</event>
<event>
 5   0  0.2190865E-06  0.2800339E+04  0.7818609E-02  0.8303163E-01
        1   -1    0    0  501    0  0.00000000000E+00  0.00000000000E+00  0.22581169588E+04  0.22581169588E+04  0.50400001928E-02 0. -1.
       -1   -1    0    0    0  501  0.00000000000E+00  0.00000000000E+00 -0.86818973763E+03  0.86818973764E+03  0.50400001928E-02 0.  1.
    10030    2    1    2    0    0  0.00000000000E+00  0.00000000000E+00  0.13899272212E+04  0.31263066964E+04  0.28003385295E+04 0.  0.
        2    1    3    3  502    0  0.32679814691E+03 -0.75951967021E+03 -0.56652589079E+03  0.10023067111E+04  0.25500000920E-02 0.  1.
       -2    1    3    3    0  502 -0.32679814691E+03  0.75951967021E+03  0.19564531120E+04  0.21239999853E+04  0.25500000920E-02 0. -1.
</event>
<event>
 5   0  0.2277133E-06  0.2759393E+04  0.7818609E-02  0.8315987E-01
        1   -1    0    0  501    0  0.00000000000E+00  0.00000000000E+00  0.19005035483E+04  0.19005035483E+04  0.50400001928E-02 0.  1.
       -1   -1    0    0    0  501  0.00000000000E+00  0.00000000000E+00 -0.10016096488E+04  0.10016096488E+04  0.50400001928E-02 0. -1.
    10030    2    1    2    0    0  0.00000000000E+00  0.00000000000E+00  0.89889389943E+03  0.29021131971E+04  0.27593931881E+04 0.  0.
        1    1    3    3  502    0  0.28919838317E+03 -0.11824332701E+04 -0.23358812257E+03  0.12394948786E+04  0.50400001928E-02 0. -1.
       -1    1    3    3    0  502 -0.28919838317E+03  0.11824332701E+04  0.11324820220E+04  0.16626183185E+04  0.50400001928E-02 0.  1.
</event>
<event>
 5   0  0.5584205E-06  0.2817839E+04  0.7818609E-02  0.8297751E-01
        2   -1    0    0  501    0  0.00000000000E+00  0.00000000000E+00  0.12188505859E+04  0.12188505859E+04  0.25500000920E-02 0.  1.
       -2   -1    0    0    0  501  0.00000000000E+00  0.00000000000E+00 -0.16286283570E+04  0.16286283570E+04  0.25500000920E-02 0. -1.
    10030    2    1    2    0    0  0.00000000000E+00  0.00000000000E+00 -0.40977777111E+03  0.28474789429E+04  0.28178393334E+04 0.  0.
        1    1    3    3  502    0  0.49800078440E+02 -0.14079220982E+04 -0.22324432963E+03  0.14263809846E+04  0.50400001928E-02 0. -1.
       -1    1    3    3    0  502 -0.49800078440E+02  0.14079220982E+04 -0.18653344148E+03  0.14210979583E+04  0.50400001928E-02 0.  1.
</event>
<event>
 5   0  0.1901375E-06  0.2813046E+04  0.7818609E-02  0.8299229E-01
       -3   -1    0    0    0  501  0.00000000000E+00  0.00000000000E+00  0.68813709978E+03  0.68813710719E+03  0.10100000352E+00 0.  1.
        3   -1    0    0  501    0  0.00000000000E+00  0.00000000000E+00 -0.28748742365E+04  0.28748742383E+04  0.10100000352E+00 0. -1.
    10030    2    1    2    0    0  0.00000000000E+00  0.00000000000E+00 -0.21867371368E+04  0.35630113455E+04  0.28130464879E+04 0.  0.
        1    1    3    3  502    0 -0.10654375032E+04  0.90883893026E+03 -0.92743707752E+03  0.16796680646E+04  0.50400001928E-02 0.  1.
       -1    1    3    3    0  502  0.10654375032E+04 -0.90883893026E+03 -0.12593000592E+04  0.18833432809E+04  0.50400001928E-02 0. -1.
</event>
<event>
 5   0  0.2206967E-06  0.2798671E+04  0.7818609E-02  0.8303681E-01
       -1   -1    0    0    0  501  0.00000000000E+00  0.00000000000E+00  0.21644178593E+04  0.21644178593E+04  0.50400001928E-02 0. -1.
        1   -1    0    0  501    0  0.00000000000E+00  0.00000000000E+00 -0.90469573512E+03  0.90469573513E+03  0.50400001928E-02 0.  1.
    10030    2    1    2    0    0  0.00000000000E+00  0.00000000000E+00  0.12597221242E+04  0.30691135944E+04  0.27986708319E+04 0.  0.
        5    1    3    3  502    0  0.66647654254E+03  0.67901435038E+03  0.17551076420E+04  0.19964158872E+04  0.46999998093E+01 0. -1.
       -5    1    3    3    0  502 -0.66647654254E+03 -0.67901435038E+03 -0.49538551782E+03  0.10726977072E+04  0.46999998093E+01 0.  1.
</event>
<event>
 5   0  0.5916603E-06  0.2792523E+04  0.7818609E-02  0.8305594E-01
       -2   -1    0    0    0  501  0.00000000000E+00  0.00000000000E+00  0.17211389651E+04  0.17211389651E+04  0.25500000920E-02 0. -1.
        2   -1    0    0  501    0  0.00000000000E+00  0.00000000000E+00 -0.11327066972E+04  0.11327066972E+04  0.25500000920E-02 0.  1.
    10030    2    1    2    0    0  0.00000000000E+00  0.00000000000E+00  0.58843226794E+03  0.28538456623E+04  0.27925226105E+04 0.  0.
        2    1    3    3  502    0 -0.74049884574E+03 -0.71404160249E+03 -0.67063059417E+03  0.12279818176E+04  0.25500000920E-02 0.  1.
       -2    1    3    3    0  502  0.74049884574E+03  0.71404160249E+03  0.12590628621E+04  0.16258638447E+04  0.25500000920E-02 0. -1.
</event>
<event>
 5   0  0.5916603E-06  0.2778247E+04  0.7818609E-02  0.8310054E-01
        2   -1    0    0  501    0  0.00000000000E+00  0.00000000000E+00  0.17751617762E+04  0.17751617762E+04  0.25500000920E-02 0. -1.
       -2   -1    0    0    0  501  0.00000000000E+00  0.00000000000E+00 -0.10870358268E+04  0.10870358268E+04  0.25500000920E-02 0.  1.
    10030    2    1    2    0    0  0.00000000000E+00  0.00000000000E+00  0.68812594943E+03  0.28621976030E+04  0.27782472525E+04 0.  0.
        2    1    3    3  502    0  0.39829586652E+03 -0.36801978042E+03  0.16616079567E+04  0.17478613097E+04  0.25500000920E-02 0. -1.
       -2    1    3    3    0  502 -0.39829586652E+03  0.36801978042E+03 -0.97348200727E+03  0.11143362933E+04  0.25500000920E-02 0.  1.
</event>
<event>
 5   0  0.2234068E-06  0.2822706E+04  0.7818609E-02  0.8296254E-01
       -1   -1    0    0    0  501  0.00000000000E+00  0.00000000000E+00  0.14199130987E+04  0.14199130987E+04  0.50400001928E-02 0.  1.
        1   -1    0    0  501    0  0.00000000000E+00  0.00000000000E+00 -0.14028445422E+04  0.14028445422E+04  0.50400001928E-02 0. -1.
    10030    2    1    2    0    0  0.00000000000E+00  0.00000000000E+00  0.17068556496E+02  0.28227576409E+04  0.28227060357E+04 0.  0.
        3    1    3    3  502    0  0.75114377025E+03 -0.84386383987E+03  0.85447774708E+03  0.14164940431E+04  0.10100000352E+00 0.  1.
       -3    1    3    3    0  502 -0.75114377025E+03  0.84386383987E+03 -0.83740919058E+03  0.14062635978E+04  0.10100000352E+00 0. -1.
</event>
<event>
 5   0  0.5866136E-06  0.2796842E+04  0.7818609E-02  0.8304250E-01
       -2   -1    0    0    0  501  0.00000000000E+00  0.00000000000E+00  0.89329614912E+03  0.89329614913E+03  0.25500000920E-02 0.  1.
        2   -1    0    0  501    0  0.00000000000E+00  0.00000000000E+00 -0.21891744264E+04  0.21891744264E+04  0.25500000920E-02 0. -1.
    10030    2    1    2    0    0  0.00000000000E+00  0.00000000000E+00 -0.12958782772E+04  0.30824705755E+04  0.27968418510E+04 0.  0.
        5    1    3    3  502    0  0.49555950224E+03  0.50874200957E+02  0.79217727075E+03  0.93580677646E+03  0.46999998093E+01 0.  1.
       -5    1    3    3    0  502 -0.49555950224E+03 -0.50874200957E+02 -0.20880555480E+04  0.21466637990E+04  0.46999998093E+01 0. -1.
</event>
<event>
 5   0  0.2267565E-06  0.2760572E+04  0.7818609E-02  0.8315615E-01
        1   -1    0    0  501    0  0.00000000000E+00  0.00000000000E+00  0.19221965571E+04  0.19221965571E+04  0.50400001928E-02 0. -1.
       -1   -1    0    0    0  501  0.00000000000E+00  0.00000000000E+00 -0.99115200589E+03  0.99115200590E+03  0.50400001928E-02 0.  1.
    10030    2    1    2    0    0  0.00000000000E+00  0.00000000000E+00  0.93104455121E+03  0.29133485630E+04  0.27605716606E+04 0.  0.
        4    1    3    3  502    0  0.44531029073E+03  0.89848258059E+03 -0.53544943828E+03  0.11367849034E+04  0.12699999809E+01 0.  1.
       -4    1    3    3    0  502 -0.44531029073E+03 -0.89848258059E+03  0.14664939895E+04  0.17765636596E+04  0.12699999809E+01 0. -1.
</event>
<event>
 5   0  0.5916603E-06  0.2780186E+04  0.7818609E-02  0.8309446E-01
       -2   -1    0    0    0  501  0.00000000000E+00  0.00000000000E+00  0.11925404245E+04  0.11925404245E+04  0.25500000920E-02 0.  1.
        2   -1    0    0  501    0  0.00000000000E+00  0.00000000000E+00 -0.16203718965E+04  0.16203718965E+04  0.25500000920E-02 0. -1.
    10030    2    1    2    0    0  0.00000000000E+00  0.00000000000E+00 -0.42783147192E+03  0.28129123210E+04  0.27801863170E+04 0.  0.
        2    1    3    3  502    0 -0.82393684719E+03 -0.10056266418E+02  0.91880982747E+03  0.12341736327E+04  0.25500000920E-02 0.  1.
       -2    1    3    3    0  502  0.82393684719E+03  0.10056266418E+02 -0.13466412994E+04  0.15787386883E+04  0.25500000920E-02 0. -1.
</event>
<event>
 5   0  0.2206967E-06  0.2791269E+04  0.7818609E-02  0.8305984E-01
        1   -1    0    0  501    0  0.00000000000E+00  0.00000000000E+00  0.18103543174E+04  0.18103543174E+04  0.50400001928E-02 0.  1.
       -1   -1    0    0    0  501  0.00000000000E+00  0.00000000000E+00 -0.10759199082E+04  0.10759199083E+04  0.50400001928E-02 0. -1.
    10030    2    1    2    0    0  0.00000000000E+00  0.00000000000E+00  0.73443440917E+03  0.28862742257E+04  0.27912694253E+04 0.  0.
        5    1    3    3  502    0  0.72612260276E+03  0.80967671369E+03  0.12715964390E+04  0.16732632813E+04  0.46999998093E+01 0. -1.
       -5    1    3    3    0  502 -0.72612260276E+03 -0.80967671369E+03 -0.53716202981E+03  0.12130109444E+04  0.46999998093E+01 0.  1.
</event>
<event>
 5   0  0.1901375E-06  0.2624372E+04  0.7818609E-02  0.8359969E-01
        3   -1    0    0  501    0  0.00000000000E+00  0.00000000000E+00  0.74961907551E+03  0.74961908231E+03  0.10100000352E+00 0.  1.
       -3   -1    0    0    0  501  0.00000000000E+00  0.00000000000E+00 -0.22969424713E+04  0.22969424735E+04  0.10100000352E+00 0. -1.
    10030    2    1    2    0    0  0.00000000000E+00  0.00000000000E+00 -0.15473233958E+04  0.30465615559E+04  0.26243718529E+04 0.  0.
        1    1    3    3  502    0 -0.53940961289E+03 -0.99098219849E+01  0.61491427525E+03  0.81803453532E+03  0.50400001928E-02 0.  1.
       -1    1    3    3    0  502  0.53940961289E+03  0.99098219849E+01 -0.21622376711E+04  0.22285270205E+04  0.50400001928E-02 0. -1.
</event>
<event>
 5   0  0.2190865E-06  0.2797814E+04  0.7818609E-02  0.8303947E-01
       -1   -1    0    0    0  501  0.00000000000E+00  0.00000000000E+00  0.20628360660E+04  0.20628360660E+04  0.50400001928E-02 0. -1.
        1   -1    0    0  501    0  0.00000000000E+00  0.00000000000E+00 -0.94866545911E+03  0.94866545912E+03  0.50400001928E-02 0.  1.
    10030    2    1    2    0    0  0.00000000000E+00  0.00000000000E+00  0.11141706069E+04  0.30115015251E+04  0.27978143782E+04 0.  0.
        2    1    3    3  502    0 -0.47793701038E+03  0.11995402077E+04 -0.22182092705E+02  0.12914381677E+04  0.25500000920E-02 0. -1.
       -2    1    3    3    0  502  0.47793701038E+03 -0.11995402077E+04  0.11363526996E+04  0.17200633574E+04  0.25500000920E-02 0.  1.
</event>
<event>
 5   0  0.2206967E-06  0.2785191E+04  0.7818609E-02  0.8307881E-01
       -1   -1    0    0    0  501  0.00000000000E+00  0.00000000000E+00  0.74407885139E+03  0.74407885141E+03  0.50400001928E-02 0. -1.
        1   -1    0    0  501    0  0.00000000000E+00  0.00000000000E+00 -0.26063399630E+04  0.26063399630E+04  0.50400001928E-02 0.  1.
    10030    2    1    2    0    0  0.00000000000E+00  0.00000000000E+00 -0.18622611116E+04  0.33504188144E+04  0.27851911575E+04 0.  0.
        5    1    3    3  502    0  0.67982238850E+03  0.11766277208E+04 -0.56489678951E+03  0.14716459310E+04  0.46999998093E+01 0. -1.
       -5    1    3    3    0  502 -0.67982238850E+03 -0.11766277208E+04 -0.12973643221E+04  0.18787728834E+04  0.46999998093E+01 0.  1.
</event>
<event>
 5   0  0.5916603E-06  0.2584185E+04  0.7818609E-02  0.8373593E-01
        2   -1    0    0  501    0  0.00000000000E+00  0.00000000000E+00  0.21349784501E+04  0.21349784501E+04  0.25500000920E-02 0.  1.
       -2   -1    0    0    0  501  0.00000000000E+00  0.00000000000E+00 -0.78197627540E+03  0.78197627540E+03  0.25500000920E-02 0. -1.
    10030    2    1    2    0    0  0.00000000000E+00  0.00000000000E+00  0.13530021747E+04  0.29169547255E+04  0.25841845882E+04 0.  0.
        2    1    3    3  502    0 -0.12267818633E+04  0.32085353870E+03  0.95656792068E+03  0.15883837446E+04  0.25500000920E-02 0.  1.
       -2    1    3    3    0  502  0.12267818633E+04 -0.32085353870E+03  0.39643425400E+03  0.13285709808E+04  0.25500000920E-02 0. -1.
</event>
<event>
 5   0  0.5916603E-06  0.2798048E+04  0.7818609E-02  0.8303875E-01
        2   -1    0    0  501    0  0.00000000000E+00  0.00000000000E+00  0.17281460417E+04  0.17281460417E+04  0.25500000920E-02 0.  1.
       -2   -1    0    0    0  501  0.00000000000E+00  0.00000000000E+00 -0.11325829459E+04  0.11325829459E+04  0.25500000920E-02 0. -1.
    10030    2    1    2    0    0  0.00000000000E+00  0.00000000000E+00  0.59556309572E+03  0.28607289876E+04  0.27980484162E+04 0.  0.
        2    1    3    3  502    0 -0.20448047046E+02  0.83030984358E+03 -0.85324288108E+03  0.11907375752E+04  0.25500000920E-02 0. -1.
       -2    1    3    3    0  502  0.20448047046E+02 -0.83030984358E+03  0.14488059768E+04  0.16699914124E+04  0.25500000920E-02 0.  1.
</event>
<event>
 5   0  0.2267565E-06  0.2782036E+04  0.7818609E-02  0.8308867E-01
        1   -1    0    0  501    0  0.00000000000E+00  0.00000000000E+00  0.21286601868E+04  0.21286601868E+04  0.50400001928E-02 0.  1.
       -1   -1    0    0    0  501  0.00000000000E+00  0.00000000000E+00 -0.90899018407E+03  0.90899018409E+03  0.50400001928E-02 0. -1.
    10030    2    1    2    0    0  0.00000000000E+00  0.00000000000E+00  0.12196700027E+04  0.30376503709E+04  0.27820360997E+04 0.  0.
        4    1    3    3  502    0  0.20897108878E+03 -0.62928258452E+03  0.19449970525E+04  0.20549162110E+04  0.12699999809E+01 0.  1.
       -4    1    3    3    0  502 -0.20897108878E+03  0.62928258452E+03 -0.72532704973E+03  0.98273415993E+03  0.12699999809E+01 0. -1.
</event>
<event>
 5   0  0.5546570E-06  0.2743509E+04  0.7818609E-02  0.8321024E-01
       -2   -1    0    0    0  501  0.00000000000E+00  0.00000000000E+00  0.73817904474E+03  0.73817904475E+03  0.25500000920E-02 0. -1.
        2   -1    0    0  501    0  0.00000000000E+00  0.00000000000E+00 -0.25491238965E+04  0.25491238965E+04  0.25500000920E-02 0.  1.
    10030    2    1    2    0    0  0.00000000000E+00  0.00000000000E+00 -0.18109448518E+04  0.32873029413E+04  0.27435085878E+04 0.  0.
        4    1    3    3  502    0  0.61789066452E+03  0.12120501098E+04 -0.69500332114E+03  0.15277059833E+04  0.12699999809E+01 0.  1.
       -4    1    3    3    0  502 -0.61789066452E+03 -0.12120501098E+04 -0.11159415306E+04  0.17595969580E+04  0.12699999809E+01 0. -1.
</event>
<event>
 5   0  0.1901375E-06  0.2805666E+04  0.7818609E-02  0.8301511E-01
        3   -1    0    0  501    0  0.00000000000E+00  0.00000000000E+00  0.29124459223E+04  0.29124459240E+04  0.10100000352E+00 0. -1.
       -3   -1    0    0    0  501  0.00000000000E+00  0.00000000000E+00 -0.67570022230E+03  0.67570022984E+03  0.10100000352E+00 0.  1.
    10030    2    1    2    0    0  0.00000000000E+00  0.00000000000E+00  0.22367457000E+04  0.35881461539E+04  0.28056659629E+04 0.  0.
        1    1    3    3  502    0 -0.47884388881E+02 -0.88620087365E+03  0.25077800060E+04  0.26601889899E+04  0.50400001928E-02 0. -1.
       -1    1    3    3    0  502  0.47884388881E+02  0.88620087365E+03 -0.27103430604E+03  0.92795716401E+03  0.50400001928E-02 0.  1.
</event>
<event>
 5   0  0.2234068E-06  0.2818527E+04  0.7818609E-02  0.8297540E-01
       -1   -1    0    0    0  501  0.00000000000E+00  0.00000000000E+00  0.16101038217E+04  0.16101038217E+04  0.50400001928E-02 0.  1.
        1   -1    0    0  501    0  0.00000000000E+00  0.00000000000E+00 -0.12334750785E+04  0.12334750786E+04  0.50400001928E-02 0. -1.
    10030    2    1    2    0    0  0.00000000000E+00  0.00000000000E+00  0.37662874317E+03  0.28435789003E+04  0.28185265214E+04 0.  0.
        3    1    3    3  502    0 -0.24636355590E+03  0.38691179196E+03  0.15326851093E+04  0.15998498026E+04  0.10100000352E+00 0.  1.
       -3    1    3    3    0  502  0.24636355590E+03 -0.38691179196E+03 -0.11560563661E+04  0.12437290977E+04  0.10100000352E+00 0. -1.
</event>
<event>
 5   0  0.5916603E-06  0.2796759E+04  0.7818609E-02  0.8304275E-01
       -2   -1    0    0    0  501  0.00000000000E+00  0.00000000000E+00  0.80764736839E+03  0.80764736839E+03  0.25500000920E-02 0.  1.
        2   -1    0    0  501    0  0.00000000000E+00  0.00000000000E+00 -0.24211863469E+04  0.24211863469E+04  0.25500000920E-02 0. -1.
    10030    2    1    2    0    0  0.00000000000E+00  0.00000000000E+00 -0.16135389785E+04  0.32288337153E+04  0.27967586821E+04 0.  0.
        2    1    3    3  502    0  0.36507964810E+03  0.13493859416E+04 -0.84901839524E+03  0.16355298237E+04  0.25500000920E-02 0. -1.
       -2    1    3    3    0  502 -0.36507964810E+03 -0.13493859416E+04 -0.76452058330E+03  0.15933038916E+04  0.25500000920E-02 0.  1.
</event>
<event>
 5   0  0.2277133E-06  0.2667488E+04  0.7818609E-02  0.8345632E-01
        1   -1    0    0  501    0  0.00000000000E+00  0.00000000000E+00  0.12179979806E+04  0.12179979806E+04  0.50400001928E-02 0. -1.
       -1   -1    0    0    0  501  0.00000000000E+00  0.00000000000E+00 -0.14604893277E+04  0.14604893277E+04  0.50400001928E-02 0.  1.
    10030    2    1    2    0    0  0.00000000000E+00  0.00000000000E+00 -0.24249134710E+03  0.26784873083E+04  0.26674879957E+04 0.  0.
        1    1    3    3  502    0 -0.63227467801E+03 -0.11740950525E+04 -0.96596722651E+02  0.13370121120E+04  0.50400001928E-02 0. -1.
       -1    1    3    3    0  502  0.63227467801E+03  0.11740950525E+04 -0.14589462445E+03  0.13414751963E+04  0.50400001928E-02 0.  1.
</event>
<event>
 5   0  0.5916603E-06  0.2783927E+04  0.7818609E-02  0.8308276E-01
        2   -1    0    0  501    0  0.00000000000E+00  0.00000000000E+00  0.18135552257E+04  0.18135552257E+04  0.25500000920E-02 0.  1.
       -2   -1    0    0    0  501  0.00000000000E+00  0.00000000000E+00 -0.10683777960E+04  0.10683777960E+04  0.25500000920E-02 0. -1.
    10030    2    1    2    0    0  0.00000000000E+00  0.00000000000E+00  0.74517742967E+03  0.28819330217E+04  0.27839268201E+04 0.  0.
        2    1    3    3  502    0 -0.96461290979E+03  0.64588599845E+03 -0.42250975080E+03  0.12353790019E+04  0.25500000920E-02 0. -1.
       -2    1    3    3    0  502  0.96461290979E+03 -0.64588599845E+03  0.11676871805E+04  0.16465540198E+04  0.25500000920E-02 0.  1.
</event>
<event>
 5   0  0.5916603E-06  0.2794313E+04  0.7818609E-02  0.8305036E-01
        2   -1    0    0  501    0  0.00000000000E+00  0.00000000000E+00  0.22149037431E+04  0.22149037431E+04  0.25500000920E-02 0. -1.
       -2   -1    0    0    0  501  0.00000000000E+00  0.00000000000E+00 -0.88132323359E+03  0.88132323359E+03  0.25500000920E-02 0.  1.
    10030    2    1    2    0    0  0.00000000000E+00  0.00000000000E+00  0.13335805095E+04  0.30962269766E+04  0.27943128879E+04 0.  0.
        2    1    3    3  502    0  0.10254632255E+04 -0.23409736292E+03  0.16857526306E+04  0.19869922832E+04  0.25500000920E-02 0. -1.
       -2    1    3    3    0  502 -0.10254632255E+04  0.23409736292E+03 -0.35217212110E+03  0.11092346934E+04  0.25500000920E-02 0.  1.
</event>
<event>
 5   0  0.2234068E-06  0.2815592E+04  0.7818609E-02  0.8298444E-01
        1   -1    0    0  501    0  0.00000000000E+00  0.00000000000E+00  0.11455905475E+04  0.11455905475E+04  0.50400001928E-02 0. -1.
       -1   -1    0    0    0  501  0.00000000000E+00  0.00000000000E+00 -0.17300161025E+04  0.17300161025E+04  0.50400001928E-02 0.  1.
    10030    2    1    2    0    0  0.00000000000E+00  0.00000000000E+00 -0.58442555504E+03  0.28756066500E+04  0.28155923669E+04 0.  0.
        3    1    3    3  502    0 -0.39567478034E+03 -0.49762536683E+03 -0.15750512857E+04  0.16985217398E+04  0.10100000352E+00 0.  1.
       -3    1    3    3    0  502  0.39567478034E+03  0.49762536683E+03  0.99062573070E+03  0.11770849103E+04  0.10100000352E+00 0. -1.
</event>
<event>
 5   0  0.2277133E-06  0.2795853E+04  0.7818609E-02  0.8304557E-01
       -1   -1    0    0    0  501  0.00000000000E+00  0.00000000000E+00  0.10894535638E+04  0.10894535638E+04  0.50400001928E-02 0.  1.
        1   -1    0    0  501    0  0.00000000000E+00  0.00000000000E+00 -0.17937415064E+04  0.17937415065E+04  0.50400001928E-02 0. -1.
    10030    2    1    2    0    0  0.00000000000E+00  0.00000000000E+00 -0.70428794261E+03  0.28831950703E+04  0.27958526977E+04 0.  0.
        1    1    3    3  502    0  0.50082764565E+03  0.12888183901E+04 -0.14000684525E+03  0.13897780722E+04  0.50400001928E-02 0.  1.
       -1    1    3    3    0  502 -0.50082764565E+03 -0.12888183901E+04 -0.56428109735E+03  0.14934169981E+04  0.50400001928E-02 0. -1.
</event>
<event>
 5   0  0.2234068E-06  0.2801545E+04  0.7818609E-02  0.8302789E-01
        1   -1    0    0  501    0  0.00000000000E+00  0.00000000000E+00  0.23325919361E+04  0.23325919361E+04  0.50400001928E-02 0. -1.
       -1   -1    0    0    0  501  0.00000000000E+00  0.00000000000E+00 -0.84119452438E+03  0.84119452440E+03  0.50400001928E-02 0.  1.
    10030    2    1    2    0    0  0.00000000000E+00  0.00000000000E+00  0.14913974118E+04  0.31737864605E+04  0.28015449769E+04 0.  0.
        3    1    3    3  502    0 -0.56926246023E+03 -0.17362666243E+03 -0.69084022021E+03  0.91184767730E+03  0.10100000352E+00 0.  1.
       -3    1    3    3    0  502  0.56926246023E+03  0.17362666243E+03  0.21822376320E+04  0.22619387832E+04  0.10100000352E+00 0. -1.
</event>
<event>
 5   0  0.1901375E-06  0.2800673E+04  0.7818609E-02  0.8303059E-01
       -3   -1    0    0    0  501  0.00000000000E+00  0.00000000000E+00  0.16216037342E+04  0.16216037373E+04  0.10100000352E+00 0. -1.
        3   -1    0    0  501    0  0.00000000000E+00  0.00000000000E+00 -0.12092615066E+04  0.12092615108E+04  0.10100000352E+00 0.  1.
    10030    2    1    2    0    0  0.00000000000E+00  0.00000000000E+00  0.41234222762E+03  0.28308652481E+04  0.28006734798E+04 0.  0.
        5    1    3    3  502    0  0.10314716545E+04  0.46927091638E+03 -0.62535881693E+03  0.12943124456E+04  0.46999998093E+01 0.  1.
       -5    1    3    3    0  502 -0.10314716545E+04 -0.46927091638E+03  0.10377010445E+04  0.15365528025E+04  0.46999998093E+01 0. -1.
</event>
<event>
 5   0  0.2267565E-06  0.2802590E+04  0.7818609E-02  0.8302465E-01
       -1   -1    0    0    0  501  0.00000000000E+00  0.00000000000E+00  0.10847824281E+04  0.10847824281E+04  0.50400001928E-02 0.  1.
        1   -1    0    0  501    0  0.00000000000E+00  0.00000000000E+00 -0.18101577520E+04  0.18101577520E+04  0.50400001928E-02 0. -1.
    10030    2    1    2    0    0  0.00000000000E+00  0.00000000000E+00 -0.72537532391E+03  0.28949401801E+04  0.28025897463E+04 0.  0.
        4    1    3    3  502    0 -0.12336292150E+04 -0.57873867610E+03 -0.70033212555E+03  0.15320725160E+04  0.12699999809E+01 0. -1.
       -4    1    3    3    0  502  0.12336292150E+04  0.57873867610E+03 -0.25043198357E+02  0.13628676641E+04  0.12699999809E+01 0.  1.
</event>
<event>
 5   0  0.2267565E-06  0.2809109E+04  0.7818609E-02  0.8300446E-01
       -1   -1    0    0    0  501  0.00000000000E+00  0.00000000000E+00  0.11815927832E+04  0.11815927832E+04  0.50400001928E-02 0.  1.
        1   -1    0    0  501    0  0.00000000000E+00  0.00000000000E+00 -0.16695878249E+04  0.16695878249E+04  0.50400001928E-02 0. -1.
    10030    2    1    2    0    0  0.00000000000E+00  0.00000000000E+00 -0.48799504178E+03  0.28511806081E+04  0.28091087019E+04 0.  0.
        4    1    3    3  502    0  0.36835616537E+03 -0.88699882654E+03 -0.12841969578E+04  0.16036260855E+04  0.12699999809E+01 0. -1.
       -4    1    3    3    0  502 -0.36835616537E+03  0.88699882654E+03  0.79620191601E+03  0.12475545226E+04  0.12699999809E+01 0.  1.
</event>
<event>
 5   0  0.5584205E-06  0.2806517E+04  0.7818609E-02  0.8301248E-01
        2   -1    0    0  501    0  0.00000000000E+00  0.00000000000E+00  0.11348393530E+04  0.11348393530E+04  0.25500000920E-02 0.  1.
       -2   -1    0    0    0  501  0.00000000000E+00  0.00000000000E+00 -0.17351652350E+04  0.17351652350E+04  0.25500000920E-02 0. -1.
    10030    2    1    2    0    0  0.00000000000E+00  0.00000000000E+00 -0.60032588201E+03  0.28700045880E+04  0.28065165545E+04 0.  0.
        1    1    3    3  502    0 -0.31852328792E+03  0.39258277615E+03 -0.16388037692E+04  0.17150090714E+04  0.50400001928E-02 0. -1.
       -1    1    3    3    0  502  0.31852328792E+03 -0.39258277615E+03  0.10384778872E+04  0.11549955166E+04  0.50400001928E-02 0.  1.
</event>
<event>
 5   0  0.5625245E-06  0.2602007E+04  0.7818609E-02  0.8367520E-01
       -2   -1    0    0    0  501  0.00000000000E+00  0.00000000000E+00  0.12186301331E+04  0.12186301331E+04  0.25500000920E-02 0.  1.
        2   -1    0    0  501    0  0.00000000000E+00  0.00000000000E+00 -0.13889448899E+04  0.13889448899E+04  0.25500000920E-02 0. -1.
    10030    2    1    2    0    0  0.00000000000E+00  0.00000000000E+00 -0.17031475681E+03  0.26075750230E+04  0.26020069915E+04 0.  0.
        3    1    3    3  502    0 -0.10615825684E+04  0.38522923916E+03 -0.73248931007E+03  0.13460682434E+04  0.10100000352E+00 0. -1.
       -3    1    3    3    0  502  0.10615825684E+04 -0.38522923916E+03  0.56217455326E+03  0.12615067796E+04  0.10100000352E+00 0.  1.
</event>
<event>
 5   0  0.1901375E-06  0.2796858E+04  0.7818609E-02  0.8304244E-01
       -3   -1    0    0    0  501  0.00000000000E+00  0.00000000000E+00  0.13742563597E+04  0.13742563634E+04  0.10100000352E+00 0.  1.
        3   -1    0    0  501    0  0.00000000000E+00  0.00000000000E+00 -0.14230269202E+04  0.14230269238E+04  0.10100000352E+00 0. -1.
    10030    2    1    2    0    0  0.00000000000E+00  0.00000000000E+00 -0.48770560516E+02  0.27972832872E+04  0.27968580982E+04 0.  0.
        1    1    3    3  502    0  0.72187812909E+03  0.10394166646E+04 -0.61954613534E+03  0.14090182575E+04  0.50400001928E-02 0. -1.
       -1    1    3    3    0  502 -0.72187812909E+03 -0.10394166646E+04  0.57077557482E+03  0.13882650298E+04  0.50400001928E-02 0.  1.
</event>
<event>
 5   0  0.5916603E-06  0.2789337E+04  0.7818609E-02  0.8306586E-01
       -2   -1    0    0    0  501  0.00000000000E+00  0.00000000000E+00  0.13159126447E+04  0.13159126447E+04  0.25500000920E-02 0. -1.
        2   -1    0    0  501    0  0.00000000000E+00  0.00000000000E+00 -0.14781378856E+04  0.14781378856E+04  0.25500000920E-02 0.  1.
    10030    2    1    2    0    0  0.00000000000E+00  0.00000000000E+00 -0.16222524091E+03  0.27940505304E+04  0.27893370785E+04 0.  0.
        2    1    3    3  502    0 -0.33306935697E+03 -0.13399163528E+04  0.11617019515E+03  0.13855708366E+04  0.25500000920E-02 0.  1.
       -2    1    3    3    0  502  0.33306935697E+03  0.13399163528E+04 -0.27839543606E+03  0.14084796938E+04  0.25500000920E-02 0. -1.
</event>
<event>
 5   0  0.5546570E-06  0.2806438E+04  0.7818609E-02  0.8301273E-01
        2   -1    0    0  501    0  0.00000000000E+00  0.00000000000E+00  0.14471668305E+04  0.14471668305E+04  0.25500000920E-02 0. -1.
       -2   -1    0    0    0  501  0.00000000000E+00  0.00000000000E+00 -0.13606053256E+04  0.13606053256E+04  0.25500000920E-02 0.  1.
    10030    2    1    2    0    0  0.00000000000E+00  0.00000000000E+00  0.86561504924E+02  0.28077721561E+04  0.28064375259E+04 0.  0.
        4    1    3    3  502    0 -0.94463083524E+03  0.81782902435E+03  0.68221546131E+03  0.14235839548E+04  0.12699999809E+01 0. -1.
       -4    1    3    3    0  502  0.94463083524E+03 -0.81782902435E+03 -0.59565395639E+03  0.13841882013E+04  0.12699999809E+01 0.  1.
</event>
<event>
 5   0  0.2267565E-06  0.2809815E+04  0.7818609E-02  0.8300228E-01
       -1   -1    0    0    0  501  0.00000000000E+00  0.00000000000E+00  0.12015805331E+04  0.12015805331E+04  0.50400001928E-02 0. -1.
        1   -1    0    0  501    0  0.00000000000E+00  0.00000000000E+00 -0.16426407190E+04  0.16426407190E+04  0.50400001928E-02 0.  1.
    10030    2    1    2    0    0  0.00000000000E+00  0.00000000000E+00 -0.44106018588E+03  0.28442212522E+04  0.28098150195E+04 0.  0.
        4    1    3    3  502    0  0.65203551555E+03 -0.31900675197E+03 -0.14381089082E+04  0.16109234824E+04  0.12699999809E+01 0.  1.
       -4    1    3    3    0  502 -0.65203551555E+03  0.31900675197E+03  0.99704872233E+03  0.12332977698E+04  0.12699999809E+01 0. -1.
</event>
<event>
 5   0  0.5866136E-06  0.2797033E+04  0.7818609E-02  0.8304190E-01
       -2   -1    0    0    0  501  0.00000000000E+00  0.00000000000E+00  0.10088000271E+04  0.10088000271E+04  0.25500000920E-02 0. -1.
        2   -1    0    0  501    0  0.00000000000E+00  0.00000000000E+00 -0.19387874923E+04  0.19387874923E+04  0.25500000920E-02 0.  1.
    10030    2    1    2    0    0  0.00000000000E+00  0.00000000000E+00 -0.92998746514E+03  0.29475875194E+04  0.27970333389E+04 0.  0.
        5    1    3    3  502    0  0.96959837974E+03  0.99924572261E+03 -0.60325700914E+03  0.15174169306E+04  0.46999998093E+01 0.  1.
       -5    1    3    3    0  502 -0.96959837974E+03 -0.99924572261E+03 -0.32673045600E+03  0.14301705888E+04  0.46999998093E+01 0. -1.
</event>
<event>
 5   0  0.5584205E-06  0.2800518E+04  0.7818609E-02  0.8303108E-01
        2   -1    0    0  501    0  0.00000000000E+00  0.00000000000E+00  0.14800542760E+04  0.14800542760E+04  0.25500000920E-02 0.  1.
       -2   -1    0    0    0  501  0.00000000000E+00  0.00000000000E+00 -0.13247657543E+04  0.13247657543E+04  0.25500000920E-02 0. -1.
    10030    2    1    2    0    0  0.00000000000E+00  0.00000000000E+00  0.15528852172E+03  0.28048200303E+04  0.28005179659E+04 0.  0.
        1    1    3    3  502    0  0.91415145537E+03  0.56374554637E+03  0.97749164876E+03  0.14522299569E+04  0.50400001928E-02 0.  1.
       -1    1    3    3    0  502 -0.91415145537E+03 -0.56374554637E+03 -0.82220312704E+03  0.13525900734E+04  0.50400001928E-02 0. -1.
</event>
<event>
 5   0  0.2267565E-06  0.2803548E+04  0.7818609E-02  0.8302168E-01
        1   -1    0    0  501    0  0.00000000000E+00  0.00000000000E+00  0.12597153140E+04  0.12597153140E+04  0.50400001928E-02 0.  1.
       -1   -1    0    0    0  501  0.00000000000E+00  0.00000000000E+00 -0.15598529657E+04  0.15598529657E+04  0.50400001928E-02 0. -1.
    10030    2    1    2    0    0  0.00000000000E+00  0.00000000000E+00 -0.30013765174E+03  0.28195682797E+04  0.28035482293E+04 0.  0.
        4    1    3    3  502    0  0.84263979752E+03  0.50419070960E+03  0.85600684649E+03  0.13026893084E+04  0.12699999809E+01 0.  1.
       -4    1    3    3    0  502 -0.84263979752E+03 -0.50419070960E+03 -0.11561444982E+04  0.15168789714E+04  0.12699999809E+01 0. -1.
</event>
<event>
 5   0  0.2234068E-06  0.2733542E+04  0.7818609E-02  0.8324203E-01
        1   -1    0    0  501    0  0.00000000000E+00  0.00000000000E+00  0.13778214137E+04  0.13778214137E+04  0.50400001928E-02 0. -1.
       -1   -1    0    0    0  501  0.00000000000E+00  0.00000000000E+00 -0.13558089190E+04  0.13558089190E+04  0.50400001928E-02 0.  1.
    10030    2    1    2    0    0  0.00000000000E+00  0.00000000000E+00  0.22012494757E+02  0.27336303327E+04  0.27335417037E+04 0.  0.
        3    1    3    3  502    0  0.46279072995E+03  0.12539613141E+04  0.29644204965E+03  0.13691136315E+04  0.10100000352E+00 0. -1.
       -3    1    3    3    0  502 -0.46279072995E+03 -0.12539613141E+04 -0.27442955489E+03  0.13645167012E+04  0.10100000352E+00 0.  1.
</event>
<event>
 5   0  0.5546570E-06  0.2792982E+04  0.7818609E-02  0.8305451E-01
        2   -1    0    0  501    0  0.00000000000E+00  0.00000000000E+00  0.14877147583E+04  0.14877147583E+04  0.25500000920E-02 0. -1.
       -2   -1    0    0    0  501  0.00000000000E+00  0.00000000000E+00 -0.13108607207E+04  0.13108607208E+04  0.25500000920E-02 0.  1.
    10030    2    1    2    0    0  0.00000000000E+00  0.00000000000E+00  0.17685403753E+03  0.27985754790E+04  0.27929818047E+04 0.  0.
        4    1    3    3  502    0  0.81590522222E+03 -0.59739108218E+03  0.10534799004E+04  0.14602735874E+04  0.12699999809E+01 0. -1.
       -4    1    3    3    0  502 -0.81590522222E+03  0.59739108218E+03 -0.87662586286E+03  0.13383018916E+04  0.12699999809E+01 0.  1.
</event>
<event>
 5   0  0.5625245E-06  0.2827594E+04  0.7818609E-02  0.8294752E-01
       -2   -1    0    0    0  501  0.00000000000E+00  0.00000000000E+00  0.18492330960E+04  0.18492330960E+04  0.25500000920E-02 0. -1.
        2   -1    0    0  501    0  0.00000000000E+00  0.00000000000E+00 -0.10808926989E+04  0.10808926989E+04  0.25500000920E-02 0.  1.
    10030    2    1    2    0    0  0.00000000000E+00  0.00000000000E+00  0.76834039706E+03  0.29301257949E+04  0.28275944208E+04 0.  0.
        3    1    3    3  502    0  0.22038768843E+03 -0.11466438394E+04  0.12102331814E+04  0.16816739253E+04  0.10100000352E+00 0. -1.
       -3    1    3    3    0  502 -0.22038768843E+03  0.11466438394E+04 -0.44189278429E+03  0.12484518696E+04  0.10100000352E+00 0.  1.
</event>
<event>
 5   0  0.5916603E-06  0.2806648E+04  0.7818609E-02  0.8301208E-01
       -2   -1    0    0    0  501  0.00000000000E+00  0.00000000000E+00  0.16122506127E+04  0.16122506127E+04  0.25500000920E-02 0.  1.
        2   -1    0    0  501    0  0.00000000000E+00  0.00000000000E+00 -0.12214712206E+04  0.12214712206E+04  0.25500000920E-02 0. -1.
    10030    2    1    2    0    0  0.00000000000E+00  0.00000000000E+00  0.39077939208E+03  0.28337218333E+04  0.28066476258E+04 0.  0.
        2    1    3    3  502    0 -0.45693414456E+03 -0.13114480133E+04  0.39891053133E+03  0.14449270971E+04  0.25500000920E-02 0.  1.
       -2    1    3    3    0  502  0.45693414456E+03  0.13114480133E+04 -0.81311392585E+01  0.13887947362E+04  0.25500000920E-02 0. -1.
</event>
<event>
 5   0  0.5916603E-06  0.2791836E+04  0.7818609E-02  0.8305807E-01
        2   -1    0    0  501    0  0.00000000000E+00  0.00000000000E+00  0.17047432418E+04  0.17047432418E+04  0.25500000920E-02 0.  1.
       -2   -1    0    0    0  501  0.00000000000E+00  0.00000000000E+00 -0.11430387834E+04  0.11430387834E+04  0.25500000920E-02 0. -1.
    10030    2    1    2    0    0  0.00000000000E+00  0.00000000000E+00  0.56170445841E+03  0.28477820252E+04  0.27918364143E+04 0.  0.
        2    1    3    3  502    0 -0.40403912761E+03 -0.35955536822E+03  0.15935199495E+04  0.16828052498E+04  0.25500000920E-02 0.  1.
       -2    1    3    3    0  502  0.40403912761E+03  0.35955536822E+03 -0.10318154911E+04  0.11649767753E+04  0.25500000920E-02 0. -1.
</event>
<event>
 5   0  0.5546570E-06  0.2769879E+04  0.7818609E-02  0.8312681E-01
       -2   -1    0    0    0  501  0.00000000000E+00  0.00000000000E+00  0.71801169354E+03  0.71801169355E+03  0.25500000920E-02 0. -1.
        2   -1    0    0  501    0  0.00000000000E+00  0.00000000000E+00 -0.26713459524E+04  0.26713459524E+04  0.25500000920E-02 0.  1.
    10030    2    1    2    0    0  0.00000000000E+00  0.00000000000E+00 -0.19533342588E+04  0.33893576459E+04  0.27698791535E+04 0.  0.
        4    1    3    3  502    0 -0.79482761152E+03 -0.53418533682E+03 -0.22008971065E+04  0.24002196967E+04  0.12699999809E+01 0.  1.
       -4    1    3    3    0  502  0.79482761152E+03  0.53418533682E+03  0.24756284768E+03  0.98913794921E+03  0.12699999809E+01 0. -1.
</event>
<event>
 5   0  0.5866136E-06  0.2801425E+04  0.7818609E-02  0.8302826E-01
       -2   -1    0    0    0  501  0.00000000000E+00  0.00000000000E+00  0.11228255128E+04  0.11228255128E+04  0.25500000920E-02 0.  1.
        2   -1    0    0  501    0  0.00000000000E+00  0.00000000000E+00 -0.17473728925E+04  0.17473728925E+04  0.25500000920E-02 0. -1.
    10030    2    1    2    0    0  0.00000000000E+00  0.00000000000E+00 -0.62454737965E+03  0.28701984053E+04  0.28014245406E+04 0.  0.
        5    1    3    3  502    0 -0.91077827920E+03 -0.40887834092E+03  0.69432958705E+03  0.12160650628E+04  0.46999998093E+01 0.  1.
       -5    1    3    3    0  502  0.91077827920E+03  0.40887834092E+03 -0.13188769667E+04  0.16541333425E+04  0.46999998093E+01 0. -1.
</event>
<event>
 5   0  0.5866136E-06  0.2813720E+04  0.7818609E-02  0.8299022E-01
       -2   -1    0    0    0  501  0.00000000000E+00  0.00000000000E+00  0.87643197796E+03  0.87643197796E+03  0.25500000920E-02 0. -1.
        2   -1    0    0  501    0  0.00000000000E+00  0.00000000000E+00 -0.22583097560E+04  0.22583097560E+04  0.25500000920E-02 0.  1.
    10030    2    1    2    0    0  0.00000000000E+00  0.00000000000E+00 -0.13818777780E+04  0.31347417339E+04  0.28137198768E+04 0.  0.
        5    1    3    3  502    0 -0.10245619333E+04  0.18271991090E+03  0.36369996783E+03  0.11024579256E+04  0.46999998093E+01 0. -1.
       -5    1    3    3    0  502  0.10245619333E+04 -0.18271991090E+03 -0.17455777458E+04  0.20322838084E+04  0.46999998093E+01 0.  1.
</event>
<event>
 5   0  0.5625245E-06  0.2773742E+04  0.7818609E-02  0.8311467E-01
        2   -1    0    0  501    0  0.00000000000E+00  0.00000000000E+00  0.10654188108E+04  0.10654188108E+04  0.25500000920E-02 0. -1.
       -2   -1    0    0    0  501  0.00000000000E+00  0.00000000000E+00 -0.18053097438E+04  0.18053097438E+04  0.25500000920E-02 0.  1.
    10030    2    1    2    0    0  0.00000000000E+00  0.00000000000E+00 -0.73989093293E+03  0.28707285546E+04  0.27737418484E+04 0.  0.
        3    1    3    3  502    0 -0.16456304382E+03 -0.45266808520E+03  0.97607610886E+03  0.10884456676E+04  0.10100000352E+00 0. -1.
       -3    1    3    3    0  502  0.16456304382E+03  0.45266808520E+03 -0.17159670418E+04  0.17822828870E+04  0.10100000352E+00 0.  1.
</event>
<event>
 5   0  0.2277133E-06  0.2791158E+04  0.7818609E-02  0.8306019E-01
        1   -1    0    0  501    0  0.00000000000E+00  0.00000000000E+00  0.17502251028E+04  0.17502251028E+04  0.50400001928E-02 0. -1.
       -1   -1    0    0    0  501  0.00000000000E+00  0.00000000000E+00 -0.11127943310E+04  0.11127943310E+04  0.50400001928E-02 0.  1.
    10030    2    1    2    0    0  0.00000000000E+00  0.00000000000E+00  0.63743077178E+03  0.28630194338E+04  0.27911578761E+04 0.  0.
        1    1    3    3  502    0 -0.25722992547E+03 -0.13715191052E+04  0.33945174642E+03  0.14361265190E+04  0.50400001928E-02 0. -1.
       -1    1    3    3    0  502  0.25722992547E+03  0.13715191052E+04  0.29797902536E+03  0.14268929147E+04  0.50400001928E-02 0.  1.
</event>
<event>
 5   0  0.2277133E-06  0.2640638E+04  0.7818609E-02  0.8354527E-01
       -1   -1    0    0    0  501  0.00000000000E+00  0.00000000000E+00  0.10625122105E+04  0.10625122106E+04  0.50400001928E-02 0.  1.
        1   -1    0    0  501    0  0.00000000000E+00  0.00000000000E+00 -0.16406802673E+04  0.16406802673E+04  0.50400001928E-02 0. -1.
    10030    2    1    2    0    0  0.00000000000E+00  0.00000000000E+00 -0.57816805671E+03  0.27031924778E+04  0.26406384210E+04 0.  0.
        1    1    3    3  502    0 -0.83002663702E+03 -0.74703191330E+03  0.43204795315E+03  0.11973580632E+04  0.50400001928E-02 0. -1.
       -1    1    3    3    0  502  0.83002663702E+03  0.74703191330E+03 -0.10102160099E+04  0.15058344146E+04  0.50400001928E-02 0.  1.
</event>
<event>
 5   0  0.5916603E-06  0.2796513E+04  0.7818609E-02  0.8304352E-01
        2   -1    0    0  501    0  0.00000000000E+00  0.00000000000E+00  0.13658113087E+04  0.13658113087E+04  0.25500000920E-02 0.  1.
       -2   -1    0    0    0  501  0.00000000000E+00  0.00000000000E+00 -0.14314724359E+04  0.14314724359E+04  0.25500000920E-02 0. -1.
    10030    2    1    2    0    0  0.00000000000E+00  0.00000000000E+00 -0.65661127285E+02  0.27972837446E+04  0.27965130009E+04 0.  0.
        2    1    3    3  502    0 -0.96125099269E+03 -0.70460249216E+03  0.69857072771E+03  0.13814735627E+04  0.25500000920E-02 0. -1.
       -2    1    3    3    0  502  0.96125099269E+03  0.70460249216E+03 -0.76423185500E+03  0.14158101819E+04  0.25500000920E-02 0.  1.
</event>
<event>
 5   0  0.5546570E-06  0.2794458E+04  0.7818609E-02  0.8304991E-01
       -2   -1    0    0    0  501  0.00000000000E+00  0.00000000000E+00  0.17001149517E+04  0.17001149517E+04  0.25500000920E-02 0.  1.
        2   -1    0    0  501    0  0.00000000000E+00  0.00000000000E+00 -0.11483042785E+04  0.11483042785E+04  0.25500000920E-02 0. -1.
    10030    2    1    2    0    0  0.00000000000E+00  0.00000000000E+00  0.55181067317E+03  0.28484192302E+04  0.27944582823E+04 0.  0.
        4    1    3    3  502    0 -0.16848542977E+03  0.62581562777E+03  0.15376345262E+04  0.16686383937E+04  0.12699999809E+01 0.  1.
       -4    1    3    3    0  502  0.16848542977E+03 -0.62581562777E+03 -0.98582385300E+03  0.11797808364E+04  0.12699999809E+01 0. -1.
</event>
<event>
 5   0  0.2206967E-06  0.2662685E+04  0.7818609E-02  0.8347215E-01
        1   -1    0    0  501    0  0.00000000000E+00  0.00000000000E+00  0.14533803883E+04  0.14533803883E+04  0.50400001928E-02 0.  1.
       -1   -1    0    0    0  501  0.00000000000E+00  0.00000000000E+00 -0.12195520359E+04  0.12195520359E+04  0.50400001928E-02 0. -1.
    10030    2    1    2    0    0  0.00000000000E+00  0.00000000000E+00  0.23382835244E+03  0.26729324242E+04  0.26626851195E+04 0.  0.
        5    1    3    3  502    0 -0.31278121886E+03  0.77251766879E+03  0.11590980910E+04  0.14276365483E+04  0.46999998093E+01 0.  1.
       -5    1    3    3    0  502  0.31278121886E+03 -0.77251766879E+03 -0.92526973854E+03  0.12452958759E+04  0.46999998093E+01 0. -1.
</event>
<event>
 5   0  0.5584205E-06  0.2792320E+04  0.7818609E-02  0.8305657E-01
       -2   -1    0    0    0  501  0.00000000000E+00  0.00000000000E+00  0.76535669693E+03  0.76535669694E+03  0.25500000920E-02 0. -1.
        2   -1    0    0  501    0  0.00000000000E+00  0.00000000000E+00 -0.25468688684E+04  0.25468688684E+04  0.25500000920E-02 0.  1.
    10030    2    1    2    0    0  0.00000000000E+00  0.00000000000E+00 -0.17815121715E+04  0.33122255654E+04  0.27923202858E+04 0.  0.
        1    1    3    3  502    0  0.68421207785E+03 -0.33055855342E+03  0.49858114507E+03  0.90884447678E+03  0.50400001928E-02 0. -1.
       -1    1    3    3    0  502 -0.68421207785E+03  0.33055855342E+03 -0.22800933166E+04  0.24033810886E+04  0.50400001928E-02 0.  1.
</event>
<event>
 5   0  0.2206967E-06  0.2656945E+04  0.7818609E-02  0.8349112E-01
        1   -1    0    0  501    0  0.00000000000E+00  0.00000000000E+00  0.15769110244E+04  0.15769110244E+04  0.50400001928E-02 0.  1.
       -1   -1    0    0    0  501  0.00000000000E+00  0.00000000000E+00 -0.11191746923E+04  0.11191746923E+04  0.50400001928E-02 0. -1.
    10030    2    1    2    0    0  0.00000000000E+00  0.00000000000E+00  0.45773633214E+03  0.26960857167E+04  0.26569447947E+04 0.  0.
        5    1    3    3  502    0 -0.11586585510E+04  0.56306535161E+03  0.55812407294E+03  0.14039433033E+04  0.46999998093E+01 0.  1.
       -5    1    3    3    0  502  0.11586585510E+04 -0.56306535161E+03 -0.10038774080E+03  0.12921424134E+04  0.46999998093E+01 0. -1.
</event>
<event>
 5   0  0.2267565E-06  0.2789368E+04  0.7818609E-02  0.8306577E-01
        1   -1    0    0  501    0  0.00000000000E+00  0.00000000000E+00  0.14515740702E+04  0.14515740702E+04  0.50400001928E-02 0. -1.
       -1   -1    0    0    0  501  0.00000000000E+00  0.00000000000E+00 -0.13400235550E+04  0.13400235550E+04  0.50400001928E-02 0.  1.
    10030    2    1    2    0    0  0.00000000000E+00  0.00000000000E+00  0.11155051521E+03  0.27915976251E+04  0.27893679899E+04 0.  0.
        4    1    3    3  502    0  0.35476975340E+03  0.12395504460E+04 -0.47643449664E+03  0.13745320398E+04  0.12699999809E+01 0.  1.
       -4    1    3    3    0  502 -0.35476975340E+03 -0.12395504460E+04  0.58798501185E+03  0.14170655853E+04  0.12699999809E+01 0. -1.
</event>
<event>
 5   0  0.2277133E-06  0.2800574E+04  0.7818609E-02  0.8303090E-01
       -1   -1    0    0    0  501  0.00000000000E+00  0.00000000000E+00  0.83603957957E+03  0.83603957959E+03  0.50400001928E-02 0. -1.
        1   -1    0    0  501    0  0.00000000000E+00  0.00000000000E+00 -0.23453474374E+04  0.23453474375E+04  0.50400001928E-02 0.  1.
    10030    2    1    2    0    0  0.00000000000E+00  0.00000000000E+00 -0.15093078579E+04  0.31813870170E+04  0.28005737166E+04 0.  0.
        1    1    3    3  502    0  0.12049523461E+04 -0.61130743584E+03 -0.11723419074E+04  0.17888522816E+04  0.50400001928E-02 0. -1.
       -1    1    3    3    0  502 -0.12049523461E+04  0.61130743584E+03 -0.33696595051E+03  0.13925347354E+04  0.50400001928E-02 0.  1.
</event>
<event>
 5   0  0.2277133E-06  0.2820754E+04  0.7818609E-02  0.8296854E-01
        1   -1    0    0  501    0  0.00000000000E+00  0.00000000000E+00  0.16838526366E+04  0.16838526366E+04  0.50400001928E-02 0. -1.
       -1   -1    0    0    0  501  0.00000000000E+00  0.00000000000E+00 -0.11813168822E+04  0.11813168822E+04  0.50400001928E-02 0.  1.
    10030    2    1    2    0    0  0.00000000000E+00  0.00000000000E+00  0.50253575440E+03  0.28651695188E+04  0.28207541877E+04 0.  0.
        1    1    3    3  502    0 -0.39554102669E+03  0.13443759933E+04  0.89499278528E+02  0.14042113929E+04  0.50400001928E-02 0.  1.
       -1    1    3    3    0  502  0.39554102669E+03 -0.13443759933E+04  0.41303647587E+03  0.14609581259E+04  0.50400001928E-02 0. -1.
</event>
<event>
 5   0  0.2277133E-06  0.2800929E+04  0.7818609E-02  0.8302980E-01
       -1   -1    0    0    0  501  0.00000000000E+00  0.00000000000E+00  0.13466566239E+04  0.13466566239E+04  0.50400001928E-02 0. -1.
        1   -1    0    0  501    0  0.00000000000E+00  0.00000000000E+00 -0.14564224349E+04  0.14564224349E+04  0.50400001928E-02 0.  1.
    10030    2    1    2    0    0  0.00000000000E+00  0.00000000000E+00 -0.10976581097E+03  0.28030790588E+04  0.28009290738E+04 0.  0.
        1    1    3    3  502    0 -0.66942274700E+03  0.80411684967E+03 -0.98649498196E+03  0.14380205393E+04  0.50400001928E-02 0.  1.
       -1    1    3    3    0  502  0.66942274700E+03 -0.80411684967E+03  0.87672917099E+03  0.13650585194E+04  0.50400001928E-02 0. -1.
</event>
<event>
 5   0  0.2190865E-06  0.2806435E+04  0.7818609E-02  0.8301273E-01
        1   -1    0    0  501    0  0.00000000000E+00  0.00000000000E+00  0.16414665344E+04  0.16414665344E+04  0.50400001928E-02 0. -1.
       -1   -1    0    0    0  501  0.00000000000E+00  0.00000000000E+00 -0.11995491795E+04  0.11995491796E+04  0.50400001928E-02 0.  1.
    10030    2    1    2    0    0  0.00000000000E+00  0.00000000000E+00  0.44191735481E+03  0.28410157139E+04  0.28064353437E+04 0.  0.
        2    1    3    3  502    0  0.10577528356E+04 -0.25891877704E+03  0.11168147745E+04  0.15598574405E+04  0.25500000920E-02 0. -1.
       -2    1    3    3    0  502 -0.10577528356E+04  0.25891877704E+03 -0.67489741966E+03  0.12811582734E+04  0.25500000920E-02 0.  1.
</event>
<event>
 5   0  0.2206967E-06  0.2796581E+04  0.7818609E-02  0.8304331E-01
       -1   -1    0    0    0  501  0.00000000000E+00  0.00000000000E+00  0.16951314670E+04  0.16951314670E+04  0.50400001928E-02 0.  1.
        1   -1    0    0  501    0  0.00000000000E+00  0.00000000000E+00 -0.11534306489E+04  0.11534306489E+04  0.50400001928E-02 0. -1.
    10030    2    1    2    0    0  0.00000000000E+00  0.00000000000E+00  0.54170081804E+03  0.28485621159E+04  0.27965811899E+04 0.  0.
        5    1    3    3  502    0  0.51549875915E+03 -0.32813823339E+03  0.15519161450E+04  0.16678967240E+04  0.46999998093E+01 0.  1.
       -5    1    3    3    0  502 -0.51549875915E+03  0.32813823339E+03 -0.10102153269E+04  0.11806653919E+04  0.46999998093E+01 0. -1.
</event>
<event>
 5   0  0.5625245E-06  0.2796369E+04  0.7818609E-02  0.8304397E-01
        2   -1    0    0  501    0  0.00000000000E+00  0.00000000000E+00  0.18430244375E+04  0.18430244375E+04  0.25500000920E-02 0.  1.
       -2   -1    0    0    0  501  0.00000000000E+00  0.00000000000E+00 -0.10607127050E+04  0.10607127050E+04  0.25500000920E-02 0. -1.
    10030    2    1    2    0    0  0.00000000000E+00  0.00000000000E+00  0.78231173251E+03  0.29037371425E+04  0.27963686714E+04 0.  0.
        3    1    3    3  502    0 -0.45374682946E+03  0.14428192261E+03  0.17562477314E+04  0.18196454497E+04  0.10100000352E+00 0.  1.
       -3    1    3    3    0  502  0.45374682946E+03 -0.14428192261E+03 -0.97393599886E+03  0.10840916929E+04  0.10100000352E+00 0. -1.
</event>
<event>
 5   0  0.2234068E-06  0.2827511E+04  0.7818609E-02  0.8294778E-01
        1   -1    0    0  501    0  0.00000000000E+00  0.00000000000E+00  0.14926468630E+04  0.14926468630E+04  0.50400001928E-02 0.  1.
       -1   -1    0    0    0  501  0.00000000000E+00  0.00000000000E+00 -0.13390334727E+04  0.13390334727E+04  0.50400001928E-02 0. -1.
    10030    2    1    2    0    0  0.00000000000E+00  0.00000000000E+00  0.15361339030E+03  0.28316803357E+04  0.28275106454E+04 0.  0.
        3    1    3    3  502    0  0.62398361936E+03 -0.71941847327E+03  0.11232330239E+04  0.14726068495E+04  0.10100000352E+00 0.  1.
       -3    1    3    3    0  502 -0.62398361936E+03  0.71941847327E+03 -0.96961963359E+03  0.13590734862E+04  0.10100000352E+00 0. -1.
</event>
<event>
 5   0  0.2190865E-06  0.2766315E+04  0.7818609E-02  0.8313803E-01
        1   -1    0    0  501    0  0.00000000000E+00  0.00000000000E+00  0.13589246339E+04  0.13589246339E+04  0.50400001928E-02 0.  1.
       -1   -1    0    0    0  501  0.00000000000E+00  0.00000000000E+00 -0.14078226090E+04  0.14078226090E+04  0.50400001928E-02 0. -1.
    10030    2    1    2    0    0  0.00000000000E+00  0.00000000000E+00 -0.48897975102E+02  0.27667472429E+04  0.27663151111E+04 0.  0.
        2    1    3    3  502    0  0.60435186101E+03  0.69432078274E+03  0.10080892977E+04  0.13651251054E+04  0.25500000920E-02 0.  1.
       -2    1    3    3    0  502 -0.60435186101E+03 -0.69432078274E+03 -0.10569872728E+04  0.14016221375E+04  0.25500000920E-02 0. -1.
</event>
<event>
 5   0  0.5866136E-06  0.2829776E+04  0.7818609E-02  0.8294083E-01
       -2   -1    0    0    0  501  0.00000000000E+00  0.00000000000E+00  0.90397206858E+03  0.90397206858E+03  0.25500000920E-02 0. -1.
        2   -1    0    0  501    0  0.00000000000E+00  0.00000000000E+00 -0.22145679866E+04  0.22145679866E+04  0.25500000920E-02 0.  1.
    10030    2    1    2    0    0  0.00000000000E+00  0.00000000000E+00 -0.13105959180E+04  0.31185400552E+04  0.28297756829E+04 0.  0.
        5    1    3    3  502    0  0.13889334730E+04 -0.26784728589E+03 -0.69027209813E+03  0.15739682399E+04  0.46999998093E+01 0.  1.
       -5    1    3    3    0  502 -0.13889334730E+04  0.26784728589E+03 -0.62032381990E+03  0.15445718152E+04  0.46999998093E+01 0. -1.
</event>
<event>
 5   0  0.5625245E-06  0.2820714E+04  0.7818609E-02  0.8296866E-01
       -2   -1    0    0    0  501  0.00000000000E+00  0.00000000000E+00  0.11214997759E+04  0.11214997759E+04  0.25500000920E-02 0.  1.
        2   -1    0    0  501    0  0.00000000000E+00  0.00000000000E+00 -0.17736128417E+04  0.17736128417E+04  0.25500000920E-02 0. -1.
    10030    2    1    2    0    0  0.00000000000E+00  0.00000000000E+00 -0.65211306574E+03  0.28951126176E+04  0.28207136718E+04 0.  0.
        3    1    3    3  502    0 -0.75475303964E+03 -0.48957861078E+03 -0.14408761074E+04  0.16986651624E+04  0.10100000352E+00 0. -1.
       -3    1    3    3    0  502  0.75475303964E+03  0.48957861078E+03  0.78876304164E+03  0.11964474552E+04  0.10100000352E+00 0.  1.
</event>
<event>
 5   0  0.2277133E-06  0.2799023E+04  0.7818609E-02  0.8303572E-01
        1   -1    0    0  501    0  0.00000000000E+00  0.00000000000E+00  0.15357080503E+04  0.15357080503E+04  0.50400001928E-02 0.  1.
       -1   -1    0    0    0  501  0.00000000000E+00  0.00000000000E+00 -0.12753937689E+04  0.12753937689E+04  0.50400001928E-02 0. -1.
    10030    2    1    2    0    0  0.00000000000E+00  0.00000000000E+00  0.26031428140E+03  0.28111018192E+04  0.27990230283E+04 0.  0.
        1    1    3    3  502    0  0.12719875162E+04  0.57251643173E+03  0.16065977918E+02  0.13949858142E+04  0.50400001928E-02 0. -1.
       -1    1    3    3    0  502 -0.12719875162E+04 -0.57251643173E+03  0.24424830348E+03  0.14161160051E+04  0.50400001928E-02 0.  1.
</event>
<event>
 5   0  0.5546570E-06  0.2844708E+04  0.7818609E-02  0.8289521E-01
       -2   -1    0    0    0  501  0.00000000000E+00  0.00000000000E+00  0.15179904411E+04  0.15179904412E+04  0.25500000920E-02 0. -1.
        2   -1    0    0  501    0  0.00000000000E+00  0.00000000000E+00 -0.13327424922E+04  0.13327424922E+04  0.25500000920E-02 0.  1.
    10030    2    1    2    0    0  0.00000000000E+00  0.00000000000E+00  0.18524794897E+03  0.28507329333E+04  0.28447076220E+04 0.  0.
        4    1    3    3  502    0  0.31471057781E+03 -0.17523155888E+03 -0.12862773560E+04  0.13357619161E+04  0.12699999809E+01 0.  1.
       -4    1    3    3    0  502 -0.31471057781E+03  0.17523155888E+03  0.14715253050E+04  0.15149710172E+04  0.12699999809E+01 0. -1.
</event>
<event>
 5   0  0.5584205E-06  0.2769654E+04  0.7818609E-02  0.8312752E-01
       -2   -1    0    0    0  501  0.00000000000E+00  0.00000000000E+00  0.76780224298E+03  0.76780224299E+03  0.25500000920E-02 0.  1.
        2   -1    0    0  501    0  0.00000000000E+00  0.00000000000E+00 -0.24977086611E+04  0.24977086611E+04  0.25500000920E-02 0. -1.
    10030    2    1    2    0    0  0.00000000000E+00  0.00000000000E+00 -0.17299064181E+04  0.32655109040E+04  0.27696543555E+04 0.  0.
        1    1    3    3  502    0 -0.92978309646E+03 -0.87203255921E+03 -0.15029488580E+04  0.19707340411E+04  0.50400001928E-02 0. -1.
       -1    1    3    3    0  502  0.92978309646E+03  0.87203255921E+03 -0.22695756005E+03  0.12947768630E+04  0.50400001928E-02 0.  1.
</event>
<event>
 5   0  0.5625245E-06  0.2793757E+04  0.7818609E-02  0.8305209E-01
       -2   -1    0    0    0  501  0.00000000000E+00  0.00000000000E+00  0.18079575131E+04  0.18079575131E+04  0.25500000920E-02 0.  1.
        2   -1    0    0  501    0  0.00000000000E+00  0.00000000000E+00 -0.10792672434E+04  0.10792672434E+04  0.25500000920E-02 0. -1.
    10030    2    1    2    0    0  0.00000000000E+00  0.00000000000E+00  0.72869026965E+03  0.28872247565E+04  0.27937568408E+04 0.  0.
        3    1    3    3  502    0 -0.37637509928E+02  0.13314124871E+04  0.79937182671E+03  0.15534062960E+04  0.10100000352E+00 0.  1.
       -3    1    3    3    0  502  0.37637509928E+02 -0.13314124871E+04 -0.70681557058E+02  0.13338184605E+04  0.10100000352E+00 0. -1.
</event>
<event>
 5   0  0.2206967E-06  0.2796676E+04  0.7818609E-02  0.8304301E-01
       -1   -1    0    0    0  501  0.00000000000E+00  0.00000000000E+00  0.12939744255E+04  0.12939744255E+04  0.50400001928E-02 0.  1.
        1   -1    0    0  501    0  0.00000000000E+00  0.00000000000E+00 -0.15111185241E+04  0.15111185241E+04  0.50400001928E-02 0. -1.
    10030    2    1    2    0    0  0.00000000000E+00  0.00000000000E+00 -0.21714409855E+03  0.28050929496E+04  0.27966756867E+04 0.  0.
        5    1    3    3  502    0  0.13417900965E+04  0.21851992182E+03  0.21978922011E+03  0.13771278120E+04  0.46999998093E+01 0.  1.
       -5    1    3    3    0  502 -0.13417900965E+04 -0.21851992182E+03 -0.43693331866E+03  0.14279651376E+04  0.46999998093E+01 0. -1.
</event>
<event>
 5   0  0.2190865E-06  0.2790045E+04  0.7818609E-02  0.8306366E-01
       -1   -1    0    0    0  501  0.00000000000E+00  0.00000000000E+00  0.15848588056E+04  0.15848588056E+04  0.50400001928E-02 0. -1.
        1   -1    0    0  501    0  0.00000000000E+00  0.00000000000E+00 -0.12279253118E+04  0.12279253118E+04  0.50400001928E-02 0.  1.
    10030    2    1    2    0    0  0.00000000000E+00  0.00000000000E+00  0.35693349384E+03  0.28127841174E+04  0.27900453351E+04 0.  0.
        2    1    3    3  502    0  0.34304799689E+03 -0.61476731058E+03 -0.10357022449E+04  0.12523178168E+04  0.25500000920E-02 0.  1.
       -2    1    3    3    0  502 -0.34304799689E+03  0.61476731058E+03  0.13926357387E+04  0.15604663005E+04  0.25500000920E-02 0. -1.
</event>
<event>
 5   0  0.2234068E-06  0.2818053E+04  0.7818609E-02  0.8297686E-01
       -1   -1    0    0    0  501  0.00000000000E+00  0.00000000000E+00  0.96595262467E+03  0.96595262468E+03  0.50400001928E-02 0.  1.
        1   -1    0    0  501    0  0.00000000000E+00  0.00000000000E+00 -0.20553337419E+04  0.20553337419E+04  0.50400001928E-02 0. -1.
    10030    2    1    2    0    0  0.00000000000E+00  0.00000000000E+00 -0.10893811172E+04  0.30212863666E+04  0.28180525351E+04 0.  0.
        3    1    3    3  502    0  0.84259270408E+03  0.61056203656E+03 -0.15632632904E+04  0.18779085683E+04  0.10100000352E+00 0. -1.
       -3    1    3    3    0  502 -0.84259270408E+03 -0.61056203656E+03  0.47388217316E+03  0.11433777983E+04  0.10100000352E+00 0.  1.
</event>
<event>
 5   0  0.5916603E-06  0.2811408E+04  0.7818609E-02  0.8299735E-01
        2   -1    0    0  501    0  0.00000000000E+00  0.00000000000E+00  0.11723503292E+04  0.11723503292E+04  0.25500000920E-02 0.  1.
       -2   -1    0    0    0  501  0.00000000000E+00  0.00000000000E+00 -0.16855058480E+04  0.16855058480E+04  0.25500000920E-02 0. -1.
    10030    2    1    2    0    0  0.00000000000E+00  0.00000000000E+00 -0.51315551873E+03  0.28578561772E+04  0.28114077156E+04 0.  0.
        2    1    3    3  502    0 -0.20861913722E+03  0.11205451039E+04 -0.10928852393E+04  0.15790951271E+04  0.25500000920E-02 0. -1.
       -2    1    3    3    0  502  0.20861913722E+03 -0.11205451039E+04  0.57972972059E+03  0.12787610501E+04  0.25500000920E-02 0.  1.
</event>
<event>
 5   0  0.5546570E-06  0.2850058E+04  0.7818609E-02  0.8287894E-01
        2   -1    0    0  501    0  0.00000000000E+00  0.00000000000E+00  0.17961071158E+04  0.17961071158E+04  0.25500000920E-02 0. -1.
       -2   -1    0    0    0  501  0.00000000000E+00  0.00000000000E+00 -0.11306164322E+04  0.11306164322E+04  0.25500000920E-02 0.  1.
    10030    2    1    2    0    0  0.00000000000E+00  0.00000000000E+00  0.66549068361E+03  0.29267235480E+04  0.28500583988E+04 0.  0.
        4    1    3    3  502    0  0.12995572245E+04  0.50768038212E+03  0.34912165497E+02  0.13956392164E+04  0.12699999809E+01 0.  1.
       -4    1    3    3    0  502 -0.12995572245E+04 -0.50768038212E+03  0.63057851811E+03  0.15310843316E+04  0.12699999809E+01 0. -1.
</event>
<event>
 5   0  0.2190865E-06  0.2799677E+04  0.7818609E-02  0.8303369E-01
       -1   -1    0    0    0  501  0.00000000000E+00  0.00000000000E+00  0.12440878515E+04  0.12440878515E+04  0.50400001928E-02 0.  1.
        1   -1    0    0  501    0  0.00000000000E+00  0.00000000000E+00 -0.15750881861E+04  0.15750881861E+04  0.50400001928E-02 0. -1.
    10030    2    1    2    0    0  0.00000000000E+00  0.00000000000E+00 -0.33100033454E+03  0.28191760376E+04  0.27996771795E+04 0.  0.
        2    1    3    3  502    0 -0.56321952134E+02  0.29954568045E+03  0.12102687323E+04  0.12480585648E+04  0.25500000920E-02 0.  1.
       -2    1    3    3    0  502  0.56321952134E+02 -0.29954568045E+03 -0.15412690668E+04  0.15711174728E+04  0.25500000920E-02 0. -1.
</event>
<event>
 5   0  0.2206967E-06  0.2823920E+04  0.7818609E-02  0.8295880E-01
       -1   -1    0    0    0  501  0.00000000000E+00  0.00000000000E+00  0.94277756734E+03  0.94277756735E+03  0.50400001928E-02 0.  1.
        1   -1    0    0  501    0  0.00000000000E+00  0.00000000000E+00 -0.21146359141E+04  0.21146359141E+04  0.50400001928E-02 0. -1.
    10030    2    1    2    0    0  0.00000000000E+00  0.00000000000E+00 -0.11718583468E+04  0.30574134815E+04  0.28239201851E+04 0.  0.
        5    1    3    3  502    0  0.11108868974E+04  0.83401344199E+03 -0.85974572435E+03  0.16336563044E+04  0.46999998093E+01 0. -1.
       -5    1    3    3    0  502 -0.11108868974E+04 -0.83401344199E+03 -0.31211262240E+03  0.14237571771E+04  0.46999998093E+01 0.  1.
</event>
<event>
 5   0  0.2190865E-06  0.2788369E+04  0.7818609E-02  0.8306888E-01
        1   -1    0    0  501    0  0.00000000000E+00  0.00000000000E+00  0.14381019339E+04  0.14381019339E+04  0.50400001928E-02 0.  1.
       -1   -1    0    0    0  501  0.00000000000E+00  0.00000000000E+00 -0.13516083712E+04  0.13516083712E+04  0.50400001928E-02 0. -1.
    10030    2    1    2    0    0  0.00000000000E+00  0.00000000000E+00  0.86493562668E+02  0.27897103051E+04  0.27883691380E+04 0.  0.
        2    1    3    3  502    0 -0.12854585124E+04 -0.40709940273E+03  0.39784228450E+03  0.14058492075E+04  0.25500000920E-02 0. -1.
       -2    1    3    3    0  502  0.12854585124E+04  0.40709940273E+03 -0.31134872183E+03  0.13838610976E+04  0.25500000920E-02 0.  1.
</event>
<event>
 5   0  0.5916603E-06  0.2780968E+04  0.7818609E-02  0.8309202E-01
        2   -1    0    0  501    0  0.00000000000E+00  0.00000000000E+00  0.13668509576E+04  0.13668509576E+04  0.25500000920E-02 0.  1.
       -2   -1    0    0    0  501  0.00000000000E+00  0.00000000000E+00 -0.14145251597E+04  0.14145251597E+04  0.25500000920E-02 0. -1.
    10030    2    1    2    0    0  0.00000000000E+00  0.00000000000E+00 -0.47674202101E+02  0.27813761172E+04  0.27809675071E+04 0.  0.
        2    1    3    3  502    0 -0.10839360275E+04  0.87046783871E+03 -0.52363196593E+02  0.13911770104E+04  0.25500000920E-02 0.  1.
       -2    1    3    3    0  502  0.10839360275E+04 -0.87046783871E+03  0.46889944920E+01  0.13901991068E+04  0.25500000920E-02 0. -1.
</event>
<event>
 5   0  0.5625245E-06  0.2797902E+04  0.7818609E-02  0.8303920E-01
       -2   -1    0    0    0  501  0.00000000000E+00  0.00000000000E+00  0.11842481889E+04  0.11842481889E+04  0.25500000920E-02 0. -1.
        2   -1    0    0  501    0  0.00000000000E+00  0.00000000000E+00 -0.16525794152E+04  0.16525794152E+04  0.25500000920E-02 0.  1.
    10030    2    1    2    0    0  0.00000000000E+00  0.00000000000E+00 -0.46833122630E+03  0.28368276041E+04  0.27979021995E+04 0.  0.
        3    1    3    3  502    0 -0.39014703837E+00 -0.68927076503E+03  0.10001325869E+04  0.12146437919E+04  0.10100000352E+00 0. -1.
       -3    1    3    3    0  502  0.39014703837E+00  0.68927076503E+03 -0.14684638132E+04  0.16221838122E+04  0.10100000352E+00 0.  1.
</event>
<event>
 5   0  0.5916603E-06  0.2801525E+04  0.7818609E-02  0.8302795E-01
        2   -1    0    0  501    0  0.00000000000E+00  0.00000000000E+00  0.23471447338E+04  0.23471447338E+04  0.25500000920E-02 0.  1.
       -2   -1    0    0    0  501  0.00000000000E+00  0.00000000000E+00 -0.83596713395E+03  0.83596713396E+03  0.25500000920E-02 0. -1.
    10030    2    1    2    0    0  0.00000000000E+00  0.00000000000E+00  0.15111775999E+04  0.31831118678E+04  0.28015251961E+04 0.  0.
        2    1    3    3  502    0 -0.36784075369E+01 -0.61855606284E+03  0.21835574018E+04  0.22694818926E+04  0.25500000920E-02 0.  1.
       -2    1    3    3    0  502  0.36784075369E+01  0.61855606284E+03 -0.67237980195E+03  0.91362997523E+03  0.25500000920E-02 0. -1.
</event>
<event>
 5   0  0.2234068E-06  0.2797996E+04  0.7818609E-02  0.8303891E-01
       -1   -1    0    0    0  501  0.00000000000E+00  0.00000000000E+00  0.14829124356E+04  0.14829124356E+04  0.50400001928E-02 0.  1.
        1   -1    0    0  501    0  0.00000000000E+00  0.00000000000E+00 -0.13198320517E+04  0.13198320517E+04  0.50400001928E-02 0. -1.
    10030    2    1    2    0    0  0.00000000000E+00  0.00000000000E+00  0.16308038387E+03  0.28027444873E+04  0.27979959703E+04 0.  0.
        3    1    3    3  502    0  0.98942438687E+03 -0.76031146483E+03 -0.55211634114E+03  0.13645023288E+04  0.10100000352E+00 0. -1.
       -3    1    3    3    0  502 -0.98942438687E+03  0.76031146483E+03  0.71519672501E+03  0.14382421585E+04  0.10100000352E+00 0.  1.
</event>
<event>
 5   0  0.2206967E-06  0.2801966E+04  0.7818609E-02  0.8302658E-01
        1   -1    0    0  501    0  0.00000000000E+00  0.00000000000E+00  0.16417345856E+04  0.16417345856E+04  0.50400001928E-02 0.  1.
       -1   -1    0    0    0  501  0.00000000000E+00  0.00000000000E+00 -0.11955362645E+04  0.11955362645E+04  0.50400001928E-02 0. -1.
    10030    2    1    2    0    0  0.00000000000E+00  0.00000000000E+00  0.44619832105E+03  0.28372708501E+04  0.28019659054E+04 0.  0.
        5    1    3    3  502    0 -0.14826816587E+02 -0.67727582031E+02 -0.11937900598E+04  0.11958108783E+04  0.46999998093E+01 0. -1.
       -5    1    3    3    0  502  0.14826816587E+02  0.67727582031E+02  0.16399883808E+04  0.16414599718E+04  0.46999998093E+01 0.  1.
</event>
<event>
 5   0  0.5866136E-06  0.2775463E+04  0.7818609E-02  0.8310927E-01
       -2   -1    0    0    0  501  0.00000000000E+00  0.00000000000E+00  0.11688803807E+04  0.11688803807E+04  0.25500000920E-02 0.  1.
        2   -1    0    0  501    0  0.00000000000E+00  0.00000000000E+00 -0.16475583189E+04  0.16475583189E+04  0.25500000920E-02 0. -1.
    10030    2    1    2    0    0  0.00000000000E+00  0.00000000000E+00 -0.47867793821E+03  0.28164386996E+04  0.27754629128E+04 0.  0.
        5    1    3    3  502    0 -0.94606014997E+03 -0.10072442971E+04 -0.36851970339E+03  0.14301747247E+04  0.46999998093E+01 0. -1.
       -5    1    3    3    0  502  0.94606014997E+03  0.10072442971E+04 -0.11015823482E+03  0.13862639749E+04  0.46999998093E+01 0.  1.
</event>
<event>
 5   0  0.2206967E-06  0.2802758E+04  0.7818609E-02  0.8302413E-01
        1   -1    0    0  501    0  0.00000000000E+00  0.00000000000E+00  0.12122251928E+04  0.12122251928E+04  0.50400001928E-02 0.  1.
       -1   -1    0    0    0  501  0.00000000000E+00  0.00000000000E+00 -0.16200485423E+04  0.16200485423E+04  0.50400001928E-02 0. -1.
    10030    2    1    2    0    0  0.00000000000E+00  0.00000000000E+00 -0.40782334952E+03  0.28322737351E+04  0.28027583960E+04 0.  0.
        5    1    3    3  502    0  0.36087665850E+03  0.90835663562E+03 -0.12187270676E+04  0.15622616603E+04  0.46999998093E+01 0.  1.
       -5    1    3    3    0  502 -0.36087665850E+03 -0.90835663562E+03  0.81090371804E+03  0.12700120748E+04  0.46999998093E+01 0. -1.
</event>
<event>
 5   0  0.2190865E-06  0.2799256E+04  0.7818609E-02  0.8303499E-01
        1   -1    0    0  501    0  0.00000000000E+00  0.00000000000E+00  0.17020223098E+04  0.17020223098E+04  0.50400001928E-02 0. -1.
       -1   -1    0    0    0  501  0.00000000000E+00  0.00000000000E+00 -0.11509593139E+04  0.11509593139E+04  0.50400001928E-02 0.  1.
    10030    2    1    2    0    0  0.00000000000E+00  0.00000000000E+00  0.55106299591E+03  0.28529816237E+04  0.27992559225E+04 0.  0.
        2    1    3    3  502    0  0.12863760657E+04  0.42149192243E+03 -0.87019920960E+02  0.13564627859E+04  0.25500000920E-02 0. -1.
       -2    1    3    3    0  502 -0.12863760657E+04 -0.42149192243E+03  0.63808291687E+03  0.14965188378E+04  0.25500000920E-02 0.  1.
</event>
<event>
 5   0  0.5866136E-06  0.2819582E+04  0.7818609E-02  0.8297215E-01
        2   -1    0    0  501    0  0.00000000000E+00  0.00000000000E+00  0.15903804580E+04  0.15903804580E+04  0.25500000920E-02 0.  1.
       -2   -1    0    0    0  501  0.00000000000E+00  0.00000000000E+00 -0.12497076641E+04  0.12497076641E+04  0.25500000920E-02 0. -1.
    10030    2    1    2    0    0  0.00000000000E+00  0.00000000000E+00  0.34067279393E+03  0.28400881221E+04  0.28195819883E+04 0.  0.
        5    1    3    3  502    0 -0.67889477881E+03 -0.40469156434E+03 -0.10055505466E+04  0.12789946734E+04  0.46999998093E+01 0. -1.
       -5    1    3    3    0  502  0.67889477881E+03  0.40469156434E+03  0.13462233405E+04  0.15610934487E+04  0.46999998093E+01 0.  1.
</event>
<event>
 5   0  0.2277133E-06  0.2771310E+04  0.7818609E-02  0.8312231E-01
        1   -1    0    0  501    0  0.00000000000E+00  0.00000000000E+00  0.18943811698E+04  0.18943811698E+04  0.50400001928E-02 0.  1.
       -1   -1    0    0    0  501  0.00000000000E+00  0.00000000000E+00 -0.10135443889E+04  0.10135443890E+04  0.50400001928E-02 0. -1.
    10030    2    1    2    0    0  0.00000000000E+00  0.00000000000E+00  0.88083678086E+03  0.29079255588E+04  0.27713097302E+04 0.  0.
        1    1    3    3  502    0  0.63320903861E+03 -0.12094315540E+04  0.68952640300E+03  0.15294198347E+04  0.50400001928E-02 0.  1.
       -1    1    3    3    0  502 -0.63320903861E+03  0.12094315540E+04  0.19131037787E+03  0.13785057240E+04  0.50400001928E-02 0. -1.
</event>
<event>
 5   0  0.5625245E-06  0.2828469E+04  0.7818609E-02  0.8294484E-01
       -2   -1    0    0    0  501  0.00000000000E+00  0.00000000000E+00  0.87559361241E+03  0.87559361241E+03  0.25500000920E-02 0. -1.
        2   -1    0    0  501    0  0.00000000000E+00  0.00000000000E+00 -0.22842327062E+04  0.22842327062E+04  0.25500000920E-02 0.  1.
    10030    2    1    2    0    0  0.00000000000E+00  0.00000000000E+00 -0.14086390938E+04  0.31598263186E+04  0.28284692445E+04 0.  0.
        3    1    3    3  502    0  0.13411825488E+04 -0.14577291558E+03 -0.23030107078E+03  0.13685974447E+04  0.10100000352E+00 0. -1.
       -3    1    3    3    0  502 -0.13411825488E+04  0.14577291558E+03 -0.11783380230E+04  0.17912288739E+04  0.10100000352E+00 0.  1.
</event>
<event>
 5   0  0.5584205E-06  0.2795217E+04  0.7818609E-02  0.8304755E-01
       -2   -1    0    0    0  501  0.00000000000E+00  0.00000000000E+00  0.24826381424E+04  0.24826381424E+04  0.25500000920E-02 0.  1.
        2   -1    0    0  501    0  0.00000000000E+00  0.00000000000E+00 -0.78678764726E+03  0.78678764726E+03  0.25500000920E-02 0. -1.
    10030    2    1    2    0    0  0.00000000000E+00  0.00000000000E+00  0.16958504951E+04  0.32694257896E+04  0.27952166449E+04 0.  0.
        1    1    3    3  502    0 -0.13041950656E+04 -0.49012202042E+03  0.97693008030E+03  0.17016276754E+04  0.50400001928E-02 0.  1.
       -1    1    3    3    0  502  0.13041950656E+04  0.49012202042E+03  0.71892041481E+03  0.15677981142E+04  0.50400001928E-02 0. -1.
</event>
<event>
 5   0  0.5625245E-06  0.2796243E+04  0.7818609E-02  0.8304436E-01
        2   -1    0    0  501    0  0.00000000000E+00  0.00000000000E+00  0.16180998272E+04  0.16180998272E+04  0.25500000920E-02 0.  1.
       -2   -1    0    0    0  501  0.00000000000E+00  0.00000000000E+00 -0.12080486141E+04  0.12080486141E+04  0.25500000920E-02 0. -1.
    10030    2    1    2    0    0  0.00000000000E+00  0.00000000000E+00  0.41005121313E+03  0.28261484413E+04  0.27962426602E+04 0.  0.
        3    1    3    3  502    0  0.12021041427E+04 -0.71386204334E+03  0.19544494897E+03  0.14116841449E+04  0.10100000352E+00 0. -1.
       -3    1    3    3    0  502 -0.12021041427E+04  0.71386204334E+03  0.21460626417E+03  0.14144642963E+04  0.10100000352E+00 0.  1.
</event>
<event>
 5   0  0.2190865E-06  0.2772902E+04  0.7818609E-02  0.8311731E-01
       -1   -1    0    0    0  501  0.00000000000E+00  0.00000000000E+00  0.15716372858E+04  0.15716372858E+04  0.50400001928E-02 0.  1.
        1   -1    0    0  501    0  0.00000000000E+00  0.00000000000E+00 -0.12230853834E+04  0.12230853834E+04  0.50400001928E-02 0. -1.
    10030    2    1    2    0    0  0.00000000000E+00  0.00000000000E+00  0.34855190241E+03  0.27947226693E+04  0.27729021565E+04 0.  0.
        2    1    3    3  502    0 -0.49501956784E+02 -0.13735401603E+04 -0.93211289778E+01  0.13744634950E+04  0.25500000920E-02 0. -1.
       -2    1    3    3    0  502  0.49501956784E+02  0.13735401603E+04  0.35787303139E+03  0.14202591743E+04  0.25500000920E-02 0.  1.
</event>
<event>
 5   0  0.5546570E-06  0.2776663E+04  0.7818609E-02  0.8310550E-01
        2   -1    0    0  501    0  0.00000000000E+00  0.00000000000E+00  0.10958333686E+04  0.10958333686E+04  0.25500000920E-02 0.  1.
       -2   -1    0    0    0  501  0.00000000000E+00  0.00000000000E+00 -0.17589023748E+04  0.17589023748E+04  0.25500000920E-02 0. -1.
    10030    2    1    2    0    0  0.00000000000E+00  0.00000000000E+00 -0.66306900619E+03  0.28547357434E+04  0.27766626835E+04 0.  0.
        4    1    3    3  502    0  0.22260032155E+03  0.12412031941E+03  0.10715750329E+04  0.11014678483E+04  0.12699999809E+01 0.  1.
       -4    1    3    3    0  502 -0.22260032155E+03 -0.12412031941E+03 -0.17346440391E+04  0.17532678951E+04  0.12699999809E+01 0. -1.
</event>
<event>
 5   0  0.2206967E-06  0.2805755E+04  0.7818609E-02  0.8301484E-01
        1   -1    0    0  501    0  0.00000000000E+00  0.00000000000E+00  0.11029526323E+04  0.11029526323E+04  0.50400001928E-02 0. -1.
       -1   -1    0    0    0  501  0.00000000000E+00  0.00000000000E+00 -0.17843608438E+04  0.17843608438E+04  0.50400001928E-02 0.  1.
    10030    2    1    2    0    0  0.00000000000E+00  0.00000000000E+00 -0.68140821146E+03  0.28873134761E+04  0.28057551494E+04 0.  0.
        5    1    3    3  502    0  0.57669584642E+03  0.12088591549E+04 -0.77011646446E+03  0.15449983865E+04  0.46999998093E+01 0.  1.
       -5    1    3    3    0  502 -0.57669584642E+03 -0.12088591549E+04  0.88708253003E+02  0.13423150896E+04  0.46999998093E+01 0. -1.
</event>
<event>
 5   0  0.2190865E-06  0.2802582E+04  0.7818609E-02  0.8302467E-01
       -1   -1    0    0    0  501  0.00000000000E+00  0.00000000000E+00  0.76069758490E+03  0.76069758492E+03  0.50400001928E-02 0.  1.
        1   -1    0    0  501    0  0.00000000000E+00  0.00000000000E+00 -0.25813371778E+04  0.25813371778E+04  0.50400001928E-02 0. -1.
    10030    2    1    2    0    0  0.00000000000E+00  0.00000000000E+00 -0.18206395929E+04  0.33420347627E+04  0.28025823499E+04 0.  0.
        2    1    3    3  502    0 -0.61750625664E+03 -0.12332705952E+04 -0.61496236876E+03  0.15101155760E+04  0.25500000920E-02 0. -1.
       -2    1    3    3    0  502  0.61750625664E+03  0.12332705952E+04 -0.12056772241E+04  0.18319191867E+04  0.25500000920E-02 0.  1.
</event>
<event>
 5   0  0.2190865E-06  0.2764749E+04  0.7818609E-02  0.8314297E-01
       -1   -1    0    0    0  501  0.00000000000E+00  0.00000000000E+00  0.13587574942E+04  0.13587574942E+04  0.50400001928E-02 0.  1.
        1   -1    0    0  501    0  0.00000000000E+00  0.00000000000E+00 -0.14064023758E+04  0.14064023758E+04  0.50400001928E-02 0. -1.
    10030    2    1    2    0    0  0.00000000000E+00  0.00000000000E+00 -0.47644881629E+02  0.27651598700E+04  0.27647493687E+04 0.  0.
        2    1    3    3  502    0 -0.50981997124E+03  0.10177670268E+04 -0.80828170782E+03  0.13960965021E+04  0.25500000920E-02 0. -1.
       -2    1    3    3    0  502  0.50981997124E+03 -0.10177670268E+04  0.76063682619E+03  0.13690633679E+04  0.25500000920E-02 0.  1.
</event>
<event>
 5   0  0.2234068E-06  0.2812604E+04  0.7818609E-02  0.8299366E-01
        1   -1    0    0  501    0  0.00000000000E+00  0.00000000000E+00  0.18558613363E+04  0.18558613363E+04  0.50400001928E-02 0. -1.
       -1   -1    0    0    0  501  0.00000000000E+00  0.00000000000E+00 -0.10656428696E+04  0.10656428696E+04  0.50400001928E-02 0.  1.
    10030    2    1    2    0    0  0.00000000000E+00  0.00000000000E+00  0.79021846670E+03  0.29215042059E+04  0.28126040603E+04 0.  0.
        3    1    3    3  502    0 -0.12355826735E+04 -0.66939502546E+03  0.45134552605E+03  0.14759630881E+04  0.10100000352E+00 0. -1.
       -3    1    3    3    0  502  0.12355826735E+04  0.66939502546E+03  0.33887294065E+03  0.14455411178E+04  0.10100000352E+00 0.  1.
</event>
<event>
 5   0  0.2206967E-06  0.2790968E+04  0.7818609E-02  0.8306078E-01
       -1   -1    0    0    0  501  0.00000000000E+00  0.00000000000E+00  0.11872650752E+04  0.11872650752E+04  0.50400001928E-02 0. -1.
        1   -1    0    0  501    0  0.00000000000E+00  0.00000000000E+00 -0.16402194139E+04  0.16402194139E+04  0.50400001928E-02 0.  1.
    10030    2    1    2    0    0  0.00000000000E+00  0.00000000000E+00 -0.45295433870E+03  0.28274844891E+04  0.27909677360E+04 0.  0.
        5    1    3    3  502    0  0.13091651457E+04  0.18656966207E+03 -0.67798937628E+03  0.14860731146E+04  0.46999998093E+01 0. -1.
       -5    1    3    3    0  502 -0.13091651457E+04 -0.18656966207E+03  0.22503503757E+03  0.13414113745E+04  0.46999998093E+01 0.  1.
</event>
<event>
 5   0  0.5866136E-06  0.2809013E+04  0.7818609E-02  0.8300476E-01
       -2   -1    0    0    0  501  0.00000000000E+00  0.00000000000E+00  0.13273771221E+04  0.13273771221E+04  0.25500000920E-02 0. -1.
        2   -1    0    0  501    0  0.00000000000E+00  0.00000000000E+00 -0.14861176371E+04  0.14861176371E+04  0.25500000920E-02 0.  1.
    10030    2    1    2    0    0  0.00000000000E+00  0.00000000000E+00 -0.15874051496E+03  0.28134947592E+04  0.28090130311E+04 0.  0.
        5    1    3    3  502    0  0.90859039977E+03 -0.59507098702E+03 -0.97127990867E+03  0.14570699177E+04  0.46999998093E+01 0.  1.
       -5    1    3    3    0  502 -0.90859039977E+03  0.59507098702E+03  0.81253939371E+03  0.13564248414E+04  0.46999998093E+01 0. -1.
</event>
<event>
 5   0  0.2234068E-06  0.2801066E+04  0.7818609E-02  0.8302937E-01
        1   -1    0    0  501    0  0.00000000000E+00  0.00000000000E+00  0.16605939746E+04  0.16605939746E+04  0.50400001928E-02 0. -1.
       -1   -1    0    0    0  501  0.00000000000E+00  0.00000000000E+00 -0.11811996389E+04  0.11811996389E+04  0.50400001928E-02 0.  1.
    10030    2    1    2    0    0  0.00000000000E+00  0.00000000000E+00  0.47939433570E+03  0.28417936134E+04  0.28010662278E+04 0.  0.
        3    1    3    3  502    0 -0.38582747905E+03 -0.12380080349E+04  0.77650890196E+03  0.15114538772E+04  0.10100000352E+00 0. -1.
       -3    1    3    3    0  502  0.38582747905E+03  0.12380080349E+04 -0.29711456626E+03  0.13303397362E+04  0.10100000352E+00 0.  1.
</event>
<event>
 5   0  0.2206967E-06  0.2793108E+04  0.7818609E-02  0.8305411E-01
        1   -1    0    0  501    0  0.00000000000E+00  0.00000000000E+00  0.23396981427E+04  0.23396981427E+04  0.50400001928E-02 0.  1.
       -1   -1    0    0    0  501  0.00000000000E+00  0.00000000000E+00 -0.83359610913E+03  0.83359610914E+03  0.50400001928E-02 0. -1.
    10030    2    1    2    0    0  0.00000000000E+00  0.00000000000E+00  0.15061020335E+04  0.31732942518E+04  0.27931081385E+04 0.  0.
        5    1    3    3  502    0  0.56722883545E+03  0.55986468607E+03 -0.54984355637E+03  0.96827013015E+03  0.46999998093E+01 0. -1.
       -5    1    3    3    0  502 -0.56722883545E+03 -0.55986468607E+03  0.20559455899E+04  0.22050241217E+04  0.46999998093E+01 0.  1.
</event>
<event>
 5   0  0.2267565E-06  0.2799204E+04  0.7818609E-02  0.8303516E-01
       -1   -1    0    0    0  501  0.00000000000E+00  0.00000000000E+00  0.13061630828E+04  0.13061630828E+04  0.50400001928E-02 0.  1.
        1   -1    0    0  501    0  0.00000000000E+00  0.00000000000E+00 -0.14997249135E+04  0.14997249135E+04  0.50400001928E-02 0. -1.
    10030    2    1    2    0    0  0.00000000000E+00  0.00000000000E+00 -0.19356183075E+03  0.28058879963E+04  0.27992036841E+04 0.  0.
        4    1    3    3  502    0  0.38953816229E+03 -0.90666635842E+03  0.89811111950E+03  0.13343122053E+04  0.12699999809E+01 0.  1.
       -4    1    3    3    0  502 -0.38953816229E+03  0.90666635842E+03 -0.10916729503E+04  0.14715757910E+04  0.12699999809E+01 0. -1.
</event>
<event>
 5   0  0.2190865E-06  0.2798261E+04  0.7818609E-02  0.8303808E-01
       -1   -1    0    0    0  501  0.00000000000E+00  0.00000000000E+00  0.84672388887E+03  0.84672388888E+03  0.50400001928E-02 0. -1.
        1   -1    0    0  501    0  0.00000000000E+00  0.00000000000E+00 -0.23119295053E+04  0.23119295053E+04  0.50400001928E-02 0.  1.
    10030    2    1    2    0    0  0.00000000000E+00  0.00000000000E+00 -0.14652056165E+04  0.31586533942E+04  0.27982608467E+04 0.  0.
        2    1    3    3  502    0  0.37838675478E+03 -0.92867619944E+03 -0.18339413249E+04  0.20902049667E+04  0.25500000920E-02 0.  1.
       -2    1    3    3    0  502 -0.37838675478E+03  0.92867619944E+03  0.36873570844E+03  0.10684484275E+04  0.25500000920E-02 0. -1.
</event>
<event>
 5   0  0.5916603E-06  0.2764720E+04  0.7818609E-02  0.8314306E-01
       -2   -1    0    0    0  501  0.00000000000E+00  0.00000000000E+00  0.15055002941E+04  0.15055002941E+04  0.25500000920E-02 0. -1.
        2   -1    0    0  501    0  0.00000000000E+00  0.00000000000E+00 -0.12692918679E+04  0.12692918679E+04  0.25500000920E-02 0.  1.
    10030    2    1    2    0    0  0.00000000000E+00  0.00000000000E+00  0.23620842624E+03  0.27747921620E+04  0.27647200802E+04 0.  0.
        2    1    3    3  502    0  0.61074018298E+03 -0.72336587274E+03 -0.89286756510E+03  0.13013355623E+04  0.25500000920E-02 0.  1.
       -2    1    3    3    0  502 -0.61074018298E+03  0.72336587274E+03  0.11290759913E+04  0.14734565997E+04  0.25500000920E-02 0. -1.
</event>
<event>
 5   0  0.5625245E-06  0.2795145E+04  0.7818609E-02  0.8304777E-01
       -2   -1    0    0    0  501  0.00000000000E+00  0.00000000000E+00  0.10036306184E+04  0.10036306184E+04  0.25500000920E-02 0.  1.
        2   -1    0    0  501    0  0.00000000000E+00  0.00000000000E+00 -0.19461428625E+04  0.19461428625E+04  0.25500000920E-02 0. -1.
    10030    2    1    2    0    0  0.00000000000E+00  0.00000000000E+00 -0.94251224406E+03  0.29497734809E+04  0.27951447652E+04 0.  0.
        3    1    3    3  502    0  0.12482936028E+04  0.40024520180E+03 -0.98259718363E+03  0.16382705442E+04  0.10100000352E+00 0. -1.
       -3    1    3    3    0  502 -0.12482936028E+04 -0.40024520180E+03  0.40084939562E+02  0.13115029367E+04  0.10100000352E+00 0.  1.
</event>
<event>
 5   0  0.5546570E-06  0.2791985E+04  0.7818609E-02  0.8305761E-01
        2   -1    0    0  501    0  0.00000000000E+00  0.00000000000E+00  0.12228151868E+04  0.12228151868E+04  0.25500000920E-02 0.  1.
       -2   -1    0    0    0  501  0.00000000000E+00  0.00000000000E+00 -0.15936960196E+04  0.15936960196E+04  0.25500000920E-02 0. -1.
    10030    2    1    2    0    0  0.00000000000E+00  0.00000000000E+00 -0.37088083283E+03  0.28165112064E+04  0.27919854555E+04 0.  0.
        4    1    3    3  502    0  0.58045211653E+03 -0.41761911421E+03  0.10240342470E+04  0.12489908471E+04  0.12699999809E+01 0.  1.
       -4    1    3    3    0  502 -0.58045211653E+03  0.41761911421E+03 -0.13949150798E+04  0.15675203594E+04  0.12699999809E+01 0. -1.
</event>
<event>
 5   0  0.2206967E-06  0.2729392E+04  0.7818609E-02  0.8325531E-01
       -1   -1    0    0    0  501  0.00000000000E+00  0.00000000000E+00  0.91248751597E+03  0.91248751599E+03  0.50400001928E-02 0. -1.
        1   -1    0    0  501    0  0.00000000000E+00  0.00000000000E+00 -0.20410089652E+04  0.20410089652E+04  0.50400001928E-02 0.  1.
    10030    2    1    2    0    0  0.00000000000E+00  0.00000000000E+00 -0.11285214493E+04  0.29534964812E+04  0.27293920208E+04 0.  0.
        5    1    3    3  502    0  0.12119169024E+04 -0.30847266566E+03  0.26925937831E+02  0.12508577297E+04  0.46999998093E+01 0.  1.
       -5    1    3    3    0  502 -0.12119169024E+04  0.30847266566E+03 -0.11554473871E+04  0.17026387515E+04  0.46999998093E+01 0. -1.
</event>
<event>
 5   0  0.5584205E-06  0.2779482E+04  0.7818609E-02  0.8309667E-01
        2   -1    0    0  501    0  0.00000000000E+00  0.00000000000E+00  0.21537483622E+04  0.21537483622E+04  0.25500000920E-02 0.  1.
       -2   -1    0    0    0  501  0.00000000000E+00  0.00000000000E+00 -0.89675286193E+03  0.89675286193E+03  0.25500000920E-02 0. -1.
    10030    2    1    2    0    0  0.00000000000E+00  0.00000000000E+00  0.12569955002E+04  0.30505012241E+04  0.27794819716E+04 0.  0.
        1    1    3    3  502    0 -0.71197818963E+03  0.99903091676E+03  0.13451659365E+04  0.18205623065E+04  0.50400001928E-02 0.  1.
       -1    1    3    3    0  502  0.71197818963E+03 -0.99903091676E+03 -0.88170436244E+02  0.12299389176E+04  0.50400001928E-02 0. -1.
</event>
<event>
 5   0  0.5866136E-06  0.2791953E+04  0.7818609E-02  0.8305771E-01
       -2   -1    0    0    0  501  0.00000000000E+00  0.00000000000E+00  0.10554909394E+04  0.10554909394E+04  0.25500000920E-02 0.  1.
        2   -1    0    0  501    0  0.00000000000E+00  0.00000000000E+00 -0.18462973566E+04  0.18462973566E+04  0.25500000920E-02 0. -1.
    10030    2    1    2    0    0  0.00000000000E+00  0.00000000000E+00 -0.79080641719E+03  0.29017882961E+04  0.27919528158E+04 0.  0.
        5    1    3    3  502    0  0.49899139443E+03  0.12971623327E+04 -0.25946996044E+03  0.14138491006E+04  0.46999998093E+01 0.  1.
       -5    1    3    3    0  502 -0.49899139443E+03 -0.12971623327E+04 -0.53133645676E+03  0.14879391954E+04  0.46999998093E+01 0. -1.
</event>
<event>
 5   0  0.2267565E-06  0.2795729E+04  0.7818609E-02  0.8304595E-01
       -1   -1    0    0    0  501  0.00000000000E+00  0.00000000000E+00  0.10420499459E+04  0.10420499459E+04  0.50400001928E-02 0.  1.
        1   -1    0    0  501    0  0.00000000000E+00  0.00000000000E+00 -0.18751744682E+04  0.18751744682E+04  0.50400001928E-02 0. -1.
    10030    2    1    2    0    0  0.00000000000E+00  0.00000000000E+00 -0.83312452231E+03  0.29172244141E+04  0.27957292094E+04 0.  0.
        4    1    3    3  502    0 -0.84581631090E+03 -0.53145184662E+03 -0.14369001300E+04  0.17500085410E+04  0.12699999809E+01 0. -1.
       -4    1    3    3    0  502  0.84581631090E+03  0.53145184662E+03  0.60377560766E+03  0.11672158731E+04  0.12699999809E+01 0.  1.
</event>
<event>
 5   0  0.2190865E-06  0.2766674E+04  0.7818609E-02  0.8313690E-01
        1   -1    0    0  501    0  0.00000000000E+00  0.00000000000E+00  0.16980286235E+04  0.16980286235E+04  0.50400001928E-02 0.  1.
       -1   -1    0    0    0  501  0.00000000000E+00  0.00000000000E+00 -0.11269666100E+04  0.11269666100E+04  0.50400001928E-02 0. -1.
    10030    2    1    2    0    0  0.00000000000E+00  0.00000000000E+00  0.57106201349E+03  0.28249952336E+04  0.27666742212E+04 0.  0.
        2    1    3    3  502    0 -0.36226274127E+03  0.92661628987E+03  0.12669207391E+04  0.16108818087E+04  0.25500000920E-02 0.  1.
       -2    1    3    3    0  502  0.36226274127E+03 -0.92661628987E+03 -0.69585872565E+03  0.12141134249E+04  0.25500000920E-02 0. -1.
</event>
<event>
 5   0  0.2190865E-06  0.2798315E+04  0.7818609E-02  0.8303792E-01
        1   -1    0    0  501    0  0.00000000000E+00  0.00000000000E+00  0.14245033183E+04  0.14245033183E+04  0.50400001928E-02 0.  1.
       -1   -1    0    0    0  501  0.00000000000E+00  0.00000000000E+00 -0.13742631154E+04  0.13742631154E+04  0.50400001928E-02 0. -1.
    10030    2    1    2    0    0  0.00000000000E+00  0.00000000000E+00  0.50240202919E+02  0.27987664338E+04  0.27983154706E+04 0.  0.
        2    1    3    3  502    0  0.11847475553E+04 -0.74421169261E+03  0.37950069358E+02  0.13996135256E+04  0.25500000920E-02 0.  1.
       -2    1    3    3    0  502 -0.11847475553E+04  0.74421169261E+03  0.12290133561E+02  0.13991529082E+04  0.25500000920E-02 0. -1.
</event>
<event>
 5   0  0.2206967E-06  0.2806885E+04  0.7818609E-02  0.8301134E-01
        1   -1    0    0  501    0  0.00000000000E+00  0.00000000000E+00  0.13713199249E+04  0.13713199249E+04  0.50400001928E-02 0. -1.
       -1   -1    0    0    0  501  0.00000000000E+00  0.00000000000E+00 -0.14363180370E+04  0.14363180370E+04  0.50400001928E-02 0.  1.
    10030    2    1    2    0    0  0.00000000000E+00  0.00000000000E+00 -0.64998112156E+02  0.28076379619E+04  0.28068854930E+04 0.  0.
        5    1    3    3  502    0 -0.69159277525E+03 -0.10881066182E+04 -0.58704182769E+03  0.14166569016E+04  0.46999998093E+01 0. -1.
       -5    1    3    3    0  502  0.69159277525E+03  0.10881066182E+04  0.52204371553E+03  0.13909810603E+04  0.46999998093E+01 0.  1.
</event>
<event>
 5   0  0.2190865E-06  0.2797742E+04  0.7818609E-02  0.8303970E-01
       -1   -1    0    0    0  501  0.00000000000E+00  0.00000000000E+00  0.10328640207E+04  0.10328640207E+04  0.50400001928E-02 0.  1.
        1   -1    0    0  501    0  0.00000000000E+00  0.00000000000E+00 -0.18945770815E+04  0.18945770816E+04  0.50400001928E-02 0. -1.
    10030    2    1    2    0    0  0.00000000000E+00  0.00000000000E+00 -0.86171306088E+03  0.29274411022E+04  0.27977423055E+04 0.  0.
        2    1    3    3  502    0 -0.50360986770E+03 -0.10253421720E+04  0.41397080963E+03  0.12150396289E+04  0.25500000920E-02 0.  1.
       -2    1    3    3    0  502  0.50360986770E+03  0.10253421720E+04 -0.12756838705E+04  0.17124014734E+04  0.25500000920E-02 0. -1.
</event>
<event>
 5   0  0.5916603E-06  0.2799858E+04  0.7818609E-02  0.8303312E-01
       -2   -1    0    0    0  501  0.00000000000E+00  0.00000000000E+00  0.25568190242E+04  0.25568190242E+04  0.25500000920E-02 0.  1.
        2   -1    0    0  501    0  0.00000000000E+00  0.00000000000E+00 -0.76649994553E+03  0.76649994554E+03  0.25500000920E-02 0. -1.
    10030    2    1    2    0    0  0.00000000000E+00  0.00000000000E+00  0.17903190786E+04  0.33233189697E+04  0.27998583127E+04 0.  0.
        2    1    3    3  502    0  0.41631010429E+03 -0.12515093329E+04  0.33815800270E+03  0.13615948546E+04  0.25500000920E-02 0. -1.
       -2    1    3    3    0  502 -0.41631010429E+03  0.12515093329E+04  0.14521610760E+04  0.19617241151E+04  0.25500000920E-02 0.  1.
</event>
<event>
 5   0  0.5916603E-06  0.2791248E+04  0.7818609E-02  0.8305991E-01
        2   -1    0    0  501    0  0.00000000000E+00  0.00000000000E+00  0.33452313193E+04  0.33452313193E+04  0.25500000920E-02 0.  1.
       -2   -1    0    0    0  501  0.00000000000E+00  0.00000000000E+00 -0.58225177462E+03  0.58225177463E+03  0.25500000920E-02 0. -1.
    10030    2    1    2    0    0  0.00000000000E+00  0.00000000000E+00  0.27629795446E+04  0.39274830939E+04  0.27912483746E+04 0.  0.
        2    1    3    3  502    0 -0.12259021639E+04 -0.17116461570E+03  0.47435654034E+03  0.13255744297E+04  0.25500000920E-02 0.  1.
       -2    1    3    3    0  502  0.12259021639E+04  0.17116461570E+03  0.22886230043E+04  0.26019086642E+04  0.25500000920E-02 0. -1.
</event>
<event>
 5   0  0.5625245E-06  0.2809589E+04  0.7818609E-02  0.8300298E-01
        2   -1    0    0  501    0  0.00000000000E+00  0.00000000000E+00  0.21761783085E+04  0.21761783085E+04  0.25500000920E-02 0.  1.
       -2   -1    0    0    0  501  0.00000000000E+00  0.00000000000E+00 -0.90684086937E+03  0.90684086938E+03  0.25500000920E-02 0. -1.
    10030    2    1    2    0    0  0.00000000000E+00  0.00000000000E+00  0.12693374391E+04  0.30830191778E+04  0.28095888875E+04 0.  0.
        3    1    3    3  502    0  0.74485047150E+03  0.76527289896E+03 -0.36684435686E+03  0.11291676701E+04  0.10100000352E+00 0. -1.
       -3    1    3    3    0  502 -0.74485047150E+03 -0.76527289896E+03  0.16361817959E+04  0.19538515078E+04  0.10100000352E+00 0.  1.
</event>
<event>
 5   0  0.2277133E-06  0.2822499E+04  0.7818609E-02  0.8296317E-01
        1   -1    0    0  501    0  0.00000000000E+00  0.00000000000E+00  0.21908274810E+04  0.21908274810E+04  0.50400001928E-02 0. -1.
       -1   -1    0    0    0  501  0.00000000000E+00  0.00000000000E+00 -0.90907437741E+03  0.90907437742E+03  0.50400001928E-02 0.  1.
    10030    2    1    2    0    0  0.00000000000E+00  0.00000000000E+00  0.12817531036E+04  0.30999018584E+04  0.28224989838E+04 0.  0.
        1    1    3    3  502    0  0.91740498111E+03 -0.50089921922E+03 -0.40052089130E+03  0.11193520052E+04  0.50400001928E-02 0.  1.
       -1    1    3    3    0  502 -0.91740498111E+03  0.50089921922E+03  0.16822739949E+04  0.19805498532E+04  0.50400001928E-02 0. -1.
</event>
<event>
 5   0  0.2190865E-06  0.2787580E+04  0.7818609E-02  0.8307135E-01
       -1   -1    0    0    0  501  0.00000000000E+00  0.00000000000E+00  0.95538368701E+03  0.95538368702E+03  0.50400001928E-02 0.  1.
        1   -1    0    0  501    0  0.00000000000E+00  0.00000000000E+00 -0.20333714627E+04  0.20333714627E+04  0.50400001928E-02 0. -1.
    10030    2    1    2    0    0  0.00000000000E+00  0.00000000000E+00 -0.10779877757E+04  0.29887551497E+04  0.27875795415E+04 0.  0.
        2    1    3    3  502    0 -0.34143276583E+03  0.13508030817E+04 -0.57917698436E+03  0.15088708621E+04  0.25500000920E-02 0. -1.
       -2    1    3    3    0  502  0.34143276583E+03 -0.13508030817E+04 -0.49881079131E+03  0.14798842876E+04  0.25500000920E-02 0.  1.
</event>
<event>
 5   0  0.2190865E-06  0.2831583E+04  0.7818609E-02  0.8293530E-01
       -1   -1    0    0    0  501  0.00000000000E+00  0.00000000000E+00  0.16523932540E+04  0.16523932540E+04  0.50400001928E-02 0. -1.
        1   -1    0    0  501    0  0.00000000000E+00  0.00000000000E+00 -0.12130678557E+04  0.12130678557E+04  0.50400001928E-02 0.  1.
    10030    2    1    2    0    0  0.00000000000E+00  0.00000000000E+00  0.43932539824E+03  0.28654611097E+04  0.28315826962E+04 0.  0.
        2    1    3    3  502    0 -0.11066490699E+04 -0.76328006402E+03  0.66904389303E+03  0.15016285662E+04  0.25500000920E-02 0. -1.
       -2    1    3    3    0  502  0.11066490699E+04  0.76328006402E+03 -0.22971849479E+03  0.13638325435E+04  0.25500000920E-02 0.  1.
</event>
<event>
 5   0  0.5625245E-06  0.2805124E+04  0.7818609E-02  0.8301679E-01
        2   -1    0    0  501    0  0.00000000000E+00  0.00000000000E+00  0.61829881265E+03  0.61829881265E+03  0.25500000920E-02 0. -1.
       -2   -1    0    0    0  501  0.00000000000E+00  0.00000000000E+00 -0.31815999852E+04  0.31815999852E+04  0.25500000920E-02 0.  1.
    10030    2    1    2    0    0  0.00000000000E+00  0.00000000000E+00 -0.25633011725E+04  0.37998987978E+04  0.28051235218E+04 0.  0.
        3    1    3    3  502    0 -0.92705744067E+03 -0.10166517308E+04 -0.91274570967E+03  0.16510969023E+04  0.10100000352E+00 0. -1.
       -3    1    3    3    0  502  0.92705744067E+03  0.10166517308E+04 -0.16505554629E+04  0.21488018955E+04  0.10100000352E+00 0.  1.
</event>
<event>
 5   0  0.5916603E-06  0.2738746E+04  0.7818609E-02  0.8322542E-01
       -2   -1    0    0    0  501  0.00000000000E+00  0.00000000000E+00  0.77073501113E+03  0.77073501113E+03  0.25500000920E-02 0. -1.
        2   -1    0    0  501    0  0.00000000000E+00  0.00000000000E+00 -0.24329795381E+04  0.24329795381E+04  0.25500000920E-02 0.  1.
    10030    2    1    2    0    0  0.00000000000E+00  0.00000000000E+00 -0.16622445270E+04  0.32037145493E+04  0.27387460718E+04 0.  0.
        2    1    3    3  502    0 -0.48488020564E+03  0.21637507245E+03  0.64541619259E+03  0.83575657190E+03  0.25500000920E-02 0. -1.
       -2    1    3    3    0  502  0.48488020564E+03 -0.21637507245E+03 -0.23076607196E+04  0.23679579774E+04  0.25500000920E-02 0.  1.
</event>
<event>
 5   0  0.5916603E-06  0.2820552E+04  0.7818609E-02  0.8296916E-01
       -2   -1    0    0    0  501  0.00000000000E+00  0.00000000000E+00  0.16825064470E+04  0.16825064470E+04  0.25500000920E-02 0.  1.
        2   -1    0    0  501    0  0.00000000000E+00  0.00000000000E+00 -0.11820924080E+04  0.11820924081E+04  0.25500000920E-02 0. -1.
    10030    2    1    2    0    0  0.00000000000E+00  0.00000000000E+00  0.50041403891E+03  0.28645988550E+04  0.28205517882E+04 0.  0.
        2    1    3    3  502    0 -0.19432583379E+03  0.13366496603E+04  0.66210586965E+03  0.15042536444E+04  0.25500000920E-02 0.  1.
       -2    1    3    3    0  502  0.19432583379E+03 -0.13366496603E+04 -0.16169183074E+03  0.13603452106E+04  0.25500000920E-02 0. -1.
</event>
<event>
 5   0  0.2267565E-06  0.2813613E+04  0.7818609E-02  0.8299055E-01
       -1   -1    0    0    0  501  0.00000000000E+00  0.00000000000E+00  0.10753283440E+04  0.10753283440E+04  0.50400001928E-02 0.  1.
        1   -1    0    0  501    0  0.00000000000E+00  0.00000000000E+00 -0.18404652556E+04  0.18404652556E+04  0.50400001928E-02 0. -1.
    10030    2    1    2    0    0  0.00000000000E+00  0.00000000000E+00 -0.76513691159E+03  0.29157935997E+04  0.28136129482E+04 0.  0.
        4    1    3    3  502    0  0.24478391653E+03  0.17337436702E+03 -0.18069383073E+04  0.18316674087E+04  0.12699999809E+01 0. -1.
       -4    1    3    3    0  502 -0.24478391653E+03 -0.17337436702E+03  0.10418013957E+04  0.10841261910E+04  0.12699999809E+01 0.  1.
</event>
<event>
 5   0  0.5584205E-06  0.2823619E+04  0.7818609E-02  0.8295973E-01
        2   -1    0    0  501    0  0.00000000000E+00  0.00000000000E+00  0.16945495745E+04  0.16945495745E+04  0.25500000920E-02 0.  1.
       -2   -1    0    0    0  501  0.00000000000E+00  0.00000000000E+00 -0.11762457658E+04  0.11762457659E+04  0.25500000920E-02 0. -1.
    10030    2    1    2    0    0  0.00000000000E+00  0.00000000000E+00  0.51830380866E+03  0.28707953404E+04  0.28236194942E+04 0.  0.
        1    1    3    3  502    0  0.88097394442E+03 -0.43627681612E+03  0.12893703166E+04  0.16213970409E+04  0.50400001928E-02 0.  1.
       -1    1    3    3    0  502 -0.88097394442E+03  0.43627681612E+03 -0.77106650790E+03  0.12493982994E+04  0.50400001928E-02 0. -1.
</event>
<event>
 5   0  0.5625245E-06  0.2811235E+04  0.7818609E-02  0.8299789E-01
       -2   -1    0    0    0  501  0.00000000000E+00  0.00000000000E+00  0.10947734330E+04  0.10947734330E+04  0.25500000920E-02 0.  1.
        2   -1    0    0  501    0  0.00000000000E+00  0.00000000000E+00 -0.18047212030E+04  0.18047212030E+04  0.25500000920E-02 0. -1.
    10030    2    1    2    0    0  0.00000000000E+00  0.00000000000E+00 -0.70994776992E+03  0.28994946360E+04  0.28112351926E+04 0.  0.
        3    1    3    3  502    0  0.21154353765E+03 -0.80357859596E+02  0.10758627122E+04  0.10994037655E+04  0.10100000352E+00 0.  1.
       -3    1    3    3    0  502 -0.21154353765E+03  0.80357859596E+02 -0.17858104821E+04  0.18000908705E+04  0.10100000352E+00 0. -1.
</event>
<event>
 5   0  0.2190865E-06  0.2803784E+04  0.7818609E-02  0.8302095E-01
        1   -1    0    0  501    0  0.00000000000E+00  0.00000000000E+00  0.20387893184E+04  0.20387893184E+04  0.50400001928E-02 0. -1.
       -1   -1    0    0    0  501  0.00000000000E+00  0.00000000000E+00 -0.96395484118E+03  0.96395484120E+03  0.50400001928E-02 0.  1.
    10030    2    1    2    0    0  0.00000000000E+00  0.00000000000E+00  0.10748344772E+04  0.30027441596E+04  0.28037837532E+04 0.  0.
        2    1    3    3  502    0  0.11918614920E+04  0.72659964826E+03  0.67631217329E+03  0.15510896237E+04  0.25500000920E-02 0. -1.
       -2    1    3    3    0  502 -0.11918614920E+04 -0.72659964826E+03  0.39852230395E+03  0.14516545359E+04  0.25500000920E-02 0.  1.
</event>
<event>
 5   0  0.5625245E-06  0.2799000E+04  0.7818609E-02  0.8303579E-01
        2   -1    0    0  501    0  0.00000000000E+00  0.00000000000E+00  0.17915912061E+04  0.17915912061E+04  0.25500000920E-02 0. -1.
       -2   -1    0    0    0  501  0.00000000000E+00  0.00000000000E+00 -0.10932183475E+04  0.10932183475E+04  0.25500000920E-02 0.  1.
    10030    2    1    2    0    0  0.00000000000E+00  0.00000000000E+00  0.69837285860E+03  0.28848095535E+04  0.27990000912E+04 0.  0.
        3    1    3    3  502    0  0.36696619434E+03  0.13463042129E+04  0.45923603489E+03  0.14690462781E+04  0.10100000352E+00 0. -1.
       -3    1    3    3    0  502 -0.36696619434E+03 -0.13463042129E+04  0.23913682371E+03  0.14157632754E+04  0.10100000352E+00 0.  1.
</event>
<event>
 5   0  0.5916603E-06  0.2818844E+04  0.7818609E-02  0.8297442E-01
        2   -1    0    0  501    0  0.00000000000E+00  0.00000000000E+00  0.10354750233E+04  0.10354750233E+04  0.25500000920E-02 0. -1.
       -2   -1    0    0    0  501  0.00000000000E+00  0.00000000000E+00 -0.19184140295E+04  0.19184140295E+04  0.25500000920E-02 0.  1.
    10030    2    1    2    0    0  0.00000000000E+00  0.00000000000E+00 -0.88293900623E+03  0.29538890528E+04  0.28188436011E+04 0.  0.
        2    1    3    3  502    0 -0.57830581917E+03  0.67373286992E+03 -0.15884939418E+04  0.18197985063E+04  0.25500000920E-02 0.  1.
       -2    1    3    3    0  502  0.57830581917E+03 -0.67373286992E+03  0.70555493556E+03  0.11340905465E+04  0.25500000920E-02 0. -1.
</event>
<event>
 5   0  0.5625245E-06  0.2812424E+04  0.7818609E-02  0.8299421E-01
        2   -1    0    0  501    0  0.00000000000E+00  0.00000000000E+00  0.23329787833E+04  0.23329787833E+04  0.25500000920E-02 0. -1.
       -2   -1    0    0    0  501  0.00000000000E+00  0.00000000000E+00 -0.84759999407E+03  0.84759999408E+03  0.25500000920E-02 0.  1.
    10030    2    1    2    0    0  0.00000000000E+00  0.00000000000E+00  0.14853787892E+04  0.31805787773E+04  0.28124244366E+04 0.  0.
        3    1    3    3  502    0  0.11481236761E+04 -0.78722169112E+03  0.51785059134E+03  0.14852862390E+04  0.10100000352E+00 0.  1.
       -3    1    3    3    0  502 -0.11481236761E+04  0.78722169112E+03  0.96752819784E+03  0.16952925383E+04  0.10100000352E+00 0. -1.
</event>
<event>
 5   0  0.2206967E-06  0.2772705E+04  0.7818609E-02  0.8311793E-01
       -1   -1    0    0    0  501  0.00000000000E+00  0.00000000000E+00  0.16626816505E+04  0.16626816505E+04  0.50400001928E-02 0. -1.
        1   -1    0    0  501    0  0.00000000000E+00  0.00000000000E+00 -0.11559478408E+04  0.11559478408E+04  0.50400001928E-02 0.  1.
    10030    2    1    2    0    0  0.00000000000E+00  0.00000000000E+00  0.50673380962E+03  0.28186294913E+04  0.27727050069E+04 0.  0.
        5    1    3    3  502    0  0.13399251836E+04 -0.21800809257E+03  0.53913532600E+03  0.14606902532E+04  0.46999998093E+01 0. -1.
       -5    1    3    3    0  502 -0.13399251836E+04  0.21800809257E+03 -0.32401516377E+02  0.13579392381E+04  0.46999998093E+01 0.  1.
</event>
<event>
 5   0  0.2206967E-06  0.2801341E+04  0.7818609E-02  0.8302852E-01
       -1   -1    0    0    0  501  0.00000000000E+00  0.00000000000E+00  0.22678265960E+04  0.22678265960E+04  0.50400001928E-02 0.  1.
        1   -1    0    0  501    0  0.00000000000E+00  0.00000000000E+00 -0.86509174220E+03  0.86509174221E+03  0.50400001928E-02 0. -1.
    10030    2    1    2    0    0  0.00000000000E+00  0.00000000000E+00  0.14027348538E+04  0.31329183382E+04  0.28013411509E+04 0.  0.
        5    1    3    3  502    0 -0.76958582827E+03  0.63997256091E+03  0.17971520260E+04  0.20570864640E+04  0.46999998093E+01 0.  1.
       -5    1    3    3    0  502  0.76958582827E+03 -0.63997256091E+03 -0.39441717223E+03  0.10758318742E+04  0.46999998093E+01 0. -1.
</event>
<event>
 5   0  0.5584205E-06  0.2789288E+04  0.7818609E-02  0.8306602E-01
        2   -1    0    0  501    0  0.00000000000E+00  0.00000000000E+00  0.20501044930E+04  0.20501044930E+04  0.25500000920E-02 0. -1.
       -2   -1    0    0    0  501  0.00000000000E+00  0.00000000000E+00 -0.94874773826E+03  0.94874773826E+03  0.25500000920E-02 0.  1.
    10030    2    1    2    0    0  0.00000000000E+00  0.00000000000E+00  0.11013567548E+04  0.29988522313E+04  0.27892880819E+04 0.  0.
        1    1    3    3  502    0  0.56000189041E+03 -0.73739200176E+03  0.16719552113E+04  0.19112256042E+04  0.50400001928E-02 0. -1.
       -1    1    3    3    0  502 -0.56000189041E+03  0.73739200176E+03 -0.57059845647E+03  0.10876266271E+04  0.50400001928E-02 0.  1.
</event>
<event>
 5   0  0.2267565E-06  0.2813165E+04  0.7818609E-02  0.8299193E-01
       -1   -1    0    0    0  501  0.00000000000E+00  0.00000000000E+00  0.11879818360E+04  0.11879818360E+04  0.50400001928E-02 0.  1.
        1   -1    0    0  501    0  0.00000000000E+00  0.00000000000E+00 -0.16654083037E+04  0.16654083037E+04  0.50400001928E-02 0. -1.
    10030    2    1    2    0    0  0.00000000000E+00  0.00000000000E+00 -0.47742646774E+03  0.28533901397E+04  0.28131653449E+04 0.  0.
        4    1    3    3  502    0  0.23761179985E+03  0.13075625193E+04  0.22862880795E+03  0.13484998532E+04  0.12699999809E+01 0.  1.
       -4    1    3    3    0  502 -0.23761179985E+03 -0.13075625193E+04 -0.70605527568E+03  0.15048902866E+04  0.12699999809E+01 0. -1.
</event>
<event>
 5   0  0.5916603E-06  0.2794203E+04  0.7818609E-02  0.8305070E-01
        2   -1    0    0  501    0  0.00000000000E+00  0.00000000000E+00  0.17180611165E+04  0.17180611165E+04  0.25500000920E-02 0.  1.
       -2   -1    0    0    0  501  0.00000000000E+00  0.00000000000E+00 -0.11361023099E+04  0.11361023099E+04  0.25500000920E-02 0. -1.
    10030    2    1    2    0    0  0.00000000000E+00  0.00000000000E+00  0.58195880653E+03  0.28541634264E+04  0.27942034307E+04 0.  0.
        2    1    3    3  502    0 -0.54503276956E+03  0.10672659174E+04 -0.44260714107E+03  0.12775047318E+04  0.25500000920E-02 0. -1.
       -2    1    3    3    0  502  0.54503276956E+03 -0.10672659174E+04  0.10245659476E+04  0.15766586946E+04  0.25500000920E-02 0.  1.
</event>
<event>
 5   0  0.2277133E-06  0.2806460E+04  0.7818609E-02  0.8301266E-01
        1   -1    0    0  501    0  0.00000000000E+00  0.00000000000E+00  0.24514044814E+04  0.24514044814E+04  0.50400001928E-02 0.  1.
       -1   -1    0    0    0  501  0.00000000000E+00  0.00000000000E+00 -0.80323538428E+03  0.80323538430E+03  0.50400001928E-02 0. -1.
    10030    2    1    2    0    0  0.00000000000E+00  0.00000000000E+00  0.16481690971E+04  0.32546398657E+04  0.28064602764E+04 0.  0.
        1    1    3    3  502    0  0.47661717896E+03  0.26292959664E+03 -0.67580996516E+03  0.86776437880E+03  0.50400001928E-02 0. -1.
       -1    1    3    3    0  502 -0.47661717896E+03 -0.26292959664E+03  0.23239790623E+04  0.23868754869E+04  0.50400001928E-02 0.  1.
</event>
<event>
 5   0  0.5546570E-06  0.2800461E+04  0.7818609E-02  0.8303125E-01
        2   -1    0    0  501    0  0.00000000000E+00  0.00000000000E+00  0.10672124934E+04  0.10672124934E+04  0.25500000920E-02 0. -1.
       -2   -1    0    0    0  501  0.00000000000E+00  0.00000000000E+00 -0.18371652208E+04  0.18371652208E+04  0.25500000920E-02 0.  1.
    10030    2    1    2    0    0  0.00000000000E+00  0.00000000000E+00 -0.76995272733E+03  0.29043777142E+04  0.28004611592E+04 0.  0.
        4    1    3    3  502    0  0.66246627406E+03 -0.30569111279E+03 -0.16244538664E+04  0.17807752799E+04  0.12699999809E+01 0.  1.
       -4    1    3    3    0  502 -0.66246627406E+03  0.30569111279E+03  0.85450113906E+03  0.11236024343E+04  0.12699999809E+01 0. -1.
</event>
<event>
 5   0  0.2267565E-06  0.2983103E+04  0.7818609E-02  0.8248572E-01
        1   -1    0    0  501    0  0.00000000000E+00  0.00000000000E+00  0.14697804139E+04  0.14697804140E+04  0.50400001928E-02 0. -1.
       -1   -1    0    0    0  501  0.00000000000E+00  0.00000000000E+00 -0.15136454282E+04  0.15136454282E+04  0.50400001928E-02 0.  1.
    10030    2    1    2    0    0  0.00000000000E+00  0.00000000000E+00 -0.43865014244E+02  0.29834258421E+04  0.29831033532E+04 0.  0.
        4    1    3    3  502    0 -0.11687502121E+04  0.90306908452E+03 -0.22983466011E+03  0.14947696858E+04  0.12699999809E+01 0.  1.
       -4    1    3    3    0  502  0.11687502121E+04 -0.90306908452E+03  0.18596964587E+03  0.14886561563E+04  0.12699999809E+01 0. -1.
</event>
<event>
 5   0  0.5866136E-06  0.2809237E+04  0.7818609E-02  0.8300407E-01
        2   -1    0    0  501    0  0.00000000000E+00  0.00000000000E+00  0.19482539274E+04  0.19482539274E+04  0.25500000920E-02 0. -1.
       -2   -1    0    0    0  501  0.00000000000E+00  0.00000000000E+00 -0.10126773161E+04  0.10126773161E+04  0.25500000920E-02 0.  1.
    10030    2    1    2    0    0  0.00000000000E+00  0.00000000000E+00  0.93557661129E+03  0.29609312436E+04  0.28092365927E+04 0.  0.
        5    1    3    3  502    0 -0.11355506409E+04  0.32127162633E+03  0.12706555603E+04  0.17341506160E+04  0.46999998093E+01 0. -1.
       -5    1    3    3    0  502  0.11355506409E+04 -0.32127162633E+03 -0.33507894906E+03  0.12267806275E+04  0.46999998093E+01 0.  1.
</event>
<event>
 5   0  0.2267565E-06  0.2773541E+04  0.7818609E-02  0.8311530E-01
       -1   -1    0    0    0  501  0.00000000000E+00  0.00000000000E+00  0.10932193178E+04  0.10932193178E+04  0.50400001928E-02 0.  1.
        1   -1    0    0  501    0  0.00000000000E+00  0.00000000000E+00 -0.17591462656E+04  0.17591462656E+04  0.50400001928E-02 0. -1.
    10030    2    1    2    0    0  0.00000000000E+00  0.00000000000E+00 -0.66592694783E+03  0.28523655834E+04  0.27735411880E+04 0.  0.
        4    1    3    3  502    0 -0.41392548570E+03 -0.85242555228E+03 -0.13742445352E+04  0.16692852618E+04  0.12699999809E+01 0. -1.
       -4    1    3    3    0  502  0.41392548570E+03  0.85242555228E+03  0.70831758733E+03  0.11830803216E+04  0.12699999809E+01 0.  1.
</event>
<event>
 5   0  0.2206967E-06  0.2751837E+04  0.7818609E-02  0.8318379E-01
        1   -1    0    0  501    0  0.00000000000E+00  0.00000000000E+00  0.68824646627E+03  0.68824646629E+03  0.50400001928E-02 0.  1.
       -1   -1    0    0    0  501  0.00000000000E+00  0.00000000000E+00 -0.27506885107E+04  0.27506885108E+04  0.50400001928E-02 0. -1.
    10030    2    1    2    0    0  0.00000000000E+00  0.00000000000E+00 -0.20624420445E+04  0.34389349770E+04  0.27518369482E+04 0.  0.
        5    1    3    3  502    0  0.33884599726E+03 -0.13131207731E+04 -0.13216940557E+04  0.18936736893E+04  0.46999998093E+01 0. -1.
       -5    1    3    3    0  502 -0.33884599726E+03  0.13131207731E+04 -0.74074798879E+03  0.15452612878E+04  0.46999998093E+01 0.  1.
</event>
<event>
 5   0  0.5584205E-06  0.2806700E+04  0.7818609E-02  0.8301191E-01
        2   -1    0    0  501    0  0.00000000000E+00  0.00000000000E+00  0.11448076706E+04  0.11448076706E+04  0.25500000920E-02 0. -1.
       -2   -1    0    0    0  501  0.00000000000E+00  0.00000000000E+00 -0.17202812024E+04  0.17202812024E+04  0.25500000920E-02 0.  1.
    10030    2    1    2    0    0  0.00000000000E+00  0.00000000000E+00 -0.57547353178E+03  0.28650888730E+04  0.28066999242E+04 0.  0.
        1    1    3    3  502    0  0.42080437378E+03  0.13380916035E+04 -0.24412019102E+03  0.14237837364E+04  0.50400001928E-02 0. -1.
       -1    1    3    3    0  502 -0.42080437378E+03 -0.13380916035E+04 -0.33135334075E+03  0.14413051366E+04  0.50400001928E-02 0.  1.
</event>
<event>
 5   0  0.2206967E-06  0.2757529E+04  0.7818609E-02  0.8316576E-01
       -1   -1    0    0    0  501  0.00000000000E+00  0.00000000000E+00  0.90387117885E+03  0.90387117886E+03  0.50400001928E-02 0.  1.
        1   -1    0    0  501    0  0.00000000000E+00  0.00000000000E+00 -0.21031667786E+04  0.21031667786E+04  0.50400001928E-02 0. -1.
    10030    2    1    2    0    0  0.00000000000E+00  0.00000000000E+00 -0.11992955998E+04  0.30070379575E+04  0.27575292097E+04 0.  0.
        5    1    3    3  502    0 -0.99288826330E+02 -0.90400978310E+03  0.53039844944E+03  0.10528231400E+04  0.46999998093E+01 0.  1.
       -5    1    3    3    0  502  0.99288826330E+02  0.90400978310E+03 -0.17296940492E+04  0.19542148175E+04  0.46999998093E+01 0. -1.
</event>
<event>
 5   0  0.5584205E-06  0.2798672E+04  0.7818609E-02  0.8303681E-01
        2   -1    0    0  501    0  0.00000000000E+00  0.00000000000E+00  0.12292619780E+04  0.12292619780E+04  0.25500000920E-02 0. -1.
       -2   -1    0    0    0  501  0.00000000000E+00  0.00000000000E+00 -0.15929400977E+04  0.15929400977E+04  0.25500000920E-02 0.  1.
    10030    2    1    2    0    0  0.00000000000E+00  0.00000000000E+00 -0.36367811967E+03  0.28222020757E+04  0.27986716101E+04 0.  0.
        1    1    3    3  502    0  0.12178388535E+04  0.10104020731E+03 -0.86933362677E+03  0.14996938192E+04  0.50400001928E-02 0. -1.
       -1    1    3    3    0  502 -0.12178388535E+04 -0.10104020731E+03  0.50565550710E+03  0.13225082565E+04  0.50400001928E-02 0.  1.
</event>
<event>
 5   0  0.2234068E-06  0.2812792E+04  0.7818609E-02  0.8299308E-01
        1   -1    0    0  501    0  0.00000000000E+00  0.00000000000E+00  0.16513225078E+04  0.16513225078E+04  0.50400001928E-02 0. -1.
       -1   -1    0    0    0  501  0.00000000000E+00  0.00000000000E+00 -0.11977976723E+04  0.11977976723E+04  0.50400001928E-02 0.  1.
    10030    2    1    2    0    0  0.00000000000E+00  0.00000000000E+00  0.45352483551E+03  0.28491201801E+04  0.28127923891E+04 0.  0.
        3    1    3    3  502    0 -0.86652937864E+02  0.13607773333E+04  0.57577978550E+03  0.14801169056E+04  0.10100000352E+00 0.  1.
       -3    1    3    3    0  502  0.86652937864E+02 -0.13607773333E+04 -0.12225495000E+03  0.13690032745E+04  0.10100000352E+00 0. -1.
</event>
<event>
 5   0  0.2206967E-06  0.2798937E+04  0.7818609E-02  0.8303598E-01
       -1   -1    0    0    0  501  0.00000000000E+00  0.00000000000E+00  0.16069896370E+04  0.16069896370E+04  0.50400001928E-02 0. -1.
        1   -1    0    0  501    0  0.00000000000E+00  0.00000000000E+00 -0.12187458340E+04  0.12187458340E+04  0.50400001928E-02 0.  1.
    10030    2    1    2    0    0  0.00000000000E+00  0.00000000000E+00  0.38824380300E+03  0.28257354710E+04  0.27989368877E+04 0.  0.
        5    1    3    3  502    0 -0.96630892521E+03 -0.26566221898E+02  0.12157550539E+04  0.15532357014E+04  0.46999998093E+01 0. -1.
       -5    1    3    3    0  502  0.96630892521E+03  0.26566221898E+02 -0.82751125093E+03  0.12724997695E+04  0.46999998093E+01 0.  1.
</event>
<event>
 5   0  0.5546570E-06  0.2812996E+04  0.7818609E-02  0.8299245E-01
       -2   -1    0    0    0  501  0.00000000000E+00  0.00000000000E+00  0.13901151351E+04  0.13901151351E+04  0.25500000920E-02 0. -1.
        2   -1    0    0  501    0  0.00000000000E+00  0.00000000000E+00 -0.14230743428E+04  0.14230743428E+04  0.25500000920E-02 0.  1.
    10030    2    1    2    0    0  0.00000000000E+00  0.00000000000E+00 -0.32959207731E+02  0.28131894780E+04  0.28129963970E+04 0.  0.
        4    1    3    3  502    0 -0.93250210849E+03 -0.35468164939E+03  0.97498963240E+03  0.13949787278E+04  0.12699999809E+01 0. -1.
       -4    1    3    3    0  502  0.93250210849E+03  0.35468164939E+03 -0.10079488401E+04  0.14182107502E+04  0.12699999809E+01 0.  1.
</event>
<event>
 5   0  0.5916603E-06  0.3138907E+04  0.7818609E-02  0.8205141E-01
        2   -1    0    0  501    0  0.00000000000E+00  0.00000000000E+00  0.21482272769E+04  0.21482272769E+04  0.25500000920E-02 0. -1.
       -2   -1    0    0    0  501  0.00000000000E+00  0.00000000000E+00 -0.11466124795E+04  0.11466124795E+04  0.25500000920E-02 0.  1.
    10030    2    1    2    0    0  0.00000000000E+00  0.00000000000E+00  0.10016147974E+04  0.32948397563E+04  0.31389069463E+04 0.  0.
        2    1    3    3  502    0 -0.43070973823E+03  0.12571947519E+04 -0.37561647854E+03  0.13809914054E+04  0.25500000920E-02 0.  1.
       -2    1    3    3    0  502  0.43070973823E+03 -0.12571947519E+04  0.13772312759E+04  0.19138483509E+04  0.25500000920E-02 0. -1.
</event>
<event>
 5   0  0.2267565E-06  0.2799962E+04  0.7818609E-02  0.8303280E-01
       -1   -1    0    0    0  501  0.00000000000E+00  0.00000000000E+00  0.11284607681E+04  0.11284607681E+04  0.50400001928E-02 0. -1.
        1   -1    0    0  501    0  0.00000000000E+00  0.00000000000E+00 -0.17368323907E+04  0.17368323907E+04  0.50400001928E-02 0.  1.
    10030    2    1    2    0    0  0.00000000000E+00  0.00000000000E+00 -0.60837162265E+03  0.28652931588E+04  0.27999622952E+04 0.  0.
        4    1    3    3  502    0  0.53021659299E+03  0.30861752477E+01 -0.16301054194E+04  0.17141716516E+04  0.12699999809E+01 0.  1.
       -4    1    3    3    0  502 -0.53021659299E+03 -0.30861752477E+01  0.10217337968E+04  0.11511215072E+04  0.12699999809E+01 0. -1.
</event>
<event>
 5   0  0.5866136E-06  0.2892829E+04  0.7818609E-02  0.8275014E-01
        2   -1    0    0  501    0  0.00000000000E+00  0.00000000000E+00  0.18604430427E+04  0.18604430427E+04  0.25500000920E-02 0. -1.
       -2   -1    0    0    0  501  0.00000000000E+00  0.00000000000E+00 -0.11245247208E+04  0.11245247208E+04  0.25500000920E-02 0.  1.
    10030    2    1    2    0    0  0.00000000000E+00  0.00000000000E+00  0.73591832188E+03  0.29849677635E+04  0.28928285073E+04 0.  0.
        5    1    3    3  502    0  0.67876128933E+03  0.66224795547E+02  0.16841211092E+04  0.18169723751E+04  0.46999998093E+01 0. -1.
       -5    1    3    3    0  502 -0.67876128933E+03 -0.66224795547E+02 -0.94820278732E+03  0.11679953884E+04  0.46999998093E+01 0.  1.
</event>
<event>
 5   0  0.2277133E-06  0.2833340E+04  0.7818609E-02  0.8292992E-01
       -1   -1    0    0    0  501  0.00000000000E+00  0.00000000000E+00  0.16284085822E+04  0.16284085822E+04  0.50400001928E-02 0. -1.
        1   -1    0    0  501    0  0.00000000000E+00  0.00000000000E+00 -0.12324630568E+04  0.12324630568E+04  0.50400001928E-02 0.  1.
    10030    2    1    2    0    0  0.00000000000E+00  0.00000000000E+00  0.39594552539E+03  0.28608716389E+04  0.28333396682E+04 0.  0.
        1    1    3    3  502    0 -0.37114076401E+03 -0.12995160288E+04 -0.23096815662E+03  0.13710702627E+04  0.50400001928E-02 0.  1.
       -1    1    3    3    0  502  0.37114076401E+03  0.12995160288E+04  0.62691368201E+03  0.14898013762E+04  0.50400001928E-02 0. -1.
</event>
<event>
 5   0  0.5546570E-06  0.2534091E+04  0.7818609E-02  0.8390940E-01
       -2   -1    0    0    0  501  0.00000000000E+00  0.00000000000E+00  0.10506884589E+04  0.10506884589E+04  0.25500000920E-02 0. -1.
        2   -1    0    0  501    0  0.00000000000E+00  0.00000000000E+00 -0.15279551606E+04  0.15279551606E+04  0.25500000920E-02 0.  1.
    10030    2    1    2    0    0  0.00000000000E+00  0.00000000000E+00 -0.47726670174E+03  0.25786436195E+04  0.25340914371E+04 0.  0.
        4    1    3    3  502    0 -0.91641300139E+03 -0.17426228976E+03 -0.11111598323E+04  0.14508128482E+04  0.12699999809E+01 0.  1.
       -4    1    3    3    0  502  0.91641300139E+03  0.17426228976E+03  0.63389313054E+03  0.11278307713E+04  0.12699999809E+01 0. -1.
</event>
<event>
 5   0  0.2190865E-06  0.2791499E+04  0.7818609E-02  0.8305912E-01
       -1   -1    0    0    0  501  0.00000000000E+00  0.00000000000E+00  0.15124152701E+04  0.15124152701E+04  0.50400001928E-02 0. -1.
        1   -1    0    0  501    0  0.00000000000E+00  0.00000000000E+00 -0.12880834238E+04  0.12880834238E+04  0.50400001928E-02 0.  1.
    10030    2    1    2    0    0  0.00000000000E+00  0.00000000000E+00  0.22433184629E+03  0.28004986939E+04  0.27914992669E+04 0.  0.
        2    1    3    3  502    0 -0.89301202577E+03 -0.25496683067E+03  0.11574647663E+04  0.14839822263E+04  0.25500000920E-02 0. -1.
       -2    1    3    3    0  502  0.89301202577E+03  0.25496683067E+03 -0.93313292000E+03  0.13165164675E+04  0.25500000920E-02 0.  1.
</event>
<event>
 5   0  0.2190865E-06  0.2797943E+04  0.7818609E-02  0.8303907E-01
       -1   -1    0    0    0  501  0.00000000000E+00  0.00000000000E+00  0.10738555114E+04  0.10738555114E+04  0.50400001928E-02 0. -1.
        1   -1    0    0  501    0  0.00000000000E+00  0.00000000000E+00 -0.18225180088E+04  0.18225180088E+04  0.50400001928E-02 0.  1.
    10030    2    1    2    0    0  0.00000000000E+00  0.00000000000E+00 -0.74866249741E+03  0.28963735202E+04  0.27979428217E+04 0.  0.
        2    1    3    3  502    0  0.11464186204E+04  0.68932784039E+03  0.49552368791E+02  0.13386201709E+04  0.25500000920E-02 0.  1.
       -2    1    3    3    0  502 -0.11464186204E+04 -0.68932784039E+03 -0.79821486620E+03  0.15577533493E+04  0.25500000920E-02 0. -1.
</event>
<event>
 5   0  0.5916603E-06  0.2803234E+04  0.7818609E-02  0.8302265E-01
       -2   -1    0    0    0  501  0.00000000000E+00  0.00000000000E+00  0.77048535493E+03  0.77048535493E+03  0.25500000920E-02 0. -1.
        2   -1    0    0  501    0  0.00000000000E+00  0.00000000000E+00 -0.25497313101E+04  0.25497313101E+04  0.25500000920E-02 0.  1.
    10030    2    1    2    0    0  0.00000000000E+00  0.00000000000E+00 -0.17792459552E+04  0.33202166650E+04  0.28032342987E+04 0.  0.
        2    1    3    3  502    0 -0.12889381257E+04  0.53870542939E+03 -0.10244892540E+04  0.17323808078E+04  0.25500000920E-02 0.  1.
       -2    1    3    3    0  502  0.12889381257E+04 -0.53870542939E+03 -0.75475670117E+03  0.15878358572E+04  0.25500000920E-02 0. -1.
</event>
<event>
 5   0  0.1901375E-06  0.2797475E+04  0.7818609E-02  0.8304053E-01
       -3   -1    0    0    0  501  0.00000000000E+00  0.00000000000E+00  0.15775110251E+04  0.15775110284E+04  0.10100000352E+00 0. -1.
        3   -1    0    0  501    0  0.00000000000E+00  0.00000000000E+00 -0.12402233104E+04  0.12402233145E+04  0.10100000352E+00 0.  1.
    10030    2    1    2    0    0  0.00000000000E+00  0.00000000000E+00  0.33728771477E+03  0.28177343429E+04  0.27974745440E+04 0.  0.
        2    1    3    3  502    0 -0.60864053064E+03  0.11396873981E+04  0.70837464499E+03  0.14734738880E+04  0.25500000920E-02 0. -1.
       -2    1    3    3    0  502  0.60864053064E+03 -0.11396873981E+04 -0.37108693022E+03  0.13442604549E+04  0.25500000920E-02 0.  1.
</event>
<event>
 5   0  0.2277133E-06  0.2795403E+04  0.7818609E-02  0.8304697E-01
        1   -1    0    0  501    0  0.00000000000E+00  0.00000000000E+00  0.18622609429E+04  0.18622609429E+04  0.50400001928E-02 0. -1.
       -1   -1    0    0    0  501  0.00000000000E+00  0.00000000000E+00 -0.10490310182E+04  0.10490310182E+04  0.50400001928E-02 0.  1.
    10030    2    1    2    0    0  0.00000000000E+00  0.00000000000E+00  0.81322992464E+03  0.29112919611E+04  0.27954030072E+04 0.  0.
        1    1    3    3  502    0 -0.76483034809E+03  0.90448852946E+03  0.11793343028E+04  0.16714946482E+04  0.50400001928E-02 0. -1.
       -1    1    3    3    0  502  0.76483034809E+03 -0.90448852946E+03 -0.36610437815E+03  0.12397973129E+04  0.50400001928E-02 0.  1.
</event>
<event>
 5   0  0.2206967E-06  0.2840607E+04  0.7818609E-02  0.8290771E-01
       -1   -1    0    0    0  501  0.00000000000E+00  0.00000000000E+00  0.10434121043E+04  0.10434121043E+04  0.50400001928E-02 0. -1.
        1   -1    0    0  501    0  0.00000000000E+00  0.00000000000E+00 -0.19333325961E+04  0.19333325961E+04  0.50400001928E-02 0.  1.
    10030    2    1    2    0    0  0.00000000000E+00  0.00000000000E+00 -0.88992049181E+03  0.29767447005E+04  0.28406074227E+04 0.  0.
        5    1    3    3  502    0  0.13069372451E+04 -0.34518555639E+03 -0.90174336143E+03  0.16249311404E+04  0.46999998093E+01 0.  1.
       -5    1    3    3    0  502 -0.13069372451E+04  0.34518555639E+03  0.11822869622E+02  0.13518135601E+04  0.46999998093E+01 0. -1.
</event>
<event>
 5   0  0.5916603E-06  0.2800737E+04  0.7818609E-02  0.8303040E-01
        2   -1    0    0  501    0  0.00000000000E+00  0.00000000000E+00  0.19298733263E+04  0.19298733263E+04  0.25500000920E-02 0.  1.
       -2   -1    0    0    0  501  0.00000000000E+00  0.00000000000E+00 -0.10161452754E+04  0.10161452754E+04  0.25500000920E-02 0. -1.
    10030    2    1    2    0    0  0.00000000000E+00  0.00000000000E+00  0.91372805090E+03  0.29460186018E+04  0.28007368050E+04 0.  0.
        2    1    3    3  502    0 -0.43933485258E+03 -0.70810764525E+03 -0.72694854522E+03  0.11058416421E+04  0.25500000920E-02 0. -1.
       -2    1    3    3    0  502  0.43933485258E+03  0.70810764525E+03  0.16406765961E+04  0.18401769597E+04  0.25500000920E-02 0.  1.
</event>
<event>
 5   0  0.5916603E-06  0.2862489E+04  0.7818609E-02  0.8284126E-01
       -2   -1    0    0    0  501  0.00000000000E+00  0.00000000000E+00  0.17179573747E+04  0.17179573747E+04  0.25500000920E-02 0. -1.
        2   -1    0    0  501    0  0.00000000000E+00  0.00000000000E+00 -0.11923819227E+04  0.11923819227E+04  0.25500000920E-02 0.  1.
    10030    2    1    2    0    0  0.00000000000E+00  0.00000000000E+00  0.52557545196E+03  0.29103392975E+04  0.28624893486E+04 0.  0.
        2    1    3    3  502    0  0.64758977013E+03 -0.11901379951E+04  0.73164754592E+03  0.15398406051E+04  0.25500000920E-02 0.  1.
       -2    1    3    3    0  502 -0.64758977013E+03  0.11901379951E+04 -0.20607209396E+03  0.13704986923E+04  0.25500000920E-02 0. -1.
</event>
<event>
 5   0  0.2277133E-06  0.2818056E+04  0.7818609E-02  0.8297685E-01
       -1   -1    0    0    0  501  0.00000000000E+00  0.00000000000E+00  0.93582974796E+03  0.93582974797E+03  0.50400001928E-02 0. -1.
        1   -1    0    0  501    0  0.00000000000E+00  0.00000000000E+00 -0.21214966756E+04  0.21214966756E+04  0.50400001928E-02 0.  1.
    10030    2    1    2    0    0  0.00000000000E+00  0.00000000000E+00 -0.11856669277E+04  0.30573264236E+04  0.28180558541E+04 0.  0.
        1    1    3    3  502    0 -0.61418522013E+03 -0.11634620894E+04 -0.45528439302E+02  0.13164119252E+04  0.50400001928E-02 0. -1.
       -1    1    3    3    0  502  0.61418522013E+03  0.11634620894E+04 -0.11401384884E+04  0.17409144984E+04  0.50400001928E-02 0.  1.
</event>
<event>
 5   0  0.5625245E-06  0.2835132E+04  0.7818609E-02  0.8292444E-01
        2   -1    0    0  501    0  0.00000000000E+00  0.00000000000E+00  0.11269368321E+04  0.11269368321E+04  0.25500000920E-02 0.  1.
       -2   -1    0    0    0  501  0.00000000000E+00  0.00000000000E+00 -0.17831462781E+04  0.17831462781E+04  0.25500000920E-02 0. -1.
    10030    2    1    2    0    0  0.00000000000E+00  0.00000000000E+00 -0.65620944599E+03  0.29100831102E+04  0.28351318966E+04 0.  0.
        3    1    3    3  502    0  0.79715413024E+03  0.56175637405E+03 -0.13841220580E+04  0.16931682766E+04  0.10100000352E+00 0. -1.
       -3    1    3    3    0  502 -0.79715413024E+03 -0.56175637405E+03  0.72791261204E+03  0.12169148336E+04  0.10100000352E+00 0.  1.
</event>
<event>
 5   0  0.5625245E-06  0.2794153E+04  0.7818609E-02  0.8305086E-01
        2   -1    0    0  501    0  0.00000000000E+00  0.00000000000E+00  0.11137067191E+04  0.11137067191E+04  0.25500000920E-02 0. -1.
       -2   -1    0    0    0  501  0.00000000000E+00  0.00000000000E+00 -0.17525465342E+04  0.17525465342E+04  0.25500000920E-02 0.  1.
    10030    2    1    2    0    0  0.00000000000E+00  0.00000000000E+00 -0.63883981507E+03  0.28662532533E+04  0.27941530744E+04 0.  0.
        3    1    3    3  502    0 -0.10459653391E+04  0.23892977654E+03 -0.12373235362E+04  0.16377119625E+04  0.10100000352E+00 0.  1.
       -3    1    3    3    0  502  0.10459653391E+04 -0.23892977654E+03  0.59848372113E+03  0.12285412909E+04  0.10100000352E+00 0. -1.
</event>
<event>
 5   0  0.5546570E-06  0.2769026E+04  0.7818609E-02  0.8312950E-01
        2   -1    0    0  501    0  0.00000000000E+00  0.00000000000E+00  0.15848001441E+04  0.15848001441E+04  0.25500000920E-02 0. -1.
       -2   -1    0    0    0  501  0.00000000000E+00  0.00000000000E+00 -0.12095381213E+04  0.12095381213E+04  0.25500000920E-02 0.  1.
    10030    2    1    2    0    0  0.00000000000E+00  0.00000000000E+00  0.37526202279E+03  0.27943382654E+04  0.27690259579E+04 0.  0.
        4    1    3    3  502    0 -0.95277201823E+03  0.61143172617E+03  0.99194335304E+03  0.15051832124E+04  0.12699999809E+01 0. -1.
       -4    1    3    3    0  502  0.95277201823E+03 -0.61143172617E+03 -0.61668133024E+03  0.12891550529E+04  0.12699999809E+01 0.  1.
</event>
<event>
 5   0  0.2267565E-06  0.2739047E+04  0.7818609E-02  0.8322446E-01
        1   -1    0    0  501    0  0.00000000000E+00  0.00000000000E+00  0.14262966379E+04  0.14262966379E+04  0.50400001928E-02 0.  1.
       -1   -1    0    0    0  501  0.00000000000E+00  0.00000000000E+00 -0.13150102008E+04  0.13150102008E+04  0.50400001928E-02 0. -1.
    10030    2    1    2    0    0  0.00000000000E+00  0.00000000000E+00  0.11128643713E+03  0.27413068387E+04  0.27390470081E+04 0.  0.
        4    1    3    3  502    0  0.13526275919E+04 -0.16634723683E+03  0.19110705936E+03  0.13761527265E+04  0.12699999809E+01 0.  1.
       -4    1    3    3    0  502 -0.13526275919E+04  0.16634723683E+03 -0.79820622227E+02  0.13651541122E+04  0.12699999809E+01 0. -1.
</event>
<event>
 5   0  0.2267565E-06  0.2802711E+04  0.7818609E-02  0.8302427E-01
       -1   -1    0    0    0  501  0.00000000000E+00  0.00000000000E+00  0.72464422410E+03  0.72464422412E+03  0.50400001928E-02 0.  1.
        1   -1    0    0  501    0  0.00000000000E+00  0.00000000000E+00 -0.27100165553E+04  0.27100165553E+04  0.50400001928E-02 0. -1.
    10030    2    1    2    0    0  0.00000000000E+00  0.00000000000E+00 -0.19853723312E+04  0.34346607794E+04  0.28027114329E+04 0.  0.
        4    1    3    3  502    0 -0.65300127529E+03 -0.11952285570E+04 -0.13969346277E+04  0.19510022901E+04  0.12699999809E+01 0. -1.
       -4    1    3    3    0  502  0.65300127529E+03  0.11952285570E+04 -0.58843770346E+03  0.14836584893E+04  0.12699999809E+01 0.  1.
</event>
<event>
 5   0  0.5866136E-06  0.2799058E+04  0.7818609E-02  0.8303561E-01
       -2   -1    0    0    0  501  0.00000000000E+00  0.00000000000E+00  0.13372974502E+04  0.13372974502E+04  0.25500000920E-02 0. -1.
        2   -1    0    0  501    0  0.00000000000E+00  0.00000000000E+00 -0.14646567782E+04  0.14646567782E+04  0.25500000920E-02 0.  1.
    10030    2    1    2    0    0  0.00000000000E+00  0.00000000000E+00 -0.12735932797E+03  0.28019542284E+04  0.27990582523E+04 0.  0.
        5    1    3    3  502    0  0.70227581893E+03  0.10753543539E+04 -0.62020573719E+03  0.14262733114E+04  0.46999998093E+01 0.  1.
       -5    1    3    3    0  502 -0.70227581893E+03 -0.10753543539E+04  0.49284640923E+03  0.13756809170E+04  0.46999998093E+01 0. -1.
</event>
<event>
 5   0  0.2267565E-06  0.2781973E+04  0.7818609E-02  0.8308887E-01
       -1   -1    0    0    0  501  0.00000000000E+00  0.00000000000E+00  0.10574855132E+04  0.10574855132E+04  0.50400001928E-02 0. -1.
        1   -1    0    0  501    0  0.00000000000E+00  0.00000000000E+00 -0.18296640861E+04  0.18296640861E+04  0.50400001928E-02 0.  1.
    10030    2    1    2    0    0  0.00000000000E+00  0.00000000000E+00 -0.77217857291E+03  0.28871495993E+04  0.27819728719E+04 0.  0.
        4    1    3    3  502    0 -0.86780439954E+03 -0.64397445337E+03 -0.12950170913E+04  0.16866708191E+04  0.12699999809E+01 0.  1.
       -4    1    3    3    0  502  0.86780439954E+03  0.64397445337E+03  0.52283851835E+03  0.12004787802E+04  0.12699999809E+01 0. -1.
</event>
<event>
 5   0  0.5625245E-06  0.2816996E+04  0.7818609E-02  0.8298011E-01
        2   -1    0    0  501    0  0.00000000000E+00  0.00000000000E+00  0.16984395746E+04  0.16984395746E+04  0.25500000920E-02 0.  1.
       -2   -1    0    0    0  501  0.00000000000E+00  0.00000000000E+00 -0.11680525623E+04  0.11680525623E+04  0.25500000920E-02 0. -1.
    10030    2    1    2    0    0  0.00000000000E+00  0.00000000000E+00  0.53038701236E+03  0.28664921369E+04  0.28169960575E+04 0.  0.
        3    1    3    3  502    0 -0.98631305484E+03  0.30824623288E+03 -0.70872169189E+03  0.12530425488E+04  0.10100000352E+00 0. -1.
       -3    1    3    3    0  502  0.98631305484E+03 -0.30824623288E+03  0.12391087043E+04  0.16134495881E+04  0.10100000352E+00 0.  1.
</event>
<event>
 5   0  0.5625245E-06  0.2806887E+04  0.7818609E-02  0.8301133E-01
        2   -1    0    0  501    0  0.00000000000E+00  0.00000000000E+00  0.16845641064E+04  0.16845641064E+04  0.25500000920E-02 0. -1.
       -2   -1    0    0    0  501  0.00000000000E+00  0.00000000000E+00 -0.11692365451E+04  0.11692365451E+04  0.25500000920E-02 0.  1.
    10030    2    1    2    0    0  0.00000000000E+00  0.00000000000E+00  0.51532756133E+03  0.28538006515E+04  0.28068871839E+04 0.  0.
        3    1    3    3  502    0  0.35014630942E+03  0.48036597190E+03  0.15502504175E+04  0.16603102940E+04  0.10100000352E+00 0.  1.
       -3    1    3    3    0  502 -0.35014630942E+03 -0.48036597190E+03 -0.10349228562E+04  0.11934903575E+04  0.10100000352E+00 0. -1.
</event>
<event>
 5   0  0.2267565E-06  0.2809289E+04  0.7818609E-02  0.8300390E-01
        1   -1    0    0  501    0  0.00000000000E+00  0.00000000000E+00  0.11663266411E+04  0.11663266411E+04  0.50400001928E-02 0.  1.
       -1   -1    0    0    0  501  0.00000000000E+00  0.00000000000E+00 -0.16916580359E+04  0.16916580359E+04  0.50400001928E-02 0. -1.
    10030    2    1    2    0    0  0.00000000000E+00  0.00000000000E+00 -0.52533139484E+03  0.28579846770E+04  0.28092887605E+04 0.  0.
        4    1    3    3  502    0 -0.10296839932E+04  0.83663241267E+03 -0.73198785938E+03  0.15152593042E+04  0.12699999809E+01 0.  1.
       -4    1    3    3    0  502  0.10296839932E+04 -0.83663241267E+03  0.20665646453E+03  0.13427253729E+04  0.12699999809E+01 0. -1.
</event>
<event>
 5   0  0.2234068E-06  0.2788526E+04  0.7818609E-02  0.8306839E-01
       -1   -1    0    0    0  501  0.00000000000E+00  0.00000000000E+00  0.13481356592E+04  0.13481356592E+04  0.50400001928E-02 0. -1.
        1   -1    0    0  501    0  0.00000000000E+00  0.00000000000E+00 -0.14419686571E+04  0.14419686571E+04  0.50400001928E-02 0.  1.
    10030    2    1    2    0    0  0.00000000000E+00  0.00000000000E+00 -0.93832997874E+02  0.27901043163E+04  0.27885260380E+04 0.  0.
        3    1    3    3  502    0  0.72606245937E+03 -0.10578705926E+04  0.49902266454E+03  0.13766918739E+04  0.10100000352E+00 0. -1.
       -3    1    3    3    0  502 -0.72606245937E+03  0.10578705926E+04 -0.59285566242E+03  0.14134124424E+04  0.10100000352E+00 0.  1.
</event>
<event>
 5   0  0.2267565E-06  0.2799236E+04  0.7818609E-02  0.8303506E-01
        1   -1    0    0  501    0  0.00000000000E+00  0.00000000000E+00  0.16208103105E+04  0.16208103105E+04  0.50400001928E-02 0.  1.
       -1   -1    0    0    0  501  0.00000000000E+00  0.00000000000E+00 -0.12086119246E+04  0.12086119246E+04  0.50400001928E-02 0. -1.
    10030    2    1    2    0    0  0.00000000000E+00  0.00000000000E+00  0.41219838595E+03  0.28294222351E+04  0.27992360878E+04 0.  0.
        4    1    3    3  502    0 -0.11610300136E+04 -0.58072535229E+03  0.73490083976E+03  0.14917484655E+04  0.12699999809E+01 0.  1.
       -4    1    3    3    0  502  0.11610300136E+04  0.58072535229E+03 -0.32270245381E+03  0.13376737696E+04  0.12699999809E+01 0. -1.
</event>
<event>
 5   0  0.5866136E-06  0.2806438E+04  0.7818609E-02  0.8301273E-01
        2   -1    0    0  501    0  0.00000000000E+00  0.00000000000E+00  0.31943936491E+04  0.31943936491E+04  0.25500000920E-02 0. -1.
       -2   -1    0    0    0  501  0.00000000000E+00  0.00000000000E+00 -0.61639963747E+03  0.61639963747E+03  0.25500000920E-02 0.  1.
    10030    2    1    2    0    0  0.00000000000E+00  0.00000000000E+00  0.25779940116E+04  0.38107932866E+04  0.28064376617E+04 0.  0.
        5    1    3    3  502    0  0.75295029150E+03 -0.82334211931E+03  0.24445281063E+04  0.26871111141E+04  0.46999998093E+01 0. -1.
       -5    1    3    3    0  502 -0.75295029150E+03  0.82334211931E+03  0.13346590533E+03  0.11236821725E+04  0.46999998093E+01 0.  1.
</event>
<event>
 5   0  0.2267565E-06  0.2738323E+04  0.7818609E-02  0.8322677E-01
        1   -1    0    0  501    0  0.00000000000E+00  0.00000000000E+00  0.15498973221E+04  0.15498973221E+04  0.50400001928E-02 0. -1.
       -1   -1    0    0    0  501  0.00000000000E+00  0.00000000000E+00 -0.12095012450E+04  0.12095012450E+04  0.50400001928E-02 0.  1.
    10030    2    1    2    0    0  0.00000000000E+00  0.00000000000E+00  0.34039607713E+03  0.27593985671E+04  0.27383226550E+04 0.  0.
        4    1    3    3  502    0 -0.31962200097E+02  0.13488508440E+03 -0.12024111475E+04  0.12103758708E+04  0.12699999809E+01 0.  1.
       -4    1    3    3    0  502  0.31962200097E+02 -0.13488508440E+03  0.15428072246E+04  0.15490226962E+04  0.12699999809E+01 0. -1.
</event>
<event>
 5   0  0.2190865E-06  0.2798406E+04  0.7818609E-02  0.8303763E-01
        1   -1    0    0  501    0  0.00000000000E+00  0.00000000000E+00  0.26378216604E+04  0.26378216604E+04  0.50400001928E-02 0. -1.
       -1   -1    0    0    0  501  0.00000000000E+00  0.00000000000E+00 -0.74219179999E+03  0.74219180000E+03  0.50400001928E-02 0.  1.
    10030    2    1    2    0    0  0.00000000000E+00  0.00000000000E+00  0.18956298604E+04  0.33800134604E+04  0.27984064081E+04 0.  0.
        2    1    3    3  502    0  0.89981657794E+03  0.92187313451E+03  0.16074407075E+04  0.20599479552E+04  0.25500000920E-02 0. -1.
       -2    1    3    3    0  502 -0.89981657794E+03 -0.92187313451E+03  0.28818915289E+03  0.13200655052E+04  0.25500000920E-02 0.  1.
</event>
<event>
 5   0  0.2206967E-06  0.2806751E+04  0.7818609E-02  0.8301176E-01
        1   -1    0    0  501    0  0.00000000000E+00  0.00000000000E+00  0.15134950543E+04  0.15134950543E+04  0.50400001928E-02 0.  1.
       -1   -1    0    0    0  501  0.00000000000E+00  0.00000000000E+00 -0.13012676730E+04  0.13012676730E+04  0.50400001928E-02 0. -1.
    10030    2    1    2    0    0  0.00000000000E+00  0.00000000000E+00  0.21222738126E+03  0.28147627273E+04  0.28067505678E+04 0.  0.
        5    1    3    3  502    0  0.37698779769E+03 -0.13190013553E+04  0.40285652509E+03  0.14297551695E+04  0.46999998093E+01 0.  1.
       -5    1    3    3    0  502 -0.37698779769E+03  0.13190013553E+04 -0.19062914383E+03  0.13850075578E+04  0.46999998093E+01 0. -1.
</event>
<event>
 5   0  0.5916603E-06  0.2795274E+04  0.7818609E-02  0.8304737E-01
       -2   -1    0    0    0  501  0.00000000000E+00  0.00000000000E+00  0.11277652910E+04  0.11277652910E+04  0.25500000920E-02 0. -1.
        2   -1    0    0  501    0  0.00000000000E+00  0.00000000000E+00 -0.17320888596E+04  0.17320888596E+04  0.25500000920E-02 0.  1.
    10030    2    1    2    0    0  0.00000000000E+00  0.00000000000E+00 -0.60432356856E+03  0.28598541505E+04  0.27952743670E+04 0.  0.
        2    1    3    3  502    0 -0.36455727673E+03  0.65051513528E+03  0.90723004649E+03  0.11743671941E+04  0.25500000920E-02 0. -1.
       -2    1    3    3    0  502  0.36455727673E+03 -0.65051513528E+03 -0.15115536151E+04  0.16854869565E+04  0.25500000920E-02 0.  1.
</event>
<event>
 5   0  0.5546570E-06  0.2768930E+04  0.7818609E-02  0.8312980E-01
       -2   -1    0    0    0  501  0.00000000000E+00  0.00000000000E+00  0.22823887113E+04  0.22823887113E+04  0.25500000920E-02 0. -1.
        2   -1    0    0  501    0  0.00000000000E+00  0.00000000000E+00 -0.83979710909E+03  0.83979710909E+03  0.25500000920E-02 0.  1.
    10030    2    1    2    0    0  0.00000000000E+00  0.00000000000E+00  0.14425916022E+04  0.31221858204E+04  0.27689300761E+04 0.  0.
        4    1    3    3  502    0  0.98182109526E+03  0.47051576220E+03  0.16856121077E+04  0.20066508256E+04  0.12699999809E+01 0. -1.
       -4    1    3    3    0  502 -0.98182109526E+03 -0.47051576220E+03 -0.24302050546E+03  0.11155349948E+04  0.12699999809E+01 0.  1.
</event>
<event>
 5   0  0.5625245E-06  0.2807703E+04  0.7818609E-02  0.8300881E-01
       -2   -1    0    0    0  501  0.00000000000E+00  0.00000000000E+00  0.14625599592E+04  0.14625599592E+04  0.25500000920E-02 0.  1.
        2   -1    0    0  501    0  0.00000000000E+00  0.00000000000E+00 -0.13474995043E+04  0.13474995043E+04  0.25500000920E-02 0. -1.
    10030    2    1    2    0    0  0.00000000000E+00  0.00000000000E+00  0.11506045491E+03  0.28100594635E+04  0.28077028475E+04 0.  0.
        3    1    3    3  502    0  0.54816029234E+03 -0.46443984847E+03 -0.11495561766E+04  0.13556044749E+04  0.10100000352E+00 0. -1.
       -3    1    3    3    0  502 -0.54816029234E+03  0.46443984847E+03  0.12646166315E+04  0.14544549886E+04  0.10100000352E+00 0.  1.
</event>
<event>
 5   0  0.2277133E-06  0.2806271E+04  0.7818609E-02  0.8301324E-01
        1   -1    0    0  501    0  0.00000000000E+00  0.00000000000E+00  0.16496588621E+04  0.16496588621E+04  0.50400001928E-02 0.  1.
       -1   -1    0    0    0  501  0.00000000000E+00  0.00000000000E+00 -0.11934519316E+04  0.11934519316E+04  0.50400001928E-02 0. -1.
    10030    2    1    2    0    0  0.00000000000E+00  0.00000000000E+00  0.45620693055E+03  0.28431107937E+04  0.28062705183E+04 0.  0.
        1    1    3    3  502    0  0.96137087070E+02 -0.13618692068E+04  0.55617309503E+03  0.14741976080E+04  0.50400001928E-02 0.  1.
       -1    1    3    3    0  502 -0.96137087070E+02  0.13618692068E+04 -0.99966164482E+02  0.13689131857E+04  0.50400001928E-02 0. -1.
</event>
<event>
 5   0  0.2234068E-06  0.2815993E+04  0.7818609E-02  0.8298320E-01
        1   -1    0    0  501    0  0.00000000000E+00  0.00000000000E+00  0.17841329411E+04  0.17841329411E+04  0.50400001928E-02 0.  1.
       -1   -1    0    0    0  501  0.00000000000E+00  0.00000000000E+00 -0.11111581697E+04  0.11111581697E+04  0.50400001928E-02 0. -1.
    10030    2    1    2    0    0  0.00000000000E+00  0.00000000000E+00  0.67297477141E+03  0.28952911108E+04  0.28159928219E+04 0.  0.
        3    1    3    3  502    0  0.10833992002E+03  0.10634535971E+04 -0.60571495554E+03  0.12286422217E+04  0.10100000352E+00 0.  1.
       -3    1    3    3    0  502 -0.10833992002E+03 -0.10634535971E+04  0.12786897269E+04  0.16666488891E+04  0.10100000352E+00 0. -1.
</event>
<event>
 5   0  0.2206967E-06  0.2814394E+04  0.7818609E-02  0.8298814E-01
       -1   -1    0    0    0  501  0.00000000000E+00  0.00000000000E+00  0.14002320935E+04  0.14002320935E+04  0.50400001928E-02 0. -1.
        1   -1    0    0  501    0  0.00000000000E+00  0.00000000000E+00 -0.14141960483E+04  0.14141960483E+04  0.50400001928E-02 0.  1.
    10030    2    1    2    0    0  0.00000000000E+00  0.00000000000E+00 -0.13963954817E+02  0.28144281418E+04  0.28143935001E+04 0.  0.
        5    1    3    3  502    0  0.71915535799E+03 -0.91490888298E+02 -0.12130754237E+04  0.14131981762E+04  0.46999998093E+01 0.  1.
       -5    1    3    3    0  502 -0.71915535799E+03  0.91490888298E+02  0.11991114689E+04  0.14012299656E+04  0.46999998093E+01 0. -1.
</event>
<event>
 5   0  0.2206967E-06  0.2801613E+04  0.7818609E-02  0.8302768E-01
        1   -1    0    0  501    0  0.00000000000E+00  0.00000000000E+00  0.96339384092E+03  0.96339384094E+03  0.50400001928E-02 0.  1.
       -1   -1    0    0    0  501  0.00000000000E+00  0.00000000000E+00 -0.20368187678E+04  0.20368187678E+04  0.50400001928E-02 0. -1.
    10030    2    1    2    0    0  0.00000000000E+00  0.00000000000E+00 -0.10734249269E+04  0.30002126088E+04  0.28016128612E+04 0.  0.
        5    1    3    3  502    0  0.73050074960E+03  0.24622888260E+02 -0.18164115240E+04  0.19579608132E+04  0.46999998093E+01 0. -1.
       -5    1    3    3    0  502 -0.73050074960E+03 -0.24622888260E+02  0.74298659708E+03  0.10422517955E+04  0.46999998093E+01 0.  1.
</event>
<event>
 5   0  0.5916603E-06  0.2727114E+04  0.7818609E-02  0.8326261E-01
        2   -1    0    0  501    0  0.00000000000E+00  0.00000000000E+00  0.12664961717E+04  0.12664961717E+04  0.25500000920E-02 0. -1.
       -2   -1    0    0    0  501  0.00000000000E+00  0.00000000000E+00 -0.14680565793E+04  0.14680565793E+04  0.25500000920E-02 0.  1.
    10030    2    1    2    0    0  0.00000000000E+00  0.00000000000E+00 -0.20156040761E+03  0.27345527510E+04  0.27271142532E+04 0.  0.
        2    1    3    3  502    0 -0.91727371884E+03  0.50540330833E+03 -0.97635403768E+03  0.14318138099E+04  0.25500000920E-02 0.  1.
       -2    1    3    3    0  502  0.91727371884E+03 -0.50540330833E+03  0.77479363007E+03  0.13027389411E+04  0.25500000920E-02 0. -1.
</event>
<event>
 5   0  0.5916603E-06  0.2801583E+04  0.7818609E-02  0.8302777E-01
       -2   -1    0    0    0  501  0.00000000000E+00  0.00000000000E+00  0.89289277607E+03  0.89289277608E+03  0.25500000920E-02 0. -1.
        2   -1    0    0  501    0  0.00000000000E+00  0.00000000000E+00 -0.21975947301E+04  0.21975947301E+04  0.25500000920E-02 0.  1.
    10030    2    1    2    0    0  0.00000000000E+00  0.00000000000E+00 -0.13047019540E+04  0.30904875062E+04  0.28015827378E+04 0.  0.
        2    1    3    3  502    0 -0.94126279279E+03 -0.10268517224E+04 -0.48941588567E+03  0.14764579283E+04  0.25500000920E-02 0. -1.
       -2    1    3    3    0  502  0.94126279279E+03  0.10268517224E+04 -0.81528606834E+03  0.16140295778E+04  0.25500000920E-02 0.  1.
</event>
<event>
 5   0  0.2234068E-06  0.2914274E+04  0.7818609E-02  0.8268643E-01
        1   -1    0    0  501    0  0.00000000000E+00  0.00000000000E+00  0.11650556918E+04  0.11650556918E+04  0.50400001928E-02 0.  1.
       -1   -1    0    0    0  501  0.00000000000E+00  0.00000000000E+00 -0.18224436093E+04  0.18224436093E+04  0.50400001928E-02 0. -1.
    10030    2    1    2    0    0  0.00000000000E+00  0.00000000000E+00 -0.65738791756E+03  0.29874993011E+04  0.29142740434E+04 0.  0.
        3    1    3    3  502    0 -0.12876011721E+04 -0.15275526946E+03  0.35283960971E+03  0.13437807675E+04  0.10100000352E+00 0.  1.
       -3    1    3    3    0  502  0.12876011721E+04  0.15275526946E+03 -0.10102275273E+04  0.16437185336E+04  0.10100000352E+00 0. -1.
</event>
<event>
 5   0  0.2277133E-06  0.2719965E+04  0.7818609E-02  0.8328556E-01
        1   -1    0    0  501    0  0.00000000000E+00  0.00000000000E+00  0.13749372773E+04  0.13749372773E+04  0.50400001928E-02 0.  1.
       -1   -1    0    0    0  501  0.00000000000E+00  0.00000000000E+00 -0.13451906195E+04  0.13451906195E+04  0.50400001928E-02 0. -1.
    10030    2    1    2    0    0  0.00000000000E+00  0.00000000000E+00  0.29746657817E+02  0.27201278969E+04  0.27199652409E+04 0.  0.
        1    1    3    3  502    0  0.34375896394E+03 -0.56023529334E+03  0.12055405625E+04  0.13730847960E+04  0.50400001928E-02 0.  1.
       -1    1    3    3    0  502 -0.34375896394E+03  0.56023529334E+03 -0.11757939047E+04  0.13470431008E+04  0.50400001928E-02 0. -1.
</event>
<event>
 5   0  0.5584205E-06  0.2813609E+04  0.7818609E-02  0.8299056E-01
       -2   -1    0    0    0  501  0.00000000000E+00  0.00000000000E+00  0.12877703001E+04  0.12877703001E+04  0.25500000920E-02 0.  1.
        2   -1    0    0  501    0  0.00000000000E+00  0.00000000000E+00 -0.15368418103E+04  0.15368418103E+04  0.25500000920E-02 0. -1.
    10030    2    1    2    0    0  0.00000000000E+00  0.00000000000E+00 -0.24907151023E+03  0.28246121103E+04  0.28136092402E+04 0.  0.
        1    1    3    3  502    0  0.53752795811E+01 -0.54762772678E+03  0.11763612504E+04  0.12975942402E+04  0.50400001928E-02 0.  1.
       -1    1    3    3    0  502 -0.53752795811E+01  0.54762772678E+03 -0.14254327606E+04  0.15270178702E+04  0.50400001928E-02 0. -1.
</event>
<event>
 5   0  0.5866136E-06  0.2791444E+04  0.7818609E-02  0.8305930E-01
        2   -1    0    0  501    0  0.00000000000E+00  0.00000000000E+00  0.12724760513E+04  0.12724760513E+04  0.25500000920E-02 0. -1.
       -2   -1    0    0    0  501  0.00000000000E+00  0.00000000000E+00 -0.15309048263E+04  0.15309048263E+04  0.25500000920E-02 0.  1.
    10030    2    1    2    0    0  0.00000000000E+00  0.00000000000E+00 -0.25842877496E+03  0.28033808776E+04  0.27914438760E+04 0.  0.
        5    1    3    3  502    0  0.44645061114E+03 -0.61662041630E+03  0.10456080585E+04  0.12933898051E+04  0.46999998093E+01 0. -1.
       -5    1    3    3    0  502 -0.44645061114E+03  0.61662041630E+03 -0.13040368334E+04  0.15099910725E+04  0.46999998093E+01 0.  1.
</event>
<event>
 5   0  0.2190865E-06  0.2676188E+04  0.7818609E-02  0.8342773E-01
       -1   -1    0    0    0  501  0.00000000000E+00  0.00000000000E+00  0.10370175944E+04  0.10370175944E+04  0.50400001928E-02 0.  1.
        1   -1    0    0  501    0  0.00000000000E+00  0.00000000000E+00 -0.17265822032E+04  0.17265822032E+04  0.50400001928E-02 0. -1.
    10030    2    1    2    0    0  0.00000000000E+00  0.00000000000E+00 -0.68956460878E+03  0.27635997976E+04  0.26761884260E+04 0.  0.
        2    1    3    3  502    0 -0.71486429653E+03  0.74937242029E+03  0.53018595106E+03  0.11634806098E+04  0.25500000920E-02 0.  1.
       -2    1    3    3    0  502  0.71486429653E+03 -0.74937242029E+03 -0.12197505598E+04  0.16001191877E+04  0.25500000920E-02 0. -1.
</event>
<event>
 5   0  0.2190865E-06  0.2805211E+04  0.7818609E-02  0.8301652E-01
       -1   -1    0    0    0  501  0.00000000000E+00  0.00000000000E+00  0.16807552558E+04  0.16807552558E+04  0.50400001928E-02 0. -1.
        1   -1    0    0  501    0  0.00000000000E+00  0.00000000000E+00 -0.11704869912E+04  0.11704869912E+04  0.50400001928E-02 0.  1.
    10030    2    1    2    0    0  0.00000000000E+00  0.00000000000E+00  0.51026826460E+03  0.28512422470E+04  0.28052109812E+04 0.  0.
        2    1    3    3  502    0  0.13488357634E+03  0.60143242750E+03  0.15357240590E+04  0.16547999666E+04  0.25500000920E-02 0. -1.
       -2    1    3    3    0  502 -0.13488357634E+03 -0.60143242750E+03 -0.10254557944E+04  0.11964422804E+04  0.25500000920E-02 0.  1.
</event>
<event>
 5   0  0.2234068E-06  0.2878601E+04  0.7818609E-02  0.8279273E-01
       -1   -1    0    0    0  501  0.00000000000E+00  0.00000000000E+00  0.17895734620E+04  0.17895734620E+04  0.50400001928E-02 0. -1.
        1   -1    0    0  501    0  0.00000000000E+00  0.00000000000E+00 -0.11575864106E+04  0.11575864106E+04  0.50400001928E-02 0.  1.
    10030    2    1    2    0    0  0.00000000000E+00  0.00000000000E+00  0.63198705148E+03  0.29471598726E+04  0.28786009938E+04 0.  0.
        3    1    3    3  502    0  0.69868720943E+03  0.11791377542E+04 -0.13385277937E+03  0.13771151864E+04  0.10100000352E+00 0.  1.
       -3    1    3    3    0  502 -0.69868720943E+03 -0.11791377542E+04  0.76583983085E+03  0.15700446862E+04  0.10100000352E+00 0. -1.
</event>
<event>
 5   0  0.5625245E-06  0.2806851E+04  0.7818609E-02  0.8301145E-01
       -2   -1    0    0    0  501  0.00000000000E+00  0.00000000000E+00  0.12482483563E+04  0.12482483563E+04  0.25500000920E-02 0. -1.
        2   -1    0    0  501    0  0.00000000000E+00  0.00000000000E+00 -0.15778932061E+04  0.15778932061E+04  0.25500000920E-02 0.  1.
    10030    2    1    2    0    0  0.00000000000E+00  0.00000000000E+00 -0.32964484982E+03  0.28261415625E+04  0.28068506202E+04 0.  0.
        3    1    3    3  502    0  0.90252997503E+03 -0.88180411725E+02 -0.12432891714E+04  0.15388645537E+04  0.10100000352E+00 0. -1.
       -3    1    3    3    0  502 -0.90252997503E+03  0.88180411725E+02  0.91364432154E+03  0.12872770088E+04  0.10100000352E+00 0.  1.
</event>
<event>
 5   0  0.2206967E-06  0.2799957E+04  0.7818609E-02  0.8303282E-01
        1   -1    0    0  501    0  0.00000000000E+00  0.00000000000E+00  0.12562773920E+04  0.12562773920E+04  0.50400001928E-02 0. -1.
       -1   -1    0    0    0  501  0.00000000000E+00  0.00000000000E+00 -0.15601172406E+04  0.15601172406E+04  0.50400001928E-02 0.  1.
    10030    2    1    2    0    0  0.00000000000E+00  0.00000000000E+00 -0.30383984855E+03  0.28163946326E+04  0.27999571556E+04 0.  0.
        5    1    3    3  502    0  0.12377598025E+04 -0.21939338233E+03  0.46792424161E+03  0.13413269441E+04  0.46999998093E+01 0. -1.
       -5    1    3    3    0  502 -0.12377598025E+04  0.21939338233E+03 -0.77176409016E+03  0.14750676886E+04  0.46999998093E+01 0.  1.
</event>
<event>
 5   0  0.2190865E-06  0.2796233E+04  0.7818609E-02  0.8304439E-01
       -1   -1    0    0    0  501  0.00000000000E+00  0.00000000000E+00  0.77775746701E+03  0.77775746703E+03  0.50400001928E-02 0. -1.
        1   -1    0    0  501    0  0.00000000000E+00  0.00000000000E+00 -0.25132894470E+04  0.25132894470E+04  0.50400001928E-02 0.  1.
    10030    2    1    2    0    0  0.00000000000E+00  0.00000000000E+00 -0.17355319800E+04  0.32910469140E+04  0.27962329189E+04 0.  0.
        2    1    3    3  502    0 -0.97931494305E+03  0.77654730846E+03 -0.13026704546E+03  0.12566037494E+04  0.25500000920E-02 0. -1.
       -2    1    3    3    0  502  0.97931494305E+03 -0.77654730846E+03 -0.16052649345E+04  0.20344431646E+04  0.25500000920E-02 0.  1.
</event>
<event>
 5   0  0.5625245E-06  0.2802662E+04  0.7818609E-02  0.8302442E-01
       -2   -1    0    0    0  501  0.00000000000E+00  0.00000000000E+00  0.72970041562E+03  0.72970041563E+03  0.25500000920E-02 0. -1.
        2   -1    0    0  501    0  0.00000000000E+00  0.00000000000E+00 -0.26911432805E+04  0.26911432805E+04  0.25500000920E-02 0.  1.
    10030    2    1    2    0    0  0.00000000000E+00  0.00000000000E+00 -0.19614428648E+04  0.34208436961E+04  0.28026618564E+04 0.  0.
        3    1    3    3  502    0  0.20808113024E+03  0.13805312576E+04 -0.83342113961E+03  0.16259628274E+04  0.10100000352E+00 0. -1.
       -3    1    3    3    0  502 -0.20808113024E+03 -0.13805312576E+04 -0.11280217252E+04  0.17948808687E+04  0.10100000352E+00 0.  1.
</event>
<event>
 5   0  0.5866136E-06  0.2906533E+04  0.7818609E-02  0.8270936E-01
        2   -1    0    0  501    0  0.00000000000E+00  0.00000000000E+00  0.18003662194E+04  0.18003662194E+04  0.25500000920E-02 0.  1.
       -2   -1    0    0    0  501  0.00000000000E+00  0.00000000000E+00 -0.11730854208E+04  0.11730854208E+04  0.25500000920E-02 0. -1.
    10030    2    1    2    0    0  0.00000000000E+00  0.00000000000E+00  0.62728079866E+03  0.29734516402E+04  0.29065328927E+04 0.  0.
        5    1    3    3  502    0 -0.79349935867E+03 -0.55787516472E+02  0.15578691452E+04  0.17492089192E+04  0.46999998093E+01 0.  1.
       -5    1    3    3    0  502  0.79349935867E+03  0.55787516472E+02 -0.93058834658E+03  0.12242427210E+04  0.46999998093E+01 0. -1.
</event>
<event>
 5   0  0.5866136E-06  0.2802366E+04  0.7818609E-02  0.8302534E-01
        2   -1    0    0  501    0  0.00000000000E+00  0.00000000000E+00  0.14794557658E+04  0.14794557658E+04  0.25500000920E-02 0. -1.
       -2   -1    0    0    0  501  0.00000000000E+00  0.00000000000E+00 -0.13270509905E+04  0.13270509905E+04  0.25500000920E-02 0.  1.
    10030    2    1    2    0    0  0.00000000000E+00  0.00000000000E+00  0.15240477526E+03  0.28065067563E+04  0.28023656003E+04 0.  0.
        5    1    3    3  502    0  0.53208239900E+03 -0.12718383600E+04  0.32678535792E+03  0.14168610565E+04  0.46999998093E+01 0. -1.
       -5    1    3    3    0  502 -0.53208239900E+03  0.12718383600E+04 -0.17438058266E+03  0.13896456998E+04  0.46999998093E+01 0.  1.
</event>
<event>
 5   0  0.5866136E-06  0.2841122E+04  0.7818609E-02  0.8290614E-01
        2   -1    0    0  501    0  0.00000000000E+00  0.00000000000E+00  0.24281297233E+04  0.24281297233E+04  0.25500000920E-02 0. -1.
       -2   -1    0    0    0  501  0.00000000000E+00  0.00000000000E+00 -0.83108958826E+03  0.83108958826E+03  0.25500000920E-02 0.  1.
    10030    2    1    2    0    0  0.00000000000E+00  0.00000000000E+00  0.15970401350E+04  0.32592193116E+04  0.28411218432E+04 0.  0.
        5    1    3    3  502    0  0.66273154290E+03  0.62896332345E+03 -0.44928305338E+03  0.10181774463E+04  0.46999998093E+01 0.  1.
       -5    1    3    3    0  502 -0.66273154290E+03 -0.62896332345E+03  0.20463231884E+04  0.22410418652E+04  0.46999998093E+01 0. -1.
</event>
<event>
 5   0  0.5916603E-06  0.2796717E+04  0.7818609E-02  0.8304288E-01
       -2   -1    0    0    0  501  0.00000000000E+00  0.00000000000E+00  0.10640230761E+04  0.10640230761E+04  0.25500000920E-02 0.  1.
        2   -1    0    0  501    0  0.00000000000E+00  0.00000000000E+00 -0.18377486637E+04  0.18377486637E+04  0.25500000920E-02 0. -1.
    10030    2    1    2    0    0  0.00000000000E+00  0.00000000000E+00 -0.77372558759E+03  0.29017717398E+04  0.27967173517E+04 0.  0.
        2    1    3    3  502    0  0.12487679324E+02 -0.13549380585E+04 -0.74537648244E+03  0.15464796103E+04  0.25500000920E-02 0. -1.
       -2    1    3    3    0  502 -0.12487679324E+02  0.13549380585E+04 -0.28349105150E+02  0.13552921295E+04  0.25500000920E-02 0.  1.
</event>
<event>
 5   0  0.5546570E-06  0.2785606E+04  0.7818609E-02  0.8307751E-01
       -2   -1    0    0    0  501  0.00000000000E+00  0.00000000000E+00  0.13525692347E+04  0.13525692347E+04  0.25500000920E-02 0.  1.
        2   -1    0    0  501    0  0.00000000000E+00  0.00000000000E+00 -0.14342340034E+04  0.14342340034E+04  0.25500000920E-02 0. -1.
    10030    2    1    2    0    0  0.00000000000E+00  0.00000000000E+00 -0.81664768693E+02  0.27868032381E+04  0.27856064247E+04 0.  0.
        4    1    3    3  502    0 -0.12609353813E+04  0.52065892742E+03 -0.32176510681E+03  0.14016341004E+04  0.12699999809E+01 0.  1.
       -4    1    3    3    0  502  0.12609353813E+04 -0.52065892742E+03  0.24010033812E+03  0.13851691376E+04  0.12699999809E+01 0. -1.
</event>
<event>
 5   0  0.5625245E-06  0.2818164E+04  0.7818609E-02  0.8297651E-01
        2   -1    0    0  501    0  0.00000000000E+00  0.00000000000E+00  0.23513096276E+04  0.23513096276E+04  0.25500000920E-02 0. -1.
       -2   -1    0    0    0  501  0.00000000000E+00  0.00000000000E+00 -0.84442809792E+03  0.84442809793E+03  0.25500000920E-02 0.  1.
    10030    2    1    2    0    0  0.00000000000E+00  0.00000000000E+00  0.15068815297E+04  0.31957377255E+04  0.28181638820E+04 0.  0.
        3    1    3    3  502    0 -0.92646656710E+03  0.27128773648E+03  0.19173993414E+04  0.21467085458E+04  0.10100000352E+00 0. -1.
       -3    1    3    3    0  502  0.92646656710E+03 -0.27128773648E+03 -0.41051781176E+03  0.10490291797E+04  0.10100000352E+00 0.  1.
</event>
<event>
 5   0  0.5866136E-06  0.2857611E+04  0.7818609E-02  0.8285602E-01
       -2   -1    0    0    0  501  0.00000000000E+00  0.00000000000E+00  0.79171361947E+03  0.79171361947E+03  0.25500000920E-02 0. -1.
        2   -1    0    0  501    0  0.00000000000E+00  0.00000000000E+00 -0.25785654032E+04  0.25785654032E+04  0.25500000920E-02 0.  1.
    10030    2    1    2    0    0  0.00000000000E+00  0.00000000000E+00 -0.17868517837E+04  0.33702790227E+04  0.28576111341E+04 0.  0.
        5    1    3    3  502    0  0.11783047004E+04  0.46883272519E+03 -0.16697366521E+04  0.20967233171E+04  0.46999998093E+01 0.  1.
       -5    1    3    3    0  502 -0.11783047004E+04 -0.46883272519E+03 -0.11711513160E+03  0.12735557056E+04  0.46999998093E+01 0. -1.
</event>
<event>
 5   0  0.5584205E-06  0.2624698E+04  0.7818609E-02  0.8359860E-01
       -2   -1    0    0    0  501  0.00000000000E+00  0.00000000000E+00  0.13180464572E+04  0.13180464572E+04  0.25500000920E-02 0.  1.
        2   -1    0    0  501    0  0.00000000000E+00  0.00000000000E+00 -0.13066760177E+04  0.13066760177E+04  0.25500000920E-02 0. -1.
    10030    2    1    2    0    0  0.00000000000E+00  0.00000000000E+00  0.11370439488E+02  0.26247224750E+04  0.26246978462E+04 0.  0.
        1    1    3    3  502    0 -0.19749810886E+03  0.52940361834E+03 -0.11788029953E+04  0.13072299706E+04  0.50400001928E-02 0. -1.
       -1    1    3    3    0  502  0.19749810886E+03 -0.52940361834E+03  0.11901734348E+04  0.13174925044E+04  0.50400001928E-02 0.  1.
</event>
<event>
 5   0  0.5584205E-06  0.2788360E+04  0.7818609E-02  0.8306891E-01
        2   -1    0    0  501    0  0.00000000000E+00  0.00000000000E+00  0.14681589903E+04  0.14681589903E+04  0.25500000920E-02 0. -1.
       -2   -1    0    0    0  501  0.00000000000E+00  0.00000000000E+00 -0.13239285348E+04  0.13239285348E+04  0.25500000920E-02 0.  1.
    10030    2    1    2    0    0  0.00000000000E+00  0.00000000000E+00  0.14423045552E+03  0.27920875252E+04  0.27883597910E+04 0.  0.
        1    1    3    3  502    0  0.12628713250E+03 -0.12997862093E+04  0.56097375521E+03  0.14212966558E+04  0.50400001928E-02 0. -1.
       -1    1    3    3    0  502 -0.12628713250E+03  0.12997862093E+04 -0.41674329969E+03  0.13707908694E+04  0.50400001928E-02 0.  1.
</event>
<event>
 5   0  0.2190865E-06  0.2803321E+04  0.7818609E-02  0.8302238E-01
        1   -1    0    0  501    0  0.00000000000E+00  0.00000000000E+00  0.22579870457E+04  0.22579870457E+04  0.50400001928E-02 0. -1.
       -1   -1    0    0    0  501  0.00000000000E+00  0.00000000000E+00 -0.87009023628E+03  0.87009023630E+03  0.50400001928E-02 0.  1.
    10030    2    1    2    0    0  0.00000000000E+00  0.00000000000E+00  0.13878968094E+04  0.31280772820E+04  0.28033212318E+04 0.  0.
        2    1    3    3  502    0  0.62385766253E+03 -0.62302762525E+03  0.19098071887E+04  0.21035031027E+04  0.25500000920E-02 0. -1.
       -2    1    3    3    0  502 -0.62385766253E+03  0.62302762525E+03 -0.52191037930E+03  0.10245741793E+04  0.25500000920E-02 0.  1.
</event>
<event>
 5   0  0.5625245E-06  0.2810969E+04  0.7818609E-02  0.8299871E-01
       -2   -1    0    0    0  501  0.00000000000E+00  0.00000000000E+00  0.12419585833E+04  0.12419585833E+04  0.25500000920E-02 0.  1.
        2   -1    0    0  501    0  0.00000000000E+00  0.00000000000E+00 -0.15905415659E+04  0.15905415659E+04  0.25500000920E-02 0. -1.
    10030    2    1    2    0    0  0.00000000000E+00  0.00000000000E+00 -0.34858298264E+03  0.28325001492E+04  0.28109690499E+04 0.  0.
        3    1    3    3  502    0  0.64379723157E+03 -0.29209888085E+02  0.10842986920E+04  0.12613610731E+04  0.10100000352E+00 0.  1.
       -3    1    3    3    0  502 -0.64379723157E+03  0.29209888085E+02 -0.14328816747E+04  0.15711390762E+04  0.10100000352E+00 0. -1.
</event>
<event>
 5   0  0.2267565E-06  0.2794665E+04  0.7818609E-02  0.8304927E-01
        1   -1    0    0  501    0  0.00000000000E+00  0.00000000000E+00  0.17253793132E+04  0.17253793132E+04  0.50400001928E-02 0.  1.
       -1   -1    0    0    0  501  0.00000000000E+00  0.00000000000E+00 -0.11316574061E+04  0.11316574062E+04  0.50400001928E-02 0. -1.
    10030    2    1    2    0    0  0.00000000000E+00  0.00000000000E+00  0.59372190706E+03  0.28570367194E+04  0.27946651164E+04 0.  0.
        4    1    3    3  502    0  0.86215689993E+03 -0.14769569793E+03 -0.81714126677E+03  0.11970171269E+04  0.12699999809E+01 0. -1.
       -4    1    3    3    0  502 -0.86215689993E+03  0.14769569793E+03  0.14108631738E+04  0.16600195925E+04  0.12699999809E+01 0.  1.
</event>
<event>
 5   0  0.2277133E-06  0.2856949E+04  0.7818609E-02  0.8285803E-01
        1   -1    0    0  501    0  0.00000000000E+00  0.00000000000E+00  0.16719627945E+04  0.16719627945E+04  0.50400001928E-02 0. -1.
       -1   -1    0    0    0  501  0.00000000000E+00  0.00000000000E+00 -0.12204458840E+04  0.12204458841E+04  0.50400001928E-02 0.  1.
    10030    2    1    2    0    0  0.00000000000E+00  0.00000000000E+00  0.45151691050E+03  0.28924086786E+04  0.28569494997E+04 0.  0.
        1    1    3    3  502    0 -0.21126724370E+03 -0.95250161807E+03 -0.83057398760E+03  0.12813064932E+04  0.50400001928E-02 0.  1.
       -1    1    3    3    0  502  0.21126724370E+03  0.95250161807E+03  0.12820908981E+04  0.16111021854E+04  0.50400001928E-02 0. -1.
</event>
<event>
 5   0  0.2206967E-06  0.2805518E+04  0.7818609E-02  0.8301557E-01
       -1   -1    0    0    0  501  0.00000000000E+00  0.00000000000E+00  0.13905482299E+04  0.13905482299E+04  0.50400001928E-02 0.  1.
        1   -1    0    0  501    0  0.00000000000E+00  0.00000000000E+00 -0.14150767741E+04  0.14150767742E+04  0.50400001928E-02 0. -1.
    10030    2    1    2    0    0  0.00000000000E+00  0.00000000000E+00 -0.24528544262E+02  0.28056250040E+04  0.28055177800E+04 0.  0.
        5    1    3    3  502    0 -0.10950713163E+04  0.87390537846E+03  0.57154627331E+02  0.14022055982E+04  0.46999998093E+01 0.  1.
       -5    1    3    3    0  502  0.10950713163E+04 -0.87390537846E+03 -0.81683171593E+02  0.14034194058E+04  0.46999998093E+01 0. -1.
</event>
<event>
 5   0  0.5546570E-06  0.2788756E+04  0.7818609E-02  0.8306768E-01
       -2   -1    0    0    0  501  0.00000000000E+00  0.00000000000E+00  0.23903737672E+04  0.23903737672E+04  0.25500000920E-02 0. -1.
        2   -1    0    0  501    0  0.00000000000E+00  0.00000000000E+00 -0.81338324565E+03  0.81338324566E+03  0.25500000920E-02 0.  1.
    10030    2    1    2    0    0  0.00000000000E+00  0.00000000000E+00  0.15769905215E+04  0.32037570129E+04  0.27887559758E+04 0.  0.
        4    1    3    3  502    0  0.12440559890E+04  0.92567134676E+02  0.15041272674E+04  0.19541352122E+04  0.12699999809E+01 0. -1.
       -4    1    3    3    0  502 -0.12440559890E+04 -0.92567134676E+02  0.72863254176E+02  0.12496218007E+04  0.12699999809E+01 0.  1.
</event>
<event>
 5   0  0.2190865E-06  0.2763261E+04  0.7818609E-02  0.8314766E-01
       -1   -1    0    0    0  501  0.00000000000E+00  0.00000000000E+00  0.18309506112E+04  0.18309506112E+04  0.50400001928E-02 0. -1.
        1   -1    0    0  501    0  0.00000000000E+00  0.00000000000E+00 -0.10425744507E+04  0.10425744508E+04  0.50400001928E-02 0.  1.
    10030    2    1    2    0    0  0.00000000000E+00  0.00000000000E+00  0.78837616048E+03  0.28735250620E+04  0.27632606304E+04 0.  0.
        2    1    3    3  502    0  0.46868077663E+03  0.91100115789E+03 -0.56979626248E+03  0.11722851875E+04  0.25500000920E-02 0.  1.
       -2    1    3    3    0  502 -0.46868077663E+03 -0.91100115789E+03  0.13581724230E+04  0.17012398745E+04  0.25500000920E-02 0. -1.
</event>
<event>
 5   0  0.5916603E-06  0.2821656E+04  0.7818609E-02  0.8296577E-01
        2   -1    0    0  501    0  0.00000000000E+00  0.00000000000E+00  0.13470413153E+04  0.13470413153E+04  0.25500000920E-02 0. -1.
       -2   -1    0    0    0  501  0.00000000000E+00  0.00000000000E+00 -0.14776348560E+04  0.14776348560E+04  0.25500000920E-02 0.  1.
    10030    2    1    2    0    0  0.00000000000E+00  0.00000000000E+00 -0.13059354071E+03  0.28246761713E+04  0.28216556842E+04 0.  0.
        2    1    3    3  502    0  0.98869830257E+03 -0.45186722657E+03 -0.96555186333E+03  0.14539596709E+04  0.25500000920E-02 0.  1.
       -2    1    3    3    0  502 -0.98869830257E+03  0.45186722657E+03  0.83495832262E+03  0.13707165004E+04  0.25500000920E-02 0. -1.
</event>
<event>
 5   0  0.5584205E-06  0.2796749E+04  0.7818609E-02  0.8304278E-01
       -2   -1    0    0    0  501  0.00000000000E+00  0.00000000000E+00  0.10613258034E+04  0.10613258034E+04  0.25500000920E-02 0. -1.
        2   -1    0    0  501    0  0.00000000000E+00  0.00000000000E+00 -0.18424610911E+04  0.18424610911E+04  0.25500000920E-02 0.  1.
    10030    2    1    2    0    0  0.00000000000E+00  0.00000000000E+00 -0.78113528773E+03  0.29037868945E+04  0.27967491827E+04 0.  0.
        1    1    3    3  502    0  0.48185980948E+03  0.12100162299E+04 -0.91909137446E+03  0.15940693546E+04  0.50400001928E-02 0.  1.
       -1    1    3    3    0  502 -0.48185980948E+03 -0.12100162299E+04  0.13795608673E+03  0.13097175400E+04  0.50400001928E-02 0. -1.
</event>
<event>
 5   0  0.5866136E-06  0.2801029E+04  0.7818609E-02  0.8302949E-01
       -2   -1    0    0    0  501  0.00000000000E+00  0.00000000000E+00  0.76803996399E+03  0.76803996399E+03  0.25500000920E-02 0. -1.
        2   -1    0    0  501    0  0.00000000000E+00  0.00000000000E+00 -0.25538258190E+04  0.25538258190E+04  0.25500000920E-02 0.  1.
    10030    2    1    2    0    0  0.00000000000E+00  0.00000000000E+00 -0.17857858550E+04  0.33218657830E+04  0.28010285897E+04 0.  0.
        5    1    3    3  502    0  0.39505625319E+03 -0.75786355623E+02  0.69804471448E+03  0.80566837364E+03  0.46999998093E+01 0. -1.
       -5    1    3    3    0  502 -0.39505625319E+03  0.75786355623E+02 -0.24838305695E+04  0.25161974094E+04  0.46999998093E+01 0.  1.
</event>
<event>
 5   0  0.2190865E-06  0.2583290E+04  0.7818609E-02  0.8373899E-01
       -1   -1    0    0    0  501  0.00000000000E+00  0.00000000000E+00  0.72261976479E+03  0.72261976481E+03  0.50400001928E-02 0. -1.
        1   -1    0    0  501    0  0.00000000000E+00  0.00000000000E+00 -0.23087475489E+04  0.23087475489E+04  0.50400001928E-02 0.  1.
    10030    2    1    2    0    0  0.00000000000E+00  0.00000000000E+00 -0.15861277841E+04  0.30313673137E+04  0.25832898489E+04 0.  0.
        2    1    3    3  502    0  0.10078251786E+04  0.10987625843E+03 -0.17322379526E+04  0.20070955900E+04  0.25500000920E-02 0.  1.
       -2    1    3    3    0  502 -0.10078251786E+04 -0.10987625843E+03  0.14611016844E+03  0.10242717238E+04  0.25500000920E-02 0. -1.
</event>
<event>
 5   0  0.2267565E-06  0.2921277E+04  0.7818609E-02  0.8266575E-01
        1   -1    0    0  501    0  0.00000000000E+00  0.00000000000E+00  0.14281344161E+04  0.14281344161E+04  0.50400001928E-02 0.  1.
       -1   -1    0    0    0  501  0.00000000000E+00  0.00000000000E+00 -0.14938822505E+04  0.14938822505E+04  0.50400001928E-02 0. -1.
    10030    2    1    2    0    0  0.00000000000E+00  0.00000000000E+00 -0.65747834339E+02  0.29220166666E+04  0.29212768821E+04 0.  0.
        4    1    3    3  502    0  0.35343810842E+03  0.28952217087E+03  0.13548207234E+04  0.14297840359E+04  0.12699999809E+01 0.  1.
       -4    1    3    3    0  502 -0.35343810842E+03 -0.28952217087E+03 -0.14205685577E+04  0.14922326307E+04  0.12699999809E+01 0. -1.
</event>
<event>
 5   0  0.5546570E-06  0.2797985E+04  0.7818609E-02  0.8303894E-01
        2   -1    0    0  501    0  0.00000000000E+00  0.00000000000E+00  0.18925189273E+04  0.18925189273E+04  0.25500000920E-02 0.  1.
       -2   -1    0    0    0  501  0.00000000000E+00  0.00000000000E+00 -0.10341665985E+04  0.10341665985E+04  0.25500000920E-02 0. -1.
    10030    2    1    2    0    0  0.00000000000E+00  0.00000000000E+00  0.85835232881E+03  0.29266855258E+04  0.27979848903E+04 0.  0.
        4    1    3    3  502    0  0.12856927371E+04  0.34572111387E+03  0.87865017131E+03  0.15951666494E+04  0.12699999809E+01 0. -1.
       -4    1    3    3    0  502 -0.12856927371E+04 -0.34572111387E+03 -0.20297842497E+02  0.13315188764E+04  0.12699999809E+01 0.  1.
</event>
<event>
 5   0  0.5625245E-06  0.2799642E+04  0.7818609E-02  0.8303380E-01
       -2   -1    0    0    0  501  0.00000000000E+00  0.00000000000E+00  0.97746026901E+03  0.97746026901E+03  0.25500000920E-02 0. -1.
        2   -1    0    0  501    0  0.00000000000E+00  0.00000000000E+00 -0.20046834497E+04  0.20046834497E+04  0.25500000920E-02 0.  1.
    10030    2    1    2    0    0  0.00000000000E+00  0.00000000000E+00 -0.10272231806E+04  0.29821437187E+04  0.27996417085E+04 0.  0.
        3    1    3    3  502    0  0.32991033046E+03 -0.55999476537E+02 -0.19614526289E+04  0.19897922488E+04  0.10100000352E+00 0.  1.
       -3    1    3    3    0  502 -0.32991033046E+03  0.55999476537E+02  0.93422944830E+03  0.99235146989E+03  0.10100000352E+00 0. -1.
</event>
<event>
 5   0  0.2277133E-06  0.2793483E+04  0.7818609E-02  0.8305295E-01
        1   -1    0    0  501    0  0.00000000000E+00  0.00000000000E+00  0.15614841164E+04  0.15614841165E+04  0.50400001928E-02 0. -1.
       -1   -1    0    0    0  501  0.00000000000E+00  0.00000000000E+00 -0.12493796107E+04  0.12493796107E+04  0.50400001928E-02 0.  1.
    10030    2    1    2    0    0  0.00000000000E+00  0.00000000000E+00  0.31210450578E+03  0.28108637271E+04  0.27934827134E+04 0.  0.
        1    1    3    3  502    0 -0.13887260388E+03  0.80238796049E+03  0.12979144440E+04  0.15322186343E+04  0.50400001928E-02 0. -1.
       -1    1    3    3    0  502  0.13887260388E+03 -0.80238796049E+03 -0.98580993820E+03  0.12786450929E+04  0.50400001928E-02 0.  1.
</event>
<event>
 5   0  0.2234068E-06  0.2805465E+04  0.7818609E-02  0.8301574E-01
        1   -1    0    0  501    0  0.00000000000E+00  0.00000000000E+00  0.27056432382E+04  0.27056432382E+04  0.50400001928E-02 0.  1.
       -1   -1    0    0    0  501  0.00000000000E+00  0.00000000000E+00 -0.72724245388E+03  0.72724245389E+03  0.50400001928E-02 0. -1.
    10030    2    1    2    0    0  0.00000000000E+00  0.00000000000E+00  0.19784007843E+04  0.34328856921E+04  0.28054651150E+04 0.  0.
        3    1    3    3  502    0 -0.52467964982E+03  0.85588386506E+03 -0.20961480242E+03  0.10255556060E+04  0.10100000352E+00 0. -1.
       -3    1    3    3    0  502  0.52467964982E+03 -0.85588386506E+03  0.21880155867E+04  0.24073300861E+04  0.10100000352E+00 0.  1.
</event>
<event>
 5   0  0.2190865E-06  0.2775699E+04  0.7818609E-02  0.8310853E-01
        1   -1    0    0  501    0  0.00000000000E+00  0.00000000000E+00  0.16286286974E+04  0.16286286974E+04  0.50400001928E-02 0.  1.
       -1   -1    0    0    0  501  0.00000000000E+00  0.00000000000E+00 -0.11826674655E+04  0.11826674655E+04  0.50400001928E-02 0. -1.
    10030    2    1    2    0    0  0.00000000000E+00  0.00000000000E+00  0.44596123185E+03  0.28112961629E+04  0.27756989562E+04 0.  0.
        2    1    3    3  502    0  0.14472197450E+03 -0.77393725135E+01 -0.11749821812E+04  0.11838865967E+04  0.25500000920E-02 0. -1.
       -2    1    3    3    0  502 -0.14472197450E+03  0.77393725135E+01  0.16209434130E+04  0.16274095662E+04  0.25500000920E-02 0.  1.
</event>
<event>
 5   0  0.2190865E-06  0.2748790E+04  0.7818609E-02  0.8319346E-01
        1   -1    0    0  501    0  0.00000000000E+00  0.00000000000E+00  0.14864121081E+04  0.14864121081E+04  0.50400001928E-02 0. -1.
       -1   -1    0    0    0  501  0.00000000000E+00  0.00000000000E+00 -0.12708194359E+04  0.12708194359E+04  0.50400001928E-02 0.  1.
    10030    2    1    2    0    0  0.00000000000E+00  0.00000000000E+00  0.21559267225E+03  0.27572315440E+04  0.27487898404E+04 0.  0.
        2    1    3    3  502    0 -0.29483033634E+03  0.22626469872E+02  0.14541271609E+04  0.14838876926E+04  0.25500000920E-02 0. -1.
       -2    1    3    3    0  502  0.29483033634E+03 -0.22626469872E+02 -0.12385344886E+04  0.12733438514E+04  0.25500000920E-02 0.  1.
</event>
<event>
 5   0  0.5866136E-06  0.2807787E+04  0.7818609E-02  0.8300855E-01
        2   -1    0    0  501    0  0.00000000000E+00  0.00000000000E+00  0.15693893124E+04  0.15693893124E+04  0.25500000920E-02 0. -1.
       -2   -1    0    0    0  501  0.00000000000E+00  0.00000000000E+00 -0.12558493729E+04  0.12558493729E+04  0.25500000920E-02 0.  1.
    10030    2    1    2    0    0  0.00000000000E+00  0.00000000000E+00  0.31353993954E+03  0.28252386853E+04  0.28077867325E+04 0.  0.
        5    1    3    3  502    0 -0.10848814394E+04  0.58877351369E+03 -0.51617124546E+03  0.13379375294E+04  0.46999998093E+01 0.  1.
       -5    1    3    3    0  502  0.10848814394E+04 -0.58877351369E+03  0.82971118500E+03  0.14873011559E+04  0.46999998093E+01 0. -1.
</event>
<event>
 5   0  0.2206967E-06  0.2790635E+04  0.7818609E-02  0.8306182E-01
        1   -1    0    0  501    0  0.00000000000E+00  0.00000000000E+00  0.15938630502E+04  0.15938630502E+04  0.50400001928E-02 0. -1.
       -1   -1    0    0    0  501  0.00000000000E+00  0.00000000000E+00 -0.12215044071E+04  0.12215044071E+04  0.50400001928E-02 0.  1.
    10030    2    1    2    0    0  0.00000000000E+00  0.00000000000E+00  0.37235864314E+03  0.28153674573E+04  0.27906348669E+04 0.  0.
        5    1    3    3  502    0 -0.13415223357E+04  0.16252321824E+03  0.53681198641E+03  0.14540581737E+04  0.46999998093E+01 0.  1.
       -5    1    3    3    0  502  0.13415223357E+04 -0.16252321824E+03 -0.16445334326E+03  0.13613092837E+04  0.46999998093E+01 0. -1.
</event>
<event>
 5   0  0.2234068E-06  0.2796790E+04  0.7818609E-02  0.8304266E-01
       -1   -1    0    0    0  501  0.00000000000E+00  0.00000000000E+00  0.13823307947E+04  0.13823307947E+04  0.50400001928E-02 0.  1.
        1   -1    0    0  501    0  0.00000000000E+00  0.00000000000E+00 -0.14146462973E+04  0.14146462974E+04  0.50400001928E-02 0. -1.
    10030    2    1    2    0    0  0.00000000000E+00  0.00000000000E+00 -0.32315502646E+02  0.27969770921E+04  0.27967904036E+04 0.  0.
        3    1    3    3  502    0 -0.76405399491E+03 -0.11591521728E+04  0.15147462769E+03  0.13965517677E+04  0.10100000352E+00 0.  1.
       -3    1    3    3    0  502  0.76405399491E+03  0.11591521728E+04 -0.18379013033E+03  0.14004253243E+04  0.10100000352E+00 0. -1.
</event>
<event>
 5   0  0.2206967E-06  0.2726082E+04  0.7818609E-02  0.8326592E-01
       -1   -1    0    0    0  501  0.00000000000E+00  0.00000000000E+00  0.19165184444E+04  0.19165184444E+04  0.50400001928E-02 0. -1.
        1   -1    0    0  501    0  0.00000000000E+00  0.00000000000E+00 -0.96940422339E+03  0.96940422340E+03  0.50400001928E-02 0.  1.
    10030    2    1    2    0    0  0.00000000000E+00  0.00000000000E+00  0.94711422099E+03  0.28859226678E+04  0.27260822249E+04 0.  0.
        5    1    3    3  502    0 -0.28904621525E+03  0.47267318717E+03  0.17919244094E+04  0.18756286507E+04  0.46999998093E+01 0. -1.
       -5    1    3    3    0  502  0.28904621525E+03 -0.47267318717E+03 -0.84481018843E+03  0.10102940170E+04  0.46999998093E+01 0.  1.
</event>
<event>
 5   0  0.2277133E-06  0.2792218E+04  0.7818609E-02  0.8305689E-01
       -1   -1    0    0    0  501  0.00000000000E+00  0.00000000000E+00  0.20428462664E+04  0.20428462664E+04  0.50400001928E-02 0.  1.
        1   -1    0    0  501    0  0.00000000000E+00  0.00000000000E+00 -0.95411974330E+03  0.95411974332E+03  0.50400001928E-02 0. -1.
    10030    2    1    2    0    0  0.00000000000E+00  0.00000000000E+00  0.10887265231E+04  0.29969660097E+04  0.27922177246E+04 0.  0.
        1    1    3    3  502    0  0.93518474724E+03  0.79731351420E+03  0.12553900114E+04  0.17567821243E+04  0.50400001928E-02 0.  1.
       -1    1    3    3    0  502 -0.93518474724E+03 -0.79731351420E+03 -0.16666348830E+03  0.12401838855E+04  0.50400001928E-02 0. -1.
</event>
<event>
 5   0  0.5916603E-06  0.2783910E+04  0.7818609E-02  0.8308281E-01
       -2   -1    0    0    0  501  0.00000000000E+00  0.00000000000E+00  0.19628843078E+04  0.19628843078E+04  0.25500000920E-02 0. -1.
        2   -1    0    0  501    0  0.00000000000E+00  0.00000000000E+00 -0.98708749046E+03  0.98708749046E+03  0.25500000920E-02 0.  1.
    10030    2    1    2    0    0  0.00000000000E+00  0.00000000000E+00  0.97579681732E+03  0.29499717982E+04  0.27839098731E+04 0.  0.
        2    1    3    3  502    0  0.50091041143E+03  0.57975525615E+03 -0.74353740419E+03  0.10676494128E+04  0.25500000920E-02 0.  1.
       -2    1    3    3    0  502 -0.50091041143E+03 -0.57975525615E+03  0.17193342215E+04  0.18823223854E+04  0.25500000920E-02 0. -1.
</event>
<event>
 5   0  0.5584205E-06  0.2774200E+04  0.7818609E-02  0.8311323E-01
        2   -1    0    0  501    0  0.00000000000E+00  0.00000000000E+00  0.11020868240E+04  0.11020868240E+04  0.25500000920E-02 0.  1.
       -2   -1    0    0    0  501  0.00000000000E+00  0.00000000000E+00 -0.17458214594E+04  0.17458214594E+04  0.25500000920E-02 0. -1.
    10030    2    1    2    0    0  0.00000000000E+00  0.00000000000E+00 -0.64373463549E+03  0.28479082834E+04  0.27742003010E+04 0.  0.
        1    1    3    3  502    0 -0.48129684487E+03  0.52815040735E+03 -0.15423441342E+04  0.16998279130E+04  0.50400001928E-02 0. -1.
       -1    1    3    3    0  502  0.48129684487E+03 -0.52815040735E+03  0.89860949870E+03  0.11480803704E+04  0.50400001928E-02 0.  1.
</event>
<event>
 5   0  0.1901375E-06  0.2817635E+04  0.7818609E-02  0.8297814E-01
        3   -1    0    0  501    0  0.00000000000E+00  0.00000000000E+00  0.12576754393E+04  0.12576754434E+04  0.10100000352E+00 0.  1.
       -3   -1    0    0    0  501  0.00000000000E+00  0.00000000000E+00 -0.15781233731E+04  0.15781233763E+04  0.10100000352E+00 0. -1.
    10030    2    1    2    0    0  0.00000000000E+00  0.00000000000E+00 -0.32044793375E+03  0.28357988197E+04  0.28176351907E+04 0.  0.
        4    1    3    3  502    0 -0.11062474228E+04 -0.57988232571E+03 -0.81612944810E+03  0.14920173461E+04  0.12699999809E+01 0. -1.
       -4    1    3    3    0  502  0.11062474228E+04  0.57988232571E+03  0.49568151435E+03  0.13437814736E+04  0.12699999809E+01 0.  1.
</event>
<event>
 5   0  0.2190865E-06  0.2800759E+04  0.7818609E-02  0.8303033E-01
       -1   -1    0    0    0  501  0.00000000000E+00  0.00000000000E+00  0.12900829529E+04  0.12900829529E+04  0.50400001928E-02 0.  1.
        1   -1    0    0  501    0  0.00000000000E+00  0.00000000000E+00 -0.15201054293E+04  0.15201054293E+04  0.50400001928E-02 0. -1.
    10030    2    1    2    0    0  0.00000000000E+00  0.00000000000E+00 -0.23002247644E+03  0.28101883822E+04  0.28007585408E+04 0.  0.
        2    1    3    3  502    0  0.14633290763E+03  0.13263519815E+04 -0.54122278790E+03  0.14399809043E+04  0.25500000920E-02 0. -1.
       -2    1    3    3    0  502 -0.14633290763E+03 -0.13263519815E+04  0.31120031146E+03  0.13702074779E+04  0.25500000920E-02 0.  1.
</event>
<event>
 5   0  0.2234068E-06  0.2781026E+04  0.7818609E-02  0.8309183E-01
        1   -1    0    0  501    0  0.00000000000E+00  0.00000000000E+00  0.14453496309E+04  0.14453496309E+04  0.50400001928E-02 0.  1.
       -1   -1    0    0    0  501  0.00000000000E+00  0.00000000000E+00 -0.13377566317E+04  0.13377566317E+04  0.50400001928E-02 0. -1.
    10030    2    1    2    0    0  0.00000000000E+00  0.00000000000E+00  0.10759299923E+03  0.27831062626E+04  0.27810257488E+04 0.  0.
        3    1    3    3  502    0 -0.81327492510E+03  0.10601108778E+04  0.43914932692E+03  0.14064506101E+04  0.10100000352E+00 0.  1.
       -3    1    3    3    0  502  0.81327492510E+03 -0.10601108778E+04 -0.33155632769E+03  0.13766556526E+04  0.10100000352E+00 0. -1.
</event>
<event>
 5   0  0.5916603E-06  0.2767717E+04  0.7818609E-02  0.8313361E-01
       -2   -1    0    0    0  501  0.00000000000E+00  0.00000000000E+00  0.11342275024E+04  0.11342275024E+04  0.25500000920E-02 0. -1.
        2   -1    0    0  501    0  0.00000000000E+00  0.00000000000E+00 -0.16884310832E+04  0.16884310832E+04  0.25500000920E-02 0.  1.
    10030    2    1    2    0    0  0.00000000000E+00  0.00000000000E+00 -0.55420358076E+03  0.28226585856E+04  0.27677174498E+04 0.  0.
        2    1    3    3  502    0  0.66156105054E+03  0.94789969161E+02 -0.15129390164E+04  0.16539747971E+04  0.25500000920E-02 0.  1.
       -2    1    3    3    0  502 -0.66156105054E+03 -0.94789969161E+02  0.95873543569E+03  0.11686837885E+04  0.25500000920E-02 0. -1.
</event>
<event>
 5   0  0.5584205E-06  0.2794646E+04  0.7818609E-02  0.8304932E-01
       -2   -1    0    0    0  501  0.00000000000E+00  0.00000000000E+00  0.10210556532E+04  0.10210556532E+04  0.25500000920E-02 0.  1.
        2   -1    0    0  501    0  0.00000000000E+00  0.00000000000E+00 -0.19122482464E+04  0.19122482464E+04  0.25500000920E-02 0. -1.
    10030    2    1    2    0    0  0.00000000000E+00  0.00000000000E+00 -0.89119259315E+03  0.29333038996E+04  0.27946462261E+04 0.  0.
        1    1    3    3  502    0 -0.88760475920E+03 -0.11534455136E+03  0.68065885622E+03  0.11244745674E+04  0.50400001928E-02 0.  1.
       -1    1    3    3    0  502  0.88760475920E+03  0.11534455136E+03 -0.15718514494E+04  0.18088293322E+04  0.50400001928E-02 0. -1.
</event>
<event>
 5   0  0.2277133E-06  0.2740139E+04  0.7818609E-02  0.8322097E-01
        1   -1    0    0  501    0  0.00000000000E+00  0.00000000000E+00  0.14050870710E+04  0.14050870710E+04  0.50400001928E-02 0. -1.
       -1   -1    0    0    0  501  0.00000000000E+00  0.00000000000E+00 -0.13359249062E+04  0.13359249062E+04  0.50400001928E-02 0.  1.
    10030    2    1    2    0    0  0.00000000000E+00  0.00000000000E+00  0.69162164743E+02  0.27410119772E+04  0.27401392764E+04 0.  0.
        1    1    3    3  502    0 -0.79187913578E+03 -0.16857024294E+03 -0.10710321301E+04  0.13426087726E+04  0.50400001928E-02 0.  1.
       -1    1    3    3    0  502  0.79187913578E+03  0.16857024294E+03  0.11401942949E+04  0.13984032046E+04  0.50400001928E-02 0. -1.
</event>
<event>
 5   0  0.5916603E-06  0.2803543E+04  0.7818609E-02  0.8302169E-01
        2   -1    0    0  501    0  0.00000000000E+00  0.00000000000E+00  0.15611922645E+04  0.15611922645E+04  0.25500000920E-02 0. -1.
       -2   -1    0    0    0  501  0.00000000000E+00  0.00000000000E+00 -0.12586300256E+04  0.12586300256E+04  0.25500000920E-02 0.  1.
    10030    2    1    2    0    0  0.00000000000E+00  0.00000000000E+00  0.30256223888E+03  0.28198222901E+04  0.28035430868E+04 0.  0.
        2    1    3    3  502    0  0.10283887997E+03  0.21963150611E+03 -0.12373695195E+04  0.12609112425E+04  0.25500000920E-02 0.  1.
       -2    1    3    3    0  502 -0.10283887997E+03 -0.21963150611E+03  0.15399317584E+04  0.15589110476E+04  0.25500000920E-02 0. -1.
</event>
<event>
 5   0  0.2267565E-06  0.2786831E+04  0.7818609E-02  0.8307368E-01
        1   -1    0    0  501    0  0.00000000000E+00  0.00000000000E+00  0.18888087653E+04  0.18888087654E+04  0.50400001928E-02 0. -1.
       -1   -1    0    0    0  501  0.00000000000E+00  0.00000000000E+00 -0.10279531480E+04  0.10279531480E+04  0.50400001928E-02 0.  1.
    10030    2    1    2    0    0  0.00000000000E+00  0.00000000000E+00  0.86085561733E+03  0.29167619134E+04  0.27868311153E+04 0.  0.
        4    1    3    3  502    0  0.48334029293E+03 -0.10912791074E+03  0.17934825952E+04  0.18606741176E+04  0.12699999809E+01 0. -1.
       -4    1    3    3    0  502 -0.48334029293E+03  0.10912791074E+03 -0.93262697787E+03  0.10560877958E+04  0.12699999809E+01 0.  1.
</event>
<event>
 5   0  0.2234068E-06  0.2797727E+04  0.7818609E-02  0.8303974E-01
       -1   -1    0    0    0  501  0.00000000000E+00  0.00000000000E+00  0.27084193464E+04  0.27084193464E+04  0.50400001928E-02 0. -1.
        1   -1    0    0  501    0  0.00000000000E+00  0.00000000000E+00 -0.72249474120E+03  0.72249474122E+03  0.50400001928E-02 0.  1.
    10030    2    1    2    0    0  0.00000000000E+00  0.00000000000E+00  0.19859246052E+04  0.34309140876E+04  0.27977267449E+04 0.  0.
        3    1    3    3  502    0 -0.28354382990E+03 -0.10050155153E+04  0.21344076106E+04  0.23761626939E+04  0.10100000352E+00 0. -1.
       -3    1    3    3    0  502  0.28354382990E+03  0.10050155153E+04 -0.14848300543E+03  0.10547513937E+04  0.10100000352E+00 0.  1.
</event>
<event>
 5   0  0.5866136E-06  0.2807708E+04  0.7818609E-02  0.8300879E-01
        2   -1    0    0  501    0  0.00000000000E+00  0.00000000000E+00  0.10397729795E+04  0.10397729795E+04  0.25500000920E-02 0. -1.
       -2   -1    0    0    0  501  0.00000000000E+00  0.00000000000E+00 -0.18954200418E+04  0.18954200418E+04  0.25500000920E-02 0.  1.
    10030    2    1    2    0    0  0.00000000000E+00  0.00000000000E+00 -0.85564706232E+03  0.29351930213E+04  0.28077083497E+04 0.  0.
        5    1    3    3  502    0  0.13094303097E+04  0.21667543171E+02  0.10081179490E+03  0.13134924158E+04  0.46999998093E+01 0. -1.
       -5    1    3    3    0  502 -0.13094303097E+04 -0.21667543171E+02 -0.95645885722E+03  0.16217006055E+04  0.46999998093E+01 0.  1.
</event>
<event>
 5   0  0.5916603E-06  0.2774617E+04  0.7818609E-02  0.8311192E-01
        2   -1    0    0  501    0  0.00000000000E+00  0.00000000000E+00  0.21486459210E+04  0.21486459210E+04  0.25500000920E-02 0. -1.
       -2   -1    0    0    0  501  0.00000000000E+00  0.00000000000E+00 -0.89573871203E+03  0.89573871204E+03  0.25500000920E-02 0.  1.
    10030    2    1    2    0    0  0.00000000000E+00  0.00000000000E+00  0.12529072090E+04  0.30443846331E+04  0.27746173285E+04 0.  0.
        2    1    3    3  502    0  0.12318902118E+03  0.27553505595E+03  0.21121855585E+04  0.21336407701E+04  0.25500000920E-02 0. -1.
       -2    1    3    3    0  502 -0.12318902118E+03 -0.27553505595E+03 -0.85927834954E+03  0.91074386300E+03  0.25500000920E-02 0.  1.
</event>
<event>
 5   0  0.1901375E-06  0.2768209E+04  0.7818609E-02  0.8313207E-01
        3   -1    0    0  501    0  0.00000000000E+00  0.00000000000E+00  0.17163346524E+04  0.17163346554E+04  0.10100000352E+00 0. -1.
       -3   -1    0    0    0  501  0.00000000000E+00  0.00000000000E+00 -0.11161842016E+04  0.11161842062E+04  0.10100000352E+00 0.  1.
    10030    2    1    2    0    0  0.00000000000E+00  0.00000000000E+00  0.60015045079E+03  0.28325188616E+04  0.27682092655E+04 0.  0.
        2    1    3    3  502    0 -0.48069664038E+02  0.13831335014E+04  0.31993380071E+03  0.14204670402E+04  0.25500000920E-02 0.  1.
       -2    1    3    3    0  502  0.48069664038E+02 -0.13831335014E+04  0.28021665008E+03  0.14120518214E+04  0.25500000920E-02 0. -1.
</event>
<event>
 5   0  0.2190865E-06  0.2794834E+04  0.7818609E-02  0.8304874E-01
       -1   -1    0    0    0  501  0.00000000000E+00  0.00000000000E+00  0.82442393402E+03  0.82442393404E+03  0.50400001928E-02 0. -1.
        1   -1    0    0  501    0  0.00000000000E+00  0.00000000000E+00 -0.23686526684E+04  0.23686526684E+04  0.50400001928E-02 0.  1.
    10030    2    1    2    0    0  0.00000000000E+00  0.00000000000E+00 -0.15442287343E+04  0.31930766024E+04  0.27948337705E+04 0.  0.
        2    1    3    3  502    0 -0.10868513642E+04 -0.21879016850E+03 -0.17440115353E+04  0.20665650875E+04  0.25500000920E-02 0.  1.
       -2    1    3    3    0  502  0.10868513642E+04  0.21879016850E+03  0.19978280096E+03  0.11265115149E+04  0.25500000920E-02 0. -1.
</event>
<event>
 5   0  0.2277133E-06  0.2794109E+04  0.7818609E-02  0.8305099E-01
       -1   -1    0    0    0  501  0.00000000000E+00  0.00000000000E+00  0.10372163365E+04  0.10372163365E+04  0.50400001928E-02 0.  1.
        1   -1    0    0  501    0  0.00000000000E+00  0.00000000000E+00 -0.18817307113E+04  0.18817307113E+04  0.50400001928E-02 0. -1.
    10030    2    1    2    0    0  0.00000000000E+00  0.00000000000E+00 -0.84451437482E+03  0.29189470479E+04  0.27941093999E+04 0.  0.
        1    1    3    3  502    0  0.11090921703E+04 -0.81057630956E+03 -0.15664886609E+03  0.13826273045E+04  0.50400001928E-02 0.  1.
       -1    1    3    3    0  502 -0.11090921703E+04  0.81057630956E+03 -0.68786550873E+03  0.15363197434E+04  0.50400001928E-02 0. -1.
</event>
<event>
 5   0  0.5916603E-06  0.2810673E+04  0.7818609E-02  0.8299962E-01
        2   -1    0    0  501    0  0.00000000000E+00  0.00000000000E+00  0.18610993919E+04  0.18610993919E+04  0.25500000920E-02 0. -1.
       -2   -1    0    0    0  501  0.00000000000E+00  0.00000000000E+00 -0.10611852536E+04  0.10611852536E+04  0.25500000920E-02 0.  1.
    10030    2    1    2    0    0  0.00000000000E+00  0.00000000000E+00  0.79991413831E+03  0.29222846456E+04  0.28106733928E+04 0.  0.
        2    1    3    3  502    0  0.12157904922E+04  0.64783080409E+03  0.68872691061E+03  0.15401870111E+04  0.25500000920E-02 0.  1.
       -2    1    3    3    0  502 -0.12157904922E+04 -0.64783080409E+03  0.11118722770E+03  0.13820976345E+04  0.25500000920E-02 0. -1.
</event>
<event>
 5   0  0.2277133E-06  0.2771804E+04  0.7818609E-02  0.8312076E-01
        1   -1    0    0  501    0  0.00000000000E+00  0.00000000000E+00  0.19101803061E+04  0.19101803061E+04  0.50400001928E-02 0. -1.
       -1   -1    0    0    0  501  0.00000000000E+00  0.00000000000E+00 -0.10055196362E+04  0.10055196362E+04  0.50400001928E-02 0.  1.
    10030    2    1    2    0    0  0.00000000000E+00  0.00000000000E+00  0.90466066991E+03  0.29156999423E+04  0.27718036052E+04 0.  0.
        1    1    3    3  502    0 -0.11936469081E+04  0.19026390604E+02 -0.28818213819E+03  0.12280895283E+04  0.50400001928E-02 0. -1.
       -1    1    3    3    0  502  0.11936469081E+04 -0.19026390604E+02  0.11928428081E+04  0.16876104140E+04  0.50400001928E-02 0.  1.
</event>
<event>
 5   0  0.5866136E-06  0.2810294E+04  0.7818609E-02  0.8300079E-01
       -2   -1    0    0    0  501  0.00000000000E+00  0.00000000000E+00  0.10144157484E+04  0.10144157484E+04  0.25500000920E-02 0.  1.
        2   -1    0    0  501    0  0.00000000000E+00  0.00000000000E+00 -0.19463800577E+04  0.19463800577E+04  0.25500000920E-02 0. -1.
    10030    2    1    2    0    0  0.00000000000E+00  0.00000000000E+00 -0.93196430932E+03  0.29607958061E+04  0.28102943497E+04 0.  0.
        5    1    3    3  502    0 -0.11680792933E+04 -0.68557684516E+03 -0.71790243788E+02  0.13563188324E+04  0.46999998093E+01 0.  1.
       -5    1    3    3    0  502  0.11680792933E+04  0.68557684516E+03 -0.86017406553E+03  0.16044769737E+04  0.46999998093E+01 0. -1.
</event>
<event>
 5   0  0.2234068E-06  0.2814573E+04  0.7818609E-02  0.8298758E-01
       -1   -1    0    0    0  501  0.00000000000E+00  0.00000000000E+00  0.80165996701E+03  0.80165996703E+03  0.50400001928E-02 0.  1.
        1   -1    0    0  501    0  0.00000000000E+00  0.00000000000E+00 -0.24704428209E+04  0.24704428209E+04  0.50400001928E-02 0. -1.
    10030    2    1    2    0    0  0.00000000000E+00  0.00000000000E+00 -0.16687828539E+04  0.32721027879E+04  0.28145728702E+04 0.  0.
        3    1    3    3  502    0 -0.11019454392E+04  0.82137773556E+03 -0.48271064624E+03  0.14566930746E+04  0.10100000352E+00 0.  1.
       -3    1    3    3    0  502  0.11019454392E+04 -0.82137773556E+03 -0.11860722077E+04  0.18154097134E+04  0.10100000352E+00 0. -1.
</event>
<event>
 5   0  0.1901375E-06  0.2748997E+04  0.7818609E-02  0.8319280E-01
       -3   -1    0    0    0  501  0.00000000000E+00  0.00000000000E+00  0.13690666394E+04  0.13690666431E+04  0.10100000352E+00 0.  1.
        3   -1    0    0  501    0  0.00000000000E+00  0.00000000000E+00 -0.13799519669E+04  0.13799519706E+04  0.10100000352E+00 0. -1.
    10030    2    1    2    0    0  0.00000000000E+00  0.00000000000E+00 -0.10885327498E+02  0.27490186138E+04  0.27489970623E+04 0.  0.
        5    1    3    3  502    0  0.12204560647E+04 -0.13217482582E+03 -0.62370387470E+03  0.13769574445E+04  0.46999998093E+01 0. -1.
       -5    1    3    3    0  502 -0.12204560647E+04  0.13217482582E+03  0.61281854720E+03  0.13720611693E+04  0.46999998093E+01 0.  1.
</event>
<event>
 5   0  0.2206967E-06  0.2806384E+04  0.7818609E-02  0.8301289E-01
        1   -1    0    0  501    0  0.00000000000E+00  0.00000000000E+00  0.16916904500E+04  0.16916904500E+04  0.50400001928E-02 0.  1.
       -1   -1    0    0    0  501  0.00000000000E+00  0.00000000000E+00 -0.11638933153E+04  0.11638933153E+04  0.50400001928E-02 0. -1.
    10030    2    1    2    0    0  0.00000000000E+00  0.00000000000E+00  0.52779713466E+03  0.28555837653E+04  0.28063835849E+04 0.  0.
        5    1    3    3  502    0 -0.93425614542E+03  0.33739741699E+01 -0.80139385669E+03  0.12308940379E+04  0.46999998093E+01 0. -1.
       -5    1    3    3    0  502  0.93425614542E+03 -0.33739741699E+01  0.13291909914E+04  0.16246897274E+04  0.46999998093E+01 0.  1.
</event>
<event>
 5   0  0.5916603E-06  0.2793750E+04  0.7818609E-02  0.8305211E-01
        2   -1    0    0  501    0  0.00000000000E+00  0.00000000000E+00  0.11649686267E+04  0.11649686267E+04  0.25500000920E-02 0. -1.
       -2   -1    0    0    0  501  0.00000000000E+00  0.00000000000E+00 -0.16749467537E+04  0.16749467537E+04  0.25500000920E-02 0.  1.
    10030    2    1    2    0    0  0.00000000000E+00  0.00000000000E+00 -0.50997812703E+03  0.28399153803E+04  0.27937504680E+04 0.  0.
        2    1    3    3  502    0  0.44150512021E+03 -0.11876959017E+04 -0.85267780121E+03  0.15272877131E+04  0.25500000920E-02 0.  1.
       -2    1    3    3    0  502 -0.44150512021E+03  0.11876959017E+04  0.34269967418E+03  0.13126276672E+04  0.25500000920E-02 0. -1.
</event>
<event>
 5   0  0.2277133E-06  0.2796010E+04  0.7818609E-02  0.8304508E-01
        1   -1    0    0  501    0  0.00000000000E+00  0.00000000000E+00  0.13834812006E+04  0.13834812006E+04  0.50400001928E-02 0. -1.
       -1   -1    0    0    0  501  0.00000000000E+00  0.00000000000E+00 -0.14126814733E+04  0.14126814733E+04  0.50400001928E-02 0.  1.
    10030    2    1    2    0    0  0.00000000000E+00  0.00000000000E+00 -0.29200272693E+02  0.27961626739E+04  0.27960102008E+04 0.  0.
        1    1    3    3  502    0 -0.17222047726E+02  0.10541922153E+04  0.90349155704E+03  0.13884937232E+04  0.50400001928E-02 0. -1.
       -1    1    3    3    0  502  0.17222047726E+02 -0.10541922153E+04 -0.93269182973E+03  0.14076689508E+04  0.50400001928E-02 0.  1.
</event>
<event>
 5   0  0.5916603E-06  0.2768952E+04  0.7818609E-02  0.8312973E-01
        2   -1    0    0  501    0  0.00000000000E+00  0.00000000000E+00  0.21756036426E+04  0.21756036426E+04  0.25500000920E-02 0. -1.
       -2   -1    0    0    0  501  0.00000000000E+00  0.00000000000E+00 -0.88103051474E+03  0.88103051474E+03  0.25500000920E-02 0.  1.
    10030    2    1    2    0    0  0.00000000000E+00  0.00000000000E+00  0.12945731278E+04  0.30566341573E+04  0.27689515684E+04 0.  0.
        2    1    3    3  502    0  0.15780993477E+03 -0.12099647827E+04  0.13693512859E+04  0.18341324094E+04  0.25500000920E-02 0.  1.
       -2    1    3    3    0  502 -0.15780993477E+03  0.12099647827E+04 -0.74778158108E+02  0.12225017479E+04  0.25500000920E-02 0. -1.
</event>
<event>
 5   0  0.2190865E-06  0.2795717E+04  0.7818609E-02  0.8304599E-01
        1   -1    0    0  501    0  0.00000000000E+00  0.00000000000E+00  0.72864167025E+03  0.72864167027E+03  0.50400001928E-02 0. -1.
       -1   -1    0    0    0  501  0.00000000000E+00  0.00000000000E+00 -0.26817142093E+04  0.26817142094E+04  0.50400001928E-02 0.  1.
    10030    2    1    2    0    0  0.00000000000E+00  0.00000000000E+00 -0.19530725391E+04  0.34103558796E+04  0.27957172394E+04 0.  0.
        2    1    3    3  502    0 -0.60857507160E+03  0.10759626254E+04 -0.18040344694E+03  0.12492416070E+04  0.25500000920E-02 0. -1.
       -2    1    3    3    0  502  0.60857507160E+03 -0.10759626254E+04 -0.17726690922E+04  0.21611142726E+04  0.25500000920E-02 0.  1.
</event>
<event>
 5   0  0.2190865E-06  0.2822325E+04  0.7818609E-02  0.8296371E-01
        1   -1    0    0  501    0  0.00000000000E+00  0.00000000000E+00  0.19314465212E+04  0.19314465212E+04  0.50400001928E-02 0. -1.
       -1   -1    0    0    0  501  0.00000000000E+00  0.00000000000E+00 -0.10310299141E+04  0.10310299141E+04  0.50400001928E-02 0.  1.
    10030    2    1    2    0    0  0.00000000000E+00  0.00000000000E+00  0.90041660705E+03  0.29624764353E+04  0.28223246736E+04 0.  0.
        2    1    3    3  502    0 -0.55105489623E+03 -0.35803734152E+03 -0.86061564622E+03  0.10828257141E+04  0.25500000920E-02 0.  1.
       -2    1    3    3    0  502  0.55105489623E+03  0.35803734152E+03  0.17610322533E+04  0.18796507212E+04  0.25500000920E-02 0. -1.
</event>
<event>
 5   0  0.2267565E-06  0.2829439E+04  0.7818609E-02  0.8294187E-01
        1   -1    0    0  501    0  0.00000000000E+00  0.00000000000E+00  0.24875896870E+04  0.24875896871E+04  0.50400001928E-02 0. -1.
       -1   -1    0    0    0  501  0.00000000000E+00  0.00000000000E+00 -0.80456659473E+03  0.80456659475E+03  0.50400001928E-02 0.  1.
    10030    2    1    2    0    0  0.00000000000E+00  0.00000000000E+00  0.16830230923E+04  0.32921562818E+04  0.28294392120E+04 0.  0.
        4    1    3    3  502    0 -0.50122419491E+03 -0.10766653650E+04 -0.52971940809E+02  0.11887984022E+04  0.12699999809E+01 0.  1.
       -4    1    3    3    0  502  0.50122419491E+03  0.10766653650E+04  0.17359950331E+04  0.21033578796E+04  0.12699999809E+01 0. -1.
</event>
<event>
 5   0  0.2267565E-06  0.2811186E+04  0.7818609E-02  0.8299804E-01
       -1   -1    0    0    0  501  0.00000000000E+00  0.00000000000E+00  0.23650370905E+04  0.23650370905E+04  0.50400001928E-02 0.  1.
        1   -1    0    0  501    0  0.00000000000E+00  0.00000000000E+00 -0.83537479752E+03  0.83537479753E+03  0.50400001928E-02 0. -1.
    10030    2    1    2    0    0  0.00000000000E+00  0.00000000000E+00  0.15296622930E+04  0.32004118881E+04  0.28111864973E+04 0.  0.
        4    1    3    3  502    0 -0.10933531025E+04  0.35108772343E+03 -0.15795543735E+03  0.11591527636E+04  0.12699999809E+01 0. -1.
       -4    1    3    3    0  502  0.10933531025E+04 -0.35108772343E+03  0.16876177304E+04  0.20412591244E+04  0.12699999809E+01 0.  1.
</event>
<event>
 5   0  0.2206967E-06  0.2696042E+04  0.7818609E-02  0.8336290E-01
       -1   -1    0    0    0  501  0.00000000000E+00  0.00000000000E+00  0.11174044064E+04  0.11174044064E+04  0.50400001928E-02 0.  1.
        1   -1    0    0  501    0  0.00000000000E+00  0.00000000000E+00 -0.16262341234E+04  0.16262341234E+04  0.50400001928E-02 0. -1.
    10030    2    1    2    0    0  0.00000000000E+00  0.00000000000E+00 -0.50882971694E+03  0.27436385298E+04  0.26960424146E+04 0.  0.
        5    1    3    3  502    0 -0.10970603940E+03  0.22210620552E+03 -0.16028631414E+04  0.16218997878E+04  0.46999998093E+01 0. -1.
       -5    1    3    3    0  502  0.10970603940E+03 -0.22210620552E+03  0.10940334244E+04  0.11217387420E+04  0.46999998093E+01 0.  1.
</event>
<event>
 5   0  0.2234068E-06  0.2806110E+04  0.7818609E-02  0.8301374E-01
        1   -1    0    0  501    0  0.00000000000E+00  0.00000000000E+00  0.17896340468E+04  0.17896340468E+04  0.50400001928E-02 0. -1.
       -1   -1    0    0    0  501  0.00000000000E+00  0.00000000000E+00 -0.10999812665E+04  0.10999812665E+04  0.50400001928E-02 0.  1.
    10030    2    1    2    0    0  0.00000000000E+00  0.00000000000E+00  0.68965278030E+03  0.28896153132E+04  0.28061104221E+04 0.  0.
        3    1    3    3  502    0  0.12185458475E+04 -0.62604586969E+03  0.32864873703E+02  0.13703530653E+04  0.10100000352E+00 0.  1.
       -3    1    3    3    0  502 -0.12185458475E+04  0.62604586969E+03  0.65678790660E+03  0.15192622479E+04  0.10100000352E+00 0. -1.
</event>
<event>
 5   0  0.5866136E-06  0.2766445E+04  0.7818609E-02  0.8313762E-01
       -2   -1    0    0    0  501  0.00000000000E+00  0.00000000000E+00  0.12802587661E+04  0.12802587661E+04  0.25500000920E-02 0.  1.
        2   -1    0    0  501    0  0.00000000000E+00  0.00000000000E+00 -0.14944671941E+04  0.14944671941E+04  0.25500000920E-02 0. -1.
    10030    2    1    2    0    0  0.00000000000E+00  0.00000000000E+00 -0.21420842806E+03  0.27747259602E+04  0.27664451745E+04 0.  0.
        5    1    3    3  502    0  0.59042830450E+02  0.88923584606E+03  0.95391677851E+03  0.13054523186E+04  0.46999998093E+01 0.  1.
       -5    1    3    3    0  502 -0.59042830450E+02 -0.88923584606E+03 -0.11681252066E+04  0.14692736416E+04  0.46999998093E+01 0. -1.
</event>
<event>
 5   0  0.2206967E-06  0.2780163E+04  0.7818609E-02  0.8309454E-01
        1   -1    0    0  501    0  0.00000000000E+00  0.00000000000E+00  0.12896516089E+04  0.12896516090E+04  0.50400001928E-02 0. -1.
       -1   -1    0    0    0  501  0.00000000000E+00  0.00000000000E+00 -0.14983319410E+04  0.14983319410E+04  0.50400001928E-02 0.  1.
    10030    2    1    2    0    0  0.00000000000E+00  0.00000000000E+00 -0.20868033208E+03  0.27879835500E+04  0.27801627280E+04 0.  0.
        5    1    3    3  502    0 -0.99269122024E+03  0.88309056893E+03 -0.51416975991E+03  0.14246674853E+04  0.46999998093E+01 0. -1.
       -5    1    3    3    0  502  0.99269122024E+03 -0.88309056893E+03  0.30548942783E+03  0.13633160647E+04  0.46999998093E+01 0.  1.
</event>
<event>
 5   0  0.5584205E-06  0.2813200E+04  0.7818609E-02  0.8299182E-01
       -2   -1    0    0    0  501  0.00000000000E+00  0.00000000000E+00  0.94079804402E+03  0.94079804402E+03  0.25500000920E-02 0.  1.
        2   -1    0    0  501    0  0.00000000000E+00  0.00000000000E+00 -0.21030263899E+04  0.21030263899E+04  0.25500000920E-02 0. -1.
    10030    2    1    2    0    0  0.00000000000E+00  0.00000000000E+00 -0.11622283458E+04  0.30438244339E+04  0.28131996830E+04 0.  0.
        1    1    3    3  502    0  0.32776917287E+03 -0.28116324764E+02 -0.20608175703E+04  0.20869097288E+04  0.50400001928E-02 0. -1.
       -1    1    3    3    0  502 -0.32776917287E+03  0.28116324764E+02  0.89858922444E+03  0.95691470503E+03  0.50400001928E-02 0.  1.
</event>
<event>
 5   0  0.2234068E-06  0.2776016E+04  0.7818609E-02  0.8310753E-01
        1   -1    0    0  501    0  0.00000000000E+00  0.00000000000E+00  0.12212194162E+04  0.12212194162E+04  0.50400001928E-02 0. -1.
       -1   -1    0    0    0  501  0.00000000000E+00  0.00000000000E+00 -0.15775760931E+04  0.15775760931E+04  0.50400001928E-02 0.  1.
    10030    2    1    2    0    0  0.00000000000E+00  0.00000000000E+00 -0.35635667690E+03  0.27987955094E+04  0.27760162503E+04 0.  0.
        3    1    3    3  502    0 -0.40060290983E+03  0.13056438337E+04  0.71600504124E+02  0.13675946601E+04  0.10100000352E+00 0. -1.
       -3    1    3    3    0  502  0.40060290983E+03 -0.13056438337E+04 -0.42795718102E+03  0.14312008493E+04  0.10100000352E+00 0.  1.
</event>
<event>
 5   0  0.2267565E-06  0.2802021E+04  0.7818609E-02  0.8302641E-01
        1   -1    0    0  501    0  0.00000000000E+00  0.00000000000E+00  0.19356433472E+04  0.19356433472E+04  0.50400001928E-02 0.  1.
       -1   -1    0    0    0  501  0.00000000000E+00  0.00000000000E+00 -0.10140453602E+04  0.10140453602E+04  0.50400001928E-02 0. -1.
    10030    2    1    2    0    0  0.00000000000E+00  0.00000000000E+00  0.92159798703E+03  0.29496887074E+04  0.28020208102E+04 0.  0.
        4    1    3    3  502    0  0.42999193297E+03 -0.69585130952E+03  0.16581626041E+04  0.18489475228E+04  0.12699999809E+01 0.  1.
       -4    1    3    3    0  502 -0.42999193297E+03  0.69585130952E+03 -0.73656461710E+03  0.11007411846E+04  0.12699999809E+01 0. -1.
</event>
<event>
 5   0  0.5584205E-06  0.2822049E+04  0.7818609E-02  0.8296456E-01
       -2   -1    0    0    0  501  0.00000000000E+00  0.00000000000E+00  0.20171847730E+04  0.20171847730E+04  0.25500000920E-02 0.  1.
        2   -1    0    0  501    0  0.00000000000E+00  0.00000000000E+00 -0.98701420318E+03  0.98701420319E+03  0.25500000920E-02 0. -1.
    10030    2    1    2    0    0  0.00000000000E+00  0.00000000000E+00  0.10301705698E+04  0.30041989761E+04  0.28220489162E+04 0.  0.
        1    1    3    3  502    0  0.57331829398E+03 -0.12427782547E+04  0.88045604381E+03  0.16273888600E+04  0.50400001928E-02 0.  1.
       -1    1    3    3    0  502 -0.57331829398E+03  0.12427782547E+04  0.14971452597E+03  0.13768101161E+04  0.50400001928E-02 0. -1.
</event>
<event>
 5   0  0.5625245E-06  0.2815519E+04  0.7818609E-02  0.8298466E-01
        2   -1    0    0  501    0  0.00000000000E+00  0.00000000000E+00  0.16933951105E+04  0.16933951105E+04  0.25500000920E-02 0. -1.
       -2   -1    0    0    0  501  0.00000000000E+00  0.00000000000E+00 -0.11703038760E+04  0.11703038760E+04  0.25500000920E-02 0.  1.
    10030    2    1    2    0    0  0.00000000000E+00  0.00000000000E+00  0.52309123443E+03  0.28636989865E+04  0.28155190366E+04 0.  0.
        3    1    3    3  502    0  0.19082532293E+03 -0.24426541828E+03 -0.11351635991E+04  0.11767226969E+04  0.10100000352E+00 0.  1.
       -3    1    3    3    0  502 -0.19082532293E+03  0.24426541828E+03  0.16582548335E+04  0.16869762896E+04  0.10100000352E+00 0. -1.
</event>
<event>
 5   0  0.5584205E-06  0.2791608E+04  0.7818609E-02  0.8305878E-01
        2   -1    0    0  501    0  0.00000000000E+00  0.00000000000E+00  0.13013719248E+04  0.13013719248E+04  0.25500000920E-02 0. -1.
       -2   -1    0    0    0  501  0.00000000000E+00  0.00000000000E+00 -0.14970887461E+04  0.14970887461E+04  0.25500000920E-02 0.  1.
    10030    2    1    2    0    0  0.00000000000E+00  0.00000000000E+00 -0.19571682131E+03  0.27984606708E+04  0.27916083271E+04 0.  0.
        1    1    3    3  502    0  0.60583668522E+03 -0.80813042671E+03 -0.10636319483E+04  0.14667739421E+04  0.50400001928E-02 0.  1.
       -1    1    3    3    0  502 -0.60583668522E+03  0.80813042671E+03  0.86791512701E+03  0.13316867287E+04  0.50400001928E-02 0. -1.
</event>
<event>
 5   0  0.5625245E-06  0.2793740E+04  0.7818609E-02  0.8305215E-01
       -2   -1    0    0    0  501  0.00000000000E+00  0.00000000000E+00  0.94463960096E+03  0.94463960097E+03  0.25500000920E-02 0.  1.
        2   -1    0    0  501    0  0.00000000000E+00  0.00000000000E+00 -0.20655974431E+04  0.20655974431E+04  0.25500000920E-02 0. -1.
    10030    2    1    2    0    0  0.00000000000E+00  0.00000000000E+00 -0.11209578421E+04  0.30102370441E+04  0.27937395329E+04 0.  0.
        3    1    3    3  502    0  0.31637512026E+03  0.60201894504E+03  0.75420708123E+03  0.10155532278E+04  0.10100000352E+00 0.  1.
       -3    1    3    3    0  502 -0.31637512026E+03 -0.60201894504E+03 -0.18751649234E+04  0.19946838163E+04  0.10100000352E+00 0. -1.
</event>
<event>
 5   0  0.5916603E-06  0.2790815E+04  0.7818609E-02  0.8306126E-01
       -2   -1    0    0    0  501  0.00000000000E+00  0.00000000000E+00  0.15820955027E+04  0.15820955027E+04  0.25500000920E-02 0. -1.
        2   -1    0    0  501    0  0.00000000000E+00  0.00000000000E+00 -0.12307486101E+04  0.12307486101E+04  0.25500000920E-02 0.  1.
    10030    2    1    2    0    0  0.00000000000E+00  0.00000000000E+00  0.35134689259E+03  0.28128441128E+04  0.27908148208E+04 0.  0.
        2    1    3    3  502    0  0.33726227349E+03 -0.12326002644E+04 -0.38920800494E+03  0.13358638119E+04  0.25500000920E-02 0.  1.
       -2    1    3    3    0  502 -0.33726227349E+03  0.12326002644E+04  0.74055489753E+03  0.14769803009E+04  0.25500000920E-02 0. -1.
</event>
<event>
 5   0  0.5584205E-06  0.2793298E+04  0.7818609E-02  0.8305352E-01
       -2   -1    0    0    0  501  0.00000000000E+00  0.00000000000E+00  0.86878481066E+03  0.86878481066E+03  0.25500000920E-02 0.  1.
        2   -1    0    0  501    0  0.00000000000E+00  0.00000000000E+00 -0.22452378514E+04  0.22452378514E+04  0.25500000920E-02 0. -1.
    10030    2    1    2    0    0  0.00000000000E+00  0.00000000000E+00 -0.13764530407E+04  0.31140226620E+04  0.27932980805E+04 0.  0.
        1    1    3    3  502    0  0.33660524692E+03  0.23490807242E+03 -0.21764763421E+04  0.22148440493E+04  0.50400001928E-02 0. -1.
       -1    1    3    3    0  502 -0.33660524692E+03 -0.23490807242E+03  0.80002330144E+03  0.89917861274E+03  0.50400001928E-02 0.  1.
</event>
<event>
 5   0  0.2206967E-06  0.2803665E+04  0.7818609E-02  0.8302131E-01
        1   -1    0    0  501    0  0.00000000000E+00  0.00000000000E+00  0.14139743950E+04  0.14139743950E+04  0.50400001928E-02 0.  1.
       -1   -1    0    0    0  501  0.00000000000E+00  0.00000000000E+00 -0.13897947547E+04  0.13897947547E+04  0.50400001928E-02 0. -1.
    10030    2    1    2    0    0  0.00000000000E+00  0.00000000000E+00  0.24179640300E+02  0.28037691498E+04  0.28036648855E+04 0.  0.
        5    1    3    3  502    0  0.24145669648E+03 -0.10914888335E+04 -0.83379203484E+03  0.13945897093E+04  0.46999998093E+01 0.  1.
       -5    1    3    3    0  502 -0.24145669648E+03  0.10914888335E+04  0.85797167514E+03  0.14091794404E+04  0.46999998093E+01 0. -1.
</event>
<event>
 5   0  0.2206967E-06  0.2788536E+04  0.7818609E-02  0.8306836E-01
        1   -1    0    0  501    0  0.00000000000E+00  0.00000000000E+00  0.15674663853E+04  0.15674663853E+04  0.50400001928E-02 0. -1.
       -1   -1    0    0    0  501  0.00000000000E+00  0.00000000000E+00 -0.12402074575E+04  0.12402074575E+04  0.50400001928E-02 0.  1.
    10030    2    1    2    0    0  0.00000000000E+00  0.00000000000E+00  0.32725892779E+03  0.28076738428E+04  0.27885361754E+04 0.  0.
        5    1    3    3  502    0 -0.10423176168E+04  0.83422427573E+03 -0.24113102413E+03  0.13566585486E+04  0.46999998093E+01 0.  1.
       -5    1    3    3    0  502  0.10423176168E+04 -0.83422427573E+03  0.56838995192E+03  0.14510152942E+04  0.46999998093E+01 0. -1.
</event>
<event>
 5   0  0.5916603E-06  0.2828431E+04  0.7818609E-02  0.8294496E-01
       -2   -1    0    0    0  501  0.00000000000E+00  0.00000000000E+00  0.14832453128E+04  0.14832453128E+04  0.25500000920E-02 0. -1.
        2   -1    0    0  501    0  0.00000000000E+00  0.00000000000E+00 -0.13483987050E+04  0.13483987050E+04  0.25500000920E-02 0.  1.
    10030    2    1    2    0    0  0.00000000000E+00  0.00000000000E+00  0.13484660783E+03  0.28316440178E+04  0.28284314091E+04 0.  0.
        2    1    3    3  502    0 -0.18725739699E+03 -0.60141027025E+03 -0.12002085443E+04  0.13554557151E+04  0.25500000920E-02 0.  1.
       -2    1    3    3    0  502  0.18725739699E+03  0.60141027025E+03  0.13350551521E+04  0.14761883027E+04  0.25500000920E-02 0. -1.
</event>
<event>
 5   0  0.2234068E-06  0.2802938E+04  0.7818609E-02  0.8302357E-01
       -1   -1    0    0    0  501  0.00000000000E+00  0.00000000000E+00  0.16550899487E+04  0.16550899487E+04  0.50400001928E-02 0.  1.
        1   -1    0    0  501    0  0.00000000000E+00  0.00000000000E+00 -0.11867123938E+04  0.11867123939E+04  0.50400001928E-02 0. -1.
    10030    2    1    2    0    0  0.00000000000E+00  0.00000000000E+00  0.46837755481E+03  0.28418023425E+04  0.28029382833E+04 0.  0.
        3    1    3    3  502    0  0.35890090846E+03  0.10890313421E+04 -0.58278589285E+03  0.12862497943E+04  0.10100000352E+00 0. -1.
       -3    1    3    3    0  502 -0.35890090846E+03 -0.10890313421E+04  0.10511634477E+04  0.15555525482E+04  0.10100000352E+00 0.  1.
</event>
<event>
 5   0  0.2206967E-06  0.2493640E+04  0.7818609E-02  0.8405255E-01
       -1   -1    0    0    0  501  0.00000000000E+00  0.00000000000E+00  0.10170344221E+04  0.10170344221E+04  0.50400001928E-02 0.  1.
        1   -1    0    0  501    0  0.00000000000E+00  0.00000000000E+00 -0.15285224033E+04  0.15285224033E+04  0.50400001928E-02 0. -1.
    10030    2    1    2    0    0  0.00000000000E+00  0.00000000000E+00 -0.51148798121E+03  0.25455568254E+04  0.24936398289E+04 0.  0.
        5    1    3    3  502    0 -0.18293615773E+03 -0.32933500607E+03 -0.14690219401E+04  0.15165667591E+04  0.46999998093E+01 0. -1.
       -5    1    3    3    0  502  0.18293615773E+03  0.32933500607E+03  0.95753395894E+03  0.10289900663E+04  0.46999998093E+01 0.  1.
</event>
<event>
 5   0  0.5866136E-06  0.2810190E+04  0.7818609E-02  0.8300112E-01
       -2   -1    0    0    0  501  0.00000000000E+00  0.00000000000E+00  0.10626990159E+04  0.10626990159E+04  0.25500000920E-02 0.  1.
        2   -1    0    0  501    0  0.00000000000E+00  0.00000000000E+00 -0.18578092416E+04  0.18578092416E+04  0.25500000920E-02 0. -1.
    10030    2    1    2    0    0  0.00000000000E+00  0.00000000000E+00 -0.79511022567E+03  0.29205082576E+04  0.28101900668E+04 0.  0.
        5    1    3    3  502    0 -0.94696225560E+03  0.39261013201E+03 -0.13962096168E+04  0.17321384510E+04  0.46999998093E+01 0. -1.
       -5    1    3    3    0  502  0.94696225560E+03 -0.39261013201E+03  0.60109939111E+03  0.11883698066E+04  0.46999998093E+01 0.  1.
</event>
<event>
 5   0  0.5625245E-06  0.2792080E+04  0.7818609E-02  0.8305731E-01
        2   -1    0    0  501    0  0.00000000000E+00  0.00000000000E+00  0.21825171604E+04  0.21825171604E+04  0.25500000920E-02 0.  1.
       -2   -1    0    0    0  501  0.00000000000E+00  0.00000000000E+00 -0.89297258229E+03  0.89297258230E+03  0.25500000920E-02 0. -1.
    10030    2    1    2    0    0  0.00000000000E+00  0.00000000000E+00  0.12895445781E+04  0.30754897427E+04  0.27920802171E+04 0.  0.
        3    1    3    3  502    0 -0.88593541969E+03  0.70083057208E+03  0.15483305115E+04  0.19166044040E+04  0.10100000352E+00 0.  1.
       -3    1    3    3    0  502  0.88593541969E+03 -0.70083057208E+03 -0.25878593337E+03  0.11588853386E+04  0.10100000352E+00 0. -1.
</event>
<event>
 5   0  0.1901375E-06  0.2704643E+04  0.7818609E-02  0.8333500E-01
       -3   -1    0    0    0  501  0.00000000000E+00  0.00000000000E+00  0.10714782150E+04  0.10714782198E+04  0.10100000352E+00 0.  1.
        3   -1    0    0  501    0  0.00000000000E+00  0.00000000000E+00 -0.17067755386E+04  0.17067755416E+04  0.10100000352E+00 0. -1.
    10030    2    1    2    0    0  0.00000000000E+00  0.00000000000E+00 -0.63529732356E+03  0.27782537614E+04  0.27046425408E+04 0.  0.
        4    1    3    3  502    0  0.22300459113E+03  0.11399457451E+04 -0.10290018103E+04  0.15517904781E+04  0.12699999809E+01 0. -1.
       -4    1    3    3    0  502 -0.22300459113E+03 -0.11399457451E+04  0.39370448674E+03  0.12264632833E+04  0.12699999809E+01 0.  1.
</event>
<event>
 5   0  0.5916603E-06  0.2770473E+04  0.7818609E-02  0.8312494E-01
       -2   -1    0    0    0  501  0.00000000000E+00  0.00000000000E+00  0.90452230721E+03  0.90452230721E+03  0.25500000920E-02 0.  1.
        2   -1    0    0  501    0  0.00000000000E+00  0.00000000000E+00 -0.21214288081E+04  0.21214288081E+04  0.25500000920E-02 0. -1.
    10030    2    1    2    0    0  0.00000000000E+00  0.00000000000E+00 -0.12169065009E+04  0.30259511153E+04  0.27704726529E+04 0.  0.
        2    1    3    3  502    0 -0.27286117238E+03 -0.94153420051E+03 -0.16774518863E+04  0.19428805164E+04  0.25500000920E-02 0. -1.
       -2    1    3    3    0  502  0.27286117238E+03  0.94153420051E+03  0.46054538544E+03  0.10830705989E+04  0.25500000920E-02 0.  1.
</event>
<event>
 5   0  0.2277133E-06  0.2798916E+04  0.7818609E-02  0.8303605E-01
        1   -1    0    0  501    0  0.00000000000E+00  0.00000000000E+00  0.21981013005E+04  0.21981013005E+04  0.50400001928E-02 0.  1.
       -1   -1    0    0    0  501  0.00000000000E+00  0.00000000000E+00 -0.89098813912E+03  0.89098813914E+03  0.50400001928E-02 0. -1.
    10030    2    1    2    0    0  0.00000000000E+00  0.00000000000E+00  0.13071131614E+04  0.30890894396E+04  0.27989156381E+04 0.  0.
        1    1    3    3  502    0 -0.12389269343E+04  0.47918806356E+03  0.16753770296E+03  0.13388913439E+04  0.50400001928E-02 0. -1.
       -1    1    3    3    0  502  0.12389269343E+04 -0.47918806356E+03  0.11395754584E+04  0.17501980957E+04  0.50400001928E-02 0.  1.
</event>
<event>
 5   0  0.5584205E-06  0.2794995E+04  0.7818609E-02  0.8304824E-01
       -2   -1    0    0    0  501  0.00000000000E+00  0.00000000000E+00  0.14767890330E+04  0.14767890330E+04  0.25500000920E-02 0.  1.
        2   -1    0    0  501    0  0.00000000000E+00  0.00000000000E+00 -0.13224634337E+04  0.13224634337E+04  0.25500000920E-02 0. -1.
    10030    2    1    2    0    0  0.00000000000E+00  0.00000000000E+00  0.15432559937E+03  0.27992524667E+04  0.27949951666E+04 0.  0.
        1    1    3    3  502    0  0.11436914785E+04 -0.41062260250E+02  0.88043383838E+03  0.14439113723E+04  0.50400001928E-02 0. -1.
       -1    1    3    3    0  502 -0.11436914785E+04  0.41062260250E+02 -0.72610823901E+03  0.13553410944E+04  0.50400001928E-02 0.  1.
</event>
<event>
 5   0  0.2190865E-06  0.2809959E+04  0.7818609E-02  0.8300183E-01
        1   -1    0    0  501    0  0.00000000000E+00  0.00000000000E+00  0.14700133775E+04  0.14700133775E+04  0.50400001928E-02 0. -1.
       -1   -1    0    0    0  501  0.00000000000E+00  0.00000000000E+00 -0.13428231817E+04  0.13428231817E+04  0.50400001928E-02 0.  1.
    10030    2    1    2    0    0  0.00000000000E+00  0.00000000000E+00  0.12719019577E+03  0.28128365592E+04  0.28099594593E+04 0.  0.
        2    1    3    3  502    0  0.11484325580E+04 -0.11277002383E+03  0.86588538153E+03  0.14426960569E+04  0.25500000920E-02 0. -1.
       -2    1    3    3    0  502 -0.11484325580E+04  0.11277002383E+03 -0.73869518576E+03  0.13701405023E+04  0.25500000920E-02 0.  1.
</event>
<event>
 5   0  0.2234068E-06  0.2787579E+04  0.7818609E-02  0.8307135E-01
       -1   -1    0    0    0  501  0.00000000000E+00  0.00000000000E+00  0.35487956349E+04  0.35487956349E+04  0.50400001928E-02 0.  1.
        1   -1    0    0  501    0  0.00000000000E+00  0.00000000000E+00 -0.54741088181E+03  0.54741088183E+03  0.50400001928E-02 0. -1.
    10030    2    1    2    0    0  0.00000000000E+00  0.00000000000E+00  0.30013847531E+04  0.40962065167E+04  0.27875791274E+04 0.  0.
        3    1    3    3  502    0 -0.14915477377E+03  0.85462450817E+03  0.31036853315E+04  0.32226530753E+04  0.10100000352E+00 0.  1.
       -3    1    3    3    0  502  0.14915477377E+03 -0.85462450817E+03 -0.10230057841E+03  0.87355344144E+03  0.10100000352E+00 0. -1.
</event>
<event>
 5   0  0.2206967E-06  0.2621889E+04  0.7818609E-02  0.8360804E-01
       -1   -1    0    0    0  501  0.00000000000E+00  0.00000000000E+00  0.21952938823E+04  0.21952938824E+04  0.50400001928E-02 0.  1.
        1   -1    0    0  501    0  0.00000000000E+00  0.00000000000E+00 -0.78284504122E+03  0.78284504124E+03  0.50400001928E-02 0. -1.
    10030    2    1    2    0    0  0.00000000000E+00  0.00000000000E+00  0.14124488411E+04  0.29781389236E+04  0.26218885788E+04 0.  0.
        5    1    3    3  502    0  0.27485129008E+03  0.32068345730E+03 -0.70343855943E+03  0.82050533717E+03  0.46999998093E+01 0. -1.
       -5    1    3    3    0  502 -0.27485129008E+03 -0.32068345730E+03  0.21158874006E+04  0.21576335864E+04  0.46999998093E+01 0.  1.
</event>
<event>
 5   0  0.2190865E-06  0.2821508E+04  0.7818609E-02  0.8296622E-01
        1   -1    0    0  501    0  0.00000000000E+00  0.00000000000E+00  0.11688591866E+04  0.11688591866E+04  0.50400001928E-02 0. -1.
       -1   -1    0    0    0  501  0.00000000000E+00  0.00000000000E+00 -0.17027087243E+04  0.17027087243E+04  0.50400001928E-02 0.  1.
    10030    2    1    2    0    0  0.00000000000E+00  0.00000000000E+00 -0.53384953765E+03  0.28715679109E+04  0.28215079192E+04 0.  0.
        2    1    3    3  502    0 -0.98125928301E+03  0.87303441621E+03 -0.79100558361E+03  0.15332151531E+04  0.25500000920E-02 0.  1.
       -2    1    3    3    0  502  0.98125928301E+03 -0.87303441621E+03  0.25715604595E+03  0.13383527578E+04  0.25500000920E-02 0. -1.
</event>
<event>
 5   0  0.5546570E-06  0.2802264E+04  0.7818609E-02  0.8302566E-01
       -2   -1    0    0    0  501  0.00000000000E+00  0.00000000000E+00  0.12606213314E+04  0.12606213314E+04  0.25500000920E-02 0.  1.
        2   -1    0    0  501    0  0.00000000000E+00  0.00000000000E+00 -0.15573038545E+04  0.15573038545E+04  0.25500000920E-02 0. -1.
    10030    2    1    2    0    0  0.00000000000E+00  0.00000000000E+00 -0.29668252313E+03  0.28179251859E+04  0.28022636981E+04 0.  0.
        4    1    3    3  502    0 -0.64213472921E+03 -0.80401420595E+03  0.80796951991E+03  0.13082783388E+04  0.12699999809E+01 0.  1.
       -4    1    3    3    0  502  0.64213472921E+03  0.80401420595E+03 -0.11046520430E+04  0.15096468471E+04  0.12699999809E+01 0. -1.
</event>
<event>
 5   0  0.2267565E-06  0.2805308E+04  0.7818609E-02  0.8301622E-01
        1   -1    0    0  501    0  0.00000000000E+00  0.00000000000E+00  0.12687054583E+04  0.12687054583E+04  0.50400001928E-02 0.  1.
       -1   -1    0    0    0  501  0.00000000000E+00  0.00000000000E+00 -0.15507442853E+04  0.15507442853E+04  0.50400001928E-02 0. -1.
    10030    2    1    2    0    0  0.00000000000E+00  0.00000000000E+00 -0.28203882695E+03  0.28194497436E+04  0.28053076403E+04 0.  0.
        4    1    3    3  502    0 -0.62839035292E+03  0.12008957497E+04  0.22192584223E+03  0.13734182647E+04  0.12699999809E+01 0.  1.
       -4    1    3    3    0  502  0.62839035292E+03 -0.12008957497E+04 -0.50396466919E+03  0.14460314789E+04  0.12699999809E+01 0. -1.
</event>
<event>
 5   0  0.2206967E-06  0.2800839E+04  0.7818609E-02  0.8303008E-01
        1   -1    0    0  501    0  0.00000000000E+00  0.00000000000E+00  0.20152318957E+04  0.20152318957E+04  0.50400001928E-02 0.  1.
       -1   -1    0    0    0  501  0.00000000000E+00  0.00000000000E+00 -0.97317583980E+03  0.97317583981E+03  0.50400001928E-02 0. -1.
    10030    2    1    2    0    0  0.00000000000E+00  0.00000000000E+00  0.10420560559E+04  0.29884077356E+04  0.28008391546E+04 0.  0.
        5    1    3    3  502    0 -0.29776777769E+03  0.63935477597E+03  0.18118894053E+04  0.19443264864E+04  0.46999998093E+01 0.  1.
       -5    1    3    3    0  502  0.29776777769E+03 -0.63935477597E+03 -0.76983334934E+03  0.10440812491E+04  0.46999998093E+01 0. -1.
</event>
<event>
 5   0  0.2190865E-06  0.2822861E+04  0.7818609E-02  0.8296206E-01
       -1   -1    0    0    0  501  0.00000000000E+00  0.00000000000E+00  0.82150397061E+03  0.82150397063E+03  0.50400001928E-02 0.  1.
        1   -1    0    0  501    0  0.00000000000E+00  0.00000000000E+00 -0.24249865562E+04  0.24249865562E+04  0.50400001928E-02 0. -1.
    10030    2    1    2    0    0  0.00000000000E+00  0.00000000000E+00 -0.16034825856E+04  0.32464905269E+04  0.28228610201E+04 0.  0.
        2    1    3    3  502    0  0.73845859812E+03 -0.41416002633E+03  0.49701754810E+03  0.98177190410E+03  0.25500000920E-02 0.  1.
       -2    1    3    3    0  502 -0.73845859812E+03  0.41416002633E+03 -0.21005001337E+04  0.22647186228E+04  0.25500000920E-02 0. -1.
</event>
<event>
 5   0  0.5584205E-06  0.2792417E+04  0.7818609E-02  0.8305626E-01
       -2   -1    0    0    0  501  0.00000000000E+00  0.00000000000E+00  0.20847789217E+04  0.20847789217E+04  0.25500000920E-02 0.  1.
        2   -1    0    0  501    0  0.00000000000E+00  0.00000000000E+00 -0.93506230493E+03  0.93506230493E+03  0.25500000920E-02 0. -1.
    10030    2    1    2    0    0  0.00000000000E+00  0.00000000000E+00  0.11497166167E+04  0.30198412266E+04  0.27924170059E+04 0.  0.
        1    1    3    3  502    0 -0.48499269099E+02 -0.13068085334E+04  0.11038792711E+04  0.17113299411E+04  0.50400001928E-02 0.  1.
       -1    1    3    3    0  502  0.48499269099E+02  0.13068085334E+04  0.45837345660E+02  0.13085112855E+04  0.50400001928E-02 0. -1.
</event>
<event>
 5   0  0.5625245E-06  0.2790151E+04  0.7818609E-02  0.8306333E-01
        2   -1    0    0  501    0  0.00000000000E+00  0.00000000000E+00  0.14675650651E+04  0.14675650651E+04  0.25500000920E-02 0.  1.
       -2   -1    0    0    0  501  0.00000000000E+00  0.00000000000E+00 -0.13261665373E+04  0.13261665373E+04  0.25500000920E-02 0. -1.
    10030    2    1    2    0    0  0.00000000000E+00  0.00000000000E+00  0.14139852780E+03  0.27937316024E+04  0.27901510215E+04 0.  0.
        3    1    3    3  502    0 -0.96516841817E+03  0.99747367271E+03 -0.69951165665E+02  0.13897470917E+04  0.10100000352E+00 0. -1.
       -3    1    3    3    0  502  0.96516841817E+03 -0.99747367271E+03  0.21134969347E+03  0.14039845107E+04  0.10100000352E+00 0.  1.
</event>
<event>
 5   0  0.5625245E-06  0.2791037E+04  0.7818609E-02  0.8306056E-01
        2   -1    0    0  501    0  0.00000000000E+00  0.00000000000E+00  0.17512825000E+04  0.17512825000E+04  0.25500000920E-02 0.  1.
       -2   -1    0    0    0  501  0.00000000000E+00  0.00000000000E+00 -0.11120260646E+04  0.11120260646E+04  0.25500000920E-02 0. -1.
    10030    2    1    2    0    0  0.00000000000E+00  0.00000000000E+00  0.63925643543E+03  0.28633085646E+04  0.27910369302E+04 0.  0.
        3    1    3    3  502    0  0.12018627200E+04  0.44784414829E+03 -0.24455146649E+03  0.13056966757E+04  0.10100000352E+00 0. -1.
       -3    1    3    3    0  502 -0.12018627200E+04 -0.44784414829E+03  0.88380790192E+03  0.15576118889E+04  0.10100000352E+00 0.  1.
</event>
<event>
 5   0  0.2267565E-06  0.2789132E+04  0.7818609E-02  0.8306650E-01
        1   -1    0    0  501    0  0.00000000000E+00  0.00000000000E+00  0.19528113958E+04  0.19528113958E+04  0.50400001928E-02 0. -1.
       -1   -1    0    0    0  501  0.00000000000E+00  0.00000000000E+00 -0.99590462516E+03  0.99590462518E+03  0.50400001928E-02 0.  1.
    10030    2    1    2    0    0  0.00000000000E+00  0.00000000000E+00  0.95690677062E+03  0.29487160210E+04  0.27891316937E+04 0.  0.
        4    1    3    3  502    0  0.84996277764E+03  0.78221828723E+03  0.13045110419E+04  0.17424272850E+04  0.12699999809E+01 0. -1.
       -4    1    3    3    0  502 -0.84996277764E+03 -0.78221828723E+03 -0.34760427124E+03  0.12062887360E+04  0.12699999809E+01 0.  1.
</event>
<event>
 5   0  0.5584205E-06  0.2730863E+04  0.7818609E-02  0.8325060E-01
        2   -1    0    0  501    0  0.00000000000E+00  0.00000000000E+00  0.21135703612E+04  0.21135703612E+04  0.25500000920E-02 0.  1.
       -2   -1    0    0    0  501  0.00000000000E+00  0.00000000000E+00 -0.88211056497E+03  0.88211056497E+03  0.25500000920E-02 0. -1.
    10030    2    1    2    0    0  0.00000000000E+00  0.00000000000E+00  0.12314597962E+04  0.29956809262E+04  0.27308626808E+04 0.  0.
        1    1    3    3  502    0  0.37567410203E+03 -0.84427289003E+03 -0.48697290510E+03  0.10445431318E+04  0.50400001928E-02 0. -1.
       -1    1    3    3    0  502 -0.37567410203E+03  0.84427289003E+03  0.17184327013E+04  0.19511377944E+04  0.50400001928E-02 0.  1.
</event>
<event>
 5   0  0.2190865E-06  0.2793213E+04  0.7818609E-02  0.8305379E-01
        1   -1    0    0  501    0  0.00000000000E+00  0.00000000000E+00  0.92456416320E+03  0.92456416321E+03  0.50400001928E-02 0.  1.
       -1   -1    0    0    0  501  0.00000000000E+00  0.00000000000E+00 -0.21096530166E+04  0.21096530166E+04  0.50400001928E-02 0. -1.
    10030    2    1    2    0    0  0.00000000000E+00  0.00000000000E+00 -0.11850888534E+04  0.30342171798E+04  0.27932128999E+04 0.  0.
        2    1    3    3  502    0 -0.68654300577E+02  0.13915764205E+04 -0.48772395113E+03  0.14761683507E+04  0.25500000920E-02 0.  1.
       -2    1    3    3    0  502  0.68654300577E+02 -0.13915764205E+04 -0.69736490229E+03  0.15580488291E+04  0.25500000920E-02 0. -1.
</event>
<event>
 5   0  0.2234068E-06  0.2814739E+04  0.7818609E-02  0.8298707E-01
        1   -1    0    0  501    0  0.00000000000E+00  0.00000000000E+00  0.25214888788E+04  0.25214888788E+04  0.50400001928E-02 0. -1.
       -1   -1    0    0    0  501  0.00000000000E+00  0.00000000000E+00 -0.78552363001E+03  0.78552363003E+03  0.50400001928E-02 0.  1.
    10030    2    1    2    0    0  0.00000000000E+00  0.00000000000E+00  0.17359652488E+04  0.33070125089E+04  0.28147391333E+04 0.  0.
        3    1    3    3  502    0  0.12723321731E+04  0.53142251128E+03  0.53681737778E+03  0.14796661621E+04  0.10100000352E+00 0. -1.
       -3    1    3    3    0  502 -0.12723321731E+04 -0.53142251128E+03  0.11991478710E+04  0.18273463467E+04  0.10100000352E+00 0.  1.
</event>
<event>
 5   0  0.2206967E-06  0.2813696E+04  0.7818609E-02  0.8299029E-01
       -1   -1    0    0    0  501  0.00000000000E+00  0.00000000000E+00  0.71731003581E+03  0.71731003583E+03  0.50400001928E-02 0. -1.
        1   -1    0    0  501    0  0.00000000000E+00  0.00000000000E+00 -0.27592275659E+04  0.27592275659E+04  0.50400001928E-02 0.  1.
    10030    2    1    2    0    0  0.00000000000E+00  0.00000000000E+00 -0.20419175301E+04  0.34765376017E+04  0.28136962339E+04 0.  0.
        5    1    3    3  502    0  0.88656732755E+01  0.11595883916E+04 -0.20051448426E+04  0.23163228980E+04  0.46999998093E+01 0.  1.
       -5    1    3    3    0  502 -0.88656732755E+01 -0.11595883916E+04 -0.36772687483E+02  0.11602147037E+04  0.46999998093E+01 0. -1.
</event>
<event>
 5   0  0.5916603E-06  0.2737169E+04  0.7818609E-02  0.8323045E-01
        2   -1    0    0  501    0  0.00000000000E+00  0.00000000000E+00  0.10722578324E+04  0.10722578324E+04  0.25500000920E-02 0. -1.
       -2   -1    0    0    0  501  0.00000000000E+00  0.00000000000E+00 -0.17468031618E+04  0.17468031618E+04  0.25500000920E-02 0.  1.
    10030    2    1    2    0    0  0.00000000000E+00  0.00000000000E+00 -0.67454532937E+03  0.28190609942E+04  0.27371688819E+04 0.  0.
        2    1    3    3  502    0 -0.29895467045E+03 -0.92789497845E+03  0.65201778357E+03  0.11728129331E+04  0.25500000920E-02 0. -1.
       -2    1    3    3    0  502  0.29895467045E+03  0.92789497845E+03 -0.13265631129E+04  0.16462480611E+04  0.25500000920E-02 0.  1.
</event>
<event>
 5   0  0.5584205E-06  0.2801654E+04  0.7818609E-02  0.8302755E-01
       -2   -1    0    0    0  501  0.00000000000E+00  0.00000000000E+00  0.88618126091E+03  0.88618126091E+03  0.25500000920E-02 0.  1.
        2   -1    0    0  501    0  0.00000000000E+00  0.00000000000E+00 -0.22143511133E+04  0.22143511133E+04  0.25500000920E-02 0. -1.
    10030    2    1    2    0    0  0.00000000000E+00  0.00000000000E+00 -0.13281698524E+04  0.31005323743E+04  0.28016541269E+04 0.  0.
        1    1    3    3  502    0  0.55537173358E+03  0.33343696985E+03  0.71047056736E+03  0.96145015598E+03  0.50400001928E-02 0.  1.
       -1    1    3    3    0  502 -0.55537173358E+03 -0.33343696985E+03 -0.20386404198E+04  0.21390822183E+04  0.50400001928E-02 0. -1.
</event>
<event>
 5   0  0.5625245E-06  0.2728335E+04  0.7818609E-02  0.8325869E-01
       -2   -1    0    0    0  501  0.00000000000E+00  0.00000000000E+00  0.10625312073E+04  0.10625312073E+04  0.25500000920E-02 0. -1.
        2   -1    0    0  501    0  0.00000000000E+00  0.00000000000E+00 -0.17514335230E+04  0.17514335230E+04  0.25500000920E-02 0.  1.
    10030    2    1    2    0    0  0.00000000000E+00  0.00000000000E+00 -0.68890231572E+03  0.28139647302E+04  0.27283348589E+04 0.  0.
        3    1    3    3  502    0 -0.37382045423E+03 -0.13018974759E+04 -0.51163104961E+03  0.14479106018E+04  0.10100000352E+00 0.  1.
       -3    1    3    3    0  502  0.37382045423E+03  0.13018974759E+04 -0.17727126611E+03  0.13660541284E+04  0.10100000352E+00 0. -1.
</event>
<event>
 5   0  0.2190865E-06  0.2781036E+04  0.7818609E-02  0.8309180E-01
       -1   -1    0    0    0  501  0.00000000000E+00  0.00000000000E+00  0.94700535482E+03  0.94700535483E+03  0.50400001928E-02 0. -1.
        1   -1    0    0  501    0  0.00000000000E+00  0.00000000000E+00 -0.20417413180E+04  0.20417413180E+04  0.50400001928E-02 0.  1.
    10030    2    1    2    0    0  0.00000000000E+00  0.00000000000E+00 -0.10947359632E+04  0.29887466728E+04  0.27810357505E+04 0.  0.
        2    1    3    3  502    0  0.77917119770E+03 -0.87110477623E+03 -0.13570361134E+04  0.17909434105E+04  0.25500000920E-02 0.  1.
       -2    1    3    3    0  502 -0.77917119770E+03  0.87110477623E+03  0.26230015022E+03  0.11978032624E+04  0.25500000920E-02 0. -1.
</event>
<event>
 5   0  0.5546570E-06  0.2806790E+04  0.7818609E-02  0.8301163E-01
        2   -1    0    0  501    0  0.00000000000E+00  0.00000000000E+00  0.19079681855E+04  0.19079681855E+04  0.25500000920E-02 0.  1.
       -2   -1    0    0    0  501  0.00000000000E+00  0.00000000000E+00 -0.10322592540E+04  0.10322592540E+04  0.25500000920E-02 0. -1.
    10030    2    1    2    0    0  0.00000000000E+00  0.00000000000E+00  0.87570893142E+03  0.29402274395E+04  0.28067902065E+04 0.  0.
        4    1    3    3  502    0  0.22106565814E+03  0.28952505666E+03  0.18575801568E+04  0.18929607591E+04  0.12699999809E+01 0.  1.
       -4    1    3    3    0  502 -0.22106565814E+03 -0.28952505666E+03 -0.98187122540E+03  0.10472666804E+04  0.12699999809E+01 0. -1.
</event>
<event>
 5   0  0.5584205E-06  0.2789439E+04  0.7818609E-02  0.8306555E-01
        2   -1    0    0  501    0  0.00000000000E+00  0.00000000000E+00  0.11209988742E+04  0.11209988742E+04  0.25500000920E-02 0. -1.
       -2   -1    0    0    0  501  0.00000000000E+00  0.00000000000E+00 -0.17352762086E+04  0.17352762086E+04  0.25500000920E-02 0.  1.
    10030    2    1    2    0    0  0.00000000000E+00  0.00000000000E+00 -0.61427733442E+03  0.28562750828E+04  0.27894391381E+04 0.  0.
        1    1    3    3  502    0  0.21059109300E+02 -0.11412417965E+04 -0.11278199586E+04  0.16046352181E+04  0.50400001928E-02 0.  1.
       -1    1    3    3    0  502 -0.21059109300E+02  0.11412417965E+04  0.51354262414E+03  0.12516398647E+04  0.50400001928E-02 0. -1.
</event>
<event>
 5   0  0.2277133E-06  0.2921136E+04  0.7818609E-02  0.8266616E-01
       -1   -1    0    0    0  501  0.00000000000E+00  0.00000000000E+00  0.95154583138E+03  0.95154583139E+03  0.50400001928E-02 0.  1.
        1   -1    0    0  501    0  0.00000000000E+00  0.00000000000E+00 -0.22418880454E+04  0.22418880454E+04  0.50400001928E-02 0. -1.
    10030    2    1    2    0    0  0.00000000000E+00  0.00000000000E+00 -0.12903422140E+04  0.31934338768E+04  0.29211362337E+04 0.  0.
        1    1    3    3  502    0  0.11599627880E+03  0.62565677994E+03  0.79204782161E+03  0.10159927631E+04  0.50400001928E-02 0.  1.
       -1    1    3    3    0  502 -0.11599627880E+03 -0.62565677994E+03 -0.20823900356E+04  0.21774411136E+04  0.50400001928E-02 0. -1.
</event>
<event>
 5   0  0.2206967E-06  0.2755452E+04  0.7818609E-02  0.8317234E-01
       -1   -1    0    0    0  501  0.00000000000E+00  0.00000000000E+00  0.11068467924E+04  0.11068467925E+04  0.50400001928E-02 0.  1.
        1   -1    0    0  501    0  0.00000000000E+00  0.00000000000E+00 -0.17148970209E+04  0.17148970209E+04  0.50400001928E-02 0. -1.
    10030    2    1    2    0    0  0.00000000000E+00  0.00000000000E+00 -0.60805022842E+03  0.28217438133E+04  0.27554515180E+04 0.  0.
        5    1    3    3  502    0  0.81833753936E+03  0.17919785259E+03 -0.14241027404E+04  0.16522345184E+04  0.46999998093E+01 0. -1.
       -5    1    3    3    0  502 -0.81833753936E+03 -0.17919785259E+03  0.81605251193E+03  0.11695092949E+04  0.46999998093E+01 0.  1.
</event>
<event>
 5   0  0.5866136E-06  0.2865763E+04  0.7818609E-02  0.8283137E-01
       -2   -1    0    0    0  501  0.00000000000E+00  0.00000000000E+00  0.68294577446E+03  0.68294577446E+03  0.25500000920E-02 0. -1.
        2   -1    0    0  501    0  0.00000000000E+00  0.00000000000E+00 -0.30063148853E+04  0.30063148853E+04  0.25500000920E-02 0.  1.
    10030    2    1    2    0    0  0.00000000000E+00  0.00000000000E+00 -0.23233691108E+04  0.36892606597E+04  0.28657634568E+04 0.  0.
        5    1    3    3  502    0 -0.40139790143E+03  0.38764920082E+03  0.53730276248E+03  0.77466671978E+03  0.46999998093E+01 0. -1.
       -5    1    3    3    0  502  0.40139790143E+03 -0.38764920082E+03 -0.28606718733E+04  0.29145939399E+04  0.46999998093E+01 0.  1.
</event>
<event>
 5   0  0.5866136E-06  0.3010770E+04  0.7818609E-02  0.8240662E-01
       -2   -1    0    0    0  501  0.00000000000E+00  0.00000000000E+00  0.12910020939E+04  0.12910020939E+04  0.25500000920E-02 0. -1.
        2   -1    0    0  501    0  0.00000000000E+00  0.00000000000E+00 -0.17553683480E+04  0.17553683480E+04  0.25500000920E-02 0.  1.
    10030    2    1    2    0    0  0.00000000000E+00  0.00000000000E+00 -0.46436625408E+03  0.30463704419E+04  0.30107701426E+04 0.  0.
        5    1    3    3  502    0  0.37972823062E+03  0.64623419249E+03 -0.15531274113E+04  0.17245402304E+04  0.46999998093E+01 0.  1.
       -5    1    3    3    0  502 -0.37972823062E+03 -0.64623419249E+03  0.10887611572E+04  0.13218302115E+04  0.46999998093E+01 0. -1.
</event>
<event>
 5   0  0.5866136E-06  0.2831456E+04  0.7818609E-02  0.8293569E-01
       -2   -1    0    0    0  501  0.00000000000E+00  0.00000000000E+00  0.11078451690E+04  0.11078451690E+04  0.25500000920E-02 0. -1.
        2   -1    0    0  501    0  0.00000000000E+00  0.00000000000E+00 -0.18091749261E+04  0.18091749261E+04  0.25500000920E-02 0.  1.
    10030    2    1    2    0    0  0.00000000000E+00  0.00000000000E+00 -0.70132975710E+03  0.29170200952E+04  0.28314559519E+04 0.  0.
        5    1    3    3  502    0 -0.71587618045E+03 -0.73657105926E+03  0.65307100890E+03  0.12171850573E+04  0.46999998093E+01 0. -1.
       -5    1    3    3    0  502  0.71587618045E+03  0.73657105926E+03 -0.13544007660E+04  0.16998350379E+04  0.46999998093E+01 0.  1.
</event>
<event>
 5   0  0.5546570E-06  0.2797784E+04  0.7818609E-02  0.8303957E-01
       -2   -1    0    0    0  501  0.00000000000E+00  0.00000000000E+00  0.97070685577E+03  0.97070685577E+03  0.25500000920E-02 0. -1.
        2   -1    0    0  501    0  0.00000000000E+00  0.00000000000E+00 -0.20159523015E+04  0.20159523015E+04  0.25500000920E-02 0.  1.
    10030    2    1    2    0    0  0.00000000000E+00  0.00000000000E+00 -0.10452454457E+04  0.29866591572E+04  0.27977839230E+04 0.  0.
        4    1    3    3  502    0 -0.53090923184E+03 -0.12858593573E+04 -0.67950733560E+03  0.15482347145E+04  0.12699999809E+01 0. -1.
       -4    1    3    3    0  502  0.53090923184E+03  0.12858593573E+04 -0.36573811010E+03  0.14384244427E+04  0.12699999809E+01 0.  1.
</event>
<event>
 5   0  0.5546570E-06  0.2677182E+04  0.7818609E-02  0.8342447E-01
       -2   -1    0    0    0  501  0.00000000000E+00  0.00000000000E+00  0.68187404543E+03  0.68187404543E+03  0.25500000920E-02 0.  1.
        2   -1    0    0  501    0  0.00000000000E+00  0.00000000000E+00 -0.26277962266E+04  0.26277962266E+04  0.25500000920E-02 0. -1.
    10030    2    1    2    0    0  0.00000000000E+00  0.00000000000E+00 -0.19459221811E+04  0.33096702720E+04  0.26771821332E+04 0.  0.
        4    1    3    3  502    0 -0.58624870796E+03  0.97409652667E+03 -0.99435199760E+02  0.11412451808E+04  0.12699999809E+01 0.  1.
       -4    1    3    3    0  502  0.58624870796E+03 -0.97409652667E+03 -0.18464869814E+04  0.21684250912E+04  0.12699999809E+01 0. -1.
</event>
<event>
 5   0  0.2206967E-06  0.2790031E+04  0.7818609E-02  0.8306370E-01
       -1   -1    0    0    0  501  0.00000000000E+00  0.00000000000E+00  0.10767104092E+04  0.10767104092E+04  0.50400001928E-02 0. -1.
        1   -1    0    0  501    0  0.00000000000E+00  0.00000000000E+00 -0.18074208071E+04  0.18074208071E+04  0.50400001928E-02 0.  1.
    10030    2    1    2    0    0  0.00000000000E+00  0.00000000000E+00 -0.73071039788E+03  0.28841312163E+04  0.27900313954E+04 0.  0.
        5    1    3    3  502    0  0.12276917358E+04 -0.60888081871E+03 -0.63508442173E+03  0.15104029801E+04  0.46999998093E+01 0.  1.
       -5    1    3    3    0  502 -0.12276917358E+04  0.60888081871E+03 -0.95625976152E+02  0.13737282362E+04  0.46999998093E+01 0. -1.
</event>
<event>
 5   0  0.5625245E-06  0.2817768E+04  0.7818609E-02  0.8297773E-01
        2   -1    0    0  501    0  0.00000000000E+00  0.00000000000E+00  0.89847171326E+03  0.89847171326E+03  0.25500000920E-02 0.  1.
       -2   -1    0    0    0  501  0.00000000000E+00  0.00000000000E+00 -0.22092564120E+04  0.22092564120E+04  0.25500000920E-02 0. -1.
    10030    2    1    2    0    0  0.00000000000E+00  0.00000000000E+00 -0.13107846987E+04  0.31077281252E+04  0.28177681902E+04 0.  0.
        3    1    3    3  502    0 -0.67095148790E+03  0.12322782449E+03  0.70417727716E+03  0.98042166628E+03  0.10100000352E+00 0.  1.
       -3    1    3    3    0  502  0.67095148790E+03 -0.12322782449E+03 -0.20149619759E+04  0.21273064589E+04  0.10100000352E+00 0. -1.
</event>
<event>
 5   0  0.5916603E-06  0.2746087E+04  0.7818609E-02  0.8320204E-01
       -2   -1    0    0    0  501  0.00000000000E+00  0.00000000000E+00  0.13358105430E+04  0.13358105430E+04  0.25500000920E-02 0.  1.
        2   -1    0    0  501    0  0.00000000000E+00  0.00000000000E+00 -0.14113147022E+04  0.14113147022E+04  0.25500000920E-02 0. -1.
    10030    2    1    2    0    0  0.00000000000E+00  0.00000000000E+00 -0.75504159203E+02  0.27471252451E+04  0.27460874411E+04 0.  0.
        2    1    3    3  502    0 -0.12678548571E+04 -0.18165769886E+03 -0.53270526998E+03  0.13871663068E+04  0.25500000920E-02 0. -1.
       -2    1    3    3    0  502  0.12678548571E+04  0.18165769886E+03  0.45720111078E+03  0.13599589383E+04  0.25500000920E-02 0.  1.
</event>
<event>
 5   0  0.2234068E-06  0.2815204E+04  0.7818609E-02  0.8298564E-01
       -1   -1    0    0    0  501  0.00000000000E+00  0.00000000000E+00  0.10047012615E+04  0.10047012615E+04  0.50400001928E-02 0.  1.
        1   -1    0    0  501    0  0.00000000000E+00  0.00000000000E+00 -0.19720726015E+04  0.19720726015E+04  0.50400001928E-02 0. -1.
    10030    2    1    2    0    0  0.00000000000E+00  0.00000000000E+00 -0.96737134004E+03  0.29767738630E+04  0.28152043126E+04 0.  0.
        3    1    3    3  502    0  0.77421895067E+03 -0.78042237798E+02 -0.17239653074E+04  0.18914444125E+04  0.10100000352E+00 0. -1.
       -3    1    3    3    0  502 -0.77421895067E+03  0.78042237798E+02  0.75659396734E+03  0.10853294505E+04  0.10100000352E+00 0.  1.
</event>
<event>
 5   0  0.5866136E-06  0.2762002E+04  0.7818609E-02  0.8315163E-01
        2   -1    0    0  501    0  0.00000000000E+00  0.00000000000E+00  0.23196555134E+04  0.23196555134E+04  0.25500000920E-02 0. -1.
       -2   -1    0    0    0  501  0.00000000000E+00  0.00000000000E+00 -0.82217545028E+03  0.82217545029E+03  0.25500000920E-02 0.  1.
    10030    2    1    2    0    0  0.00000000000E+00  0.00000000000E+00  0.14974800631E+04  0.31418309637E+04  0.27620020393E+04 0.  0.
        5    1    3    3  502    0  0.85529468312E+03 -0.10009133950E+04  0.12229439065E+04  0.17969336403E+04  0.46999998093E+01 0. -1.
       -5    1    3    3    0  502 -0.85529468312E+03  0.10009133950E+04  0.27453615667E+03  0.13448973234E+04  0.46999998093E+01 0.  1.
</event>
<event>
 5   0  0.5916603E-06  0.2792566E+04  0.7818609E-02  0.8305580E-01
        2   -1    0    0  501    0  0.00000000000E+00  0.00000000000E+00  0.12529163799E+04  0.12529163799E+04  0.25500000920E-02 0.  1.
       -2   -1    0    0    0  501  0.00000000000E+00  0.00000000000E+00 -0.15560544201E+04  0.15560544201E+04  0.25500000920E-02 0. -1.
    10030    2    1    2    0    0  0.00000000000E+00  0.00000000000E+00 -0.30313804017E+03  0.28089708000E+04  0.27925658961E+04 0.  0.
        2    1    3    3  502    0  0.96810258245E+03  0.17310482157E+03  0.84542370734E+03  0.12968921059E+04  0.25500000920E-02 0.  1.
       -2    1    3    3    0  502 -0.96810258245E+03 -0.17310482157E+03 -0.11485617475E+04  0.15120786941E+04  0.25500000920E-02 0. -1.
</event>
<event>
 5   0  0.2277133E-06  0.2824259E+04  0.7818609E-02  0.8295776E-01
       -1   -1    0    0    0  501  0.00000000000E+00  0.00000000000E+00  0.82257012951E+03  0.82257012953E+03  0.50400001928E-02 0.  1.
        1   -1    0    0  501    0  0.00000000000E+00  0.00000000000E+00 -0.24242434185E+04  0.24242434185E+04  0.50400001928E-02 0. -1.
    10030    2    1    2    0    0  0.00000000000E+00  0.00000000000E+00 -0.16016732890E+04  0.32468135481E+04  0.28242593527E+04 0.  0.
        1    1    3    3  502    0 -0.16465611624E+03  0.86177462898E+03 -0.20728871019E+04  0.22509171653E+04  0.50400001928E-02 0. -1.
       -1    1    3    3    0  502  0.16465611624E+03 -0.86177462898E+03  0.47121381287E+03  0.99589638278E+03  0.50400001928E-02 0.  1.
</event>
<event>
 5   0  0.5866136E-06  0.2829594E+04  0.7818609E-02  0.8294139E-01
       -2   -1    0    0    0  501  0.00000000000E+00  0.00000000000E+00  0.10248777234E+04  0.10248777234E+04  0.25500000920E-02 0. -1.
        2   -1    0    0  501    0  0.00000000000E+00  0.00000000000E+00 -0.19530623819E+04  0.19530623819E+04  0.25500000920E-02 0.  1.
    10030    2    1    2    0    0  0.00000000000E+00  0.00000000000E+00 -0.92818465851E+03  0.29779401053E+04  0.28295937006E+04 0.  0.
        5    1    3    3  502    0  0.60500293655E+03 -0.98465011074E+03 -0.13230064509E+04  0.17566822572E+04  0.46999998093E+01 0. -1.
       -5    1    3    3    0  502 -0.60500293655E+03  0.98465011074E+03  0.39482179235E+03  0.12212578481E+04  0.46999998093E+01 0.  1.
</event>
<event>
 5   0  0.5866136E-06  0.2536688E+04  0.7818609E-02  0.8390031E-01
        2   -1    0    0  501    0  0.00000000000E+00  0.00000000000E+00  0.19341378569E+04  0.19341378569E+04  0.25500000920E-02 0. -1.
       -2   -1    0    0    0  501  0.00000000000E+00  0.00000000000E+00 -0.83173846541E+03  0.83173846541E+03  0.25500000920E-02 0.  1.
    10030    2    1    2    0    0  0.00000000000E+00  0.00000000000E+00  0.11023993915E+04  0.27658763223E+04  0.25366882765E+04 0.  0.
        5    1    3    3  502    0 -0.73127171105E+03  0.28600477711E+03  0.16372432863E+04  0.18158041515E+04  0.46999998093E+01 0. -1.
       -5    1    3    3    0  502  0.73127171105E+03 -0.28600477711E+03 -0.53484389485E+03  0.95007217082E+03  0.46999998093E+01 0.  1.
</event>
<event>
 5   0  0.5625245E-06  0.2795361E+04  0.7818609E-02  0.8304710E-01
        2   -1    0    0  501    0  0.00000000000E+00  0.00000000000E+00  0.26765755968E+04  0.26765755968E+04  0.25500000920E-02 0.  1.
       -2   -1    0    0    0  501  0.00000000000E+00  0.00000000000E+00 -0.72985440476E+03  0.72985440476E+03  0.25500000920E-02 0. -1.
    10030    2    1    2    0    0  0.00000000000E+00  0.00000000000E+00  0.19467211921E+04  0.34064300016E+04  0.27953607918E+04 0.  0.
        3    1    3    3  502    0 -0.12045623774E+03  0.43478101749E+03 -0.63868170945E+03  0.78195816677E+03  0.10100000352E+00 0. -1.
       -3    1    3    3    0  502  0.12045623774E+03 -0.43478101749E+03  0.25854029015E+04  0.26244718348E+04  0.10100000352E+00 0.  1.
</event>
<event>
 5   0  0.2190865E-06  0.2805628E+04  0.7818609E-02  0.8301523E-01
       -1   -1    0    0    0  501  0.00000000000E+00  0.00000000000E+00  0.14999374387E+04  0.14999374387E+04  0.50400001928E-02 0. -1.
        1   -1    0    0  501    0  0.00000000000E+00  0.00000000000E+00 -0.13119793280E+04  0.13119793280E+04  0.50400001928E-02 0.  1.
    10030    2    1    2    0    0  0.00000000000E+00  0.00000000000E+00  0.18795811071E+03  0.28119167666E+04  0.28056278533E+04 0.  0.
        2    1    3    3  502    0 -0.45193469602E+03 -0.11234214377E+04  0.80377993820E+03  0.14534038961E+04  0.25500000920E-02 0.  1.
       -2    1    3    3    0  502  0.45193469602E+03  0.11234214377E+04 -0.61582182749E+03  0.13585128705E+04  0.25500000920E-02 0. -1.
</event>
<event>
 5   0  0.2206967E-06  0.2795366E+04  0.7818609E-02  0.8304708E-01
       -1   -1    0    0    0  501  0.00000000000E+00  0.00000000000E+00  0.95566022123E+03  0.95566022124E+03  0.50400001928E-02 0. -1.
        1   -1    0    0  501    0  0.00000000000E+00  0.00000000000E+00 -0.20441556255E+04  0.20441556255E+04  0.50400001928E-02 0.  1.
    10030    2    1    2    0    0  0.00000000000E+00  0.00000000000E+00 -0.10884954043E+04  0.29998158467E+04  0.27953663211E+04 0.  0.
        5    1    3    3  502    0 -0.11923663584E+04 -0.47549253749E+03  0.49058702692E+02  0.12846242767E+04  0.46999998093E+01 0. -1.
       -5    1    3    3    0  502  0.11923663584E+04  0.47549253749E+03 -0.11375541070E+04  0.17151915701E+04  0.46999998093E+01 0.  1.
</event>
<event>
 5   0  0.5916603E-06  0.2795298E+04  0.7818609E-02  0.8304730E-01
       -2   -1    0    0    0  501  0.00000000000E+00  0.00000000000E+00  0.70543105376E+03  0.70543105377E+03  0.25500000920E-02 0.  1.
        2   -1    0    0  501    0  0.00000000000E+00  0.00000000000E+00 -0.27691190197E+04  0.27691190197E+04  0.25500000920E-02 0. -1.
    10030    2    1    2    0    0  0.00000000000E+00  0.00000000000E+00 -0.20636879660E+04  0.34745500735E+04  0.27952978718E+04 0.  0.
        2    1    3    3  502    0  0.99845239378E+03 -0.76610579829E+03 -0.17875186427E+04  0.21861034227E+04  0.25500000920E-02 0. -1.
       -2    1    3    3    0  502 -0.99845239378E+03  0.76610579829E+03 -0.27616932329E+03  0.12884466508E+04  0.25500000920E-02 0.  1.
</event>
<event>
 5   0  0.5584205E-06  0.2799112E+04  0.7818609E-02  0.8303544E-01
        2   -1    0    0  501    0  0.00000000000E+00  0.00000000000E+00  0.22489384732E+04  0.22489384732E+04  0.25500000920E-02 0.  1.
       -2   -1    0    0    0  501  0.00000000000E+00  0.00000000000E+00 -0.87096974392E+03  0.87096974392E+03  0.25500000920E-02 0. -1.
    10030    2    1    2    0    0  0.00000000000E+00  0.00000000000E+00  0.13779687293E+04  0.31199082171E+04  0.27991122636E+04 0.  0.
        1    1    3    3  502    0 -0.62384011949E+03 -0.81594956084E+03  0.17486269311E+04  0.20279660561E+04  0.50400001928E-02 0.  1.
       -1    1    3    3    0  502  0.62384011949E+03  0.81594956084E+03 -0.37065820177E+03  0.10919421611E+04  0.50400001928E-02 0. -1.
</event>
<event>
 5   0  0.2267565E-06  0.2806341E+04  0.7818609E-02  0.8301303E-01
        1   -1    0    0  501    0  0.00000000000E+00  0.00000000000E+00  0.20857466488E+04  0.20857466488E+04  0.50400001928E-02 0.  1.
       -1   -1    0    0    0  501  0.00000000000E+00  0.00000000000E+00 -0.94397228569E+03  0.94397228570E+03  0.50400001928E-02 0. -1.
    10030    2    1    2    0    0  0.00000000000E+00  0.00000000000E+00  0.11417743631E+04  0.30297189345E+04  0.28063407002E+04 0.  0.
        4    1    3    3  502    0 -0.11617180789E+04 -0.24784549615E+03 -0.23547121534E+03  0.12109767095E+04  0.12699999809E+01 0. -1.
       -4    1    3    3    0  502  0.11617180789E+04  0.24784549615E+03  0.13772455784E+04  0.18187422250E+04  0.12699999809E+01 0.  1.
</event>
<event>
 5   0  0.2234068E-06  0.2771532E+04  0.7818609E-02  0.8312162E-01
       -1   -1    0    0    0  501  0.00000000000E+00  0.00000000000E+00  0.10522143763E+04  0.10522143763E+04  0.50400001928E-02 0. -1.
        1   -1    0    0  501    0  0.00000000000E+00  0.00000000000E+00 -0.18250529654E+04  0.18250529654E+04  0.50400001928E-02 0.  1.
    10030    2    1    2    0    0  0.00000000000E+00  0.00000000000E+00 -0.77283858913E+03  0.28772673417E+04  0.27715316832E+04 0.  0.
        3    1    3    3  502    0  0.23017210508E+03  0.13514740480E+04 -0.17650314070E+03  0.13822498577E+04  0.10100000352E+00 0. -1.
       -3    1    3    3    0  502 -0.23017210508E+03 -0.13514740480E+04 -0.59633544844E+03  0.14950174840E+04  0.10100000352E+00 0.  1.
</event>
<event>
 5   0  0.5916603E-06  0.2806511E+04  0.7818609E-02  0.8301250E-01
        2   -1    0    0  501    0  0.00000000000E+00  0.00000000000E+00  0.10861400174E+04  0.10861400174E+04  0.25500000920E-02 0.  1.
       -2   -1    0    0    0  501  0.00000000000E+00  0.00000000000E+00 -0.18129577496E+04  0.18129577496E+04  0.25500000920E-02 0. -1.
    10030    2    1    2    0    0  0.00000000000E+00  0.00000000000E+00 -0.72681773220E+03  0.28990977670E+04  0.28065109740E+04 0.  0.
        2    1    3    3  502    0  0.25513693574E+03 -0.13588780123E+04 -0.11574608657E+03  0.13874586354E+04  0.25500000920E-02 0. -1.
       -2    1    3    3    0  502 -0.25513693574E+03  0.13588780123E+04 -0.61107164563E+03  0.15116391317E+04  0.25500000920E-02 0.  1.
</event>
<event>
 5   0  0.2234068E-06  0.2790239E+04  0.7818609E-02  0.8306305E-01
       -1   -1    0    0    0  501  0.00000000000E+00  0.00000000000E+00  0.14103790731E+04  0.14103790732E+04  0.50400001928E-02 0.  1.
        1   -1    0    0  501    0  0.00000000000E+00  0.00000000000E+00 -0.13800250543E+04  0.13800250543E+04  0.50400001928E-02 0. -1.
    10030    2    1    2    0    0  0.00000000000E+00  0.00000000000E+00  0.30354018856E+02  0.27904041275E+04  0.27902390270E+04 0.  0.
        3    1    3    3  502    0 -0.10421261525E+04  0.49859031657E+03 -0.76700687017E+03  0.13866934667E+04  0.10100000352E+00 0. -1.
       -3    1    3    3    0  502  0.10421261525E+04 -0.49859031657E+03  0.79736088902E+03  0.14037106607E+04  0.10100000352E+00 0.  1.
</event>
<event>
 5   0  0.2277133E-06  0.2813259E+04  0.7818609E-02  0.8299164E-01
        1   -1    0    0  501    0  0.00000000000E+00  0.00000000000E+00  0.14548898227E+04  0.14548898227E+04  0.50400001928E-02 0.  1.
       -1   -1    0    0    0  501  0.00000000000E+00  0.00000000000E+00 -0.13599700802E+04  0.13599700802E+04  0.50400001928E-02 0. -1.
    10030    2    1    2    0    0  0.00000000000E+00  0.00000000000E+00  0.94919742455E+02  0.28148599029E+04  0.28132590559E+04 0.  0.
        1    1    3    3  502    0  0.10388460214E+04  0.94836807606E+03  0.49349060852E+02  0.14074936567E+04  0.50400001928E-02 0.  1.
       -1    1    3    3    0  502 -0.10388460214E+04 -0.94836807606E+03  0.45570681602E+02  0.14073662462E+04  0.50400001928E-02 0. -1.
</event>
<event>
 5   0  0.2190865E-06  0.2795750E+04  0.7818609E-02  0.8304589E-01
       -1   -1    0    0    0  501  0.00000000000E+00  0.00000000000E+00  0.14974005584E+04  0.14974005584E+04  0.50400001928E-02 0.  1.
        1   -1    0    0  501    0  0.00000000000E+00  0.00000000000E+00 -0.13049645594E+04  0.13049645594E+04  0.50400001928E-02 0. -1.
    10030    2    1    2    0    0  0.00000000000E+00  0.00000000000E+00  0.19243599900E+03  0.28023651178E+04  0.27957501032E+04 0.  0.
        2    1    3    3  502    0  0.46287434329E+03  0.80740453856E+03  0.11417103028E+04  0.14729756149E+04  0.25500000920E-02 0.  1.
       -2    1    3    3    0  502 -0.46287434329E+03 -0.80740453856E+03 -0.94927430377E+03  0.13293895029E+04  0.25500000920E-02 0. -1.
</event>
<event>
 5   0  0.5546570E-06  0.2656771E+04  0.7818609E-02  0.8349169E-01
       -2   -1    0    0    0  501  0.00000000000E+00  0.00000000000E+00  0.12751905709E+04  0.12751905709E+04  0.25500000920E-02 0. -1.
        2   -1    0    0  501    0  0.00000000000E+00  0.00000000000E+00 -0.13837999638E+04  0.13837999638E+04  0.25500000920E-02 0.  1.
    10030    2    1    2    0    0  0.00000000000E+00  0.00000000000E+00 -0.10860939295E+03  0.26589905347E+04  0.26567714737E+04 0.  0.
        4    1    3    3  502    0  0.92924543765E+03 -0.32855465556E+03 -0.94564488607E+03  0.13659030378E+04  0.12699999809E+01 0.  1.
       -4    1    3    3    0  502 -0.92924543765E+03  0.32855465556E+03  0.83703549311E+03  0.12930874969E+04  0.12699999809E+01 0. -1.
</event>
<event>
 5   0  0.1901375E-06  0.2807222E+04  0.7818609E-02  0.8301030E-01
        4   -1    0    0  501    0  0.00000000000E+00  0.00000000000E+00  0.16122941260E+04  0.16122946262E+04  0.12699999809E+01 0.  1.
       -4   -1    0    0    0  501  0.00000000000E+00  0.00000000000E+00 -0.12219372704E+04  0.12219379304E+04  0.12699999809E+01 0. -1.
    10030    2    1    2    0    0  0.00000000000E+00  0.00000000000E+00  0.39035685558E+03  0.28342325565E+04  0.28072220628E+04 0.  0.
        4    1    3    3  502    0  0.11784127546E+04 -0.12675264222E+03 -0.56398697765E+03  0.13125569612E+04  0.12699999809E+01 0. -1.
       -4    1    3    3    0  502 -0.11784127546E+04  0.12675264222E+03  0.95434383322E+03  0.15216755953E+04  0.12699999809E+01 0.  1.
</event>
<event>
 5   0  0.5546570E-06  0.2760856E+04  0.7818609E-02  0.8315525E-01
        2   -1    0    0  501    0  0.00000000000E+00  0.00000000000E+00  0.15819552919E+04  0.15819552919E+04  0.25500000920E-02 0.  1.
       -2   -1    0    0    0  501  0.00000000000E+00  0.00000000000E+00 -0.12045737212E+04  0.12045737212E+04  0.25500000920E-02 0. -1.
    10030    2    1    2    0    0  0.00000000000E+00  0.00000000000E+00  0.37738157064E+03  0.27865290131E+04  0.27608562243E+04 0.  0.
        4    1    3    3  502    0 -0.20769742195E+03  0.85857422251E+03 -0.88197134443E+03  0.12482639865E+04  0.12699999809E+01 0. -1.
       -4    1    3    3    0  502  0.20769742195E+03 -0.85857422251E+03  0.12593529151E+04  0.15382650267E+04  0.12699999809E+01 0.  1.
</event>
<event>
 5   0  0.5584205E-06  0.2828701E+04  0.7818609E-02  0.8294413E-01
       -2   -1    0    0    0  501  0.00000000000E+00  0.00000000000E+00  0.74787585970E+03  0.74787585970E+03  0.25500000920E-02 0. -1.
        2   -1    0    0  501    0  0.00000000000E+00  0.00000000000E+00 -0.26747592485E+04  0.26747592485E+04  0.25500000920E-02 0.  1.
    10030    2    1    2    0    0  0.00000000000E+00  0.00000000000E+00 -0.19268833888E+04  0.34226351082E+04  0.28287013787E+04 0.  0.
        1    1    3    3  502    0  0.12063875044E+03 -0.13410352642E+04 -0.14873148749E+04  0.20062489439E+04  0.50400001928E-02 0.  1.
       -1    1    3    3    0  502 -0.12063875044E+03  0.13410352642E+04 -0.43956851400E+03  0.14163861643E+04  0.50400001928E-02 0. -1.
</event>
<event>
 5   0  0.5866136E-06  0.2804612E+04  0.7818609E-02  0.8301838E-01
        2   -1    0    0  501    0  0.00000000000E+00  0.00000000000E+00  0.13834133036E+04  0.13834133036E+04  0.25500000920E-02 0.  1.
       -2   -1    0    0    0  501  0.00000000000E+00  0.00000000000E+00 -0.14214564919E+04  0.14214564919E+04  0.25500000920E-02 0. -1.
    10030    2    1    2    0    0  0.00000000000E+00  0.00000000000E+00 -0.38043188256E+02  0.28048697955E+04  0.28046117887E+04 0.  0.
        5    1    3    3  502    0 -0.11007565419E+03  0.11873102779E+04  0.71902826407E+03  0.13924245330E+04  0.46999998093E+01 0.  1.
       -5    1    3    3    0  502  0.11007565419E+03 -0.11873102779E+04 -0.75707145233E+03  0.14124452625E+04  0.46999998093E+01 0. -1.
</event>
<event>
 5   0  0.5625245E-06  0.2866696E+04  0.7818609E-02  0.8282856E-01
       -2   -1    0    0    0  501  0.00000000000E+00  0.00000000000E+00  0.12654622072E+04  0.12654622072E+04  0.25500000920E-02 0. -1.
        2   -1    0    0  501    0  0.00000000000E+00  0.00000000000E+00 -0.16235063979E+04  0.16235063979E+04  0.25500000920E-02 0.  1.
    10030    2    1    2    0    0  0.00000000000E+00  0.00000000000E+00 -0.35804419070E+03  0.28889686051E+04  0.28666956516E+04 0.  0.
        3    1    3    3  502    0  0.20053863636E+03 -0.33748065857E+03  0.12102301968E+04  0.12723073839E+04  0.10100000352E+00 0. -1.
       -3    1    3    3    0  502 -0.20053863636E+03  0.33748065857E+03 -0.15682743875E+04  0.16166612213E+04  0.10100000352E+00 0.  1.
</event>
<event>
 5   0  0.5546570E-06  0.2807528E+04  0.7818609E-02  0.8300935E-01
        2   -1    0    0  501    0  0.00000000000E+00  0.00000000000E+00  0.14826468080E+04  0.14826468080E+04  0.25500000920E-02 0. -1.
       -2   -1    0    0    0  501  0.00000000000E+00  0.00000000000E+00 -0.13290781238E+04  0.13290781238E+04  0.25500000920E-02 0.  1.
    10030    2    1    2    0    0  0.00000000000E+00  0.00000000000E+00  0.15356868428E+03  0.28117249318E+04  0.28075280500E+04 0.  0.
        4    1    3    3  502    0 -0.10351180309E+04 -0.80744334065E+03 -0.42106815338E+03  0.13786711316E+04  0.12699999809E+01 0.  1.
       -4    1    3    3    0  502  0.10351180309E+04  0.80744334065E+03  0.57463683766E+03  0.14330538002E+04  0.12699999809E+01 0. -1.
</event>
<event>
 5   0  0.2234068E-06  0.2813362E+04  0.7818609E-02  0.8299132E-01
       -1   -1    0    0    0  501  0.00000000000E+00  0.00000000000E+00  0.13155901732E+04  0.13155901732E+04  0.50400001928E-02 0.  1.
        1   -1    0    0  501    0  0.00000000000E+00  0.00000000000E+00 -0.15040790597E+04  0.15040790597E+04  0.50400001928E-02 0. -1.
    10030    2    1    2    0    0  0.00000000000E+00  0.00000000000E+00 -0.18848888651E+03  0.28196692329E+04  0.28133621385E+04 0.  0.
        3    1    3    3  502    0 -0.71590663445E+03  0.10537457822E+04 -0.69211268650E+03  0.14498008359E+04  0.10100000352E+00 0. -1.
       -3    1    3    3    0  502  0.71590663445E+03 -0.10537457822E+04  0.50362379999E+03  0.13698683970E+04  0.10100000352E+00 0.  1.
</event>
<event>
 5   0  0.2190865E-06  0.2808230E+04  0.7818609E-02  0.8300718E-01
        1   -1    0    0  501    0  0.00000000000E+00  0.00000000000E+00  0.17033559097E+04  0.17033559097E+04  0.50400001928E-02 0.  1.
       -1   -1    0    0    0  501  0.00000000000E+00  0.00000000000E+00 -0.11574437823E+04  0.11574437823E+04  0.50400001928E-02 0. -1.
    10030    2    1    2    0    0  0.00000000000E+00  0.00000000000E+00  0.54591212741E+03  0.28607996921E+04  0.28082298388E+04 0.  0.
        2    1    3    3  502    0  0.24272529372E+02  0.13088572940E+04 -0.24433115166E+03  0.13316885084E+04  0.25500000920E-02 0. -1.
       -2    1    3    3    0  502 -0.24272529372E+02 -0.13088572940E+04  0.79024327907E+03  0.15291111836E+04  0.25500000920E-02 0.  1.
</event>
<event>
 5   0  0.2206967E-06  0.2784902E+04  0.7818609E-02  0.8307971E-01
       -1   -1    0    0    0  501  0.00000000000E+00  0.00000000000E+00  0.81423145214E+03  0.81423145215E+03  0.50400001928E-02 0. -1.
        1   -1    0    0  501    0  0.00000000000E+00  0.00000000000E+00 -0.23812883421E+04  0.23812883421E+04  0.50400001928E-02 0.  1.
    10030    2    1    2    0    0  0.00000000000E+00  0.00000000000E+00 -0.15670568900E+04  0.31955197943E+04  0.27849020556E+04 0.  0.
        5    1    3    3  502    0  0.21192772895E+03 -0.69839018279E+03  0.57716604164E+03  0.93048639933E+03  0.46999998093E+01 0. -1.
       -5    1    3    3    0  502 -0.21192772895E+03  0.69839018279E+03 -0.21442229316E+04  0.22650333949E+04  0.46999998093E+01 0.  1.
</event>
<event>
 5   0  0.5546570E-06  0.2683378E+04  0.7818609E-02  0.8340418E-01
       -2   -1    0    0    0  501  0.00000000000E+00  0.00000000000E+00  0.11976006021E+04  0.11976006021E+04  0.25500000920E-02 0. -1.
        2   -1    0    0  501    0  0.00000000000E+00  0.00000000000E+00 -0.15031137893E+04  0.15031137893E+04  0.25500000920E-02 0.  1.
    10030    2    1    2    0    0  0.00000000000E+00  0.00000000000E+00 -0.30551318720E+03  0.27007143913E+04  0.26833784519E+04 0.  0.
        4    1    3    3  502    0 -0.13056879343E+04 -0.26881170688E+03 -0.30555191638E+03  0.13676418764E+04  0.12699999809E+01 0. -1.
       -4    1    3    3    0  502  0.13056879343E+04  0.26881170688E+03  0.38729181360E-01  0.13330725149E+04  0.12699999809E+01 0.  1.
</event>
<event>
 5   0  0.2277133E-06  0.2747769E+04  0.7818609E-02  0.8319670E-01
       -1   -1    0    0    0  501  0.00000000000E+00  0.00000000000E+00  0.20215012201E+04  0.20215012202E+04  0.50400001928E-02 0. -1.
        1   -1    0    0  501    0  0.00000000000E+00  0.00000000000E+00 -0.93374086598E+03  0.93374086599E+03  0.50400001928E-02 0.  1.
    10030    2    1    2    0    0  0.00000000000E+00  0.00000000000E+00  0.10877603542E+04  0.29552420861E+04  0.27477687675E+04 0.  0.
        1    1    3    3  502    0 -0.91573097575E+03  0.38632068979E+03  0.15640539325E+04  0.18531248201E+04  0.50400001928E-02 0. -1.
       -1    1    3    3    0  502  0.91573097575E+03 -0.38632068979E+03 -0.47629357829E+03  0.11021172660E+04  0.50400001928E-02 0.  1.
</event>
<event>
 5   0  0.2206967E-06  0.2652898E+04  0.7818609E-02  0.8350452E-01
        1   -1    0    0  501    0  0.00000000000E+00  0.00000000000E+00  0.21329234158E+04  0.21329234159E+04  0.50400001928E-02 0. -1.
       -1   -1    0    0    0  501  0.00000000000E+00  0.00000000000E+00 -0.82490834446E+03  0.82490834448E+03  0.50400001928E-02 0.  1.
    10030    2    1    2    0    0  0.00000000000E+00  0.00000000000E+00  0.13080150714E+04  0.29578317603E+04  0.26528975283E+04 0.  0.
        5    1    3    3  502    0 -0.26288426319E+03 -0.48374717917E+03 -0.69148753246E+03  0.88390981822E+03  0.46999998093E+01 0.  1.
       -5    1    3    3    0  502  0.26288426319E+03  0.48374717917E+03  0.19995026038E+04  0.20739219421E+04  0.46999998093E+01 0. -1.
</event>
<event>
 5   0  0.2277133E-06  0.2809523E+04  0.7818609E-02  0.8300318E-01
        1   -1    0    0  501    0  0.00000000000E+00  0.00000000000E+00  0.14354431768E+04  0.14354431768E+04  0.50400001928E-02 0.  1.
       -1   -1    0    0    0  501  0.00000000000E+00  0.00000000000E+00 -0.13747357031E+04  0.13747357031E+04  0.50400001928E-02 0. -1.
    10030    2    1    2    0    0  0.00000000000E+00  0.00000000000E+00  0.60707473724E+02  0.28101788799E+04  0.28095230805E+04 0.  0.
        1    1    3    3  502    0 -0.43880412183E+03  0.64858439933E+03  0.11968781682E+04  0.14302895266E+04  0.50400001928E-02 0.  1.
       -1    1    3    3    0  502  0.43880412183E+03 -0.64858439933E+03 -0.11361706945E+04  0.13798893533E+04  0.50400001928E-02 0. -1.
</event>
<event>
 5   0  0.2190865E-06  0.2799361E+04  0.7818609E-02  0.8303467E-01
       -1   -1    0    0    0  501  0.00000000000E+00  0.00000000000E+00  0.13416978267E+04  0.13416978267E+04  0.50400001928E-02 0. -1.
        1   -1    0    0  501    0  0.00000000000E+00  0.00000000000E+00 -0.14601692590E+04  0.14601692590E+04  0.50400001928E-02 0.  1.
    10030    2    1    2    0    0  0.00000000000E+00  0.00000000000E+00 -0.11847143224E+03  0.28018670857E+04  0.27993612996E+04 0.  0.
        2    1    3    3  502    0 -0.26083257805E+03  0.95787498948E+03 -0.10468041804E+04  0.14426909306E+04  0.25500000920E-02 0.  1.
       -2    1    3    3    0  502  0.26083257805E+03 -0.95787498948E+03  0.92833274817E+03  0.13591761551E+04  0.25500000920E-02 0. -1.
</event>
<event>
 5   0  0.5866136E-06  0.2790332E+04  0.7818609E-02  0.8306276E-01
       -2   -1    0    0    0  501  0.00000000000E+00  0.00000000000E+00  0.84234090214E+03  0.84234090214E+03  0.25500000920E-02 0.  1.
        2   -1    0    0  501    0  0.00000000000E+00  0.00000000000E+00 -0.23108086893E+04  0.23108086893E+04  0.25500000920E-02 0. -1.
    10030    2    1    2    0    0  0.00000000000E+00  0.00000000000E+00 -0.14684677872E+04  0.31531495915E+04  0.27903323645E+04 0.  0.
        5    1    3    3  502    0  0.13056085528E+04  0.79497510160E+02 -0.18581228755E+03  0.13211668492E+04  0.46999998093E+01 0.  1.
       -5    1    3    3    0  502 -0.13056085528E+04 -0.79497510160E+02 -0.12826554996E+04  0.18319827423E+04  0.46999998093E+01 0. -1.
</event>
<event>
 5   0  0.5546570E-06  0.2738592E+04  0.7818609E-02  0.8322591E-01
       -2   -1    0    0    0  501  0.00000000000E+00  0.00000000000E+00  0.93754297872E+03  0.93754297872E+03  0.25500000920E-02 0. -1.
        2   -1    0    0  501    0  0.00000000000E+00  0.00000000000E+00 -0.19998773620E+04  0.19998773620E+04  0.25500000920E-02 0.  1.
    10030    2    1    2    0    0  0.00000000000E+00  0.00000000000E+00 -0.10623343832E+04  0.29374203407E+04  0.27385915935E+04 0.  0.
        4    1    3    3  502    0 -0.62596094334E+03 -0.45289810318E+03 -0.17437421608E+04  0.19072446437E+04  0.12699999809E+01 0.  1.
       -4    1    3    3    0  502  0.62596094334E+03  0.45289810318E+03  0.68140777759E+03  0.10301756970E+04  0.12699999809E+01 0. -1.
</event>
<event>
 5   0  0.2234068E-06  0.2791603E+04  0.7818609E-02  0.8305880E-01
       -1   -1    0    0    0  501  0.00000000000E+00  0.00000000000E+00  0.12228655254E+04  0.12228655254E+04  0.50400001928E-02 0. -1.
        1   -1    0    0  501    0  0.00000000000E+00  0.00000000000E+00 -0.15931935469E+04  0.15931935469E+04  0.50400001928E-02 0.  1.
    10030    2    1    2    0    0  0.00000000000E+00  0.00000000000E+00 -0.37032802144E+03  0.28160590723E+04  0.27916027395E+04 0.  0.
        3    1    3    3  502    0 -0.60472508368E+03  0.10845884930E+04 -0.82811488465E+03  0.14925812870E+04  0.10100000352E+00 0.  1.
       -3    1    3    3    0  502  0.60472508368E+03 -0.10845884930E+04  0.45778686321E+03  0.13234777853E+04  0.10100000352E+00 0. -1.
</event>
<event>
 5   0  0.2190865E-06  0.2824974E+04  0.7818609E-02  0.8295557E-01
       -1   -1    0    0    0  501  0.00000000000E+00  0.00000000000E+00  0.10615240415E+04  0.10615240415E+04  0.50400001928E-02 0. -1.
        1   -1    0    0  501    0  0.00000000000E+00  0.00000000000E+00 -0.18794855909E+04  0.18794855909E+04  0.50400001928E-02 0.  1.
    10030    2    1    2    0    0  0.00000000000E+00  0.00000000000E+00 -0.81796154944E+03  0.29410096324E+04  0.28249737276E+04 0.  0.
        2    1    3    3  502    0 -0.28230665556E+03  0.31328086021E+03 -0.18124168054E+04  0.18608322390E+04  0.25500000920E-02 0.  1.
       -2    1    3    3    0  502  0.28230665556E+03 -0.31328086021E+03  0.99445525595E+03  0.10801773934E+04  0.25500000920E-02 0. -1.
</event>
<event>
 5   0  0.5546570E-06  0.2838977E+04  0.7818609E-02  0.8291269E-01
       -2   -1    0    0    0  501  0.00000000000E+00  0.00000000000E+00  0.11243728363E+04  0.11243728363E+04  0.25500000920E-02 0.  1.
        2   -1    0    0  501    0  0.00000000000E+00  0.00000000000E+00 -0.17920636139E+04  0.17920636139E+04  0.25500000920E-02 0. -1.
    10030    2    1    2    0    0  0.00000000000E+00  0.00000000000E+00 -0.66769077762E+03  0.29164364501E+04  0.28389770329E+04 0.  0.
        4    1    3    3  502    0 -0.25047464738E+03 -0.51270702724E+03  0.10013633615E+04  0.11525347020E+04  0.12699999809E+01 0.  1.
       -4    1    3    3    0  502  0.25047464738E+03  0.51270702724E+03 -0.16690541391E+04  0.17639017481E+04  0.12699999809E+01 0. -1.
</event>
<event>
 5   0  0.2277133E-06  0.2817130E+04  0.7818609E-02  0.8297970E-01
       -1   -1    0    0    0  501  0.00000000000E+00  0.00000000000E+00  0.12229272942E+04  0.12229272942E+04  0.50400001928E-02 0. -1.
        1   -1    0    0  501    0  0.00000000000E+00  0.00000000000E+00 -0.16223822825E+04  0.16223822825E+04  0.50400001928E-02 0.  1.
    10030    2    1    2    0    0  0.00000000000E+00  0.00000000000E+00 -0.39945498835E+03  0.28453095767E+04  0.28171301531E+04 0.  0.
        1    1    3    3  502    0 -0.10689894625E+04  0.66801222781E+03  0.43511115565E+03  0.13335293492E+04  0.50400001928E-02 0.  1.
       -1    1    3    3    0  502  0.10689894625E+04 -0.66801222781E+03 -0.83456614399E+03  0.15117802275E+04  0.50400001928E-02 0. -1.
</event>
<event>
 5   0  0.5584205E-06  0.2802705E+04  0.7818609E-02  0.8302429E-01
        2   -1    0    0  501    0  0.00000000000E+00  0.00000000000E+00  0.17179174706E+04  0.17179174706E+04  0.25500000920E-02 0. -1.
       -2   -1    0    0    0  501  0.00000000000E+00  0.00000000000E+00 -0.11431220710E+04  0.11431220710E+04  0.25500000920E-02 0.  1.
    10030    2    1    2    0    0  0.00000000000E+00  0.00000000000E+00  0.57479539959E+03  0.28610395416E+04  0.28027053907E+04 0.  0.
        1    1    3    3  502    0  0.35046448129E+02  0.11359283554E+04 -0.54956224914E+03  0.12623708441E+04  0.50400001928E-02 0.  1.
       -1    1    3    3    0  502 -0.35046448129E+02 -0.11359283554E+04  0.11243576487E+04  0.15986686975E+04  0.50400001928E-02 0. -1.
</event>
<event>
 5   0  0.2277133E-06  0.2872609E+04  0.7818609E-02  0.8281074E-01
       -1   -1    0    0    0  501  0.00000000000E+00  0.00000000000E+00  0.88449439115E+03  0.88449439117E+03  0.50400001928E-02 0.  1.
        1   -1    0    0  501    0  0.00000000000E+00  0.00000000000E+00 -0.23323726527E+04  0.23323726527E+04  0.50400001928E-02 0. -1.
    10030    2    1    2    0    0  0.00000000000E+00  0.00000000000E+00 -0.14478782615E+04  0.32168670439E+04  0.28726089392E+04 0.  0.
        1    1    3    3  502    0 -0.33156080043E+03 -0.61795831598E+03  0.67973911369E+03  0.97665260322E+03  0.50400001928E-02 0.  1.
       -1    1    3    3    0  502  0.33156080043E+03  0.61795831598E+03 -0.21276173752E+04  0.22402144406E+04  0.50400001928E-02 0. -1.
</event>
<event>
 5   0  0.2277133E-06  0.2791388E+04  0.7818609E-02  0.8305947E-01
        1   -1    0    0  501    0  0.00000000000E+00  0.00000000000E+00  0.13464205707E+04  0.13464205707E+04  0.50400001928E-02 0. -1.
       -1   -1    0    0    0  501  0.00000000000E+00  0.00000000000E+00 -0.14467707338E+04  0.14467707338E+04  0.50400001928E-02 0.  1.
    10030    2    1    2    0    0  0.00000000000E+00  0.00000000000E+00 -0.10035016306E+03  0.27931913045E+04  0.27913880970E+04 0.  0.
        1    1    3    3  502    0 -0.24359213943E+03 -0.13136421595E+04  0.35377992089E+03  0.13820828796E+04  0.50400001928E-02 0. -1.
       -1    1    3    3    0  502  0.24359213943E+03  0.13136421595E+04 -0.45413008395E+03  0.14111084249E+04  0.50400001928E-02 0.  1.
</event>
<event>
 5   0  0.5625245E-06  0.2813629E+04  0.7818609E-02  0.8299049E-01
       -2   -1    0    0    0  501  0.00000000000E+00  0.00000000000E+00  0.18862372557E+04  0.18862372557E+04  0.25500000920E-02 0. -1.
        2   -1    0    0  501    0  0.00000000000E+00  0.00000000000E+00 -0.10492462545E+04  0.10492462545E+04  0.25500000920E-02 0.  1.
    10030    2    1    2    0    0  0.00000000000E+00  0.00000000000E+00  0.83699100122E+03  0.29354835102E+04  0.28136292405E+04 0.  0.
        3    1    3    3  502    0 -0.80986529427E+03 -0.23771616190E+03  0.15927329725E+04  0.18025507206E+04  0.10100000352E+00 0. -1.
       -3    1    3    3    0  502  0.80986529427E+03  0.23771616190E+03 -0.75574197126E+03  0.11329327896E+04  0.10100000352E+00 0.  1.
</event>
<event>
 5   0  0.1901375E-06  0.2795937E+04  0.7818609E-02  0.8304531E-01
        3   -1    0    0  501    0  0.00000000000E+00  0.00000000000E+00  0.11697475582E+04  0.11697475626E+04  0.10100000352E+00 0.  1.
       -3   -1    0    0    0  501  0.00000000000E+00  0.00000000000E+00 -0.16707161344E+04  0.16707161375E+04  0.10100000352E+00 0. -1.
    10030    2    1    2    0    0  0.00000000000E+00  0.00000000000E+00 -0.50096857624E+03  0.28404637001E+04  0.27959371447E+04 0.  0.
        4    1    3    3  502    0 -0.22209115242E+03 -0.59845821157E+03  0.10130418448E+04  0.11973855282E+04  0.12699999809E+01 0.  1.
       -4    1    3    3    0  502  0.22209115242E+03  0.59845821157E+03 -0.15140104210E+04  0.16430781719E+04  0.12699999809E+01 0. -1.
</event>
<event>
 5   0  0.5625245E-06  0.2808080E+04  0.7818609E-02  0.8300764E-01
        2   -1    0    0  501    0  0.00000000000E+00  0.00000000000E+00  0.11448858195E+04  0.11448858195E+04  0.25500000920E-02 0.  1.
       -2   -1    0    0    0  501  0.00000000000E+00  0.00000000000E+00 -0.17218560591E+04  0.17218560591E+04  0.25500000920E-02 0. -1.
    10030    2    1    2    0    0  0.00000000000E+00  0.00000000000E+00 -0.57697023953E+03  0.28667418786E+04  0.28080801878E+04 0.  0.
        3    1    3    3  502    0 -0.11316242712E+04 -0.81475408027E+03 -0.12095060302E+03  0.13996523715E+04  0.10100000352E+00 0.  1.
       -3    1    3    3    0  502  0.11316242712E+04  0.81475408027E+03 -0.45601963651E+03  0.14670895070E+04  0.10100000352E+00 0. -1.
</event>
<event>
 5   0  0.5546570E-06  0.2775292E+04  0.7818609E-02  0.8310980E-01
       -2   -1    0    0    0  501  0.00000000000E+00  0.00000000000E+00  0.11868556002E+04  0.11868556002E+04  0.25500000920E-02 0.  1.
        2   -1    0    0  501    0  0.00000000000E+00  0.00000000000E+00 -0.16224061133E+04  0.16224061133E+04  0.25500000920E-02 0. -1.
    10030    2    1    2    0    0  0.00000000000E+00  0.00000000000E+00 -0.43555051313E+03  0.28092617136E+04  0.27752922595E+04 0.  0.
        4    1    3    3  502    0  0.88038682143E+03 -0.32851423466E+03 -0.12513300548E+04  0.15648741408E+04  0.12699999809E+01 0. -1.
       -4    1    3    3    0  502 -0.88038682143E+03  0.32851423466E+03  0.81577954165E+03  0.12443875727E+04  0.12699999809E+01 0.  1.
</event>
<event>
 5   0  0.5625245E-06  0.2694159E+04  0.7818609E-02  0.8336903E-01
       -2   -1    0    0    0  501  0.00000000000E+00  0.00000000000E+00  0.10958439104E+04  0.10958439104E+04  0.25500000920E-02 0. -1.
        2   -1    0    0  501    0  0.00000000000E+00  0.00000000000E+00 -0.16559137110E+04  0.16559137110E+04  0.25500000920E-02 0.  1.
    10030    2    1    2    0    0  0.00000000000E+00  0.00000000000E+00 -0.56006980061E+03  0.27517576215E+04  0.26941588345E+04 0.  0.
        3    1    3    3  502    0 -0.11303687721E+04 -0.15896533123E+03  0.45053283428E+03  0.12271851459E+04  0.10100000352E+00 0. -1.
       -3    1    3    3    0  502  0.11303687721E+04  0.15896533123E+03 -0.10106026349E+04  0.15245724755E+04  0.10100000352E+00 0.  1.
</event>
<event>
 5   0  0.5584205E-06  0.2807457E+04  0.7818609E-02  0.8300957E-01
       -2   -1    0    0    0  501  0.00000000000E+00  0.00000000000E+00  0.14972152008E+04  0.14972152008E+04  0.25500000920E-02 0. -1.
        2   -1    0    0  501    0  0.00000000000E+00  0.00000000000E+00 -0.13160791326E+04  0.13160791326E+04  0.25500000920E-02 0.  1.
    10030    2    1    2    0    0  0.00000000000E+00  0.00000000000E+00  0.18113606821E+03  0.28132943334E+04  0.28074569865E+04 0.  0.
        1    1    3    3  502    0  0.12594829084E+03 -0.11854973340E+04 -0.65204419758E+03  0.13588335205E+04  0.50400001928E-02 0.  1.
       -1    1    3    3    0  502 -0.12594829084E+03  0.11854973340E+04  0.83318026579E+03  0.14544608129E+04  0.50400001928E-02 0. -1.
</event>
<event>
 5   0  0.2190865E-06  0.2529601E+04  0.7818609E-02  0.8392515E-01
       -1   -1    0    0    0  501  0.00000000000E+00  0.00000000000E+00  0.70834232793E+03  0.70834232794E+03  0.50400001928E-02 0. -1.
        1   -1    0    0  501    0  0.00000000000E+00  0.00000000000E+00 -0.22583993112E+04  0.22583993112E+04  0.50400001928E-02 0.  1.
    10030    2    1    2    0    0  0.00000000000E+00  0.00000000000E+00 -0.15500569833E+04  0.29667416391E+04  0.25296006210E+04 0.  0.
        2    1    3    3  502    0  0.39834435581E+03  0.78724325041E+03 -0.18378882068E+04  0.20386915465E+04  0.25500000920E-02 0.  1.
       -2    1    3    3    0  502 -0.39834435581E+03 -0.78724325041E+03  0.28783122356E+03  0.92805009261E+03  0.25500000920E-02 0. -1.
</event>
<event>
 5   0  0.2267565E-06  0.2792131E+04  0.7818609E-02  0.8305716E-01
        1   -1    0    0  501    0  0.00000000000E+00  0.00000000000E+00  0.15493967490E+04  0.15493967490E+04  0.50400001928E-02 0.  1.
       -1   -1    0    0    0  501  0.00000000000E+00  0.00000000000E+00 -0.12579081005E+04  0.12579081005E+04  0.50400001928E-02 0. -1.
    10030    2    1    2    0    0  0.00000000000E+00  0.00000000000E+00  0.29148864850E+03  0.28073048496E+04  0.27921308863E+04 0.  0.
        4    1    3    3  502    0  0.90281549839E+03  0.40599982339E+02  0.12156102715E+04  0.15147389636E+04  0.12699999809E+01 0.  1.
       -4    1    3    3    0  502 -0.90281549839E+03 -0.40599982339E+02 -0.92412162299E+03  0.12925658860E+04  0.12699999809E+01 0. -1.
</event>
<event>
 5   0  0.5866136E-06  0.2603469E+04  0.7818609E-02  0.8367024E-01
       -2   -1    0    0    0  501  0.00000000000E+00  0.00000000000E+00  0.87221734303E+03  0.87221734304E+03  0.25500000920E-02 0. -1.
        2   -1    0    0  501    0  0.00000000000E+00  0.00000000000E+00 -0.19427640371E+04  0.19427640371E+04  0.25500000920E-02 0.  1.
    10030    2    1    2    0    0  0.00000000000E+00  0.00000000000E+00 -0.10705466941E+04  0.28149813801E+04  0.26034688295E+04 0.  0.
        5    1    3    3  502    0  0.76264060320E+03  0.30427440467E+03 -0.16274283431E+04  0.18228408337E+04  0.46999998093E+01 0.  1.
       -5    1    3    3    0  502 -0.76264060320E+03 -0.30427440467E+03  0.55688164901E+03  0.99214054649E+03  0.46999998093E+01 0. -1.
</event>
<event>
 5   0  0.2277133E-06  0.2822688E+04  0.7818609E-02  0.8296259E-01
        1   -1    0    0  501    0  0.00000000000E+00  0.00000000000E+00  0.16014540892E+04  0.16014540892E+04  0.50400001928E-02 0. -1.
       -1   -1    0    0    0  501  0.00000000000E+00  0.00000000000E+00 -0.12438016967E+04  0.12438016967E+04  0.50400001928E-02 0.  1.
    10030    2    1    2    0    0  0.00000000000E+00  0.00000000000E+00  0.35765239246E+03  0.28452557859E+04  0.28226875940E+04 0.  0.
        1    1    3    3  502    0 -0.46385628562E+03  0.24619377253E+03 -0.11416542776E+04  0.12566417616E+04  0.50400001928E-02 0.  1.
       -1    1    3    3    0  502  0.46385628562E+03 -0.24619377253E+03  0.14993066701E+04  0.15886140243E+04  0.50400001928E-02 0. -1.
</event>
<event>
 5   0  0.2267565E-06  0.2810021E+04  0.7818609E-02  0.8300164E-01
        1   -1    0    0  501    0  0.00000000000E+00  0.00000000000E+00  0.18574701359E+04  0.18574701359E+04  0.50400001928E-02 0.  1.
       -1   -1    0    0    0  501  0.00000000000E+00  0.00000000000E+00 -0.10627653467E+04  0.10627653467E+04  0.50400001928E-02 0. -1.
    10030    2    1    2    0    0  0.00000000000E+00  0.00000000000E+00  0.79470478913E+03  0.29202354826E+04  0.28100212761E+04 0.  0.
        4    1    3    3  502    0 -0.99081756111E+02 -0.38067801083E+03 -0.10043727136E+04  0.10786561561E+04  0.12699999809E+01 0. -1.
       -4    1    3    3    0  502  0.99081756111E+02  0.38067801083E+03  0.17990775027E+04  0.18415793265E+04  0.12699999809E+01 0.  1.
</event>
<event>
 5   0  0.2206967E-06  0.2788108E+04  0.7818609E-02  0.8306970E-01
       -1   -1    0    0    0  501  0.00000000000E+00  0.00000000000E+00  0.11251873026E+04  0.11251873027E+04  0.50400001928E-02 0.  1.
        1   -1    0    0  501    0  0.00000000000E+00  0.00000000000E+00 -0.17271666545E+04  0.17271666545E+04  0.50400001928E-02 0. -1.
    10030    2    1    2    0    0  0.00000000000E+00  0.00000000000E+00 -0.60197935183E+03  0.28523539571E+04  0.27881075942E+04 0.  0.
        5    1    3    3  502    0 -0.13045248374E+04 -0.65773062084E+02 -0.79929957834E+03  0.15313435451E+04  0.46999998093E+01 0. -1.
       -5    1    3    3    0  502  0.13045248374E+04  0.65773062084E+02  0.19732022651E+03  0.13210104121E+04  0.46999998093E+01 0.  1.
</event>
<event>
 5   0  0.5546570E-06  0.2822985E+04  0.7818609E-02  0.8296168E-01
        2   -1    0    0  501    0  0.00000000000E+00  0.00000000000E+00  0.26354410157E+04  0.26354410157E+04  0.25500000920E-02 0.  1.
       -2   -1    0    0    0  501  0.00000000000E+00  0.00000000000E+00 -0.75596876926E+03  0.75596876926E+03  0.25500000920E-02 0. -1.
    10030    2    1    2    0    0  0.00000000000E+00  0.00000000000E+00  0.18794722465E+04  0.33914097850E+04  0.28229850167E+04 0.  0.
        4    1    3    3  502    0  0.90603383668E+03 -0.23787347360E+03 -0.32872074644E+03  0.99274369537E+03  0.12699999809E+01 0. -1.
       -4    1    3    3    0  502 -0.90603383668E+03  0.23787347360E+03  0.22081929929E+04  0.23986660896E+04  0.12699999809E+01 0.  1.
</event>
<event>
 5   0  0.2277133E-06  0.2807558E+04  0.7818609E-02  0.8300926E-01
       -1   -1    0    0    0  501  0.00000000000E+00  0.00000000000E+00  0.13449665593E+04  0.13449665593E+04  0.50400001928E-02 0. -1.
        1   -1    0    0  501    0  0.00000000000E+00  0.00000000000E+00 -0.14651634539E+04  0.14651634539E+04  0.50400001928E-02 0.  1.
    10030    2    1    2    0    0  0.00000000000E+00  0.00000000000E+00 -0.12019689464E+03  0.28101300132E+04  0.28075582626E+04 0.  0.
        1    1    3    3  502    0  0.78396722663E+03 -0.11040461434E+04 -0.43067176827E+03  0.14209154342E+04  0.50400001928E-02 0.  1.
       -1    1    3    3    0  502 -0.78396722663E+03  0.11040461434E+04  0.31047487363E+03  0.13892145790E+04  0.50400001928E-02 0. -1.
</event>
<event>
 5   0  0.5916603E-06  0.2801699E+04  0.7818609E-02  0.8302741E-01
       -2   -1    0    0    0  501  0.00000000000E+00  0.00000000000E+00  0.99759880674E+03  0.99759880674E+03  0.25500000920E-02 0. -1.
        2   -1    0    0  501    0  0.00000000000E+00  0.00000000000E+00 -0.19671023063E+04  0.19671023063E+04  0.25500000920E-02 0.  1.
    10030    2    1    2    0    0  0.00000000000E+00  0.00000000000E+00 -0.96950349952E+03  0.29647011130E+04  0.28016987086E+04 0.  0.
        2    1    3    3  502    0  0.44236840325E+03  0.11944081155E+04 -0.11018424296E+04  0.16841488326E+04  0.25500000920E-02 0.  1.
       -2    1    3    3    0  502 -0.44236840325E+03 -0.11944081155E+04  0.13233893010E+03  0.12805522804E+04  0.25500000920E-02 0. -1.
</event>
<event>
 5   0  0.5866136E-06  0.2798894E+04  0.7818609E-02  0.8303612E-01
       -2   -1    0    0    0  501  0.00000000000E+00  0.00000000000E+00  0.24799897957E+04  0.24799897957E+04  0.25500000920E-02 0.  1.
        2   -1    0    0  501    0  0.00000000000E+00  0.00000000000E+00 -0.78970172504E+03  0.78970172505E+03  0.25500000920E-02 0. -1.
    10030    2    1    2    0    0  0.00000000000E+00  0.00000000000E+00  0.16902880707E+04  0.32696915208E+04  0.27988942244E+04 0.  0.
        5    1    3    3  502    0 -0.53489103566E+03 -0.31194641734E+03  0.23112390278E+04  0.23927530004E+04  0.46999998093E+01 0.  1.
       -5    1    3    3    0  502  0.53489103566E+03  0.31194641734E+03 -0.62095095713E+03  0.87693852036E+03  0.46999998093E+01 0. -1.
</event>
<event>
 5   0  0.2234068E-06  0.2800613E+04  0.7818609E-02  0.8303078E-01
        1   -1    0    0  501    0  0.00000000000E+00  0.00000000000E+00  0.11636368819E+04  0.11636368819E+04  0.50400001928E-02 0. -1.
       -1   -1    0    0    0  501  0.00000000000E+00  0.00000000000E+00 -0.16851115387E+04  0.16851115387E+04  0.50400001928E-02 0.  1.
    10030    2    1    2    0    0  0.00000000000E+00  0.00000000000E+00 -0.52147465675E+03  0.28487484206E+04  0.28006127448E+04 0.  0.
        3    1    3    3  502    0  0.57869369359E+03 -0.58466704065E+03  0.89193679854E+03  0.12133726560E+04  0.10100000352E+00 0. -1.
       -3    1    3    3    0  502 -0.57869369359E+03  0.58466704065E+03 -0.14134114553E+04  0.16353757646E+04  0.10100000352E+00 0.  1.
</event>
<event>
 5   0  0.2206967E-06  0.2886238E+04  0.7818609E-02  0.8276984E-01
       -1   -1    0    0    0  501  0.00000000000E+00  0.00000000000E+00  0.10211372987E+04  0.10211372987E+04  0.50400001928E-02 0. -1.
        1   -1    0    0  501    0  0.00000000000E+00  0.00000000000E+00 -0.20394831143E+04  0.20394831143E+04  0.50400001928E-02 0.  1.
    10030    2    1    2    0    0  0.00000000000E+00  0.00000000000E+00 -0.10183458156E+04  0.30606204130E+04  0.28862378822E+04 0.  0.
        5    1    3    3  502    0  0.44122215134E+03 -0.52545800389E+03 -0.18554398570E+04  0.19782472681E+04  0.46999998093E+01 0.  1.
       -5    1    3    3    0  502 -0.44122215134E+03  0.52545800389E+03  0.83709404145E+03  0.10823731450E+04  0.46999998093E+01 0. -1.
</event>
<event>
 5   0  0.5916603E-06  0.2801969E+04  0.7818609E-02  0.8302657E-01
        2   -1    0    0  501    0  0.00000000000E+00  0.00000000000E+00  0.30474673961E+04  0.30474673961E+04  0.25500000920E-02 0.  1.
       -2   -1    0    0    0  501  0.00000000000E+00  0.00000000000E+00 -0.64406190815E+03  0.64406190816E+03  0.25500000920E-02 0. -1.
    10030    2    1    2    0    0  0.00000000000E+00  0.00000000000E+00  0.24034054880E+04  0.36915293043E+04  0.28019690692E+04 0.  0.
        2    1    3    3  502    0  0.11977223405E+04  0.16089658984E+02  0.24441282152E+03  0.12225118852E+04  0.25500000920E-02 0. -1.
       -2    1    3    3    0  502 -0.11977223405E+04 -0.16089658984E+02  0.21589926664E+04  0.24690174191E+04  0.25500000920E-02 0.  1.
</event>
<event>
 5   0  0.2267565E-06  0.2873722E+04  0.7818609E-02  0.8280739E-01
        1   -1    0    0  501    0  0.00000000000E+00  0.00000000000E+00  0.13685827742E+04  0.13685827742E+04  0.50400001928E-02 0.  1.
       -1   -1    0    0    0  501  0.00000000000E+00  0.00000000000E+00 -0.15085454056E+04  0.15085454056E+04  0.50400001928E-02 0. -1.
    10030    2    1    2    0    0  0.00000000000E+00  0.00000000000E+00 -0.13996263134E+03  0.28771281798E+04  0.28737218071E+04 0.  0.
        4    1    3    3  502    0 -0.26965859059E+03  0.12879991134E+04 -0.64764892866E+03  0.14666656808E+04  0.12699999809E+01 0. -1.
       -4    1    3    3    0  502  0.26965859059E+03 -0.12879991134E+04  0.50768629732E+03  0.14104624990E+04  0.12699999809E+01 0.  1.
</event>
<event>
 5   0  0.5625245E-06  0.2720551E+04  0.7818609E-02  0.8328367E-01
        2   -1    0    0  501    0  0.00000000000E+00  0.00000000000E+00  0.10546279827E+04  0.10546279827E+04  0.25500000920E-02 0. -1.
       -2   -1    0    0    0  501  0.00000000000E+00  0.00000000000E+00 -0.17545046806E+04  0.17545046806E+04  0.25500000920E-02 0.  1.
    10030    2    1    2    0    0  0.00000000000E+00  0.00000000000E+00 -0.69987669782E+03  0.28091326633E+04  0.27205512176E+04 0.  0.
        3    1    3    3  502    0  0.39544583250E+03 -0.20153537118E+02  0.99380530273E+03  0.10697815485E+04  0.10100000352E+00 0. -1.
       -3    1    3    3    0  502 -0.39544583250E+03  0.20153537118E+02 -0.16936820006E+04  0.17393511148E+04  0.10100000352E+00 0.  1.
</event>
<event>
 5   0  0.5866136E-06  0.2829918E+04  0.7818609E-02  0.8294040E-01
       -2   -1    0    0    0  501  0.00000000000E+00  0.00000000000E+00  0.10515402792E+04  0.10515402792E+04  0.25500000920E-02 0. -1.
        2   -1    0    0  501    0  0.00000000000E+00  0.00000000000E+00 -0.19039776790E+04  0.19039776790E+04  0.25500000920E-02 0.  1.
    10030    2    1    2    0    0  0.00000000000E+00  0.00000000000E+00 -0.85243739980E+03  0.29555179582E+04  0.28299181757E+04 0.  0.
        5    1    3    3  502    0 -0.10725401681E+04  0.57362789818E+03  0.32884607396E+03  0.12599814316E+04  0.46999998093E+01 0. -1.
       -5    1    3    3    0  502  0.10725401681E+04 -0.57362789818E+03 -0.11812834738E+04  0.16955365266E+04  0.46999998093E+01 0.  1.
</event>
<event>
 5   0  0.5584205E-06  0.2816546E+04  0.7818609E-02  0.8298150E-01
       -2   -1    0    0    0  501  0.00000000000E+00  0.00000000000E+00  0.10506185528E+04  0.10506185528E+04  0.25500000920E-02 0. -1.
        2   -1    0    0  501    0  0.00000000000E+00  0.00000000000E+00 -0.18876813805E+04  0.18876813805E+04  0.25500000920E-02 0.  1.
    10030    2    1    2    0    0  0.00000000000E+00  0.00000000000E+00 -0.83706282767E+03  0.29382999334E+04  0.28165461688E+04 0.  0.
        1    1    3    3  502    0  0.11940992880E+04 -0.25293477906E+03  0.31424548153E+03  0.12603964990E+04  0.50400001928E-02 0.  1.
       -1    1    3    3    0  502 -0.11940992880E+04  0.25293477906E+03 -0.11513083092E+04  0.16779034343E+04  0.50400001928E-02 0. -1.
</event>
<event>
 5   0  0.2277133E-06  0.2802783E+04  0.7818609E-02  0.8302405E-01
        1   -1    0    0  501    0  0.00000000000E+00  0.00000000000E+00  0.24453176831E+04  0.24453176831E+04  0.50400001928E-02 0. -1.
       -1   -1    0    0    0  501  0.00000000000E+00  0.00000000000E+00 -0.80312598565E+03  0.80312598566E+03  0.50400001928E-02 0.  1.
    10030    2    1    2    0    0  0.00000000000E+00  0.00000000000E+00  0.16421916975E+04  0.32484436688E+04  0.28027830273E+04 0.  0.
        1    1    3    3  502    0  0.91309955768E+03  0.97463060803E+03  0.32903985894E+03  0.13754718656E+04  0.50400001928E-02 0.  1.
       -1    1    3    3    0  502 -0.91309955768E+03 -0.97463060803E+03  0.13131518385E+04  0.18729718031E+04  0.50400001928E-02 0. -1.
</event>
<event>
 5   0  0.5584205E-06  0.2792893E+04  0.7818609E-02  0.8305478E-01
        2   -1    0    0  501    0  0.00000000000E+00  0.00000000000E+00  0.22376644060E+04  0.22376644060E+04  0.25500000920E-02 0.  1.
       -2   -1    0    0    0  501  0.00000000000E+00  0.00000000000E+00 -0.87147253613E+03  0.87147253613E+03  0.25500000920E-02 0. -1.
    10030    2    1    2    0    0  0.00000000000E+00  0.00000000000E+00  0.13661918699E+04  0.31091369421E+04  0.27928931773E+04 0.  0.
        1    1    3    3  502    0  0.16402750404E+03  0.48040898488E+03  0.21313093856E+04  0.21909307410E+04  0.50400001928E-02 0.  1.
       -1    1    3    3    0  502 -0.16402750404E+03 -0.48040898488E+03 -0.76511751573E+03  0.91820620110E+03  0.50400001928E-02 0. -1.
</event>
<event>
 5   0  0.2277133E-06  0.2795051E+04  0.7818609E-02  0.8304806E-01
        1   -1    0    0  501    0  0.00000000000E+00  0.00000000000E+00  0.22352316266E+04  0.22352316266E+04  0.50400001928E-02 0.  1.
       -1   -1    0    0    0  501  0.00000000000E+00  0.00000000000E+00 -0.87376976716E+03  0.87376976718E+03  0.50400001928E-02 0. -1.
    10030    2    1    2    0    0  0.00000000000E+00  0.00000000000E+00  0.13614618594E+04  0.31090013938E+04  0.27950512110E+04 0.  0.
        1    1    3    3  502    0 -0.12089504060E+04  0.13724174212E+03  0.14454737729E+04  0.18893890039E+04  0.50400001928E-02 0.  1.
       -1    1    3    3    0  502  0.12089504060E+04 -0.13724174212E+03 -0.84011913479E+02  0.12196123899E+04  0.50400001928E-02 0. -1.
</event>
<event>
 5   0  0.5546570E-06  0.2785546E+04  0.7818609E-02  0.8307770E-01
       -2   -1    0    0    0  501  0.00000000000E+00  0.00000000000E+00  0.11438399511E+04  0.11438399511E+04  0.25500000920E-02 0. -1.
        2   -1    0    0  501    0  0.00000000000E+00  0.00000000000E+00 -0.16958816266E+04  0.16958816266E+04  0.25500000920E-02 0.  1.
    10030    2    1    2    0    0  0.00000000000E+00  0.00000000000E+00 -0.55204167550E+03  0.28397215778E+04  0.27855463787E+04 0.  0.
        4    1    3    3  502    0  0.13675149589E+04  0.15108786624E+03 -0.55266439799E+02  0.13769461494E+04  0.12699999809E+01 0.  1.
       -4    1    3    3    0  502 -0.13675149589E+04 -0.15108786624E+03 -0.49677523570E+03  0.14627754284E+04  0.12699999809E+01 0. -1.
</event>
<event>
 5   0  0.2277133E-06  0.2805820E+04  0.7818609E-02  0.8301464E-01
        1   -1    0    0  501    0  0.00000000000E+00  0.00000000000E+00  0.17665852108E+04  0.17665852108E+04  0.50400001928E-02 0. -1.
       -1   -1    0    0    0  501  0.00000000000E+00  0.00000000000E+00 -0.11141020907E+04  0.11141020907E+04  0.50400001928E-02 0.  1.
    10030    2    1    2    0    0  0.00000000000E+00  0.00000000000E+00  0.65248312009E+03  0.28806873015E+04  0.28058198636E+04 0.  0.
        1    1    3    3  502    0 -0.13856607076E+04 -0.21155556921E+03  0.38562006933E+03  0.14537930366E+04  0.50400001928E-02 0. -1.
       -1    1    3    3    0  502  0.13856607076E+04  0.21155556921E+03  0.26686305076E+03  0.14268942649E+04  0.50400001928E-02 0.  1.
</event>
<event>
 5   0  0.5866136E-06  0.2790312E+04  0.7818609E-02  0.8306282E-01
       -2   -1    0    0    0  501  0.00000000000E+00  0.00000000000E+00  0.99290190064E+03  0.99290190064E+03  0.25500000920E-02 0.  1.
        2   -1    0    0  501    0  0.00000000000E+00  0.00000000000E+00 -0.19603752050E+04  0.19603752050E+04  0.25500000920E-02 0. -1.
    10030    2    1    2    0    0  0.00000000000E+00  0.00000000000E+00 -0.96747330440E+03  0.29532771057E+04  0.27903120020E+04 0.  0.
        5    1    3    3  502    0  0.84890566088E+03 -0.10101012054E+04 -0.39481308880E+01  0.13194631272E+04  0.46999998093E+01 0.  1.
       -5    1    3    3    0  502 -0.84890566088E+03  0.10101012054E+04 -0.96352517351E+03  0.16338139785E+04  0.46999998093E+01 0. -1.
</event>
<event>
 5   0  0.5866136E-06  0.2804076E+04  0.7818609E-02  0.8302004E-01
       -2   -1    0    0    0  501  0.00000000000E+00  0.00000000000E+00  0.63873448026E+03  0.63873448027E+03  0.25500000920E-02 0.  1.
        2   -1    0    0  501    0  0.00000000000E+00  0.00000000000E+00 -0.30775089093E+04  0.30775089093E+04  0.25500000920E-02 0. -1.
    10030    2    1    2    0    0  0.00000000000E+00  0.00000000000E+00 -0.24387744290E+04  0.37162433896E+04  0.28040763568E+04 0.  0.
        5    1    3    3  502    0  0.11206352170E+04 -0.67992256711E+02 -0.23323576351E+04  0.25885054499E+04  0.46999998093E+01 0. -1.
       -5    1    3    3    0  502 -0.11206352170E+04  0.67992256711E+02 -0.10641679395E+03  0.11277379396E+04  0.46999998093E+01 0.  1.
</event>
<event>
 5   0  0.5916603E-06  0.2803943E+04  0.7818609E-02  0.8302045E-01
        2   -1    0    0  501    0  0.00000000000E+00  0.00000000000E+00  0.78731076003E+03  0.78731076003E+03  0.25500000920E-02 0. -1.
       -2   -1    0    0    0  501  0.00000000000E+00  0.00000000000E+00 -0.24965041501E+04  0.24965041501E+04  0.25500000920E-02 0.  1.
    10030    2    1    2    0    0  0.00000000000E+00  0.00000000000E+00 -0.17091933901E+04  0.32838149102E+04  0.28039433517E+04 0.  0.
        2    1    3    3  502    0  0.10191165384E+03 -0.10797729270E+03 -0.24872704705E+04  0.24916981106E+04  0.25500000920E-02 0.  1.
       -2    1    3    3    0  502 -0.10191165384E+03  0.10797729270E+03  0.77807708045E+03  0.79211679951E+03  0.25500000920E-02 0. -1.
</event>
<event>
 5   0  0.5916603E-06  0.2909972E+04  0.7818609E-02  0.8269917E-01
       -2   -1    0    0    0  501  0.00000000000E+00  0.00000000000E+00  0.12115713244E+04  0.12115713244E+04  0.25500000920E-02 0.  1.
        2   -1    0    0  501    0  0.00000000000E+00  0.00000000000E+00 -0.17473049476E+04  0.17473049476E+04  0.25500000920E-02 0. -1.
    10030    2    1    2    0    0  0.00000000000E+00  0.00000000000E+00 -0.53573362328E+03  0.29588762720E+04  0.29099722126E+04 0.  0.
        2    1    3    3  502    0 -0.10324681436E+04 -0.15416795663E+03  0.76268786237E+03  0.12928460859E+04  0.25500000920E-02 0.  1.
       -2    1    3    3    0  502  0.10324681436E+04  0.15416795663E+03 -0.12984214857E+04  0.16660301861E+04  0.25500000920E-02 0. -1.
</event>
<event>
 5   0  0.5584205E-06  0.2771533E+04  0.7818609E-02  0.8312161E-01
        2   -1    0    0  501    0  0.00000000000E+00  0.00000000000E+00  0.22281619655E+04  0.22281619655E+04  0.25500000920E-02 0.  1.
       -2   -1    0    0    0  501  0.00000000000E+00  0.00000000000E+00 -0.86185339228E+03  0.86185339228E+03  0.25500000920E-02 0. -1.
    10030    2    1    2    0    0  0.00000000000E+00  0.00000000000E+00  0.13663085732E+04  0.30900153578E+04  0.27715331126E+04 0.  0.
        1    1    3    3  502    0 -0.13351871575E+04 -0.28114944707E+03  0.41331060562E+03  0.14256912056E+04  0.50400001928E-02 0.  1.
       -1    1    3    3    0  502  0.13351871575E+04  0.28114944707E+03  0.95299796760E+03  0.16643241521E+04  0.50400001928E-02 0. -1.
</event>
<event>
 5   0  0.2206967E-06  0.2798627E+04  0.7818609E-02  0.8303695E-01
       -1   -1    0    0    0  501  0.00000000000E+00  0.00000000000E+00  0.80319030009E+03  0.80319030011E+03  0.50400001928E-02 0. -1.
        1   -1    0    0  501    0  0.00000000000E+00  0.00000000000E+00 -0.24378764278E+04  0.24378764278E+04  0.50400001928E-02 0.  1.
    10030    2    1    2    0    0  0.00000000000E+00  0.00000000000E+00 -0.16346861277E+04  0.32410667279E+04  0.27986273061E+04 0.  0.
        5    1    3    3  502    0  0.14361689871E+03  0.68459522078E+03  0.58617611024E+03  0.91264503074E+03  0.46999998093E+01 0. -1.
       -5    1    3    3    0  502 -0.14361689871E+03 -0.68459522078E+03 -0.22208622379E+04  0.23284216972E+04  0.46999998093E+01 0.  1.
</event>
<event>
 5   0  0.2234068E-06  0.2797212E+04  0.7818609E-02  0.8304134E-01
       -1   -1    0    0    0  501  0.00000000000E+00  0.00000000000E+00  0.27507747625E+04  0.27507747625E+04  0.50400001928E-02 0. -1.
        1   -1    0    0  501    0  0.00000000000E+00  0.00000000000E+00 -0.71110831242E+03  0.71110831244E+03  0.50400001928E-02 0.  1.
    10030    2    1    2    0    0  0.00000000000E+00  0.00000000000E+00  0.20396664501E+04  0.34618830750E+04  0.27972120401E+04 0.  0.
        3    1    3    3  502    0  0.33717656857E+03  0.30348282843E+03 -0.61752746679E+03  0.76624411775E+03  0.10100000352E+00 0.  1.
       -3    1    3    3    0  502 -0.33717656857E+03 -0.30348282843E+03  0.26571939169E+04  0.26956389572E+04  0.10100000352E+00 0. -1.
</event>
<event>
 5   0  0.5625245E-06  0.2856882E+04  0.7818609E-02  0.8285823E-01
       -2   -1    0    0    0  501  0.00000000000E+00  0.00000000000E+00  0.19043276153E+04  0.19043276153E+04  0.25500000920E-02 0.  1.
        2   -1    0    0  501    0  0.00000000000E+00  0.00000000000E+00 -0.10714774026E+04  0.10714774026E+04  0.25500000920E-02 0. -1.
    10030    2    1    2    0    0  0.00000000000E+00  0.00000000000E+00  0.83285021269E+03  0.29758050179E+04  0.28568822215E+04 0.  0.
        3    1    3    3  502    0 -0.12393348246E+04 -0.33004813190E+03  0.10715424526E+04  0.16712527681E+04  0.10100000352E+00 0.  1.
       -3    1    3    3    0  502  0.12393348246E+04  0.33004813190E+03 -0.23869223986E+03  0.13045522498E+04  0.10100000352E+00 0. -1.
</event>
<event>
 5   0  0.2277133E-06  0.2836695E+04  0.7818609E-02  0.8291966E-01
        1   -1    0    0  501    0  0.00000000000E+00  0.00000000000E+00  0.12576556615E+04  0.12576556615E+04  0.50400001928E-02 0. -1.
       -1   -1    0    0    0  501  0.00000000000E+00  0.00000000000E+00 -0.15995712964E+04  0.15995712964E+04  0.50400001928E-02 0.  1.
    10030    2    1    2    0    0  0.00000000000E+00  0.00000000000E+00 -0.34191563492E+03  0.28572269579E+04  0.28366951876E+04 0.  0.
        1    1    3    3  502    0  0.73691189039E+03  0.11011148480E+04 -0.68080017588E+03  0.14896247589E+04  0.50400001928E-02 0.  1.
       -1    1    3    3    0  502 -0.73691189039E+03 -0.11011148480E+04  0.33888454096E+03  0.13676021990E+04  0.50400001928E-02 0. -1.
</event>
<event>
 5   0  0.5916603E-06  0.2794039E+04  0.7818609E-02  0.8305121E-01
       -2   -1    0    0    0  501  0.00000000000E+00  0.00000000000E+00  0.16998017439E+04  0.16998017439E+04  0.25500000920E-02 0. -1.
        2   -1    0    0  501    0  0.00000000000E+00  0.00000000000E+00 -0.11481710896E+04  0.11481710896E+04  0.25500000920E-02 0.  1.
    10030    2    1    2    0    0  0.00000000000E+00  0.00000000000E+00  0.55163065433E+03  0.28479728335E+04  0.27940388118E+04 0.  0.
        2    1    3    3  502    0 -0.88261394317E+03 -0.50732193460E+03  0.12509856270E+04  0.16128694792E+04  0.25500000920E-02 0. -1.
       -2    1    3    3    0  502  0.88261394317E+03  0.50732193460E+03 -0.69935497268E+03  0.12351033543E+04  0.25500000920E-02 0.  1.
</event>
<event>
 5   0  0.2267565E-06  0.2519603E+04  0.7818609E-02  0.8396035E-01
        1   -1    0    0  501    0  0.00000000000E+00  0.00000000000E+00  0.12420751081E+04  0.12420751081E+04  0.50400001928E-02 0. -1.
       -1   -1    0    0    0  501  0.00000000000E+00  0.00000000000E+00 -0.12777812018E+04  0.12777812018E+04  0.50400001928E-02 0.  1.
    10030    2    1    2    0    0  0.00000000000E+00  0.00000000000E+00 -0.35706093754E+02  0.25198563099E+04  0.25196033214E+04 0.  0.
        4    1    3    3  502    0 -0.82645121524E+03  0.73755945435E+01  0.93304345237E+03  0.12464540535E+04  0.12699999809E+01 0. -1.
       -4    1    3    3    0  502  0.82645121524E+03 -0.73755945435E+01 -0.96874954613E+03  0.12734022564E+04  0.12699999809E+01 0.  1.
</event>
<event>
 5   0  0.2277133E-06  0.2813368E+04  0.7818609E-02  0.8299130E-01
        1   -1    0    0  501    0  0.00000000000E+00  0.00000000000E+00  0.15750646119E+04  0.15750646119E+04  0.50400001928E-02 0.  1.
       -1   -1    0    0    0  501  0.00000000000E+00  0.00000000000E+00 -0.12563036450E+04  0.12563036451E+04  0.50400001928E-02 0. -1.
    10030    2    1    2    0    0  0.00000000000E+00  0.00000000000E+00  0.31876096688E+03  0.28313682570E+04  0.28133676711E+04 0.  0.
        1    1    3    3  502    0  0.75175177173E+03 -0.38119614884E+01  0.13559427656E+04  0.15503954466E+04  0.50400001928E-02 0.  1.
       -1    1    3    3    0  502 -0.75175177173E+03  0.38119614884E+01 -0.10371817987E+04  0.12809728104E+04  0.50400001928E-02 0. -1.
</event>
<event>
 5   0  0.2190865E-06  0.2799182E+04  0.7818609E-02  0.8303522E-01
        1   -1    0    0  501    0  0.00000000000E+00  0.00000000000E+00  0.23774488362E+04  0.23774488362E+04  0.50400001928E-02 0.  1.
       -1   -1    0    0    0  501  0.00000000000E+00  0.00000000000E+00 -0.82393166323E+03  0.82393166325E+03  0.50400001928E-02 0. -1.
    10030    2    1    2    0    0  0.00000000000E+00  0.00000000000E+00  0.15535171730E+04  0.32013804995E+04  0.27991822905E+04 0.  0.
        2    1    3    3  502    0  0.67101611223E+03  0.49059710339E+03 -0.51104566068E+03  0.97576421744E+03  0.25500000920E-02 0. -1.
       -2    1    3    3    0  502 -0.67101611223E+03 -0.49059710339E+03  0.20645628337E+04  0.22256162821E+04  0.25500000920E-02 0.  1.
</event>
<event>
 5   0  0.2206967E-06  0.2815977E+04  0.7818609E-02  0.8298325E-01
       -1   -1    0    0    0  501  0.00000000000E+00  0.00000000000E+00  0.17204875928E+04  0.17204875928E+04  0.50400001928E-02 0. -1.
        1   -1    0    0  501    0  0.00000000000E+00  0.00000000000E+00 -0.11522499879E+04  0.11522499879E+04  0.50400001928E-02 0.  1.
    10030    2    1    2    0    0  0.00000000000E+00  0.00000000000E+00  0.56823760485E+03  0.28727375807E+04  0.28159771363E+04 0.  0.
        5    1    3    3  502    0 -0.60466035990E+03 -0.87695032842E+03 -0.65517547307E+03  0.12505730766E+04  0.46999998093E+01 0.  1.
       -5    1    3    3    0  502  0.60466035990E+03  0.87695032842E+03  0.12234130779E+04  0.16221645042E+04  0.46999998093E+01 0. -1.
</event>
<event>
 5   0  0.5546570E-06  0.3059369E+04  0.7818609E-02  0.8226978E-01
        2   -1    0    0  501    0  0.00000000000E+00  0.00000000000E+00  0.21435925923E+04  0.21435925923E+04  0.25500000920E-02 0.  1.
       -2   -1    0    0    0  501  0.00000000000E+00  0.00000000000E+00 -0.10915950427E+04  0.10915950427E+04  0.25500000920E-02 0. -1.
    10030    2    1    2    0    0  0.00000000000E+00  0.00000000000E+00  0.10519975496E+04  0.32351876350E+04  0.30593692470E+04 0.  0.
        4    1    3    3  502    0  0.26120922541E+03 -0.15059792909E+04  0.59057844413E+03  0.16385934199E+04  0.12699999809E+01 0. -1.
       -4    1    3    3    0  502 -0.26120922541E+03  0.15059792909E+04  0.46141910549E+03  0.15965942151E+04  0.12699999809E+01 0.  1.
</event>
<event>
 5   0  0.5546570E-06  0.2650370E+04  0.7818609E-02  0.8351290E-01
       -2   -1    0    0    0  501  0.00000000000E+00  0.00000000000E+00  0.85223511237E+03  0.85223511237E+03  0.25500000920E-02 0.  1.
        2   -1    0    0  501    0  0.00000000000E+00  0.00000000000E+00 -0.20606002812E+04  0.20606002812E+04  0.25500000920E-02 0. -1.
    10030    2    1    2    0    0  0.00000000000E+00  0.00000000000E+00 -0.12083651688E+04  0.29128353936E+04  0.26503704739E+04 0.  0.
        4    1    3    3  502    0  0.46098062607E+03 -0.72916606167E+03 -0.17097472966E+04  0.19150518829E+04  0.12699999809E+01 0. -1.
       -4    1    3    3    0  502 -0.46098062607E+03  0.72916606167E+03  0.50138212780E+03  0.99778351063E+03  0.12699999809E+01 0.  1.
</event>
<event>
 5   0  0.2190865E-06  0.2809670E+04  0.7818609E-02  0.8300273E-01
        1   -1    0    0  501    0  0.00000000000E+00  0.00000000000E+00  0.69617019247E+03  0.69617019249E+03  0.50400001928E-02 0.  1.
       -1   -1    0    0    0  501  0.00000000000E+00  0.00000000000E+00 -0.28348825954E+04  0.28348825954E+04  0.50400001928E-02 0. -1.
    10030    2    1    2    0    0  0.00000000000E+00  0.00000000000E+00 -0.21387124029E+04  0.35310527879E+04  0.28096695621E+04 0.  0.
        2    1    3    3  502    0 -0.12392182634E+04 -0.46465588203E+03 -0.47722307785E+03  0.14068791202E+04  0.25500000920E-02 0.  1.
       -2    1    3    3    0  502  0.12392182634E+04  0.46465588203E+03 -0.16614893251E+04  0.21241736676E+04  0.25500000920E-02 0. -1.
</event>
<event>
 5   0  0.5546570E-06  0.2799004E+04  0.7818609E-02  0.8303578E-01
        2   -1    0    0  501    0  0.00000000000E+00  0.00000000000E+00  0.12871490994E+04  0.12871490994E+04  0.25500000920E-02 0. -1.
       -2   -1    0    0    0  501  0.00000000000E+00  0.00000000000E+00 -0.15216621508E+04  0.15216621508E+04  0.25500000920E-02 0.  1.
    10030    2    1    2    0    0  0.00000000000E+00  0.00000000000E+00 -0.23451305145E+03  0.28088112502E+04  0.27990041564E+04 0.  0.
        4    1    3    3  502    0  0.25221584353E+03 -0.12974545819E+04 -0.57887178780E+03  0.14429467708E+04  0.12699999809E+01 0. -1.
       -4    1    3    3    0  502 -0.25221584353E+03  0.12974545819E+04  0.34435873635E+03  0.13658644794E+04  0.12699999809E+01 0.  1.
</event>
<event>
 5   0  0.5584205E-06  0.2774312E+04  0.7818609E-02  0.8311288E-01
       -2   -1    0    0    0  501  0.00000000000E+00  0.00000000000E+00  0.15187881577E+04  0.15187881577E+04  0.25500000920E-02 0.  1.
        2   -1    0    0  501    0  0.00000000000E+00  0.00000000000E+00 -0.12669321166E+04  0.12669321166E+04  0.25500000920E-02 0. -1.
    10030    2    1    2    0    0  0.00000000000E+00  0.00000000000E+00  0.25185604107E+03  0.27857202743E+04  0.27743118032E+04 0.  0.
        1    1    3    3  502    0  0.12676401854E+04  0.46931737467E+03 -0.18685100191E+03  0.13645818901E+04  0.50400001928E-02 0. -1.
       -1    1    3    3    0  502 -0.12676401854E+04 -0.46931737467E+03  0.43870704298E+03  0.14211383843E+04  0.50400001928E-02 0.  1.
</event>
<event>
 5   0  0.5546570E-06  0.2802041E+04  0.7818609E-02  0.8302635E-01
        2   -1    0    0  501    0  0.00000000000E+00  0.00000000000E+00  0.21211779711E+04  0.21211779711E+04  0.25500000920E-02 0.  1.
       -2   -1    0    0    0  501  0.00000000000E+00  0.00000000000E+00 -0.92536262454E+03  0.92536262454E+03  0.25500000920E-02 0. -1.
    10030    2    1    2    0    0  0.00000000000E+00  0.00000000000E+00  0.11958153465E+04  0.30465405956E+04  0.28020412662E+04 0.  0.
        4    1    3    3  502    0 -0.12213411301E+04 -0.31297928689E+03 -0.66323075553E+02  0.12625492281E+04  0.12699999809E+01 0. -1.
       -4    1    3    3    0  502  0.12213411301E+04  0.31297928689E+03  0.12621384221E+04  0.17839913675E+04  0.12699999809E+01 0.  1.
</event>
<event>
 5   0  0.2206967E-06  0.2812795E+04  0.7818609E-02  0.8299307E-01
       -1   -1    0    0    0  501  0.00000000000E+00  0.00000000000E+00  0.16055404394E+04  0.16055404394E+04  0.50400001928E-02 0.  1.
        1   -1    0    0  501    0  0.00000000000E+00  0.00000000000E+00 -0.12319548030E+04  0.12319548030E+04  0.50400001928E-02 0. -1.
    10030    2    1    2    0    0  0.00000000000E+00  0.00000000000E+00  0.37358563640E+03  0.28374952423E+04  0.28127945219E+04 0.  0.
        5    1    3    3  502    0  0.37273633933E+03  0.93680972615E+03  0.11759062612E+04  0.15489746501E+04  0.46999998093E+01 0.  1.
       -5    1    3    3    0  502 -0.37273633933E+03 -0.93680972615E+03 -0.80232062477E+03  0.12885205922E+04  0.46999998093E+01 0. -1.
</event>
<event>
 5   0  0.5866136E-06  0.2582106E+04  0.7818609E-02  0.8374305E-01
       -2   -1    0    0    0  501  0.00000000000E+00  0.00000000000E+00  0.10614818762E+04  0.10614818763E+04  0.25500000920E-02 0. -1.
        2   -1    0    0  501    0  0.00000000000E+00  0.00000000000E+00 -0.15702749292E+04  0.15702749292E+04  0.25500000920E-02 0.  1.
    10030    2    1    2    0    0  0.00000000000E+00  0.00000000000E+00 -0.50879305298E+03  0.26317568055E+04  0.25821064100E+04 0.  0.
        5    1    3    3  502    0  0.48634961563E+02 -0.11844932397E+04 -0.77550720292E+03  0.14166238407E+04  0.46999998093E+01 0.  1.
       -5    1    3    3    0  502 -0.48634961563E+02  0.11844932397E+04  0.26671414994E+03  0.12151329648E+04  0.46999998093E+01 0. -1.
</event>
<event>
 5   0  0.2206967E-06  0.2760022E+04  0.7818609E-02  0.8315788E-01
       -1   -1    0    0    0  501  0.00000000000E+00  0.00000000000E+00  0.13056658871E+04  0.13056658871E+04  0.50400001928E-02 0.  1.
        1   -1    0    0  501    0  0.00000000000E+00  0.00000000000E+00 -0.14585896682E+04  0.14585896682E+04  0.50400001928E-02 0. -1.
    10030    2    1    2    0    0  0.00000000000E+00  0.00000000000E+00 -0.15292378110E+03  0.27642555553E+04  0.27600222992E+04 0.  0.
        5    1    3    3  502    0  0.32746988817E+03  0.88396213829E+03  0.93294459379E+03  0.13262855253E+04  0.46999998093E+01 0.  1.
       -5    1    3    3    0  502 -0.32746988817E+03 -0.88396213829E+03 -0.10858683749E+04  0.14379700300E+04  0.46999998093E+01 0. -1.
</event>
<event>
 5   0  0.2234068E-06  0.2586613E+04  0.7818609E-02  0.8372763E-01
       -1   -1    0    0    0  501  0.00000000000E+00  0.00000000000E+00  0.10343254222E+04  0.10343254222E+04  0.50400001928E-02 0. -1.
        1   -1    0    0  501    0  0.00000000000E+00  0.00000000000E+00 -0.16171334750E+04  0.16171334750E+04  0.50400001928E-02 0.  1.
    10030    2    1    2    0    0  0.00000000000E+00  0.00000000000E+00 -0.58280805285E+03  0.26514588972E+04  0.25866134340E+04 0.  0.
        3    1    3    3  502    0 -0.36662986294E+03  0.75504339320E+03 -0.13000091442E+04  0.15474274676E+04  0.10100000352E+00 0.  1.
       -3    1    3    3    0  502  0.36662986294E+03 -0.75504339320E+03  0.71720109140E+03  0.11040314297E+04  0.10100000352E+00 0. -1.
</event>
<event>
 5   0  0.5625245E-06  0.2659223E+04  0.7818609E-02  0.8348358E-01
       -2   -1    0    0    0  501  0.00000000000E+00  0.00000000000E+00  0.10440666803E+04  0.10440666803E+04  0.25500000920E-02 0.  1.
        2   -1    0    0  501    0  0.00000000000E+00  0.00000000000E+00 -0.16932503096E+04  0.16932503096E+04  0.25500000920E-02 0. -1.
    10030    2    1    2    0    0  0.00000000000E+00  0.00000000000E+00 -0.64918362932E+03  0.27373169899E+04  0.26592226154E+04 0.  0.
        3    1    3    3  502    0  0.88374790851E+03  0.46583011309E+03  0.57859118810E+03  0.11544591085E+04  0.10100000352E+00 0.  1.
       -3    1    3    3    0  502 -0.88374790851E+03 -0.46583011309E+03 -0.12277748174E+04  0.15828578814E+04  0.10100000352E+00 0. -1.
</event>
<event>
 5   0  0.2277133E-06  0.2807196E+04  0.7818609E-02  0.8301038E-01
       -1   -1    0    0    0  501  0.00000000000E+00  0.00000000000E+00  0.91975856256E+03  0.91975856258E+03  0.50400001928E-02 0.  1.
        1   -1    0    0  501    0  0.00000000000E+00  0.00000000000E+00 -0.21419617539E+04  0.21419617539E+04  0.50400001928E-02 0. -1.
    10030    2    1    2    0    0  0.00000000000E+00  0.00000000000E+00 -0.12222031913E+04  0.30617203165E+04  0.28071962267E+04 0.  0.
        1    1    3    3  502    0 -0.80667259337E+02 -0.70307157913E+03 -0.19331387787E+04  0.20586020475E+04  0.50400001928E-02 0. -1.
       -1    1    3    3    0  502  0.80667259337E+02  0.70307157913E+03  0.71093558739E+03  0.10031182690E+04  0.50400001928E-02 0.  1.
</event>
<event>
 5   0  0.2267565E-06  0.2807463E+04  0.7818609E-02  0.8300955E-01
       -1   -1    0    0    0  501  0.00000000000E+00  0.00000000000E+00  0.10297463848E+04  0.10297463848E+04  0.50400001928E-02 0.  1.
        1   -1    0    0  501    0  0.00000000000E+00  0.00000000000E+00 -0.19135416002E+04  0.19135416002E+04  0.50400001928E-02 0. -1.
    10030    2    1    2    0    0  0.00000000000E+00  0.00000000000E+00 -0.88379521538E+03  0.29432879850E+04  0.28074632999E+04 0.  0.
        4    1    3    3  502    0 -0.31780813478E+03 -0.32213483494E+03 -0.18349763372E+04  0.18899504314E+04  0.12699999809E+01 0. -1.
       -4    1    3    3    0  502  0.31780813478E+03  0.32213483494E+03  0.95118112181E+03  0.10533375536E+04  0.12699999809E+01 0.  1.
</event>
<event>
 5   0  0.2206967E-06  0.2649875E+04  0.7818609E-02  0.8351455E-01
        1   -1    0    0  501    0  0.00000000000E+00  0.00000000000E+00  0.10278305665E+04  0.10278305665E+04  0.50400001928E-02 0. -1.
       -1   -1    0    0    0  501  0.00000000000E+00  0.00000000000E+00 -0.17079262851E+04  0.17079262851E+04  0.50400001928E-02 0.  1.
    10030    2    1    2    0    0  0.00000000000E+00  0.00000000000E+00 -0.68009571857E+03  0.27357568516E+04  0.26498745942E+04 0.  0.
        5    1    3    3  502    0  0.11420181847E+04 -0.33412628386E+03 -0.94167879575E+03  0.15174409221E+04  0.46999998093E+01 0.  1.
       -5    1    3    3    0  502 -0.11420181847E+04  0.33412628386E+03  0.26158307718E+03  0.12183159295E+04  0.46999998093E+01 0. -1.
</event>
<event>
 5   0  0.2277133E-06  0.2819161E+04  0.7818609E-02  0.8297344E-01
        1   -1    0    0  501    0  0.00000000000E+00  0.00000000000E+00  0.14381656983E+04  0.14381656983E+04  0.50400001928E-02 0. -1.
       -1   -1    0    0    0  501  0.00000000000E+00  0.00000000000E+00 -0.13815635490E+04  0.13815635490E+04  0.50400001928E-02 0.  1.
    10030    2    1    2    0    0  0.00000000000E+00  0.00000000000E+00  0.56602149286E+02  0.28197292474E+04  0.28191610854E+04 0.  0.
        1    1    3    3  502    0 -0.80434207652E+03  0.44533809321E+03 -0.10403828431E+04  0.13884122780E+04  0.50400001928E-02 0.  1.
       -1    1    3    3    0  502  0.80434207652E+03 -0.44533809321E+03  0.10969849924E+04  0.14313169694E+04  0.50400001928E-02 0. -1.
</event>
<event>
 5   0  0.2277133E-06  0.2798711E+04  0.7818609E-02  0.8303669E-01
        1   -1    0    0  501    0  0.00000000000E+00  0.00000000000E+00  0.19558548584E+04  0.19558548584E+04  0.50400001928E-02 0.  1.
       -1   -1    0    0    0  501  0.00000000000E+00  0.00000000000E+00 -0.10011971889E+04  0.10011971889E+04  0.50400001928E-02 0. -1.
    10030    2    1    2    0    0  0.00000000000E+00  0.00000000000E+00  0.95465766956E+03  0.29570520473E+04  0.27987114079E+04 0.  0.
        1    1    3    3  502    0 -0.36585112299E+03  0.13138653639E+04  0.14638737768E+03  0.13716845494E+04  0.50400001928E-02 0.  1.
       -1    1    3    3    0  502  0.36585112299E+03 -0.13138653639E+04  0.80827029188E+03  0.15853674979E+04  0.50400001928E-02 0. -1.
</event>
<event>
 5   0  0.5546570E-06  0.2788590E+04  0.7818609E-02  0.8306819E-01
        2   -1    0    0  501    0  0.00000000000E+00  0.00000000000E+00  0.16039239474E+04  0.16039239474E+04  0.25500000920E-02 0. -1.
       -2   -1    0    0    0  501  0.00000000000E+00  0.00000000000E+00 -0.12120644547E+04  0.12120644547E+04  0.25500000920E-02 0.  1.
    10030    2    1    2    0    0  0.00000000000E+00  0.00000000000E+00  0.39185949265E+03  0.28159884021E+04  0.27885904717E+04 0.  0.
        4    1    3    3  502    0  0.98786519266E+03 -0.10648429338E+03  0.11837229228E+04  0.15454507803E+04  0.12699999809E+01 0. -1.
       -4    1    3    3    0  502 -0.98786519266E+03  0.10648429338E+03 -0.79186343012E+03  0.12705376218E+04  0.12699999809E+01 0.  1.
</event>
<event>
 5   0  0.2267565E-06  0.2794026E+04  0.7818609E-02  0.8305126E-01
        1   -1    0    0  501    0  0.00000000000E+00  0.00000000000E+00  0.22439409529E+04  0.22439409529E+04  0.50400001928E-02 0. -1.
       -1   -1    0    0    0  501  0.00000000000E+00  0.00000000000E+00 -0.86973982957E+03  0.86973982958E+03  0.50400001928E-02 0.  1.
    10030    2    1    2    0    0  0.00000000000E+00  0.00000000000E+00  0.13742011234E+04  0.31136807825E+04  0.27940256420E+04 0.  0.
        4    1    3    3  502    0  0.51917671719E+03  0.11667769160E+04  0.13182231788E+04  0.18353819214E+04  0.12699999809E+01 0.  1.
       -4    1    3    3    0  502 -0.51917671719E+03 -0.11667769160E+04  0.55977944585E+02  0.12782988612E+04  0.12699999809E+01 0. -1.
</event>
<event>
 5   0  0.2277133E-06  0.2994078E+04  0.7818609E-02  0.8245424E-01
        1   -1    0    0  501    0  0.00000000000E+00  0.00000000000E+00  0.16120903839E+04  0.16120903839E+04  0.50400001928E-02 0.  1.
       -1   -1    0    0    0  501  0.00000000000E+00  0.00000000000E+00 -0.13901983622E+04  0.13901983622E+04  0.50400001928E-02 0. -1.
    10030    2    1    2    0    0  0.00000000000E+00  0.00000000000E+00  0.22189202168E+03  0.30022887461E+04  0.29940777621E+04 0.  0.
        1    1    3    3  502    0 -0.11032389400E+03 -0.14924039319E+04  0.69790137767E+02  0.14981026403E+04  0.50400001928E-02 0. -1.
       -1    1    3    3    0  502  0.11032389400E+03  0.14924039319E+04  0.15210188391E+03  0.15041861058E+04  0.50400001928E-02 0.  1.
</event>
<event>
 5   0  0.2234068E-06  0.2788058E+04  0.7818609E-02  0.8306985E-01
       -1   -1    0    0    0  501  0.00000000000E+00  0.00000000000E+00  0.18340510135E+04  0.18340510135E+04  0.50400001928E-02 0.  1.
        1   -1    0    0  501    0  0.00000000000E+00  0.00000000000E+00 -0.10595765538E+04  0.10595765538E+04  0.50400001928E-02 0. -1.
    10030    2    1    2    0    0  0.00000000000E+00  0.00000000000E+00  0.77447445976E+03  0.28936275673E+04  0.27880584301E+04 0.  0.
        3    1    3    3  502    0 -0.47188716353E+03  0.12169432347E+04 -0.12088116100E+03  0.13108167671E+04  0.10100000352E+00 0. -1.
       -3    1    3    3    0  502  0.47188716353E+03 -0.12169432347E+04  0.89535562076E+03  0.15828108002E+04  0.10100000352E+00 0.  1.
</event>
<event>
 5   0  0.2206967E-06  0.2849363E+04  0.7818609E-02  0.8288105E-01
       -1   -1    0    0    0  501  0.00000000000E+00  0.00000000000E+00  0.70404740515E+03  0.70404740517E+03  0.50400001928E-02 0. -1.
        1   -1    0    0  501    0  0.00000000000E+00  0.00000000000E+00 -0.28829261963E+04  0.28829261963E+04  0.50400001928E-02 0.  1.
    10030    2    1    2    0    0  0.00000000000E+00  0.00000000000E+00 -0.21788787911E+04  0.35869736015E+04  0.28493625306E+04 0.  0.
        5    1    3    3  502    0 -0.49616622841E+03 -0.11762596831E+04 -0.18855451304E+04  0.22770749432E+04  0.46999998093E+01 0. -1.
       -5    1    3    3    0  502  0.49616622841E+03  0.11762596831E+04 -0.29333366075E+03  0.13098986582E+04  0.46999998093E+01 0.  1.
</event>
<event>
 5   0  0.5546570E-06  0.2777936E+04  0.7818609E-02  0.8310151E-01
        2   -1    0    0  501    0  0.00000000000E+00  0.00000000000E+00  0.21119669642E+04  0.21119669642E+04  0.25500000920E-02 0.  1.
       -2   -1    0    0    0  501  0.00000000000E+00  0.00000000000E+00 -0.91347615765E+03  0.91347615766E+03  0.25500000920E-02 0. -1.
    10030    2    1    2    0    0  0.00000000000E+00  0.00000000000E+00  0.11984908066E+04  0.30254431219E+04  0.27779355411E+04 0.  0.
        4    1    3    3  502    0  0.12360439232E+04  0.59925371533E+03  0.37519744627E+03  0.14239678128E+04  0.12699999809E+01 0. -1.
       -4    1    3    3    0  502 -0.12360439232E+04 -0.59925371533E+03  0.82329336029E+03  0.16014753090E+04  0.12699999809E+01 0.  1.
</event>
<event>
 5   0  0.2190865E-06  0.2796546E+04  0.7818609E-02  0.8304342E-01
       -1   -1    0    0    0  501  0.00000000000E+00  0.00000000000E+00  0.13449910612E+04  0.13449910612E+04  0.50400001928E-02 0.  1.
        1   -1    0    0  501    0  0.00000000000E+00  0.00000000000E+00 -0.14536655056E+04  0.14536655056E+04  0.50400001928E-02 0. -1.
    10030    2    1    2    0    0  0.00000000000E+00  0.00000000000E+00 -0.10867444443E+03  0.27986565668E+04  0.27965458058E+04 0.  0.
        2    1    3    3  502    0  0.10972127268E+04  0.63096866690E+03 -0.64906675133E+03  0.14224221856E+04  0.25500000920E-02 0. -1.
       -2    1    3    3    0  502 -0.10972127268E+04 -0.63096866690E+03  0.54039230689E+03  0.13762343812E+04  0.25500000920E-02 0.  1.
</event>
<event>
 5   0  0.2267565E-06  0.2792147E+04  0.7818609E-02  0.8305711E-01
        1   -1    0    0  501    0  0.00000000000E+00  0.00000000000E+00  0.11128473117E+04  0.11128473118E+04  0.50400001928E-02 0.  1.
       -1   -1    0    0    0  501  0.00000000000E+00  0.00000000000E+00 -0.17513821802E+04  0.17513821803E+04  0.50400001928E-02 0. -1.
    10030    2    1    2    0    0  0.00000000000E+00  0.00000000000E+00 -0.63853486851E+03  0.28642294920E+04  0.27921468093E+04 0.  0.
        4    1    3    3  502    0  0.21002603017E+03 -0.13563142036E+04 -0.57091231588E+02  0.13736666895E+04  0.12699999809E+01 0.  1.
       -4    1    3    3    0  502 -0.21002603017E+03  0.13563142036E+04 -0.58144363692E+03  0.14905628025E+04  0.12699999809E+01 0. -1.
</event>
<event>
 5   0  0.5546570E-06  0.2820737E+04  0.7818609E-02  0.8296859E-01
       -2   -1    0    0    0  501  0.00000000000E+00  0.00000000000E+00  0.88812691814E+03  0.88812691814E+03  0.25500000920E-02 0. -1.
        2   -1    0    0  501    0  0.00000000000E+00  0.00000000000E+00 -0.22397008972E+04  0.22397008972E+04  0.25500000920E-02 0.  1.
    10030    2    1    2    0    0  0.00000000000E+00  0.00000000000E+00 -0.13515739791E+04  0.31278278153E+04  0.28207365388E+04 0.  0.
        4    1    3    3  502    0 -0.31222625477E+03  0.28311018444E+03  0.81666213001E+03  0.91900775742E+03  0.12699999809E+01 0. -1.
       -4    1    3    3    0  502  0.31222625477E+03 -0.28311018444E+03 -0.21682361091E+04  0.22088200579E+04  0.12699999809E+01 0.  1.
</event>
<event>
 5   0  0.5866136E-06  0.2798510E+04  0.7818609E-02  0.8303731E-01
        2   -1    0    0  501    0  0.00000000000E+00  0.00000000000E+00  0.21842902235E+04  0.21842902235E+04  0.25500000920E-02 0.  1.
       -2   -1    0    0    0  501  0.00000000000E+00  0.00000000000E+00 -0.89636159022E+03  0.89636159023E+03  0.25500000920E-02 0. -1.
    10030    2    1    2    0    0  0.00000000000E+00  0.00000000000E+00  0.12879286333E+04  0.30806518138E+04  0.27985095021E+04 0.  0.
        5    1    3    3  502    0  0.39909075748E+03  0.22417320881E+03 -0.81160149197E+03  0.93179725907E+03  0.46999998093E+01 0. -1.
       -5    1    3    3    0  502 -0.39909075748E+03 -0.22417320881E+03  0.20995301253E+04  0.21488545547E+04  0.46999998093E+01 0.  1.
</event>
<event>
 5   0  0.2267565E-06  0.2868792E+04  0.7818609E-02  0.8282224E-01
       -1   -1    0    0    0  501  0.00000000000E+00  0.00000000000E+00  0.18471646509E+04  0.18471646509E+04  0.50400001928E-02 0. -1.
        1   -1    0    0  501    0  0.00000000000E+00  0.00000000000E+00 -0.11138647088E+04  0.11138647089E+04  0.50400001928E-02 0.  1.
    10030    2    1    2    0    0  0.00000000000E+00  0.00000000000E+00  0.73329994208E+03  0.29610293598E+04  0.28687917429E+04 0.  0.
        4    1    3    3  502    0 -0.46122839855E+03  0.75754736198E+03 -0.79692938838E+03  0.11923538503E+04  0.12699999809E+01 0.  1.
       -4    1    3    3    0  502  0.46122839855E+03 -0.75754736198E+03  0.15302293305E+04  0.17686755095E+04  0.12699999809E+01 0. -1.
</event>
<event>
 5   0  0.5546570E-06  0.2800330E+04  0.7818609E-02  0.8303166E-01
       -2   -1    0    0    0  501  0.00000000000E+00  0.00000000000E+00  0.99117536058E+03  0.99117536059E+03  0.25500000920E-02 0. -1.
        2   -1    0    0  501    0  0.00000000000E+00  0.00000000000E+00 -0.19779165131E+04  0.19779165131E+04  0.25500000920E-02 0.  1.
    10030    2    1    2    0    0  0.00000000000E+00  0.00000000000E+00 -0.98674115249E+03  0.29690918737E+04  0.28003300613E+04 0.  0.
        4    1    3    3  502    0  0.11908654565E+04 -0.14657742750E+03  0.27179630650E+03  0.12302521380E+04  0.12699999809E+01 0. -1.
       -4    1    3    3    0  502 -0.11908654565E+04  0.14657742750E+03 -0.12585374590E+04  0.17388397357E+04  0.12699999809E+01 0.  1.
</event>
<event>
 5   0  0.5625245E-06  0.2818705E+04  0.7818609E-02  0.8297485E-01
        2   -1    0    0  501    0  0.00000000000E+00  0.00000000000E+00  0.19299263310E+04  0.19299263310E+04  0.25500000920E-02 0. -1.
       -2   -1    0    0    0  501  0.00000000000E+00  0.00000000000E+00 -0.10291968578E+04  0.10291968579E+04  0.25500000920E-02 0.  1.
    10030    2    1    2    0    0  0.00000000000E+00  0.00000000000E+00  0.90072947318E+03  0.29591231889E+04  0.28187047492E+04 0.  0.
        3    1    3    3  502    0 -0.26432385704E+03 -0.46361069171E+03 -0.91902124620E+03  0.10627332855E+04  0.10100000352E+00 0. -1.
       -3    1    3    3    0  502  0.26432385704E+03  0.46361069171E+03  0.18197507194E+04  0.18963899034E+04  0.10100000352E+00 0.  1.
</event>
<event>
 5   0  0.2206967E-06  0.2783479E+04  0.7818609E-02  0.8308416E-01
        1   -1    0    0  501    0  0.00000000000E+00  0.00000000000E+00  0.12596696148E+04  0.12596696148E+04  0.50400001928E-02 0. -1.
       -1   -1    0    0    0  501  0.00000000000E+00  0.00000000000E+00 -0.15376559783E+04  0.15376559783E+04  0.50400001928E-02 0.  1.
    10030    2    1    2    0    0  0.00000000000E+00  0.00000000000E+00 -0.27798636358E+03  0.27973255931E+04  0.27834787686E+04 0.  0.
        5    1    3    3  502    0 -0.49848120169E+03 -0.12974239089E+04 -0.67054149901E+02  0.13915138004E+04  0.46999998093E+01 0. -1.
       -5    1    3    3    0  502  0.49848120169E+03  0.12974239089E+04 -0.21093221367E+03  0.14058117927E+04  0.46999998093E+01 0.  1.
</event>
<event>
 5   0  0.5916603E-06  0.2792499E+04  0.7818609E-02  0.8305601E-01
        2   -1    0    0  501    0  0.00000000000E+00  0.00000000000E+00  0.17820059949E+04  0.17820059949E+04  0.25500000920E-02 0.  1.
       -2   -1    0    0    0  501  0.00000000000E+00  0.00000000000E+00 -0.10939991995E+04  0.10939991995E+04  0.25500000920E-02 0. -1.
    10030    2    1    2    0    0  0.00000000000E+00  0.00000000000E+00  0.68800679540E+03  0.28760051943E+04  0.27924993334E+04 0.  0.
        2    1    3    3  502    0 -0.12727207497E+04 -0.56525220652E+03  0.24006490252E+03  0.14131381111E+04  0.25500000920E-02 0. -1.
       -2    1    3    3    0  502  0.12727207497E+04  0.56525220652E+03  0.44794189288E+03  0.14628670832E+04  0.25500000920E-02 0.  1.
</event>
<event>
 5   0  0.1901375E-06  0.2789997E+04  0.7818609E-02  0.8306381E-01
       -3   -1    0    0    0  501  0.00000000000E+00  0.00000000000E+00  0.10977020181E+04  0.10977020228E+04  0.10100000352E+00 0. -1.
        3   -1    0    0  501    0  0.00000000000E+00  0.00000000000E+00 -0.17728129282E+04  0.17728129311E+04  0.10100000352E+00 0.  1.
    10030    2    1    2    0    0  0.00000000000E+00  0.00000000000E+00 -0.67511091008E+03  0.28705149538E+04  0.27899966594E+04 0.  0.
        3    1    3    3  502    0  0.47696946684E+03 -0.62609867535E+03 -0.15225413470E+04  0.17139520376E+04  0.10100000352E+00 0.  1.
       -3    1    3    3    0  502 -0.47696946684E+03  0.62609867535E+03  0.84743043693E+03  0.11565629162E+04  0.10100000352E+00 0. -1.
</event>
<event>
 5   0  0.5916603E-06  0.2773874E+04  0.7818609E-02  0.8311426E-01
        2   -1    0    0  501    0  0.00000000000E+00  0.00000000000E+00  0.24649088005E+04  0.24649088005E+04  0.25500000920E-02 0. -1.
       -2   -1    0    0    0  501  0.00000000000E+00  0.00000000000E+00 -0.78039138101E+03  0.78039138101E+03  0.25500000920E-02 0.  1.
    10030    2    1    2    0    0  0.00000000000E+00  0.00000000000E+00  0.16845174195E+04  0.32453001815E+04  0.27738735248E+04 0.  0.
        2    1    3    3  502    0  0.22197854935E+03  0.44449394604E+02  0.24431467708E+04  0.24536129215E+04  0.25500000920E-02 0. -1.
       -2    1    3    3    0  502 -0.22197854935E+03 -0.44449394604E+02 -0.75862935127E+03  0.79168726001E+03  0.25500000920E-02 0.  1.
</event>
<event>
 5   0  0.2234068E-06  0.2801777E+04  0.7818609E-02  0.8302717E-01
        1   -1    0    0  501    0  0.00000000000E+00  0.00000000000E+00  0.13618485451E+04  0.13618485451E+04  0.50400001928E-02 0.  1.
       -1   -1    0    0    0  501  0.00000000000E+00  0.00000000000E+00 -0.14410473255E+04  0.14410473255E+04  0.50400001928E-02 0. -1.
    10030    2    1    2    0    0  0.00000000000E+00  0.00000000000E+00 -0.79198780402E+02  0.28028958706E+04  0.28017767247E+04 0.  0.
        3    1    3    3  502    0 -0.12366807265E+04  0.63111617600E+03 -0.22622509658E+03  0.14067212416E+04  0.10100000352E+00 0.  1.
       -3    1    3    3    0  502  0.12366807265E+04 -0.63111617600E+03  0.14702631618E+03  0.13961746291E+04  0.10100000352E+00 0. -1.
</event>
<event>
 5   0  0.5625245E-06  0.2514482E+04  0.7818609E-02  0.8397844E-01
       -2   -1    0    0    0  501  0.00000000000E+00  0.00000000000E+00  0.95630256327E+03  0.95630256327E+03  0.25500000920E-02 0. -1.
        2   -1    0    0  501    0  0.00000000000E+00  0.00000000000E+00 -0.16528814747E+04  0.16528814747E+04  0.25500000920E-02 0.  1.
    10030    2    1    2    0    0  0.00000000000E+00  0.00000000000E+00 -0.69657891143E+03  0.26091840380E+04  0.25144818878E+04 0.  0.
        3    1    3    3  502    0  0.70612824344E+03  0.93709461537E+03 -0.81683910765E+03  0.14296816262E+04  0.10100000352E+00 0. -1.
       -3    1    3    3    0  502 -0.70612824344E+03 -0.93709461537E+03  0.12026019622E+03  0.11795024118E+04  0.10100000352E+00 0.  1.
</event>
<event>
 5   0  0.2267565E-06  0.2805672E+04  0.7818609E-02  0.8301510E-01
       -1   -1    0    0    0  501  0.00000000000E+00  0.00000000000E+00  0.75339787717E+03  0.75339787719E+03  0.50400001928E-02 0.  1.
        1   -1    0    0  501    0  0.00000000000E+00  0.00000000000E+00 -0.26120977023E+04  0.26120977024E+04  0.50400001928E-02 0. -1.
    10030    2    1    2    0    0  0.00000000000E+00  0.00000000000E+00 -0.18586998252E+04  0.33654955795E+04  0.28056720150E+04 0.  0.
        4    1    3    3  502    0 -0.71144727151E+03  0.76660086985E+03  0.19214148799E+03  0.10633692106E+04  0.12699999809E+01 0.  1.
       -4    1    3    3    0  502  0.71144727151E+03 -0.76660086985E+03 -0.20508413132E+04  0.23021263689E+04  0.12699999809E+01 0. -1.
</event>
<event>
 5   0  0.2277133E-06  0.2806032E+04  0.7818609E-02  0.8301398E-01
       -1   -1    0    0    0  501  0.00000000000E+00  0.00000000000E+00  0.25661331270E+04  0.25661331270E+04  0.50400001928E-02 0.  1.
        1   -1    0    0  501    0  0.00000000000E+00  0.00000000000E+00 -0.76708953369E+03  0.76708953371E+03  0.50400001928E-02 0. -1.
    10030    2    1    2    0    0  0.00000000000E+00  0.00000000000E+00  0.17990435933E+04  0.33332226607E+04  0.28060319769E+04 0.  0.
        1    1    3    3  502    0 -0.44603065495E+03  0.11018827066E+03  0.24742412707E+04  0.25165362437E+04  0.50400001928E-02 0.  1.
       -1    1    3    3    0  502  0.44603065495E+03 -0.11018827066E+03 -0.67519767740E+03  0.81668641701E+03  0.50400001928E-02 0. -1.
</event>
<event>
 5   0  0.5916603E-06  0.2745601E+04  0.7818609E-02  0.8320359E-01
       -2   -1    0    0    0  501  0.00000000000E+00  0.00000000000E+00  0.81318617749E+03  0.81318617750E+03  0.25500000920E-02 0.  1.
        2   -1    0    0  501    0  0.00000000000E+00  0.00000000000E+00 -0.23175278643E+04  0.23175278643E+04  0.25500000920E-02 0. -1.
    10030    2    1    2    0    0  0.00000000000E+00  0.00000000000E+00 -0.15043416868E+04  0.31307140418E+04  0.27456013004E+04 0.  0.
        2    1    3    3  502    0  0.64458496150E+03  0.12058674230E+04 -0.89171067665E+03  0.16324074079E+04  0.25500000920E-02 0.  1.
       -2    1    3    3    0  502 -0.64458496150E+03 -0.12058674230E+04 -0.61263101012E+03  0.14983066339E+04  0.25500000920E-02 0. -1.
</event>
<event>
 5   0  0.2206967E-06  0.2816255E+04  0.7818609E-02  0.8298240E-01
       -1   -1    0    0    0  501  0.00000000000E+00  0.00000000000E+00  0.19195332047E+04  0.19195332047E+04  0.50400001928E-02 0. -1.
        1   -1    0    0  501    0  0.00000000000E+00  0.00000000000E+00 -0.10329714416E+04  0.10329714416E+04  0.50400001928E-02 0.  1.
    10030    2    1    2    0    0  0.00000000000E+00  0.00000000000E+00  0.88656176311E+03  0.29525046464E+04  0.28162549471E+04 0.  0.
        5    1    3    3  502    0 -0.13006653873E+04 -0.39507287243E+03  0.58098875718E+02  0.13605920012E+04  0.46999998093E+01 0.  1.
       -5    1    3    3    0  502  0.13006653873E+04  0.39507287243E+03  0.82846288739E+03  0.15919126452E+04  0.46999998093E+01 0. -1.
</event>
<event>
 5   0  0.5546570E-06  0.2805749E+04  0.7818609E-02  0.8301486E-01
        2   -1    0    0  501    0  0.00000000000E+00  0.00000000000E+00  0.26405874360E+04  0.26405874360E+04  0.25500000920E-02 0. -1.
       -2   -1    0    0    0  501  0.00000000000E+00  0.00000000000E+00 -0.74531039191E+03  0.74531039192E+03  0.25500000920E-02 0.  1.
    10030    2    1    2    0    0  0.00000000000E+00  0.00000000000E+00  0.18952770441E+04  0.33858978279E+04  0.28057492809E+04 0.  0.
        4    1    3    3  502    0 -0.11510179726E+04  0.40390828431E+03  0.17837763872E+04  0.21609822044E+04  0.12699999809E+01 0. -1.
       -4    1    3    3    0  502  0.11510179726E+04 -0.40390828431E+03  0.11150065687E+03  0.12249156235E+04  0.12699999809E+01 0.  1.
</event>
<event>
 5   0  0.5625245E-06  0.2789899E+04  0.7818609E-02  0.8306411E-01
       -2   -1    0    0    0  501  0.00000000000E+00  0.00000000000E+00  0.75935346548E+03  0.75935346548E+03  0.25500000920E-02 0. -1.
        2   -1    0    0  501    0  0.00000000000E+00  0.00000000000E+00 -0.25625531163E+04  0.25625531163E+04  0.25500000920E-02 0.  1.
    10030    2    1    2    0    0  0.00000000000E+00  0.00000000000E+00 -0.18031996508E+04  0.33219065818E+04  0.27898986285E+04 0.  0.
        3    1    3    3  502    0 -0.18410343022E+03 -0.63894664198E+02  0.74306570325E+03  0.76819479995E+03  0.10100000352E+00 0. -1.
       -3    1    3    3    0  502  0.18410343022E+03  0.63894664198E+02 -0.25462653541E+04  0.25537117819E+04  0.10100000352E+00 0.  1.
</event>
<event>
 5   0  0.5866136E-06  0.2837923E+04  0.7818609E-02  0.8291591E-01
        2   -1    0    0  501    0  0.00000000000E+00  0.00000000000E+00  0.23951158451E+04  0.23951158451E+04  0.25500000920E-02 0.  1.
       -2   -1    0    0    0  501  0.00000000000E+00  0.00000000000E+00 -0.84064880283E+03  0.84064880283E+03  0.25500000920E-02 0. -1.
    10030    2    1    2    0    0  0.00000000000E+00  0.00000000000E+00  0.15544670423E+04  0.32357646479E+04  0.28379226683E+04 0.  0.
        5    1    3    3  502    0  0.44393126992E+02 -0.66758710720E+03  0.22039660246E+04  0.23032871343E+04  0.46999998093E+01 0.  1.
       -5    1    3    3    0  502 -0.44393126992E+02  0.66758710720E+03 -0.64949898232E+03  0.93247751365E+03  0.46999998093E+01 0. -1.
</event>
<event>
 5   0  0.2267565E-06  0.2718446E+04  0.7818609E-02  0.8329045E-01
        1   -1    0    0  501    0  0.00000000000E+00  0.00000000000E+00  0.15029722551E+04  0.15029722551E+04  0.50400001928E-02 0. -1.
       -1   -1    0    0    0  501  0.00000000000E+00  0.00000000000E+00 -0.12292223919E+04  0.12292223919E+04  0.50400001928E-02 0.  1.
    10030    2    1    2    0    0  0.00000000000E+00  0.00000000000E+00  0.27374986320E+03  0.27321946470E+04  0.27184459901E+04 0.  0.
        4    1    3    3  502    0  0.72571604992E+03 -0.34188848388E+03 -0.96591367351E+03  0.12556043796E+04  0.12699999809E+01 0.  1.
       -4    1    3    3    0  502 -0.72571604992E+03  0.34188848388E+03  0.12396635367E+04  0.14765902674E+04  0.12699999809E+01 0. -1.
</event>
<event>
 5   0  0.2234068E-06  0.2773656E+04  0.7818609E-02  0.8311494E-01
        1   -1    0    0  501    0  0.00000000000E+00  0.00000000000E+00  0.11878064265E+04  0.11878064265E+04  0.50400001928E-02 0.  1.
       -1   -1    0    0    0  501  0.00000000000E+00  0.00000000000E+00 -0.16191967175E+04  0.16191967175E+04  0.50400001928E-02 0. -1.
    10030    2    1    2    0    0  0.00000000000E+00  0.00000000000E+00 -0.43139029103E+03  0.28070031440E+04  0.27736562634E+04 0.  0.
        3    1    3    3  502    0  0.13279231536E+04 -0.99156480863E+02  0.17636452745E+03  0.13432484381E+04  0.10100000352E+00 0.  1.
       -3    1    3    3    0  502 -0.13279231536E+04  0.99156480863E+02 -0.60775481847E+03  0.14637547060E+04  0.10100000352E+00 0. -1.
</event>
<event>
 5   0  0.2206967E-06  0.2841939E+04  0.7818609E-02  0.8290365E-01
        1   -1    0    0  501    0  0.00000000000E+00  0.00000000000E+00  0.26949268786E+04  0.26949268786E+04  0.50400001928E-02 0. -1.
       -1   -1    0    0    0  501  0.00000000000E+00  0.00000000000E+00 -0.74924287667E+03  0.74924287669E+03  0.50400001928E-02 0.  1.
    10030    2    1    2    0    0  0.00000000000E+00  0.00000000000E+00  0.19456840019E+04  0.34441697553E+04  0.28419393146E+04 0.  0.
        5    1    3    3  502    0  0.11712762336E+04 -0.21951769663E+03  0.34840155744E+02  0.11921878883E+04  0.46999998093E+01 0.  1.
       -5    1    3    3    0  502 -0.11712762336E+04  0.21951769663E+03  0.19108438462E+04  0.22519818670E+04  0.46999998093E+01 0. -1.
</event>
<event>
 5   0  0.5546570E-06  0.2786825E+04  0.7818609E-02  0.8307370E-01
       -2   -1    0    0    0  501  0.00000000000E+00  0.00000000000E+00  0.16541358610E+04  0.16541358610E+04  0.25500000920E-02 0.  1.
        2   -1    0    0  501    0  0.00000000000E+00  0.00000000000E+00 -0.11737843982E+04  0.11737843982E+04  0.25500000920E-02 0. -1.
    10030    2    1    2    0    0  0.00000000000E+00  0.00000000000E+00  0.48035146272E+03  0.28279202592E+04  0.27868253380E+04 0.  0.
        4    1    3    3  502    0  0.88160713704E+02 -0.78455961061E+03 -0.92492393660E+03  0.12160559179E+04  0.12699999809E+01 0. -1.
       -4    1    3    3    0  502 -0.88160713704E+02  0.78455961061E+03  0.14052753993E+04  0.16118643413E+04  0.12699999809E+01 0.  1.
</event>
<event>
 5   0  0.5584205E-06  0.2753535E+04  0.7818609E-02  0.8317841E-01
       -2   -1    0    0    0  501  0.00000000000E+00  0.00000000000E+00  0.82479756961E+03  0.82479756961E+03  0.25500000920E-02 0. -1.
        2   -1    0    0  501    0  0.00000000000E+00  0.00000000000E+00 -0.22981264424E+04  0.22981264424E+04  0.25500000920E-02 0.  1.
    10030    2    1    2    0    0  0.00000000000E+00  0.00000000000E+00 -0.14733288728E+04  0.31229240121E+04  0.27535352581E+04 0.  0.
        1    1    3    3  502    0  0.12830648844E+04  0.44237530298E+03 -0.47424220612E+03  0.14376568006E+04  0.50400001928E-02 0. -1.
       -1    1    3    3    0  502 -0.12830648844E+04 -0.44237530298E+03 -0.99908666671E+03  0.16852672114E+04  0.50400001928E-02 0.  1.
</event>
<event>
 5   0  0.5866136E-06  0.2803274E+04  0.7818609E-02  0.8302253E-01
        2   -1    0    0  501    0  0.00000000000E+00  0.00000000000E+00  0.18752549036E+04  0.18752549036E+04  0.25500000920E-02 0. -1.
       -2   -1    0    0    0  501  0.00000000000E+00  0.00000000000E+00 -0.10476367629E+04  0.10476367629E+04  0.25500000920E-02 0.  1.
    10030    2    1    2    0    0  0.00000000000E+00  0.00000000000E+00  0.82761814069E+03  0.29228916665E+04  0.28032737838E+04 0.  0.
        5    1    3    3  502    0 -0.60285522970E+02  0.63268796450E+03  0.17163696835E+04  0.18302664793E+04  0.46999998093E+01 0. -1.
       -5    1    3    3    0  502  0.60285522970E+02 -0.63268796450E+03 -0.88875154285E+03  0.10926251872E+04  0.46999998093E+01 0.  1.
</event>
<event>
 5   0  0.5546570E-06  0.2786657E+04  0.7818609E-02  0.8307423E-01
        2   -1    0    0  501    0  0.00000000000E+00  0.00000000000E+00  0.16350753609E+04  0.16350753609E+04  0.25500000920E-02 0.  1.
       -2   -1    0    0    0  501  0.00000000000E+00  0.00000000000E+00 -0.11873241400E+04  0.11873241400E+04  0.25500000920E-02 0. -1.
    10030    2    1    2    0    0  0.00000000000E+00  0.00000000000E+00  0.44775122097E+03  0.28223995009E+04  0.27866570989E+04 0.  0.
        4    1    3    3  502    0 -0.96313890524E+03 -0.47044677902E+03  0.11254651477E+04  0.15542297559E+04  0.12699999809E+01 0.  1.
       -4    1    3    3    0  502  0.96313890524E+03  0.47044677902E+03 -0.67771392670E+03  0.12681697450E+04  0.12699999809E+01 0. -1.
</event>
<event>
 5   0  0.5916603E-06  0.2780217E+04  0.7818609E-02  0.8309437E-01
       -2   -1    0    0    0  501  0.00000000000E+00  0.00000000000E+00  0.89049060043E+03  0.89049060043E+03  0.25500000920E-02 0.  1.
        2   -1    0    0  501    0  0.00000000000E+00  0.00000000000E+00 -0.21700414412E+04  0.21700414412E+04  0.25500000920E-02 0. -1.
    10030    2    1    2    0    0  0.00000000000E+00  0.00000000000E+00 -0.12795508408E+04  0.30605320417E+04  0.27802169023E+04 0.  0.
        2    1    3    3  502    0  0.30825072907E+03 -0.10266859885E+03 -0.21276583574E+04  0.21523218716E+04  0.25500000920E-02 0. -1.
       -2    1    3    3    0  502 -0.30825072907E+03  0.10266859885E+03  0.84810751663E+03  0.90821017003E+03  0.25500000920E-02 0.  1.
</event>
<event>
 5   0  0.5866136E-06  0.2906696E+04  0.7818609E-02  0.8270888E-01
        2   -1    0    0  501    0  0.00000000000E+00  0.00000000000E+00  0.18462083656E+04  0.18462083656E+04  0.25500000920E-02 0. -1.
       -2   -1    0    0    0  501  0.00000000000E+00  0.00000000000E+00 -0.11440857858E+04  0.11440857858E+04  0.25500000920E-02 0.  1.
    10030    2    1    2    0    0  0.00000000000E+00  0.00000000000E+00  0.70212257986E+03  0.29902941514E+04  0.29066962337E+04 0.  0.
        5    1    3    3  502    0 -0.95580928438E+02  0.43429248491E+03 -0.10723703529E+04  0.11609246057E+04  0.46999998093E+01 0.  1.
       -5    1    3    3    0  502  0.95580928438E+02 -0.43429248491E+03  0.17744929328E+04  0.18293695457E+04  0.46999998093E+01 0. -1.
</event>
<event>
 5   0  0.5866136E-06  0.2801223E+04  0.7818609E-02  0.8302889E-01
        2   -1    0    0  501    0  0.00000000000E+00  0.00000000000E+00  0.84973411845E+03  0.84973411845E+03  0.25500000920E-02 0.  1.
       -2   -1    0    0    0  501  0.00000000000E+00  0.00000000000E+00 -0.23086191582E+04  0.23086191582E+04  0.25500000920E-02 0. -1.
    10030    2    1    2    0    0  0.00000000000E+00  0.00000000000E+00 -0.14588850397E+04  0.31583532766E+04  0.28012229224E+04 0.  0.
        5    1    3    3  502    0 -0.24781162815E+03 -0.73967123219E+03  0.58211883547E+03  0.97334914773E+03  0.46999998093E+01 0.  1.
       -5    1    3    3    0  502  0.24781162815E+03  0.73967123219E+03 -0.20410038752E+04  0.21850041289E+04  0.46999998093E+01 0. -1.
</event>
<event>
 5   0  0.2190865E-06  0.2796226E+04  0.7818609E-02  0.8304441E-01
       -1   -1    0    0    0  501  0.00000000000E+00  0.00000000000E+00  0.10689927585E+04  0.10689927586E+04  0.50400001928E-02 0. -1.
        1   -1    0    0  501    0  0.00000000000E+00  0.00000000000E+00 -0.18285627848E+04  0.18285627848E+04  0.50400001928E-02 0.  1.
    10030    2    1    2    0    0  0.00000000000E+00  0.00000000000E+00 -0.75957002629E+03  0.28975555434E+04  0.27962262967E+04 0.  0.
        2    1    3    3  502    0 -0.48646181498E+03  0.13060256298E+04 -0.49504677286E+03  0.14789926810E+04  0.25500000920E-02 0.  1.
       -2    1    3    3    0  502  0.48646181498E+03 -0.13060256298E+04 -0.26452325344E+03  0.14185628624E+04  0.25500000920E-02 0. -1.
</event>
<event>
 5   0  0.2190865E-06  0.2813091E+04  0.7818609E-02  0.8299216E-01
        1   -1    0    0  501    0  0.00000000000E+00  0.00000000000E+00  0.27139687383E+04  0.27139687383E+04  0.50400001928E-02 0. -1.
       -1   -1    0    0    0  501  0.00000000000E+00  0.00000000000E+00 -0.72895854849E+03  0.72895854851E+03  0.50400001928E-02 0.  1.
    10030    2    1    2    0    0  0.00000000000E+00  0.00000000000E+00  0.19850101898E+04  0.34429272868E+04  0.28130913331E+04 0.  0.
        2    1    3    3  502    0 -0.27880673395E+03 -0.13263208345E+04  0.53210177691E+03  0.14560193858E+04  0.25500000920E-02 0.  1.
       -2    1    3    3    0  502  0.27880673395E+03  0.13263208345E+04  0.14529084129E+04  0.19869079010E+04  0.25500000920E-02 0. -1.
</event>
<event>
 5   0  0.2190865E-06  0.2817813E+04  0.7818609E-02  0.8297759E-01
        1   -1    0    0  501    0  0.00000000000E+00  0.00000000000E+00  0.17025596260E+04  0.17025596260E+04  0.50400001928E-02 0. -1.
       -1   -1    0    0    0  501  0.00000000000E+00  0.00000000000E+00 -0.11659021969E+04  0.11659021969E+04  0.50400001928E-02 0.  1.
    10030    2    1    2    0    0  0.00000000000E+00  0.00000000000E+00  0.53665742916E+03  0.28684618229E+04  0.28178133425E+04 0.  0.
        2    1    3    3  502    0 -0.10345258859E+04  0.22209357335E+03 -0.67868769395E+03  0.12570546328E+04  0.25500000920E-02 0.  1.
       -2    1    3    3    0  502  0.10345258859E+04 -0.22209357335E+03  0.12153451231E+04  0.16114071901E+04  0.25500000920E-02 0. -1.
</event>
<event>
 5   0  0.2206967E-06  0.2794225E+04  0.7818609E-02  0.8305064E-01
       -1   -1    0    0    0  501  0.00000000000E+00  0.00000000000E+00  0.13273523694E+04  0.13273523694E+04  0.50400001928E-02 0.  1.
        1   -1    0    0  501    0  0.00000000000E+00  0.00000000000E+00 -0.14705385363E+04  0.14705385363E+04  0.50400001928E-02 0. -1.
    10030    2    1    2    0    0  0.00000000000E+00  0.00000000000E+00 -0.14318616689E+03  0.27978909057E+04  0.27942246227E+04 0.  0.
        5    1    3    3  502    0  0.91001027912E+03  0.85042884150E+03 -0.70531590354E+03  0.14313771468E+04  0.46999998093E+01 0. -1.
       -5    1    3    3    0  502 -0.91001027912E+03 -0.85042884150E+03  0.56212973665E+03  0.13665137589E+04  0.46999998093E+01 0.  1.
</event>
<event>
 5   0  0.5625245E-06  0.2778791E+04  0.7818609E-02  0.8309883E-01
        2   -1    0    0  501    0  0.00000000000E+00  0.00000000000E+00  0.20320928517E+04  0.20320928517E+04  0.25500000920E-02 0.  1.
       -2   -1    0    0    0  501  0.00000000000E+00  0.00000000000E+00 -0.94996606644E+03  0.94996606644E+03  0.25500000920E-02 0. -1.
    10030    2    1    2    0    0  0.00000000000E+00  0.00000000000E+00  0.10821267852E+04  0.29820589181E+04  0.27787905664E+04 0.  0.
        3    1    3    3  502    0 -0.10671388686E+04  0.57829530711E+03  0.12666972057E+04  0.17543467868E+04  0.10100000352E+00 0.  1.
       -3    1    3    3    0  502  0.10671388686E+04 -0.57829530711E+03 -0.18457042052E+03  0.12277121313E+04  0.10100000352E+00 0. -1.
</event>
<event>
 5   0  0.2234068E-06  0.2791801E+04  0.7818609E-02  0.8305818E-01
       -1   -1    0    0    0  501  0.00000000000E+00  0.00000000000E+00  0.15728819265E+04  0.15728819265E+04  0.50400001928E-02 0. -1.
        1   -1    0    0  501    0  0.00000000000E+00  0.00000000000E+00 -0.12388327393E+04  0.12388327393E+04  0.50400001928E-02 0.  1.
    10030    2    1    2    0    0  0.00000000000E+00  0.00000000000E+00  0.33404918722E+03  0.28117146658E+04  0.27918005843E+04 0.  0.
        3    1    3    3  502    0 -0.13707605042E+04 -0.13596236930E+02  0.43228210132E+03  0.14373715744E+04  0.10100000352E+00 0. -1.
       -3    1    3    3    0  502  0.13707605042E+04  0.13596236930E+02 -0.98232914100E+02  0.13743430915E+04  0.10100000352E+00 0.  1.
</event>
<event>
 5   0  0.2190865E-06  0.2806357E+04  0.7818609E-02  0.8301298E-01
        1   -1    0    0  501    0  0.00000000000E+00  0.00000000000E+00  0.12075255976E+04  0.12075255976E+04  0.50400001928E-02 0. -1.
       -1   -1    0    0    0  501  0.00000000000E+00  0.00000000000E+00 -0.16305320824E+04  0.16305320824E+04  0.50400001928E-02 0.  1.
    10030    2    1    2    0    0  0.00000000000E+00  0.00000000000E+00 -0.42300648484E+03  0.28380576801E+04  0.28063565185E+04 0.  0.
        2    1    3    3  502    0  0.10061984501E+04  0.45493442436E+03  0.66401798076E+03  0.12885342565E+04  0.25500000920E-02 0. -1.
       -2    1    3    3    0  502 -0.10061984501E+04 -0.45493442436E+03 -0.10870244656E+04  0.15495234236E+04  0.25500000920E-02 0.  1.
</event>
<event>
 5   0  0.2206967E-06  0.2803426E+04  0.7818609E-02  0.8302205E-01
        1   -1    0    0  501    0  0.00000000000E+00  0.00000000000E+00  0.15787541093E+04  0.15787541093E+04  0.50400001928E-02 0. -1.
       -1   -1    0    0    0  501  0.00000000000E+00  0.00000000000E+00 -0.12445255816E+04  0.12445255816E+04  0.50400001928E-02 0.  1.
    10030    2    1    2    0    0  0.00000000000E+00  0.00000000000E+00  0.33422852774E+03  0.28232796909E+04  0.28034263865E+04 0.  0.
        5    1    3    3  502    0 -0.11748109191E+04  0.59887402103E+03 -0.31159081429E+03  0.13549692669E+04  0.46999998093E+01 0.  1.
       -5    1    3    3    0  502  0.11748109191E+04 -0.59887402103E+03  0.64581934203E+03  0.14683104240E+04  0.46999998093E+01 0. -1.
</event>
<event>
 5   0  0.5916603E-06  0.2816106E+04  0.7818609E-02  0.8298286E-01
        2   -1    0    0  501    0  0.00000000000E+00  0.00000000000E+00  0.10518096763E+04  0.10518096763E+04  0.25500000920E-02 0. -1.
       -2   -1    0    0    0  501  0.00000000000E+00  0.00000000000E+00 -0.18849537701E+04  0.18849537701E+04  0.25500000920E-02 0.  1.
    10030    2    1    2    0    0  0.00000000000E+00  0.00000000000E+00 -0.83314409384E+03  0.29367634464E+04  0.28161055483E+04 0.  0.
        2    1    3    3  502    0 -0.10606397961E+03  0.14023092875E+04 -0.48950945932E+03  0.14890736773E+04  0.25500000920E-02 0.  1.
       -2    1    3    3    0  502  0.10606397961E+03 -0.14023092875E+04 -0.34363463452E+03  0.14476897691E+04  0.25500000920E-02 0. -1.
</event>
<event>
 5   0  0.5546570E-06  0.2806882E+04  0.7818609E-02  0.8301135E-01
       -2   -1    0    0    0  501  0.00000000000E+00  0.00000000000E+00  0.10358949390E+04  0.10358949390E+04  0.25500000920E-02 0. -1.
        2   -1    0    0  501    0  0.00000000000E+00  0.00000000000E+00 -0.19013967167E+04  0.19013967167E+04  0.25500000920E-02 0.  1.
    10030    2    1    2    0    0  0.00000000000E+00  0.00000000000E+00 -0.86550177775E+03  0.29372916557E+04  0.28068824242E+04 0.  0.
        4    1    3    3  502    0  0.31541124165E+03 -0.85109681523E+03  0.68739972757E+03  0.11385824690E+04  0.12699999809E+01 0. -1.
       -4    1    3    3    0  502 -0.31541124165E+03  0.85109681523E+03 -0.15529015053E+04  0.17987091867E+04  0.12699999809E+01 0.  1.
</event>
<event>
 5   0  0.2234068E-06  0.2504988E+04  0.7818609E-02  0.8401211E-01
        1   -1    0    0  501    0  0.00000000000E+00  0.00000000000E+00  0.17872124240E+04  0.17872124240E+04  0.50400001928E-02 0. -1.
       -1   -1    0    0    0  501  0.00000000000E+00  0.00000000000E+00 -0.87775899873E+03  0.87775899874E+03  0.50400001928E-02 0.  1.
    10030    2    1    2    0    0  0.00000000000E+00  0.00000000000E+00  0.90945342526E+03  0.26649714227E+04  0.25049884533E+04 0.  0.
        3    1    3    3  502    0  0.12079002821E+04  0.33123665461E+03  0.45368171758E+03  0.13321290943E+04  0.10100000352E+00 0. -1.
       -3    1    3    3    0  502 -0.12079002821E+04 -0.33123665461E+03  0.45577170768E+03  0.13328423284E+04  0.10100000352E+00 0.  1.
</event>
<event>
 5   0  0.5916603E-06  0.2796450E+04  0.7818609E-02  0.8304371E-01
        2   -1    0    0  501    0  0.00000000000E+00  0.00000000000E+00  0.11463909528E+04  0.11463909528E+04  0.25500000920E-02 0. -1.
       -2   -1    0    0    0  501  0.00000000000E+00  0.00000000000E+00 -0.17053812056E+04  0.17053812056E+04  0.25500000920E-02 0.  1.
    10030    2    1    2    0    0  0.00000000000E+00  0.00000000000E+00 -0.55899025275E+03  0.28517721584E+04  0.27964503108E+04 0.  0.
        2    1    3    3  502    0  0.82717912699E+03  0.77139587214E+03  0.55881148902E+03  0.12615653689E+04  0.25500000920E-02 0. -1.
       -2    1    3    3    0  502 -0.82717912699E+03 -0.77139587214E+03 -0.11178017418E+04  0.15902067896E+04  0.25500000920E-02 0.  1.
</event>
<event>
 5   0  0.2206967E-06  0.2803184E+04  0.7818609E-02  0.8302281E-01
        1   -1    0    0  501    0  0.00000000000E+00  0.00000000000E+00  0.12040430109E+04  0.12040430109E+04  0.50400001928E-02 0.  1.
       -1   -1    0    0    0  501  0.00000000000E+00  0.00000000000E+00 -0.16315528767E+04  0.16315528767E+04  0.50400001928E-02 0. -1.
    10030    2    1    2    0    0  0.00000000000E+00  0.00000000000E+00 -0.42750986577E+03  0.28355958876E+04  0.28031837885E+04 0.  0.
        5    1    3    3  502    0 -0.68882032637E+03 -0.45215106996E+03  0.93316423654E+03  0.12448821689E+04  0.46999998093E+01 0.  1.
       -5    1    3    3    0  502  0.68882032637E+03  0.45215106996E+03 -0.13606741023E+04  0.15907137187E+04  0.46999998093E+01 0. -1.
</event>
<event>
 5   0  0.2267565E-06  0.2814148E+04  0.7818609E-02  0.8298889E-01
        1   -1    0    0  501    0  0.00000000000E+00  0.00000000000E+00  0.21591380684E+04  0.21591380684E+04  0.50400001928E-02 0. -1.
       -1   -1    0    0    0  501  0.00000000000E+00  0.00000000000E+00 -0.91696667231E+03  0.91696667232E+03  0.50400001928E-02 0.  1.
    10030    2    1    2    0    0  0.00000000000E+00  0.00000000000E+00  0.12421713960E+04  0.30761047407E+04  0.28141482901E+04 0.  0.
        4    1    3    3  502    0 -0.12217019793E+04  0.68688889222E+03  0.75710331604E+03  0.15929780665E+04  0.12699999809E+01 0. -1.
       -4    1    3    3    0  502  0.12217019793E+04 -0.68688889222E+03  0.48506808000E+03  0.14831266741E+04  0.12699999809E+01 0.  1.
</event>
<event>
 5   0  0.2190865E-06  0.2812228E+04  0.7818609E-02  0.8299482E-01
        1   -1    0    0  501    0  0.00000000000E+00  0.00000000000E+00  0.17555035576E+04  0.17555035576E+04  0.50400001928E-02 0.  1.
       -1   -1    0    0    0  501  0.00000000000E+00  0.00000000000E+00 -0.11262621866E+04  0.11262621866E+04  0.50400001928E-02 0. -1.
    10030    2    1    2    0    0  0.00000000000E+00  0.00000000000E+00  0.62924137102E+03  0.28817657443E+04  0.28122284939E+04 0.  0.
        2    1    3    3  502    0 -0.11602374241E+04  0.68408708966E+03  0.72837591718E+03  0.15312274499E+04  0.25500000920E-02 0.  1.
       -2    1    3    3    0  502  0.11602374241E+04 -0.68408708966E+03 -0.99134546157E+02  0.13505382944E+04  0.25500000920E-02 0. -1.
</event>
<event>
 5   0  0.2206967E-06  0.2803904E+04  0.7818609E-02  0.8302057E-01
       -1   -1    0    0    0  501  0.00000000000E+00  0.00000000000E+00  0.14367754526E+04  0.14367754526E+04  0.50400001928E-02 0.  1.
        1   -1    0    0  501    0  0.00000000000E+00  0.00000000000E+00 -0.13679728105E+04  0.13679728105E+04  0.50400001928E-02 0. -1.
    10030    2    1    2    0    0  0.00000000000E+00  0.00000000000E+00  0.68802642041E+02  0.28047482631E+04  0.28039042452E+04 0.  0.
        5    1    3    3  502    0  0.10990275600E+01  0.19187054586E+03 -0.13547687261E+04  0.13682967169E+04  0.46999998093E+01 0. -1.
       -5    1    3    3    0  502 -0.10990275600E+01 -0.19187054586E+03  0.14235713682E+04  0.14364515462E+04  0.46999998093E+01 0.  1.
</event>
<event>
 5   0  0.2277133E-06  0.2784430E+04  0.7818609E-02  0.8308119E-01
       -1   -1    0    0    0  501  0.00000000000E+00  0.00000000000E+00  0.15219202954E+04  0.15219202954E+04  0.50400001928E-02 0.  1.
        1   -1    0    0  501    0  0.00000000000E+00  0.00000000000E+00 -0.12735638744E+04  0.12735638745E+04  0.50400001928E-02 0. -1.
    10030    2    1    2    0    0  0.00000000000E+00  0.00000000000E+00  0.24835642092E+03  0.27954841698E+04  0.27844300731E+04 0.  0.
        1    1    3    3  502    0 -0.88951911255E+03 -0.99551217822E+03  0.52068147742E+03  0.14329682305E+04  0.50400001928E-02 0.  1.
       -1    1    3    3    0  502  0.88951911255E+03  0.99551217822E+03 -0.27232505651E+03  0.13625159394E+04  0.50400001928E-02 0. -1.
</event>
<event>
 5   0  0.5625245E-06  0.2789377E+04  0.7818609E-02  0.8306574E-01
       -2   -1    0    0    0  501  0.00000000000E+00  0.00000000000E+00  0.75477871569E+03  0.75477871569E+03  0.25500000920E-02 0. -1.
        2   -1    0    0  501    0  0.00000000000E+00  0.00000000000E+00 -0.25771207372E+04  0.25771207372E+04  0.25500000920E-02 0.  1.
    10030    2    1    2    0    0  0.00000000000E+00  0.00000000000E+00 -0.18223420215E+04  0.33318994528E+04  0.27893769055E+04 0.  0.
        3    1    3    3  502    0  0.18879102497E+03  0.61597828504E+02  0.73780439502E+03  0.76406261465E+03  0.10100000352E+00 0. -1.
       -3    1    3    3    0  502 -0.18879102497E+03 -0.61597828504E+02 -0.25601464165E+04  0.25678368382E+04  0.10100000352E+00 0.  1.
</event>
<event>
 5   0  0.5625245E-06  0.2796266E+04  0.7818609E-02  0.8304429E-01
       -2   -1    0    0    0  501  0.00000000000E+00  0.00000000000E+00  0.94109049949E+03  0.94109049949E+03  0.25500000920E-02 0.  1.
        2   -1    0    0  501    0  0.00000000000E+00  0.00000000000E+00 -0.20771390908E+04  0.20771390908E+04  0.25500000920E-02 0. -1.
    10030    2    1    2    0    0  0.00000000000E+00  0.00000000000E+00 -0.11360485913E+04  0.30182295903E+04  0.27962659848E+04 0.  0.
        3    1    3    3  502    0 -0.94839936094E+02  0.28887735921E+03 -0.20410225838E+04  0.20635449935E+04  0.10100000352E+00 0. -1.
       -3    1    3    3    0  502  0.94839936094E+02 -0.28887735921E+03  0.90497399251E+03  0.95468459685E+03  0.10100000352E+00 0.  1.
</event>
<event>
 5   0  0.2206967E-06  0.2783524E+04  0.7818609E-02  0.8308402E-01
        1   -1    0    0  501    0  0.00000000000E+00  0.00000000000E+00  0.67400798163E+03  0.67400798164E+03  0.50400001928E-02 0.  1.
       -1   -1    0    0    0  501  0.00000000000E+00  0.00000000000E+00 -0.28738545315E+04  0.28738545315E+04  0.50400001928E-02 0. -1.
    10030    2    1    2    0    0  0.00000000000E+00  0.00000000000E+00 -0.21998465498E+04  0.35478625131E+04  0.27835235887E+04 0.  0.
        5    1    3    3  502    0  0.82520988401E+03 -0.36906025937E+03 -0.24487075378E+04  0.26102428093E+04  0.46999998093E+01 0. -1.
       -5    1    3    3    0  502 -0.82520988401E+03  0.36906025937E+03  0.24886098795E+03  0.93761970384E+03  0.46999998093E+01 0.  1.
</event>
<event>
 5   0  0.2234068E-06  0.2723246E+04  0.7818609E-02  0.8327502E-01
        1   -1    0    0  501    0  0.00000000000E+00  0.00000000000E+00  0.13118919634E+04  0.13118919634E+04  0.50400001928E-02 0. -1.
       -1   -1    0    0    0  501  0.00000000000E+00  0.00000000000E+00 -0.14132391592E+04  0.14132391592E+04  0.50400001928E-02 0.  1.
    10030    2    1    2    0    0  0.00000000000E+00  0.00000000000E+00 -0.10134719586E+03  0.27251311226E+04  0.27232459274E+04 0.  0.
        3    1    3    3  502    0 -0.62508964005E+03  0.11577263126E+04  0.30021113746E+03  0.13495162134E+04  0.10100000352E+00 0. -1.
       -3    1    3    3    0  502  0.62508964005E+03 -0.11577263126E+04 -0.40155833332E+03  0.13756149092E+04  0.10100000352E+00 0.  1.
</event>
<event>
 5   0  0.2234068E-06  0.2800101E+04  0.7818609E-02  0.8303237E-01
       -1   -1    0    0    0  501  0.00000000000E+00  0.00000000000E+00  0.99852151336E+03  0.99852151338E+03  0.50400001928E-02 0.  1.
        1   -1    0    0  501    0  0.00000000000E+00  0.00000000000E+00 -0.19630434139E+04  0.19630434139E+04  0.50400001928E-02 0. -1.
    10030    2    1    2    0    0  0.00000000000E+00  0.00000000000E+00 -0.96452190050E+03  0.29615649273E+04  0.28001007699E+04 0.  0.
        3    1    3    3  502    0  0.32862554163E+03  0.13603885821E+04 -0.52307675594E+03  0.14940753474E+04  0.10100000352E+00 0. -1.
       -3    1    3    3    0  502 -0.32862554163E+03 -0.13603885821E+04 -0.44144514457E+03  0.14674895798E+04  0.10100000352E+00 0.  1.
</event>
<event>
 5   0  0.5916603E-06  0.2757389E+04  0.7818609E-02  0.8316621E-01
        2   -1    0    0  501    0  0.00000000000E+00  0.00000000000E+00  0.16175709541E+04  0.16175709541E+04  0.25500000920E-02 0.  1.
       -2   -1    0    0    0  501  0.00000000000E+00  0.00000000000E+00 -0.11750946095E+04  0.11750946096E+04  0.25500000920E-02 0. -1.
    10030    2    1    2    0    0  0.00000000000E+00  0.00000000000E+00  0.44247634457E+03  0.27926655637E+04  0.27573892788E+04 0.  0.
        2    1    3    3  502    0 -0.13258923110E+04  0.17638237355E+03 -0.11724965355E+03  0.13427019935E+04  0.25500000920E-02 0. -1.
       -2    1    3    3    0  502  0.13258923110E+04 -0.17638237355E+03  0.55972599812E+03  0.14499635702E+04  0.25500000920E-02 0.  1.
</event>
<event>
 5   0  0.5916603E-06  0.2821701E+04  0.7818609E-02  0.8296563E-01
        2   -1    0    0  501    0  0.00000000000E+00  0.00000000000E+00  0.14043899408E+04  0.14043899408E+04  0.25500000920E-02 0. -1.
       -2   -1    0    0    0  501  0.00000000000E+00  0.00000000000E+00 -0.14173403396E+04  0.14173403396E+04  0.25500000920E-02 0.  1.
    10030    2    1    2    0    0  0.00000000000E+00  0.00000000000E+00 -0.12950398826E+02  0.28217302804E+04  0.28217005621E+04 0.  0.
        2    1    3    3  502    0  0.71872516313E+03  0.97158770662E+03  0.72150910450E+03  0.14075240388E+04  0.25500000920E-02 0. -1.
       -2    1    3    3    0  502 -0.71872516313E+03 -0.97158770662E+03 -0.73445950333E+03  0.14142062416E+04  0.25500000920E-02 0.  1.
</event>
<event>
 5   0  0.2267565E-06  0.2826547E+04  0.7818609E-02  0.8295074E-01
       -1   -1    0    0    0  501  0.00000000000E+00  0.00000000000E+00  0.82132124517E+03  0.82132124518E+03  0.50400001928E-02 0.  1.
        1   -1    0    0  501    0  0.00000000000E+00  0.00000000000E+00 -0.24318647124E+04  0.24318647124E+04  0.50400001928E-02 0. -1.
    10030    2    1    2    0    0  0.00000000000E+00  0.00000000000E+00 -0.16105434672E+04  0.32531859576E+04  0.28265471188E+04 0.  0.
        4    1    3    3  502    0 -0.17211101296E+03 -0.44489929721E+03 -0.23364038405E+04  0.23846052303E+04  0.12699999809E+01 0. -1.
       -4    1    3    3    0  502  0.17211101296E+03  0.44489929721E+03  0.72586037328E+03  0.86858072730E+03  0.12699999809E+01 0.  1.
</event>
<event>
 5   0  0.5584205E-06  0.2828406E+04  0.7818609E-02  0.8294503E-01
       -2   -1    0    0    0  501  0.00000000000E+00  0.00000000000E+00  0.12018963433E+04  0.12018963434E+04  0.25500000920E-02 0.  1.
        2   -1    0    0  501    0  0.00000000000E+00  0.00000000000E+00 -0.16640120395E+04  0.16640120395E+04  0.25500000920E-02 0. -1.
    10030    2    1    2    0    0  0.00000000000E+00  0.00000000000E+00 -0.46211569617E+03  0.28659083829E+04  0.28284059013E+04 0.  0.
        1    1    3    3  502    0  0.94267163182E+03  0.10450397883E+04 -0.90539501787E+02  0.14102961980E+04  0.50400001928E-02 0.  1.
       -1    1    3    3    0  502 -0.94267163182E+03 -0.10450397883E+04 -0.37157619438E+03  0.14556121849E+04  0.50400001928E-02 0. -1.
</event>
<event>
 5   0  0.5866136E-06  0.2841094E+04  0.7818609E-02  0.8290623E-01
       -2   -1    0    0    0  501  0.00000000000E+00  0.00000000000E+00  0.91481857880E+03  0.91481857880E+03  0.25500000920E-02 0.  1.
        2   -1    0    0  501    0  0.00000000000E+00  0.00000000000E+00 -0.22058507999E+04  0.22058507999E+04  0.25500000920E-02 0. -1.
    10030    2    1    2    0    0  0.00000000000E+00  0.00000000000E+00 -0.12910322211E+04  0.31206693787E+04  0.28410936583E+04 0.  0.
        5    1    3    3  502    0  0.90114104726E+03 -0.22676390686E+03  0.53467014597E+03  0.10720873619E+04  0.46999998093E+01 0.  1.
       -5    1    3    3    0  502 -0.90114104726E+03  0.22676390686E+03 -0.18257023670E+04  0.20485820168E+04  0.46999998093E+01 0. -1.
</event>
<event>
 5   0  0.5866136E-06  0.2756216E+04  0.7818609E-02  0.8316992E-01
        2   -1    0    0  501    0  0.00000000000E+00  0.00000000000E+00  0.28850581953E+04  0.28850581953E+04  0.25500000920E-02 0. -1.
       -2   -1    0    0    0  501  0.00000000000E+00  0.00000000000E+00 -0.65828181661E+03  0.65828181662E+03  0.25500000920E-02 0.  1.
    10030    2    1    2    0    0  0.00000000000E+00  0.00000000000E+00  0.22267763787E+04  0.35433400119E+04  0.27562157752E+04 0.  0.
        5    1    3    3  502    0 -0.69469526575E+03  0.57179076932E+03 -0.22856005058E+03  0.92833613678E+03  0.46999998093E+01 0.  1.
       -5    1    3    3    0  502  0.69469526575E+03 -0.57179076932E+03  0.24553364293E+04  0.26150038751E+04  0.46999998093E+01 0. -1.
</event>
<event>
 5   0  0.5916603E-06  0.2798054E+04  0.7818609E-02  0.8303873E-01
       -2   -1    0    0    0  501  0.00000000000E+00  0.00000000000E+00  0.95692703901E+03  0.95692703901E+03  0.25500000920E-02 0.  1.
        2   -1    0    0  501    0  0.00000000000E+00  0.00000000000E+00 -0.20453774737E+04  0.20453774737E+04  0.25500000920E-02 0. -1.
    10030    2    1    2    0    0  0.00000000000E+00  0.00000000000E+00 -0.10884504347E+04  0.30023045127E+04  0.27980543309E+04 0.  0.
        2    1    3    3  502    0 -0.29215849423E+03 -0.55822881311E+03 -0.18845276061E+04  0.19870632329E+04  0.25500000920E-02 0. -1.
       -2    1    3    3    0  502  0.29215849423E+03  0.55822881311E+03  0.79607717134E+03  0.10152412798E+04  0.25500000920E-02 0.  1.
</event>
<event>
 5   0  0.1901375E-06  0.2579707E+04  0.7818609E-02  0.8375127E-01
       -3   -1    0    0    0  501  0.00000000000E+00  0.00000000000E+00  0.12933832899E+04  0.12933832938E+04  0.10100000352E+00 0.  1.
        3   -1    0    0  501    0  0.00000000000E+00  0.00000000000E+00 -0.12863330346E+04  0.12863330386E+04  0.10100000352E+00 0. -1.
    10030    2    1    2    0    0  0.00000000000E+00  0.00000000000E+00  0.70502552487E+01  0.25797163324E+04  0.25797066984E+04 0.  0.
        4    1    3    3  502    0 -0.57857270991E+03 -0.87789744153E+03  0.75070242972E+03  0.12919001701E+04  0.12699999809E+01 0.  1.
       -4    1    3    3    0  502  0.57857270991E+03  0.87789744153E+03 -0.74365217447E+03  0.12878161623E+04  0.12699999809E+01 0. -1.
</event>
<event>
 5   0  0.5625245E-06  0.2712191E+04  0.7818609E-02  0.8331060E-01
        2   -1    0    0  501    0  0.00000000000E+00  0.00000000000E+00  0.22211441456E+04  0.22211441456E+04  0.25500000920E-02 0.  1.
       -2   -1    0    0    0  501  0.00000000000E+00  0.00000000000E+00 -0.82794935488E+03  0.82794935489E+03  0.25500000920E-02 0. -1.
    10030    2    1    2    0    0  0.00000000000E+00  0.00000000000E+00  0.13931947907E+04  0.30490935005E+04  0.27121908948E+04 0.  0.
        3    1    3    3  502    0 -0.67482569818E+03  0.88119826787E+03  0.15725462000E+04  0.19247861366E+04  0.10100000352E+00 0.  1.
       -3    1    3    3    0  502  0.67482569818E+03 -0.88119826787E+03 -0.17935140933E+03  0.11243073639E+04  0.10100000352E+00 0. -1.
</event>
<event>
 5   0  0.2234068E-06  0.2790777E+04  0.7818609E-02  0.8306137E-01
        1   -1    0    0  501    0  0.00000000000E+00  0.00000000000E+00  0.18496744762E+04  0.18496744762E+04  0.50400001928E-02 0. -1.
       -1   -1    0    0    0  501  0.00000000000E+00  0.00000000000E+00 -0.10526767645E+04  0.10526767645E+04  0.50400001928E-02 0.  1.
    10030    2    1    2    0    0  0.00000000000E+00  0.00000000000E+00  0.79699771172E+03  0.29023512407E+04  0.27907771986E+04 0.  0.
        3    1    3    3  502    0  0.82818154083E+03  0.10205294124E+04  0.88600904638E+03  0.15850479446E+04  0.10100000352E+00 0. -1.
       -3    1    3    3    0  502 -0.82818154083E+03 -0.10205294124E+04 -0.89011334664E+02  0.13173032962E+04  0.10100000352E+00 0.  1.
</event>
<event>
 5   0  0.5546570E-06  0.2801246E+04  0.7818609E-02  0.8302882E-01
       -2   -1    0    0    0  501  0.00000000000E+00  0.00000000000E+00  0.95253844314E+03  0.95253844314E+03  0.25500000920E-02 0. -1.
        2   -1    0    0  501    0  0.00000000000E+00  0.00000000000E+00 -0.20594918017E+04  0.20594918017E+04  0.25500000920E-02 0.  1.
    10030    2    1    2    0    0  0.00000000000E+00  0.00000000000E+00 -0.11069533586E+04  0.30120302449E+04  0.28012462330E+04 0.  0.
        4    1    3    3  502    0 -0.10708552567E+03  0.65954028933E+01 -0.20550663050E+04  0.20578653843E+04  0.12699999809E+01 0.  1.
       -4    1    3    3    0  502  0.10708552567E+03 -0.65954028933E+01  0.94811294639E+03  0.95416486057E+03  0.12699999809E+01 0. -1.
</event>
<event>
 5   0  0.2190865E-06  0.2664996E+04  0.7818609E-02  0.8346453E-01
       -1   -1    0    0    0  501  0.00000000000E+00  0.00000000000E+00  0.13754322802E+04  0.13754322802E+04  0.50400001928E-02 0.  1.
        1   -1    0    0  501    0  0.00000000000E+00  0.00000000000E+00 -0.12909037384E+04  0.12909037384E+04  0.50400001928E-02 0. -1.
    10030    2    1    2    0    0  0.00000000000E+00  0.00000000000E+00  0.84528541800E+02  0.26663360185E+04  0.26649958141E+04 0.  0.
        2    1    3    3  502    0 -0.88212497728E+02 -0.95078045619E+03  0.97213240758E+03  0.13626468136E+04  0.25500000920E-02 0. -1.
       -2    1    3    3    0  502  0.88212497728E+02  0.95078045619E+03 -0.88760386578E+03  0.13036892050E+04  0.25500000920E-02 0.  1.
</event>
<event>
 5   0  0.2277133E-06  0.2828181E+04  0.7818609E-02  0.8294572E-01
        1   -1    0    0  501    0  0.00000000000E+00  0.00000000000E+00  0.19021006885E+04  0.19021006885E+04  0.50400001928E-02 0.  1.
       -1   -1    0    0    0  501  0.00000000000E+00  0.00000000000E+00 -0.10512857274E+04  0.10512857274E+04  0.50400001928E-02 0. -1.
    10030    2    1    2    0    0  0.00000000000E+00  0.00000000000E+00  0.85081496107E+03  0.29533864159E+04  0.28281805501E+04 0.  0.
        1    1    3    3  502    0 -0.89176049752E+03  0.10007957736E+04 -0.44888250701E+02  0.13412098719E+04  0.50400001928E-02 0. -1.
       -1    1    3    3    0  502  0.89176049752E+03 -0.10007957736E+04  0.89570321177E+03  0.16121765440E+04  0.50400001928E-02 0.  1.
</event>
<event>
 5   0  0.5866136E-06  0.2793084E+04  0.7818609E-02  0.8305419E-01
       -2   -1    0    0    0  501  0.00000000000E+00  0.00000000000E+00  0.12230279856E+04  0.12230279856E+04  0.25500000920E-02 0.  1.
        2   -1    0    0  501    0  0.00000000000E+00  0.00000000000E+00 -0.15946733593E+04  0.15946733593E+04  0.25500000920E-02 0. -1.
    10030    2    1    2    0    0  0.00000000000E+00  0.00000000000E+00 -0.37164537372E+03  0.28177013450E+04  0.27930844215E+04 0.  0.
        5    1    3    3  502    0 -0.51611272296E+03 -0.12502149487E+04  0.16494613658E+03  0.13625854390E+04  0.46999998093E+01 0.  1.
       -5    1    3    3    0  502  0.51611272296E+03  0.12502149487E+04 -0.53659151030E+03  0.14551159059E+04  0.46999998093E+01 0. -1.
</event>
<event>
 5   0  0.2206967E-06  0.2855603E+04  0.7818609E-02  0.8286211E-01
       -1   -1    0    0    0  501  0.00000000000E+00  0.00000000000E+00  0.23254828663E+04  0.23254828664E+04  0.50400001928E-02 0. -1.
        1   -1    0    0  501    0  0.00000000000E+00  0.00000000000E+00 -0.87664257455E+03  0.87664257456E+03  0.50400001928E-02 0.  1.
    10030    2    1    2    0    0  0.00000000000E+00  0.00000000000E+00  0.14488402918E+04  0.32021254409E+04  0.28556031146E+04 0.  0.
        5    1    3    3  502    0  0.13851399601E+04 -0.32892852535E+03  0.84617043771E+03  0.16561501090E+04  0.46999998093E+01 0. -1.
       -5    1    3    3    0  502 -0.13851399601E+04  0.32892852535E+03  0.60266985408E+03  0.15459753319E+04  0.46999998093E+01 0.  1.
</event>
<event>
 5   0  0.5625245E-06  0.2800070E+04  0.7818609E-02  0.8303247E-01
       -2   -1    0    0    0  501  0.00000000000E+00  0.00000000000E+00  0.88854981624E+03  0.88854981624E+03  0.25500000920E-02 0.  1.
        2   -1    0    0  501    0  0.00000000000E+00  0.00000000000E+00 -0.22059514992E+04  0.22059514992E+04  0.25500000920E-02 0. -1.
    10030    2    1    2    0    0  0.00000000000E+00  0.00000000000E+00 -0.13174016830E+04  0.30945013154E+04  0.28000698557E+04 0.  0.
        3    1    3    3  502    0  0.13452361257E+04 -0.27648578958E+03 -0.95932065632E+03  0.16752315534E+04  0.10100000352E+00 0.  1.
       -3    1    3    3    0  502 -0.13452361257E+04  0.27648578958E+03 -0.35808102665E+03  0.14192697621E+04  0.10100000352E+00 0. -1.
</event>
<event>
 5   0  0.5584205E-06  0.2800338E+04  0.7818609E-02  0.8303163E-01
        2   -1    0    0  501    0  0.00000000000E+00  0.00000000000E+00  0.27611665811E+04  0.27611665811E+04  0.25500000920E-02 0.  1.
       -2   -1    0    0    0  501  0.00000000000E+00  0.00000000000E+00 -0.71001630682E+03  0.71001630682E+03  0.25500000920E-02 0. -1.
    10030    2    1    2    0    0  0.00000000000E+00  0.00000000000E+00  0.20511502742E+04  0.34711828879E+04  0.28003380499E+04 0.  0.
        1    1    3    3  502    0 -0.11191568155E+04  0.54103571948E+03  0.22681294603E+03  0.12635963517E+04  0.50400001928E-02 0. -1.
       -1    1    3    3    0  502  0.11191568155E+04 -0.54103571948E+03  0.18243373282E+04  0.22075865362E+04  0.50400001928E-02 0.  1.
</event>
<event>
 5   0  0.2190865E-06  0.2797137E+04  0.7818609E-02  0.8304158E-01
        1   -1    0    0  501    0  0.00000000000E+00  0.00000000000E+00  0.19576729354E+04  0.19576729354E+04  0.50400001928E-02 0. -1.
       -1   -1    0    0    0  501  0.00000000000E+00  0.00000000000E+00 -0.99914251975E+03  0.99914251977E+03  0.50400001928E-02 0.  1.
    10030    2    1    2    0    0  0.00000000000E+00  0.00000000000E+00  0.95853041560E+03  0.29568154551E+04  0.27971373005E+04 0.  0.
        2    1    3    3  502    0 -0.11454007010E+04  0.79443430062E+03  0.59944641427E+03  0.15173676639E+04  0.25500000920E-02 0. -1.
       -2    1    3    3    0  502  0.11454007010E+04 -0.79443430062E+03  0.35908400134E+03  0.14394477913E+04  0.25500000920E-02 0.  1.
</event>
<event>
 5   0  0.2190865E-06  0.2807041E+04  0.7818609E-02  0.8301086E-01
        1   -1    0    0  501    0  0.00000000000E+00  0.00000000000E+00  0.19961164034E+04  0.19961164034E+04  0.50400001928E-02 0.  1.
       -1   -1    0    0    0  501  0.00000000000E+00  0.00000000000E+00 -0.98685117444E+03  0.98685117445E+03  0.50400001928E-02 0. -1.
    10030    2    1    2    0    0  0.00000000000E+00  0.00000000000E+00  0.10092652289E+04  0.29829675778E+04  0.28070410165E+04 0.  0.
        2    1    3    3  502    0  0.11326379416E+04  0.26413343651E+03  0.13395142714E+04  0.17739598818E+04  0.25500000920E-02 0.  1.
       -2    1    3    3    0  502 -0.11326379416E+04 -0.26413343651E+03 -0.33024904245E+03  0.12090076960E+04  0.25500000920E-02 0. -1.
</event>
<event>
 5   0  0.5625245E-06  0.2796018E+04  0.7818609E-02  0.8304506E-01
       -2   -1    0    0    0  501  0.00000000000E+00  0.00000000000E+00  0.11329297153E+04  0.11329297153E+04  0.25500000920E-02 0.  1.
        2   -1    0    0  501    0  0.00000000000E+00  0.00000000000E+00 -0.17251105331E+04  0.17251105331E+04  0.25500000920E-02 0. -1.
    10030    2    1    2    0    0  0.00000000000E+00  0.00000000000E+00 -0.59218081780E+03  0.28580402484E+04  0.27960178720E+04 0.  0.
        3    1    3    3  502    0  0.28564661903E+03  0.15889652798E+03 -0.16855017256E+04  0.17169036592E+04  0.10100000352E+00 0. -1.
       -3    1    3    3    0  502 -0.28564661903E+03 -0.15889652798E+03  0.10933209078E+04  0.11411365892E+04  0.10100000352E+00 0.  1.
</event>
<event>
 5   0  0.5625245E-06  0.2798460E+04  0.7818609E-02  0.8303747E-01
        2   -1    0    0  501    0  0.00000000000E+00  0.00000000000E+00  0.14251866918E+04  0.14251866918E+04  0.25500000920E-02 0.  1.
       -2   -1    0    0    0  501  0.00000000000E+00  0.00000000000E+00 -0.13737462972E+04  0.13737462972E+04  0.25500000920E-02 0. -1.
    10030    2    1    2    0    0  0.00000000000E+00  0.00000000000E+00  0.51440394577E+02  0.27989329890E+04  0.27984602485E+04 0.  0.
        3    1    3    3  502    0 -0.67228567157E+03  0.11092016459E+04 -0.49929572530E+03  0.13898174510E+04  0.10100000352E+00 0. -1.
       -3    1    3    3    0  502  0.67228567157E+03 -0.11092016459E+04  0.55073611988E+03  0.14091155380E+04  0.10100000352E+00 0.  1.
</event>
<event>
 5   0  0.2267565E-06  0.2653620E+04  0.7818609E-02  0.8350212E-01
        1   -1    0    0  501    0  0.00000000000E+00  0.00000000000E+00  0.15258273205E+04  0.15258273205E+04  0.50400001928E-02 0.  1.
       -1   -1    0    0    0  501  0.00000000000E+00  0.00000000000E+00 -0.11537510278E+04  0.11537510278E+04  0.50400001928E-02 0. -1.
    10030    2    1    2    0    0  0.00000000000E+00  0.00000000000E+00  0.37207629268E+03  0.26795783483E+04  0.26536200476E+04 0.  0.
        4    1    3    3  502    0 -0.83297209678E+03 -0.40438632071E+03  0.11456248018E+04  0.14730338115E+04  0.12699999809E+01 0.  1.
       -4    1    3    3    0  502  0.83297209678E+03  0.40438632071E+03 -0.77354850911E+03  0.12065445368E+04  0.12699999809E+01 0. -1.
</event>
<event>
 5   0  0.2267565E-06  0.2835856E+04  0.7818609E-02  0.8292222E-01
       -1   -1    0    0    0  501  0.00000000000E+00  0.00000000000E+00  0.67673642762E+03  0.67673642764E+03  0.50400001928E-02 0.  1.
        1   -1    0    0  501    0  0.00000000000E+00  0.00000000000E+00 -0.29709051861E+04  0.29709051861E+04  0.50400001928E-02 0. -1.
    10030    2    1    2    0    0  0.00000000000E+00  0.00000000000E+00 -0.22941687585E+04  0.36476416138E+04  0.28358559643E+04 0.  0.
        4    1    3    3  502    0  0.60873014564E+03  0.25932808140E+03 -0.27601534597E+04  0.28383537795E+04  0.12699999809E+01 0. -1.
       -4    1    3    3    0  502 -0.60873014564E+03 -0.25932808140E+03  0.46598470116E+03  0.80928783423E+03  0.12699999809E+01 0.  1.
</event>
<event>
 5   0  0.2277133E-06  0.2782818E+04  0.7818609E-02  0.8308623E-01
        1   -1    0    0  501    0  0.00000000000E+00  0.00000000000E+00  0.14193157532E+04  0.14193157532E+04  0.50400001928E-02 0. -1.
       -1   -1    0    0    0  501  0.00000000000E+00  0.00000000000E+00 -0.13640509359E+04  0.13640509359E+04  0.50400001928E-02 0.  1.
    10030    2    1    2    0    0  0.00000000000E+00  0.00000000000E+00  0.55264817322E+02  0.27833666891E+04  0.27828179829E+04 0.  0.
        1    1    3    3  502    0 -0.10605407171E+04 -0.82411944738E+03  0.39115902966E+03  0.13989013056E+04  0.50400001928E-02 0. -1.
       -1    1    3    3    0  502  0.10605407171E+04  0.82411944738E+03 -0.33589421233E+03  0.13844653835E+04  0.50400001928E-02 0.  1.
</event>
<event>
 5   0  0.2277133E-06  0.2797866E+04  0.7818609E-02  0.8303931E-01
       -1   -1    0    0    0  501  0.00000000000E+00  0.00000000000E+00  0.96733507133E+03  0.96733507134E+03  0.50400001928E-02 0.  1.
        1   -1    0    0  501    0  0.00000000000E+00  0.00000000000E+00 -0.20230974939E+04  0.20230974939E+04  0.50400001928E-02 0. -1.
    10030    2    1    2    0    0  0.00000000000E+00  0.00000000000E+00 -0.10557624226E+04  0.29904325653E+04  0.27978657285E+04 0.  0.
        1    1    3    3  502    0 -0.67221952900E+03 -0.11501143799E+04 -0.71439834374E+02  0.13340711495E+04  0.50400001928E-02 0.  1.
       -1    1    3    3    0  502  0.67221952900E+03  0.11501143799E+04 -0.98432258821E+03  0.16563614158E+04  0.50400001928E-02 0. -1.
</event>
<event>
 5   0  0.2190865E-06  0.2808824E+04  0.7818609E-02  0.8300534E-01
        1   -1    0    0  501    0  0.00000000000E+00  0.00000000000E+00  0.14592672318E+04  0.14592672318E+04  0.50400001928E-02 0. -1.
       -1   -1    0    0    0  501  0.00000000000E+00  0.00000000000E+00 -0.13516188678E+04  0.13516188678E+04  0.50400001928E-02 0.  1.
    10030    2    1    2    0    0  0.00000000000E+00  0.00000000000E+00  0.10764836401E+03  0.28108860997E+04  0.28088240413E+04 0.  0.
        2    1    3    3  502    0  0.13793989213E+04 -0.22847808160E+03 -0.78293593293E+02  0.14003833420E+04  0.25500000920E-02 0. -1.
       -2    1    3    3    0  502 -0.13793989213E+04  0.22847808160E+03  0.18594195730E+03  0.14105027577E+04  0.25500000920E-02 0.  1.
</event>
<event>
 5   0  0.2206967E-06  0.2774889E+04  0.7818609E-02  0.8311107E-01
       -1   -1    0    0    0  501  0.00000000000E+00  0.00000000000E+00  0.90510605640E+03  0.90510605641E+03  0.50400001928E-02 0.  1.
        1   -1    0    0  501    0  0.00000000000E+00  0.00000000000E+00 -0.21268243321E+04  0.21268243321E+04  0.50400001928E-02 0. -1.
    10030    2    1    2    0    0  0.00000000000E+00  0.00000000000E+00 -0.12217182757E+04  0.30319303885E+04  0.27748885267E+04 0.  0.
        5    1    3    3  502    0  0.59596695477E+03 -0.12390873234E+04 -0.40801339410E+03  0.14342283730E+04  0.46999998093E+01 0. -1.
       -5    1    3    3    0  502 -0.59596695477E+03  0.12390873234E+04 -0.81370488160E+03  0.15977020155E+04  0.46999998093E+01 0.  1.
</event>
<event>
 5   0  0.2190865E-06  0.2818050E+04  0.7818609E-02  0.8297686E-01
        1   -1    0    0  501    0  0.00000000000E+00  0.00000000000E+00  0.11750307027E+04  0.11750307027E+04  0.50400001928E-02 0. -1.
       -1   -1    0    0    0  501  0.00000000000E+00  0.00000000000E+00 -0.16896163637E+04  0.16896163637E+04  0.50400001928E-02 0.  1.
    10030    2    1    2    0    0  0.00000000000E+00  0.00000000000E+00 -0.51458566098E+03  0.28646470664E+04  0.28180497533E+04 0.  0.
        2    1    3    3  502    0  0.52309289630E+03  0.12411942328E+04 -0.67785082299E+03  0.15078697026E+04  0.25500000920E-02 0.  1.
       -2    1    3    3    0  502 -0.52309289630E+03 -0.12411942328E+04  0.16326516201E+03  0.13567773638E+04  0.25500000920E-02 0. -1.
</event>
<event>
 5   0  0.5584205E-06  0.2719609E+04  0.7818609E-02  0.8328671E-01
       -2   -1    0    0    0  501  0.00000000000E+00  0.00000000000E+00  0.94185331670E+03  0.94185331670E+03  0.25500000920E-02 0.  1.
        2   -1    0    0  501    0  0.00000000000E+00  0.00000000000E+00 -0.19632228550E+04  0.19632228550E+04  0.25500000920E-02 0. -1.
    10030    2    1    2    0    0  0.00000000000E+00  0.00000000000E+00 -0.10213695383E+04  0.29050761717E+04  0.27196087641E+04 0.  0.
        1    1    3    3  502    0  0.98930487101E+02 -0.21336217067E+03 -0.19413332331E+04  0.19555268802E+04  0.50400001928E-02 0. -1.
       -1    1    3    3    0  502 -0.98930487101E+02  0.21336217067E+03  0.91996369483E+03  0.94954929149E+03  0.50400001928E-02 0.  1.
</event>
<event>
 5   0  0.5584205E-06  0.2800532E+04  0.7818609E-02  0.8303103E-01
       -2   -1    0    0    0  501  0.00000000000E+00  0.00000000000E+00  0.78787114916E+03  0.78787114917E+03  0.25500000920E-02 0.  1.
        2   -1    0    0  501    0  0.00000000000E+00  0.00000000000E+00 -0.24886623938E+04  0.24886623938E+04  0.25500000920E-02 0. -1.
    10030    2    1    2    0    0  0.00000000000E+00  0.00000000000E+00 -0.17007912446E+04  0.32765335429E+04  0.28005323066E+04 0.  0.
        1    1    3    3  502    0  0.48625419198E+03 -0.84681736541E+03 -0.20245695457E+04  0.22477599149E+04  0.50400001928E-02 0. -1.
       -1    1    3    3    0  502 -0.48625419198E+03  0.84681736541E+03  0.32377830106E+03  0.10287736281E+04  0.50400001928E-02 0.  1.
</event>
<event>
 5   0  0.5916603E-06  0.2849257E+04  0.7818609E-02  0.8288137E-01
        2   -1    0    0  501    0  0.00000000000E+00  0.00000000000E+00  0.17375463972E+04  0.17375463972E+04  0.25500000920E-02 0. -1.
       -2   -1    0    0    0  501  0.00000000000E+00  0.00000000000E+00 -0.11680649196E+04  0.11680649196E+04  0.25500000920E-02 0.  1.
    10030    2    1    2    0    0  0.00000000000E+00  0.00000000000E+00  0.56948147765E+03  0.29056113168E+04  0.28492574421E+04 0.  0.
        2    1    3    3  502    0 -0.24511604311E+03  0.74863045361E+03 -0.92576572382E+03  0.12155540326E+04  0.25500000920E-02 0.  1.
       -2    1    3    3    0  502  0.24511604311E+03 -0.74863045361E+03  0.14952472015E+04  0.16900572843E+04  0.25500000920E-02 0. -1.
</event>
<event>
 5   0  0.2267565E-06  0.2790733E+04  0.7818609E-02  0.8306151E-01
       -1   -1    0    0    0  501  0.00000000000E+00  0.00000000000E+00  0.13802252791E+04  0.13802252791E+04  0.50400001928E-02 0. -1.
        1   -1    0    0  501    0  0.00000000000E+00  0.00000000000E+00 -0.14106743148E+04  0.14106743148E+04  0.50400001928E-02 0.  1.
    10030    2    1    2    0    0  0.00000000000E+00  0.00000000000E+00 -0.30449035713E+02  0.27908995939E+04  0.27907334877E+04 0.  0.
        4    1    3    3  502    0  0.10019288452E+03 -0.13630298600E+04  0.26614205238E+03  0.13923800553E+04  0.12699999809E+01 0.  1.
       -4    1    3    3    0  502 -0.10019288452E+03  0.13630298600E+04 -0.29659108809E+03  0.13985195386E+04  0.12699999809E+01 0. -1.
</event>
<event>
 5   0  0.2267565E-06  0.2812678E+04  0.7818609E-02  0.8299343E-01
        1   -1    0    0  501    0  0.00000000000E+00  0.00000000000E+00  0.14272794537E+04  0.14272794537E+04  0.50400001928E-02 0.  1.
       -1   -1    0    0    0  501  0.00000000000E+00  0.00000000000E+00 -0.13857056126E+04  0.13857056126E+04  0.50400001928E-02 0. -1.
    10030    2    1    2    0    0  0.00000000000E+00  0.00000000000E+00  0.41573841097E+02  0.28129850663E+04  0.28126778342E+04 0.  0.
        4    1    3    3  502    0 -0.10283315929E+04  0.32626526239E+03 -0.88146052930E+03  0.13931579824E+04  0.12699999809E+01 0. -1.
       -4    1    3    3    0  502  0.10283315929E+04 -0.32626526239E+03  0.92303437040E+03  0.14198270839E+04  0.12699999809E+01 0.  1.
</event>
<event>
 5   0  0.2277133E-06  0.2815828E+04  0.7818609E-02  0.8298371E-01
       -1   -1    0    0    0  501  0.00000000000E+00  0.00000000000E+00  0.90547906411E+03  0.90547906412E+03  0.50400001928E-02 0.  1.
        1   -1    0    0  501    0  0.00000000000E+00  0.00000000000E+00 -0.21891410192E+04  0.21891410192E+04  0.50400001928E-02 0. -1.
    10030    2    1    2    0    0  0.00000000000E+00  0.00000000000E+00 -0.12836619550E+04  0.30946200833E+04  0.28158276661E+04 0.  0.
        1    1    3    3  502    0 -0.14267873185E+03 -0.13797382015E+04 -0.90693290944E+03  0.16572754833E+04  0.50400001928E-02 0. -1.
       -1    1    3    3    0  502  0.14267873185E+03  0.13797382015E+04 -0.37672904561E+03  0.14373446000E+04  0.50400001928E-02 0.  1.
</event>
<event>
 5   0  0.2190865E-06  0.2813395E+04  0.7818609E-02  0.8299122E-01
        1   -1    0    0  501    0  0.00000000000E+00  0.00000000000E+00  0.21617940905E+04  0.21617940905E+04  0.50400001928E-02 0. -1.
       -1   -1    0    0    0  501  0.00000000000E+00  0.00000000000E+00 -0.91534955669E+03  0.91534955671E+03  0.50400001928E-02 0.  1.
    10030    2    1    2    0    0  0.00000000000E+00  0.00000000000E+00  0.12464445338E+04  0.30771436472E+04  0.28133945777E+04 0.  0.
        2    1    3    3  502    0  0.31088844172E+03 -0.12001914793E+04 -0.10367655817E+03  0.12441302339E+04  0.25500000920E-02 0. -1.
       -2    1    3    3    0  502 -0.31088844172E+03  0.12001914793E+04  0.13501210920E+04  0.18330134133E+04  0.25500000920E-02 0.  1.
</event>
<event>
 5   0  0.2190865E-06  0.2691569E+04  0.7818609E-02  0.8337746E-01
        1   -1    0    0  501    0  0.00000000000E+00  0.00000000000E+00  0.13592639074E+04  0.13592639074E+04  0.50400001928E-02 0. -1.
       -1   -1    0    0    0  501  0.00000000000E+00  0.00000000000E+00 -0.13324383090E+04  0.13324383091E+04  0.50400001928E-02 0.  1.
    10030    2    1    2    0    0  0.00000000000E+00  0.00000000000E+00  0.26825598349E+02  0.26917022164E+04  0.26915685407E+04 0.  0.
        2    1    3    3  502    0  0.12235152822E+04  0.22046862718E+03  0.52874338967E+03  0.13509869109E+04  0.25500000920E-02 0. -1.
       -2    1    3    3    0  502 -0.12235152822E+04 -0.22046862718E+03 -0.50191779132E+03  0.13407153056E+04  0.25500000920E-02 0.  1.
</event>
<event>
 5   0  0.5625245E-06  0.2787846E+04  0.7818609E-02  0.8307052E-01
       -2   -1    0    0    0  501  0.00000000000E+00  0.00000000000E+00  0.28130126033E+04  0.28130126033E+04  0.25500000920E-02 0.  1.
        2   -1    0    0  501    0  0.00000000000E+00  0.00000000000E+00 -0.69072591358E+03  0.69072591359E+03  0.25500000920E-02 0. -1.
    10030    2    1    2    0    0  0.00000000000E+00  0.00000000000E+00  0.21222866897E+04  0.35037385169E+04  0.27878455483E+04 0.  0.
        3    1    3    3  502    0 -0.13059974314E+04 -0.47593175943E+03  0.93004880427E+03  0.16724625912E+04  0.10100000352E+00 0. -1.
       -3    1    3    3    0  502  0.13059974314E+04  0.47593175943E+03  0.11922378855E+04  0.18312759257E+04  0.10100000352E+00 0.  1.
</event>
<event>
 5   0  0.5584205E-06  0.2777108E+04  0.7818609E-02  0.8310411E-01
       -2   -1    0    0    0  501  0.00000000000E+00  0.00000000000E+00  0.16199381901E+04  0.16199381901E+04  0.25500000920E-02 0.  1.
        2   -1    0    0  501    0  0.00000000000E+00  0.00000000000E+00 -0.11902196598E+04  0.11902196598E+04  0.25500000920E-02 0. -1.
    10030    2    1    2    0    0  0.00000000000E+00  0.00000000000E+00  0.42971853029E+03  0.28101578500E+04  0.27771080509E+04 0.  0.
        1    1    3    3  502    0  0.10531609284E+04 -0.39301789471E+03  0.10397112875E+04  0.15312121238E+04  0.50400001928E-02 0.  1.
       -1    1    3    3    0  502 -0.10531609284E+04  0.39301789471E+03 -0.60999275719E+03  0.12789457262E+04  0.50400001928E-02 0. -1.
</event>
<event>
 5   0  0.5625245E-06  0.2766902E+04  0.7818609E-02  0.8313618E-01
        2   -1    0    0  501    0  0.00000000000E+00  0.00000000000E+00  0.16721965379E+04  0.16721965379E+04  0.25500000920E-02 0.  1.
       -2   -1    0    0    0  501  0.00000000000E+00  0.00000000000E+00 -0.11445643058E+04  0.11445643058E+04  0.25500000920E-02 0. -1.
    10030    2    1    2    0    0  0.00000000000E+00  0.00000000000E+00  0.52763223211E+03  0.28167608437E+04  0.27669018555E+04 0.  0.
        3    1    3    3  502    0 -0.98594746885E+02  0.66418675441E+03 -0.96755509042E+03  0.11777214578E+04  0.10100000352E+00 0. -1.
       -3    1    3    3    0  502  0.98594746885E+02 -0.66418675441E+03  0.14951873225E+04  0.16390393859E+04  0.10100000352E+00 0.  1.
</event>
<event>
 5   0  0.2277133E-06  0.2801052E+04  0.7818609E-02  0.8302942E-01
        1   -1    0    0  501    0  0.00000000000E+00  0.00000000000E+00  0.12701252693E+04  0.12701252693E+04  0.50400001928E-02 0.  1.
       -1   -1    0    0    0  501  0.00000000000E+00  0.00000000000E+00 -0.15443149789E+04  0.15443149789E+04  0.50400001928E-02 0. -1.
    10030    2    1    2    0    0  0.00000000000E+00  0.00000000000E+00 -0.27418970969E+03  0.28144402482E+04  0.28010522869E+04 0.  0.
        1    1    3    3  502    0 -0.13139972015E+03 -0.79262927216E+03  0.10155351531E+04  0.12949280662E+04  0.50400001928E-02 0.  1.
       -1    1    3    3    0  502  0.13139972015E+03  0.79262927216E+03 -0.12897248628E+04  0.15195121820E+04  0.50400001928E-02 0. -1.
</event>
<event>
 5   0  0.5916603E-06  0.2795387E+04  0.7818609E-02  0.8304702E-01
       -2   -1    0    0    0  501  0.00000000000E+00  0.00000000000E+00  0.77699236660E+03  0.77699236661E+03  0.25500000920E-02 0. -1.
        2   -1    0    0  501    0  0.00000000000E+00  0.00000000000E+00 -0.25142422586E+04  0.25142422586E+04  0.25500000920E-02 0.  1.
    10030    2    1    2    0    0  0.00000000000E+00  0.00000000000E+00 -0.17372498920E+04  0.32912346252E+04  0.27953869448E+04 0.  0.
        2    1    3    3  502    0  0.69946380073E+03 -0.12070021095E+04 -0.76704665724E+03  0.15920000865E+04  0.25500000920E-02 0. -1.
       -2    1    3    3    0  502 -0.69946380073E+03  0.12070021095E+04 -0.97020323479E+03  0.16992345388E+04  0.25500000920E-02 0.  1.
</event>
<event>
 5   0  0.5916603E-06  0.2736423E+04  0.7818609E-02  0.8323283E-01
        2   -1    0    0  501    0  0.00000000000E+00  0.00000000000E+00  0.87679999824E+03  0.87679999824E+03  0.25500000920E-02 0. -1.
       -2   -1    0    0    0  501  0.00000000000E+00  0.00000000000E+00 -0.21350397474E+04  0.21350397474E+04  0.25500000920E-02 0.  1.
    10030    2    1    2    0    0  0.00000000000E+00  0.00000000000E+00 -0.12582397492E+04  0.30118397457E+04  0.27364231009E+04 0.  0.
        2    1    3    3  502    0  0.63783660006E+03 -0.36057229276E+03 -0.19009070625E+04  0.20372274215E+04  0.25500000920E-02 0.  1.
       -2    1    3    3    0  502 -0.63783660006E+03  0.36057229276E+03  0.64266731335E+03  0.97461232412E+03  0.25500000920E-02 0. -1.
</event>
<event>
 5   0  0.2277133E-06  0.2789345E+04  0.7818609E-02  0.8306584E-01
        1   -1    0    0  501    0  0.00000000000E+00  0.00000000000E+00  0.19219426631E+04  0.19219426631E+04  0.50400001928E-02 0.  1.
       -1   -1    0    0    0  501  0.00000000000E+00  0.00000000000E+00 -0.10120546196E+04  0.10120546196E+04  0.50400001928E-02 0. -1.
    10030    2    1    2    0    0  0.00000000000E+00  0.00000000000E+00  0.90988804357E+03  0.29339972827E+04  0.27893446906E+04 0.  0.
        1    1    3    3  502    0 -0.99970890468E+03 -0.20534992056E+03  0.14547770543E+04  0.17770657731E+04  0.50400001928E-02 0.  1.
       -1    1    3    3    0  502  0.99970890468E+03  0.20534992056E+03 -0.54488901075E+03  0.11569315097E+04  0.50400001928E-02 0. -1.
</event>
<event>
 5   0  0.2267565E-06  0.2817232E+04  0.7818609E-02  0.8297938E-01
        1   -1    0    0  501    0  0.00000000000E+00  0.00000000000E+00  0.16892008412E+04  0.16892008412E+04  0.50400001928E-02 0.  1.
       -1   -1    0    0    0  501  0.00000000000E+00  0.00000000000E+00 -0.11746380464E+04  0.11746380464E+04  0.50400001928E-02 0. -1.
    10030    2    1    2    0    0  0.00000000000E+00  0.00000000000E+00  0.51456279481E+03  0.28638388876E+04  0.28172323838E+04 0.  0.
        4    1    3    3  502    0  0.29819520999E+03  0.56314889894E+03  0.15343046273E+04  0.16613697264E+04  0.12699999809E+01 0.  1.
       -4    1    3    3    0  502 -0.29819520999E+03 -0.56314889894E+03 -0.10197418325E+04  0.12024691611E+04  0.12699999809E+01 0. -1.
</event>
<event>
 5   0  0.2206967E-06  0.2788620E+04  0.7818609E-02  0.8306810E-01
        1   -1    0    0  501    0  0.00000000000E+00  0.00000000000E+00  0.16260704417E+04  0.16260704418E+04  0.50400001928E-02 0.  1.
       -1   -1    0    0    0  501  0.00000000000E+00  0.00000000000E+00 -0.11955815161E+04  0.11955815161E+04  0.50400001928E-02 0. -1.
    10030    2    1    2    0    0  0.00000000000E+00  0.00000000000E+00  0.43048892563E+03  0.28216519579E+04  0.27886195611E+04 0.  0.
        5    1    3    3  502    0 -0.79104950991E+02  0.13794690988E+04  0.40423239573E+03  0.14396591637E+04  0.46999998093E+01 0.  1.
       -5    1    3    3    0  502  0.79104950991E+02 -0.13794690988E+04  0.26256529895E+02  0.13819927942E+04  0.46999998093E+01 0. -1.
</event>
<event>
 5   0  0.5546570E-06  0.2816649E+04  0.7818609E-02  0.8298118E-01
        2   -1    0    0  501    0  0.00000000000E+00  0.00000000000E+00  0.24185467657E+04  0.24185467657E+04  0.25500000920E-02 0.  1.
       -2   -1    0    0    0  501  0.00000000000E+00  0.00000000000E+00 -0.82007000752E+03  0.82007000752E+03  0.25500000920E-02 0. -1.
    10030    2    1    2    0    0  0.00000000000E+00  0.00000000000E+00  0.15984767582E+04  0.32386167732E+04  0.28166488346E+04 0.  0.
        4    1    3    3  502    0  0.11568734190E+04 -0.79040761360E+03  0.96296349306E+03  0.17001178209E+04  0.12699999809E+01 0.  1.
       -4    1    3    3    0  502 -0.11568734190E+04  0.79040761360E+03  0.63551326514E+03  0.15384989523E+04  0.12699999809E+01 0. -1.
</event>
<event>
 5   0  0.2206967E-06  0.2791149E+04  0.7818609E-02  0.8306022E-01
       -1   -1    0    0    0  501  0.00000000000E+00  0.00000000000E+00  0.10007500112E+04  0.10007500112E+04  0.50400001928E-02 0.  1.
        1   -1    0    0  501    0  0.00000000000E+00  0.00000000000E+00 -0.19461683861E+04  0.19461683861E+04  0.50400001928E-02 0. -1.
    10030    2    1    2    0    0  0.00000000000E+00  0.00000000000E+00 -0.94541837492E+03  0.29469183972E+04  0.27911488918E+04 0.  0.
        5    1    3    3  502    0 -0.46105363187E+03 -0.10610488500E+04  0.35136993860E+03  0.12090814850E+04  0.46999998093E+01 0.  1.
       -5    1    3    3    0  502  0.46105363187E+03  0.10610488500E+04 -0.12967883135E+04  0.17378369123E+04  0.46999998093E+01 0. -1.
</event>
<event>
 5   0  0.5584205E-06  0.2766830E+04  0.7818609E-02  0.8313641E-01
        2   -1    0    0  501    0  0.00000000000E+00  0.00000000000E+00  0.15129577255E+04  0.15129577255E+04  0.25500000920E-02 0.  1.
       -2   -1    0    0    0  501  0.00000000000E+00  0.00000000000E+00 -0.12649641971E+04  0.12649641971E+04  0.25500000920E-02 0. -1.
    10030    2    1    2    0    0  0.00000000000E+00  0.00000000000E+00  0.24799352841E+03  0.27779219227E+04  0.27668302113E+04 0.  0.
        1    1    3    3  502    0 -0.87261182261E+03 -0.56682781768E+02  0.12002890742E+04  0.14850448453E+04  0.50400001928E-02 0.  1.
       -1    1    3    3    0  502  0.87261182261E+03  0.56682781768E+02 -0.95229554580E+03  0.12928770774E+04  0.50400001928E-02 0. -1.
</event>
<event>
 5   0  0.2206967E-06  0.2795043E+04  0.7818609E-02  0.8304809E-01
       -1   -1    0    0    0  501  0.00000000000E+00  0.00000000000E+00  0.11624911419E+04  0.11624911419E+04  0.50400001928E-02 0.  1.
        1   -1    0    0  501    0  0.00000000000E+00  0.00000000000E+00 -0.16800704396E+04  0.16800704396E+04  0.50400001928E-02 0. -1.
    10030    2    1    2    0    0  0.00000000000E+00  0.00000000000E+00 -0.51757929772E+03  0.28425615815E+04  0.27950434729E+04 0.  0.
        5    1    3    3  502    0  0.76928353422E+03 -0.11518195216E+04 -0.69727174288E+02  0.13868559173E+04  0.46999998093E+01 0.  1.
       -5    1    3    3    0  502 -0.76928353422E+03  0.11518195216E+04 -0.44785212343E+03  0.14557056642E+04  0.46999998093E+01 0. -1.
</event>
<event>
 5   0  0.2234068E-06  0.2818119E+04  0.7818609E-02  0.8297665E-01
       -1   -1    0    0    0  501  0.00000000000E+00  0.00000000000E+00  0.12991367271E+04  0.12991367271E+04  0.50400001928E-02 0.  1.
        1   -1    0    0  501    0  0.00000000000E+00  0.00000000000E+00 -0.15282829210E+04  0.15282829210E+04  0.50400001928E-02 0. -1.
    10030    2    1    2    0    0  0.00000000000E+00  0.00000000000E+00 -0.22914619395E+03  0.28274196481E+04  0.28181188563E+04 0.  0.
        3    1    3    3  502    0  0.12618835902E+04 -0.16095213480E+03  0.49339105384E+03  0.13644378063E+04  0.10100000352E+00 0.  1.
       -3    1    3    3    0  502 -0.12618835902E+04  0.16095213480E+03 -0.72253724779E+03  0.14629818419E+04  0.10100000352E+00 0. -1.
</event>
<event>
 5   0  0.2234068E-06  0.2786916E+04  0.7818609E-02  0.8307342E-01
       -1   -1    0    0    0  501  0.00000000000E+00  0.00000000000E+00  0.10555247725E+04  0.10555247725E+04  0.50400001928E-02 0.  1.
        1   -1    0    0  501    0  0.00000000000E+00  0.00000000000E+00 -0.18395833419E+04  0.18395833419E+04  0.50400001928E-02 0. -1.
    10030    2    1    2    0    0  0.00000000000E+00  0.00000000000E+00 -0.78405856942E+03  0.28951081144E+04  0.27869164239E+04 0.  0.
        3    1    3    3  502    0 -0.27599917571E+03 -0.12447749639E+04  0.19201145706E+03  0.12893830562E+04  0.10100000352E+00 0.  1.
       -3    1    3    3    0  502  0.27599917571E+03  0.12447749639E+04 -0.97607002648E+03  0.16057250582E+04  0.10100000352E+00 0. -1.
</event>
<event>
 5   0  0.1901375E-06  0.2858603E+04  0.7818609E-02  0.8285302E-01
       -3   -1    0    0    0  501  0.00000000000E+00  0.00000000000E+00  0.14026374657E+04  0.14026374694E+04  0.10100000352E+00 0. -1.
        3   -1    0    0  501    0  0.00000000000E+00  0.00000000000E+00 -0.14564727320E+04  0.14564727355E+04  0.10100000352E+00 0.  1.
    10030    2    1    2    0    0  0.00000000000E+00  0.00000000000E+00 -0.53835266282E+02  0.28591102049E+04  0.28586033176E+04 0.  0.
        2    1    3    3  502    0 -0.13844457460E+04  0.35332009903E+03 -0.64047199547E+02  0.14302542291E+04  0.25500000920E-02 0. -1.
       -2    1    3    3    0  502  0.13844457460E+04 -0.35332009903E+03  0.10211933265E+02  0.14288559758E+04  0.25500000920E-02 0.  1.
</event>
<event>
 5   0  0.5546570E-06  0.2792110E+04  0.7818609E-02  0.8305722E-01
       -2   -1    0    0    0  501  0.00000000000E+00  0.00000000000E+00  0.11129014698E+04  0.11129014698E+04  0.25500000920E-02 0. -1.
        2   -1    0    0  501    0  0.00000000000E+00  0.00000000000E+00 -0.17512508146E+04  0.17512508146E+04  0.25500000920E-02 0.  1.
    10030    2    1    2    0    0  0.00000000000E+00  0.00000000000E+00 -0.63834934482E+03  0.28641522844E+04  0.27921100305E+04 0.  0.
        4    1    3    3  502    0  0.42596590986E+03  0.32250582296E+03 -0.16422251655E+04  0.17269516696E+04  0.12699999809E+01 0.  1.
       -4    1    3    3    0  502 -0.42596590986E+03 -0.32250582296E+03  0.10038758206E+04  0.11372006148E+04  0.12699999809E+01 0. -1.
</event>
<event>
 5   0  0.5625245E-06  0.2791883E+04  0.7818609E-02  0.8305793E-01
       -2   -1    0    0    0  501  0.00000000000E+00  0.00000000000E+00  0.15747668944E+04  0.15747668944E+04  0.25500000920E-02 0. -1.
        2   -1    0    0  501    0  0.00000000000E+00  0.00000000000E+00 -0.12374233628E+04  0.12374233628E+04  0.25500000920E-02 0.  1.
    10030    2    1    2    0    0  0.00000000000E+00  0.00000000000E+00  0.33734353166E+03  0.28121902572E+04  0.27918834833E+04 0.  0.
        3    1    3    3  502    0 -0.11712405580E+03 -0.69217077912E+03  0.13840276657E+04  0.15518862786E+04  0.10100000352E+00 0. -1.
       -3    1    3    3    0  502  0.11712405580E+03  0.69217077912E+03 -0.10466841341E+04  0.12603039786E+04  0.10100000352E+00 0.  1.
</event>
<event>
 5   0  0.5916603E-06  0.2795818E+04  0.7818609E-02  0.8304568E-01
       -2   -1    0    0    0  501  0.00000000000E+00  0.00000000000E+00  0.70947458875E+03  0.70947458875E+03  0.25500000920E-02 0.  1.
        2   -1    0    0  501    0  0.00000000000E+00  0.00000000000E+00 -0.27543613684E+04  0.27543613684E+04  0.25500000920E-02 0. -1.
    10030    2    1    2    0    0  0.00000000000E+00  0.00000000000E+00 -0.20448867797E+04  0.34638359572E+04  0.27958178761E+04 0.  0.
        2    1    3    3  502    0  0.43960501258E+03 -0.26315657218E+03 -0.26338424699E+04  0.26832126462E+04  0.25500000920E-02 0. -1.
       -2    1    3    3    0  502 -0.43960501258E+03  0.26315657218E+03  0.58895569022E+03  0.78062331096E+03  0.25500000920E-02 0.  1.
</event>
<event>
 5   0  0.5584205E-06  0.2802754E+04  0.7818609E-02  0.8302414E-01
        2   -1    0    0  501    0  0.00000000000E+00  0.00000000000E+00  0.17020528537E+04  0.17020528537E+04  0.25500000920E-02 0.  1.
       -2   -1    0    0    0  501  0.00000000000E+00  0.00000000000E+00 -0.11538168286E+04  0.11538168286E+04  0.25500000920E-02 0. -1.
    10030    2    1    2    0    0  0.00000000000E+00  0.00000000000E+00  0.54823602508E+03  0.28558696823E+04  0.28027538071E+04 0.  0.
        1    1    3    3  502    0 -0.62871270294E+03  0.10740723734E+04  0.93048885167E+03  0.15539371381E+04  0.50400001928E-02 0.  1.
       -1    1    3    3    0  502  0.62871270294E+03 -0.10740723734E+04 -0.38225282659E+03  0.13019325442E+04  0.50400001928E-02 0. -1.
</event>
<event>
 5   0  0.5866136E-06  0.2816009E+04  0.7818609E-02  0.8298315E-01
        2   -1    0    0  501    0  0.00000000000E+00  0.00000000000E+00  0.82614091361E+03  0.82614091361E+03  0.25500000920E-02 0. -1.
       -2   -1    0    0    0  501  0.00000000000E+00  0.00000000000E+00 -0.23996831634E+04  0.23996831634E+04  0.25500000920E-02 0.  1.
    10030    2    1    2    0    0  0.00000000000E+00  0.00000000000E+00 -0.15735422498E+04  0.32258240770E+04  0.28160088359E+04 0.  0.
        5    1    3    3  502    0  0.88817253582E+03  0.10115121823E+04 -0.12597060101E+04  0.18436075152E+04  0.46999998093E+01 0. -1.
       -5    1    3    3    0  502 -0.88817253582E+03 -0.10115121823E+04 -0.31383623971E+03  0.13822165618E+04  0.46999998093E+01 0.  1.
</event>
<event>
 5   0  0.5625245E-06  0.2795914E+04  0.7818609E-02  0.8304538E-01
       -2   -1    0    0    0  501  0.00000000000E+00  0.00000000000E+00  0.99600461904E+03  0.99600461904E+03  0.25500000920E-02 0.  1.
        2   -1    0    0  501    0  0.00000000000E+00  0.00000000000E+00 -0.19621231378E+04  0.19621231378E+04  0.25500000920E-02 0. -1.
    10030    2    1    2    0    0  0.00000000000E+00  0.00000000000E+00 -0.96611851877E+03  0.29581277568E+04  0.27959139532E+04 0.  0.
        3    1    3    3  502    0 -0.56128789629E+03 -0.33865966319E+03 -0.17894221989E+04  0.19057193618E+04  0.10100000352E+00 0. -1.
       -3    1    3    3    0  502  0.56128789629E+03  0.33865966319E+03  0.82330368012E+03  0.10524083950E+04  0.10100000352E+00 0.  1.
</event>
<event>
 5   0  0.2234068E-06  0.2784543E+04  0.7818609E-02  0.8308083E-01
       -1   -1    0    0    0  501  0.00000000000E+00  0.00000000000E+00  0.17388166214E+04  0.17388166214E+04  0.50400001928E-02 0. -1.
        1   -1    0    0  501    0  0.00000000000E+00  0.00000000000E+00 -0.11147929781E+04  0.11147929781E+04  0.50400001928E-02 0.  1.
    10030    2    1    2    0    0  0.00000000000E+00  0.00000000000E+00  0.62402364327E+03  0.28536095995E+04  0.27845434525E+04 0.  0.
        3    1    3    3  502    0  0.82774675813E+03  0.81454974033E+03  0.10990211843E+04  0.15989069856E+04  0.10100000352E+00 0. -1.
       -3    1    3    3    0  502 -0.82774675813E+03 -0.81454974033E+03 -0.47499754098E+03  0.12547026139E+04  0.10100000352E+00 0.  1.
</event>
<event>
 5   0  0.2234068E-06  0.2795487E+04  0.7818609E-02  0.8304671E-01
        1   -1    0    0  501    0  0.00000000000E+00  0.00000000000E+00  0.15434020130E+04  0.15434020130E+04  0.50400001928E-02 0. -1.
       -1   -1    0    0    0  501  0.00000000000E+00  0.00000000000E+00 -0.12658312921E+04  0.12658312921E+04  0.50400001928E-02 0.  1.
    10030    2    1    2    0    0  0.00000000000E+00  0.00000000000E+00  0.27757072089E+03  0.28092333052E+04  0.27954867658E+04 0.  0.
        3    1    3    3  502    0 -0.24284923538E+02  0.12520562065E+04  0.76268617027E+03  0.14662621547E+04  0.10100000352E+00 0. -1.
       -3    1    3    3    0  502  0.24284923538E+02 -0.12520562065E+04 -0.48511544939E+03  0.13429711505E+04  0.10100000352E+00 0.  1.
</event>
<event>
 5   0  0.2206967E-06  0.2790448E+04  0.7818609E-02  0.8306240E-01
       -1   -1    0    0    0  501  0.00000000000E+00  0.00000000000E+00  0.12363000012E+04  0.12363000012E+04  0.50400001928E-02 0. -1.
        1   -1    0    0  501    0  0.00000000000E+00  0.00000000000E+00 -0.15745776377E+04  0.15745776377E+04  0.50400001928E-02 0.  1.
    10030    2    1    2    0    0  0.00000000000E+00  0.00000000000E+00 -0.33827763655E+03  0.28108776389E+04  0.27904482331E+04 0.  0.
        5    1    3    3  502    0 -0.51679629601E+03 -0.78216888353E+03  0.87175189580E+03  0.12801718759E+04  0.46999998093E+01 0. -1.
       -5    1    3    3    0  502  0.51679629601E+03  0.78216888353E+03 -0.12100295323E+04  0.15307057631E+04  0.46999998093E+01 0.  1.
</event>
<event>
 5   0  0.2234068E-06  0.2796972E+04  0.7818609E-02  0.8304209E-01
       -1   -1    0    0    0  501  0.00000000000E+00  0.00000000000E+00  0.16243103838E+04  0.16243103838E+04  0.50400001928E-02 0.  1.
        1   -1    0    0  501    0  0.00000000000E+00  0.00000000000E+00 -0.12040575567E+04  0.12040575567E+04  0.50400001928E-02 0. -1.
    10030    2    1    2    0    0  0.00000000000E+00  0.00000000000E+00  0.42025282717E+03  0.28283679405E+04  0.27969720714E+04 0.  0.
        3    1    3    3  502    0 -0.28593788423E+03  0.70425082334E+03  0.13972000545E+04  0.15905652135E+04  0.10100000352E+00 0.  1.
       -3    1    3    3    0  502  0.28593788423E+03 -0.70425082334E+03 -0.97694722735E+03  0.12378027270E+04  0.10100000352E+00 0. -1.
</event>
<event>
 5   0  0.5916603E-06  0.2844913E+04  0.7818609E-02  0.8289459E-01
        2   -1    0    0  501    0  0.00000000000E+00  0.00000000000E+00  0.16792328551E+04  0.16792328551E+04  0.25500000920E-02 0. -1.
       -2   -1    0    0    0  501  0.00000000000E+00  0.00000000000E+00 -0.12049446708E+04  0.12049446708E+04  0.25500000920E-02 0.  1.
    10030    2    1    2    0    0  0.00000000000E+00  0.00000000000E+00  0.47428818427E+03  0.28841775260E+04  0.28449131304E+04 0.  0.
        2    1    3    3  502    0 -0.52601806899E+03 -0.62022519156E+01  0.15769929912E+04  0.16624200345E+04  0.25500000920E-02 0. -1.
       -2    1    3    3    0  502  0.52601806899E+03  0.62022519156E+01 -0.11027048069E+04  0.12217574915E+04  0.25500000920E-02 0.  1.
</event>
<event>
 5   0  0.5625245E-06  0.2798284E+04  0.7818609E-02  0.8303801E-01
        2   -1    0    0  501    0  0.00000000000E+00  0.00000000000E+00  0.13290230172E+04  0.13290230172E+04  0.25500000920E-02 0. -1.
       -2   -1    0    0    0  501  0.00000000000E+00  0.00000000000E+00 -0.14729603451E+04  0.14729603451E+04  0.25500000920E-02 0.  1.
    10030    2    1    2    0    0  0.00000000000E+00  0.00000000000E+00 -0.14393732786E+03  0.28019833622E+04  0.27982839041E+04 0.  0.
        3    1    3    3  502    0  0.28243795437E+03 -0.65979709343E+03  0.11306582098E+04  0.13392129779E+04  0.10100000352E+00 0. -1.
       -3    1    3    3    0  502 -0.28243795437E+03  0.65979709343E+03 -0.12745955376E+04  0.14627703844E+04  0.10100000352E+00 0.  1.
</event>
<event>
 5   0  0.2234068E-06  0.2806838E+04  0.7818609E-02  0.8301149E-01
        1   -1    0    0  501    0  0.00000000000E+00  0.00000000000E+00  0.16023491638E+04  0.16023491638E+04  0.50400001928E-02 0. -1.
       -1   -1    0    0    0  501  0.00000000000E+00  0.00000000000E+00 -0.12291854250E+04  0.12291854250E+04  0.50400001928E-02 0.  1.
    10030    2    1    2    0    0  0.00000000000E+00  0.00000000000E+00  0.37316373885E+03  0.28315345888E+04  0.28068375356E+04 0.  0.
        3    1    3    3  502    0 -0.10050385608E+04  0.80605271374E+03  0.74804052722E+03  0.14897610972E+04  0.10100000352E+00 0. -1.
       -3    1    3    3    0  502  0.10050385608E+04 -0.80605271374E+03 -0.37487678837E+03  0.13417734916E+04  0.10100000352E+00 0.  1.
</event>
<event>
 5   0  0.2190865E-06  0.2800759E+04  0.7818609E-02  0.8303033E-01
       -1   -1    0    0    0  501  0.00000000000E+00  0.00000000000E+00  0.10217897553E+04  0.10217897553E+04  0.50400001928E-02 0. -1.
        1   -1    0    0  501    0  0.00000000000E+00  0.00000000000E+00 -0.19192433526E+04  0.19192433526E+04  0.50400001928E-02 0.  1.
    10030    2    1    2    0    0  0.00000000000E+00  0.00000000000E+00 -0.89745359737E+03  0.29410331079E+04  0.28007593225E+04 0.  0.
        2    1    3    3  502    0 -0.13421647007E+04  0.39540168720E+03 -0.50918299622E+03  0.14889647080E+04  0.25500000920E-02 0.  1.
       -2    1    3    3    0  502  0.13421647007E+04 -0.39540168720E+03 -0.38827060115E+03  0.14520683999E+04  0.25500000920E-02 0. -1.
</event>
<event>
 5   0  0.5916603E-06  0.2823512E+04  0.7818609E-02  0.8296006E-01
       -2   -1    0    0    0  501  0.00000000000E+00  0.00000000000E+00  0.30362177457E+04  0.30362177457E+04  0.25500000920E-02 0.  1.
        2   -1    0    0  501    0  0.00000000000E+00  0.00000000000E+00 -0.65642710930E+03  0.65642710931E+03  0.25500000920E-02 0. -1.
    10030    2    1    2    0    0  0.00000000000E+00  0.00000000000E+00  0.23797906364E+04  0.36926448550E+04  0.28235124494E+04 0.  0.
        2    1    3    3  502    0  0.11327673616E+04 -0.21490244895E+03  0.22553555316E+04  0.25329772072E+04  0.25500000920E-02 0.  1.
       -2    1    3    3    0  502 -0.11327673616E+04  0.21490244895E+03  0.12443510483E+03  0.11596676479E+04  0.25500000920E-02 0. -1.
</event>
<event>
 5   0  0.2267565E-06  0.2791243E+04  0.7818609E-02  0.8305992E-01
       -1   -1    0    0    0  501  0.00000000000E+00  0.00000000000E+00  0.87506295518E+03  0.87506295519E+03  0.50400001928E-02 0.  1.
        1   -1    0    0  501    0  0.00000000000E+00  0.00000000000E+00 -0.22258500387E+04  0.22258500387E+04  0.50400001928E-02 0. -1.
    10030    2    1    2    0    0  0.00000000000E+00  0.00000000000E+00 -0.13507870835E+04  0.31009129939E+04  0.27912426714E+04 0.  0.
        4    1    3    3  502    0  0.99909746856E+03 -0.91580218632E+03 -0.10453025460E+04  0.17115923644E+04  0.12699999809E+01 0. -1.
       -4    1    3    3    0  502 -0.99909746856E+03  0.91580218632E+03 -0.30548453754E+03  0.13893206296E+04  0.12699999809E+01 0.  1.
</event>
<event>
 5   0  0.5584205E-06  0.2778419E+04  0.7818609E-02  0.8310000E-01
       -2   -1    0    0    0  501  0.00000000000E+00  0.00000000000E+00  0.19727805314E+04  0.19727805314E+04  0.25500000920E-02 0. -1.
        2   -1    0    0  501    0  0.00000000000E+00  0.00000000000E+00 -0.97826578530E+03  0.97826578531E+03  0.25500000920E-02 0.  1.
    10030    2    1    2    0    0  0.00000000000E+00  0.00000000000E+00  0.99451474609E+03  0.29510463167E+04  0.27784194757E+04 0.  0.
        1    1    3    3  502    0 -0.20792245677E+03  0.12114766154E+04 -0.19025945908E+03  0.12438271582E+04  0.50400001928E-02 0.  1.
       -1    1    3    3    0  502  0.20792245677E+03 -0.12114766154E+04  0.11847742052E+04  0.17072191585E+04  0.50400001928E-02 0. -1.
</event>
<event>
 5   0  0.2267565E-06  0.2756753E+04  0.7818609E-02  0.8316822E-01
       -1   -1    0    0    0  501  0.00000000000E+00  0.00000000000E+00  0.21108875607E+04  0.21108875607E+04  0.50400001928E-02 0. -1.
        1   -1    0    0  501    0  0.00000000000E+00  0.00000000000E+00 -0.90005851559E+03  0.90005851560E+03  0.50400001928E-02 0.  1.
    10030    2    1    2    0    0  0.00000000000E+00  0.00000000000E+00  0.12108290451E+04  0.30109460763E+04  0.27567533981E+04 0.  0.
        4    1    3    3  502    0  0.49231615908E+03  0.10201597950E+04  0.14632107026E+04  0.18504292423E+04  0.12699999809E+01 0. -1.
       -4    1    3    3    0  502 -0.49231615908E+03 -0.10201597950E+04 -0.25238165750E+03  0.11605168339E+04  0.12699999809E+01 0.  1.
</event>
<event>
 5   0  0.2234068E-06  0.2636693E+04  0.7818609E-02  0.8355843E-01
       -1   -1    0    0    0  501  0.00000000000E+00  0.00000000000E+00  0.14612151644E+04  0.14612151644E+04  0.50400001928E-02 0.  1.
        1   -1    0    0  501    0  0.00000000000E+00  0.00000000000E+00 -0.11894468684E+04  0.11894468684E+04  0.50400001928E-02 0. -1.
    10030    2    1    2    0    0  0.00000000000E+00  0.00000000000E+00  0.27176829602E+03  0.26506620328E+04  0.26366932330E+04 0.  0.
        3    1    3    3  502    0  0.43220429624E+03 -0.72995354857E+03 -0.87862280035E+03  0.12213151814E+04  0.10100000352E+00 0. -1.
       -3    1    3    3    0  502 -0.43220429624E+03  0.72995354857E+03  0.11503910964E+04  0.14293468514E+04  0.10100000352E+00 0.  1.
</event>
<event>
 5   0  0.2190865E-06  0.2804099E+04  0.7818609E-02  0.8301997E-01
       -1   -1    0    0    0  501  0.00000000000E+00  0.00000000000E+00  0.90435145543E+03  0.90435145544E+03  0.50400001928E-02 0. -1.
        1   -1    0    0  501    0  0.00000000000E+00  0.00000000000E+00 -0.21736485645E+04  0.21736485645E+04  0.50400001928E-02 0.  1.
    10030    2    1    2    0    0  0.00000000000E+00  0.00000000000E+00 -0.12692971090E+04  0.30780000199E+04  0.28040986023E+04 0.  0.
        2    1    3    3  502    0 -0.83021738655E+03  0.11214955630E+04 -0.78487038580E+03  0.16009480720E+04  0.25500000920E-02 0. -1.
       -2    1    3    3    0  502  0.83021738655E+03 -0.11214955630E+04 -0.48442672323E+03  0.14770519479E+04  0.25500000920E-02 0.  1.
</event>
<event>
 5   0  0.5584205E-06  0.2797550E+04  0.7818609E-02  0.8304029E-01
       -2   -1    0    0    0  501  0.00000000000E+00  0.00000000000E+00  0.14933742639E+04  0.14933742639E+04  0.25500000920E-02 0.  1.
        2   -1    0    0  501    0  0.00000000000E+00  0.00000000000E+00 -0.13101681726E+04  0.13101681726E+04  0.25500000920E-02 0. -1.
    10030    2    1    2    0    0  0.00000000000E+00  0.00000000000E+00  0.18320609126E+03  0.28035424366E+04  0.27975499498E+04 0.  0.
        1    1    3    3  502    0  0.87784786516E+03 -0.92185138115E+03 -0.48941864522E+03  0.13638025713E+04  0.50400001928E-02 0. -1.
       -1    1    3    3    0  502 -0.87784786516E+03  0.92185138115E+03  0.67262473648E+03  0.14397398652E+04  0.50400001928E-02 0.  1.
</event>
<event>
 5   0  0.5866136E-06  0.3077924E+04  0.7818609E-02  0.8221823E-01
       -2   -1    0    0    0  501  0.00000000000E+00  0.00000000000E+00  0.97106818132E+03  0.97106818133E+03  0.25500000920E-02 0.  1.
        2   -1    0    0  501    0  0.00000000000E+00  0.00000000000E+00 -0.24389679496E+04  0.24389679496E+04  0.25500000920E-02 0. -1.
    10030    2    1    2    0    0  0.00000000000E+00  0.00000000000E+00 -0.14678997683E+04  0.34100361309E+04  0.30779240869E+04 0.  0.
        5    1    3    3  502    0  0.58134463292E+02 -0.12893864104E+04 -0.16625305786E+04  0.21047391634E+04  0.46999998093E+01 0. -1.
       -5    1    3    3    0  502 -0.58134463292E+02  0.12893864104E+04  0.19463081030E+03  0.13052969675E+04  0.46999998093E+01 0.  1.
</event>
<event>
 5   0  0.2206967E-06  0.2843997E+04  0.7818609E-02  0.8289738E-01
        1   -1    0    0  501    0  0.00000000000E+00  0.00000000000E+00  0.18084135930E+04  0.18084135930E+04  0.50400001928E-02 0.  1.
       -1   -1    0    0    0  501  0.00000000000E+00  0.00000000000E+00 -0.11181507807E+04  0.11181507807E+04  0.50400001928E-02 0. -1.
    10030    2    1    2    0    0  0.00000000000E+00  0.00000000000E+00  0.69026281233E+03  0.29265643738E+04  0.28439965337E+04 0.  0.
        5    1    3    3  502    0  0.34345367748E+03  0.40027775017E+03 -0.10137657955E+04  0.11427711424E+04  0.46999998093E+01 0. -1.
       -5    1    3    3    0  502 -0.34345367748E+03 -0.40027775017E+03  0.17040286078E+04  0.17837932313E+04  0.46999998093E+01 0.  1.
</event>
<event>
 5   0  0.5546570E-06  0.2972145E+04  0.7818609E-02  0.8251730E-01
        2   -1    0    0  501    0  0.00000000000E+00  0.00000000000E+00  0.10990058203E+04  0.10990058203E+04  0.25500000920E-02 0. -1.
       -2   -1    0    0    0  501  0.00000000000E+00  0.00000000000E+00 -0.20094623216E+04  0.20094623216E+04  0.25500000920E-02 0.  1.
    10030    2    1    2    0    0  0.00000000000E+00  0.00000000000E+00 -0.91045650129E+03  0.31084681419E+04  0.29721445369E+04 0.  0.
        4    1    3    3  502    0  0.52963439822E+03  0.10116842744E+04  0.53938612703E+03  0.12629159409E+04  0.12699999809E+01 0. -1.
       -4    1    3    3    0  502 -0.52963439822E+03 -0.10116842744E+04 -0.14498426283E+04  0.18455522010E+04  0.12699999809E+01 0.  1.
</event>
<event>
 5   0  0.2277133E-06  0.2755472E+04  0.7818609E-02  0.8317227E-01
       -1   -1    0    0    0  501  0.00000000000E+00  0.00000000000E+00  0.15354875069E+04  0.15354875069E+04  0.50400001928E-02 0.  1.
        1   -1    0    0  501    0  0.00000000000E+00  0.00000000000E+00 -0.12361910930E+04  0.12361910930E+04  0.50400001928E-02 0. -1.
    10030    2    1    2    0    0  0.00000000000E+00  0.00000000000E+00  0.29929641391E+03  0.27716785999E+04  0.27554716325E+04 0.  0.
        1    1    3    3  502    0  0.65800897421E+03 -0.96481126728E+03 -0.58562271440E+03  0.13064419448E+04  0.50400001928E-02 0. -1.
       -1    1    3    3    0  502 -0.65800897421E+03  0.96481126728E+03  0.88491912831E+03  0.14652366550E+04  0.50400001928E-02 0.  1.
</event>
<event>
 5   0  0.2206967E-06  0.2790283E+04  0.7818609E-02  0.8306292E-01
        1   -1    0    0  501    0  0.00000000000E+00  0.00000000000E+00  0.12153400004E+04  0.12153400004E+04  0.50400001928E-02 0.  1.
       -1   -1    0    0    0  501  0.00000000000E+00  0.00000000000E+00 -0.16015430624E+04  0.16015430624E+04  0.50400001928E-02 0. -1.
    10030    2    1    2    0    0  0.00000000000E+00  0.00000000000E+00 -0.38620306201E+03  0.28168830627E+04  0.27902826710E+04 0.  0.
        5    1    3    3  502    0 -0.10791904154E+04  0.79039110910E+03 -0.59314580365E+03  0.14632887933E+04  0.46999998093E+01 0. -1.
       -5    1    3    3    0  502  0.10791904154E+04 -0.79039110910E+03  0.20694274164E+03  0.13535942695E+04  0.46999998093E+01 0.  1.
</event>
<event>
 5   0  0.2190865E-06  0.2816348E+04  0.7818609E-02  0.8298211E-01
        1   -1    0    0  501    0  0.00000000000E+00  0.00000000000E+00  0.15226972408E+04  0.15226972408E+04  0.50400001928E-02 0.  1.
       -1   -1    0    0    0  501  0.00000000000E+00  0.00000000000E+00 -0.13022639155E+04  0.13022639155E+04  0.50400001928E-02 0. -1.
    10030    2    1    2    0    0  0.00000000000E+00  0.00000000000E+00  0.22043332527E+03  0.28249611564E+04  0.28163477562E+04 0.  0.
        2    1    3    3  502    0  0.91479285526E+03 -0.68721762445E+03 -0.71317123400E+03  0.13482311524E+04  0.25500000920E-02 0. -1.
       -2    1    3    3    0  502 -0.91479285526E+03  0.68721762445E+03  0.93360455927E+03  0.14767300039E+04  0.25500000920E-02 0.  1.
</event>
<event>
 5   0  0.2190865E-06  0.2808465E+04  0.7818609E-02  0.8300645E-01
       -1   -1    0    0    0  501  0.00000000000E+00  0.00000000000E+00  0.13701699862E+04  0.13701699862E+04  0.50400001928E-02 0.  1.
        1   -1    0    0  501    0  0.00000000000E+00  0.00000000000E+00 -0.14391419458E+04  0.14391419458E+04  0.50400001928E-02 0. -1.
    10030    2    1    2    0    0  0.00000000000E+00  0.00000000000E+00 -0.68971959601E+02  0.28093119321E+04  0.28084651325E+04 0.  0.
        2    1    3    3  502    0  0.41763970965E+03  0.86062945735E+03 -0.10627857756E+04  0.14299019529E+04  0.25500000920E-02 0. -1.
       -2    1    3    3    0  502 -0.41763970965E+03 -0.86062945735E+03  0.99381381601E+03  0.13794099792E+04  0.25500000920E-02 0.  1.
</event>
<event>
 5   0  0.1901375E-06  0.2804876E+04  0.7818609E-02  0.8301756E-01
       -3   -1    0    0    0  501  0.00000000000E+00  0.00000000000E+00  0.16921862386E+04  0.16921862416E+04  0.10100000352E+00 0.  1.
        3   -1    0    0  501    0  0.00000000000E+00  0.00000000000E+00 -0.11623023540E+04  0.11623023584E+04  0.10100000352E+00 0. -1.
    10030    2    1    2    0    0  0.00000000000E+00  0.00000000000E+00  0.52988388459E+03  0.28544886001E+04  0.28048757970E+04 0.  0.
        4    1    3    3  502    0 -0.16768788945E+03 -0.19065969688E+03 -0.11387152068E+04  0.11666808833E+04  0.12699999809E+01 0. -1.
       -4    1    3    3    0  502  0.16768788945E+03  0.19065969688E+03  0.16685990914E+04  0.16878077168E+04  0.12699999809E+01 0.  1.
</event>
<event>
 5   0  0.1901375E-06  0.2758851E+04  0.7818609E-02  0.8316158E-01
       -3   -1    0    0    0  501  0.00000000000E+00  0.00000000000E+00  0.69379911276E+03  0.69379912011E+03  0.10100000352E+00 0. -1.
        3   -1    0    0  501    0  0.00000000000E+00  0.00000000000E+00 -0.27426027474E+04  0.27426027492E+04  0.10100000352E+00 0.  1.
    10030    2    1    2    0    0  0.00000000000E+00  0.00000000000E+00 -0.20488036346E+04  0.34364018693E+04  0.27588514774E+04 0.  0.
        2    1    3    3  502    0  0.68587366977E+03 -0.42335728190E+03  0.36997165305E+03  0.88686701545E+03  0.25500000920E-02 0. -1.
       -2    1    3    3    0  502 -0.68587366977E+03  0.42335728190E+03 -0.24187752876E+04  0.25495348539E+04  0.25500000920E-02 0.  1.
</event>
<event>
 5   0  0.2190865E-06  0.2815437E+04  0.7818609E-02  0.8298492E-01
        1   -1    0    0  501    0  0.00000000000E+00  0.00000000000E+00  0.15887125129E+04  0.15887125129E+04  0.50400001928E-02 0. -1.
       -1   -1    0    0    0  501  0.00000000000E+00  0.00000000000E+00 -0.12473444135E+04  0.12473444135E+04  0.50400001928E-02 0.  1.
    10030    2    1    2    0    0  0.00000000000E+00  0.00000000000E+00  0.34136809941E+03  0.28360569265E+04  0.28154372149E+04 0.  0.
        2    1    3    3  502    0 -0.76530113786E+03 -0.89120643917E+03  0.95208229139E+03  0.15120831453E+04  0.25500000920E-02 0. -1.
       -2    1    3    3    0  502  0.76530113786E+03  0.89120643917E+03 -0.61071419198E+03  0.13239737811E+04  0.25500000920E-02 0.  1.
</event>
<event>
 5   0  0.2190865E-06  0.2801105E+04  0.7818609E-02  0.8302925E-01
       -1   -1    0    0    0  501  0.00000000000E+00  0.00000000000E+00  0.17602641860E+04  0.17602641860E+04  0.50400001928E-02 0. -1.
        1   -1    0    0  501    0  0.00000000000E+00  0.00000000000E+00 -0.11143481144E+04  0.11143481144E+04  0.50400001928E-02 0.  1.
    10030    2    1    2    0    0  0.00000000000E+00  0.00000000000E+00  0.64591607159E+03  0.28746123003E+04  0.28011048366E+04 0.  0.
        2    1    3    3  502    0  0.29120431447E+03  0.19926700562E+03  0.17139005996E+04  0.17498464383E+04  0.25500000920E-02 0. -1.
       -2    1    3    3    0  502 -0.29120431447E+03 -0.19926700562E+03 -0.10679845280E+04  0.11247658620E+04  0.25500000920E-02 0.  1.
</event>
<event>
 5   0  0.2190865E-06  0.2799641E+04  0.7818609E-02  0.8303380E-01
        1   -1    0    0  501    0  0.00000000000E+00  0.00000000000E+00  0.15272431981E+04  0.15272431981E+04  0.50400001928E-02 0.  1.
       -1   -1    0    0    0  501  0.00000000000E+00  0.00000000000E+00 -0.12830293269E+04  0.12830293269E+04  0.50400001928E-02 0. -1.
    10030    2    1    2    0    0  0.00000000000E+00  0.00000000000E+00  0.24421387115E+03  0.28102725250E+04  0.27996412717E+04 0.  0.
        2    1    3    3  502    0 -0.89169316064E+02 -0.75233122587E+03 -0.10594543962E+04  0.13024580830E+04  0.25500000920E-02 0. -1.
       -2    1    3    3    0  502  0.89169316064E+02  0.75233122587E+03  0.13036682673E+04  0.15078144420E+04  0.25500000920E-02 0.  1.
</event>
<event>
 5   0  0.5584205E-06  0.2807304E+04  0.7818609E-02  0.8301004E-01
        2   -1    0    0  501    0  0.00000000000E+00  0.00000000000E+00  0.15035324398E+04  0.15035324398E+04  0.25500000920E-02 0. -1.
       -2   -1    0    0    0  501  0.00000000000E+00  0.00000000000E+00 -0.13104064738E+04  0.13104064738E+04  0.25500000920E-02 0.  1.
    10030    2    1    2    0    0  0.00000000000E+00  0.00000000000E+00  0.19312596597E+03  0.28139389136E+04  0.28073037903E+04 0.  0.
        1    1    3    3  502    0  0.10889856223E+04 -0.35194751815E+03 -0.71805822826E+03  0.13510604577E+04  0.50400001928E-02 0.  1.
       -1    1    3    3    0  502 -0.10889856223E+04  0.35194751815E+03  0.91118419424E+03  0.14628784560E+04  0.50400001928E-02 0. -1.
</event>
<event>
 5   0  0.2206967E-06  0.2785971E+04  0.7818609E-02  0.8307637E-01
        1   -1    0    0  501    0  0.00000000000E+00  0.00000000000E+00  0.15186173545E+04  0.15186173546E+04  0.50400001928E-02 0.  1.
       -1   -1    0    0    0  501  0.00000000000E+00  0.00000000000E+00 -0.12777472099E+04  0.12777472099E+04  0.50400001928E-02 0. -1.
    10030    2    1    2    0    0  0.00000000000E+00  0.00000000000E+00  0.24087014468E+03  0.27963645644E+04  0.27859713478E+04 0.  0.
        5    1    3    3  502    0  0.43136291512E+03 -0.12586645790E+04 -0.29350675553E+03  0.13625266208E+04  0.46999998093E+01 0. -1.
       -5    1    3    3    0  502 -0.43136291512E+03  0.12586645790E+04  0.53437690022E+03  0.14338379436E+04  0.46999998093E+01 0.  1.
</event>
<event>
 5   0  0.2190865E-06  0.2791046E+04  0.7818609E-02  0.8306053E-01
       -1   -1    0    0    0  501  0.00000000000E+00  0.00000000000E+00  0.13364974983E+04  0.13364974983E+04  0.50400001928E-02 0.  1.
        1   -1    0    0  501    0  0.00000000000E+00  0.00000000000E+00 -0.14571557811E+04  0.14571557811E+04  0.50400001928E-02 0. -1.
    10030    2    1    2    0    0  0.00000000000E+00  0.00000000000E+00 -0.12065828281E+03  0.27936532794E+04  0.27910464389E+04 0.  0.
        2    1    3    3  502    0  0.79019236262E+03 -0.47755305472E+03  0.98708225284E+03  0.13515887925E+04  0.25500000920E-02 0.  1.
       -2    1    3    3    0  502 -0.79019236262E+03  0.47755305472E+03 -0.11077405357E+04  0.14420644869E+04  0.25500000920E-02 0. -1.
</event>
<event>
 5   0  0.2277133E-06  0.2815051E+04  0.7818609E-02  0.8298611E-01
       -1   -1    0    0    0  501  0.00000000000E+00  0.00000000000E+00  0.10101065327E+04  0.10101065327E+04  0.50400001928E-02 0. -1.
        1   -1    0    0  501    0  0.00000000000E+00  0.00000000000E+00 -0.19613059242E+04  0.19613059243E+04  0.50400001928E-02 0.  1.
    10030    2    1    2    0    0  0.00000000000E+00  0.00000000000E+00 -0.95119939154E+03  0.29714124570E+04  0.28150509244E+04 0.  0.
        1    1    3    3  502    0 -0.22131297429E+03 -0.94720897270E+03 -0.15494284709E+04  0.18294569842E+04  0.50400001928E-02 0.  1.
       -1    1    3    3    0  502  0.22131297429E+03  0.94720897270E+03  0.59822907931E+03  0.11419554728E+04  0.50400001928E-02 0. -1.
</event>
<event>
 5   0  0.5866136E-06  0.2794910E+04  0.7818609E-02  0.8304850E-01
       -2   -1    0    0    0  501  0.00000000000E+00  0.00000000000E+00  0.87889890553E+03  0.87889890553E+03  0.25500000920E-02 0.  1.
        2   -1    0    0  501    0  0.00000000000E+00  0.00000000000E+00 -0.22219628911E+04  0.22219628911E+04  0.25500000920E-02 0. -1.
    10030    2    1    2    0    0  0.00000000000E+00  0.00000000000E+00 -0.13430639856E+04  0.31008617967E+04  0.27949101976E+04 0.  0.
        5    1    3    3  502    0  0.12495041552E+03 -0.96421732327E+03 -0.17851692786E+04  0.20327762041E+04  0.46999998093E+01 0. -1.
       -5    1    3    3    0  502 -0.12495041552E+03  0.96421732327E+03  0.44210529301E+03  0.10680855925E+04  0.46999998093E+01 0.  1.
</event>
<event>
 5   0  0.5866136E-06  0.2802379E+04  0.7818609E-02  0.8302530E-01
        2   -1    0    0  501    0  0.00000000000E+00  0.00000000000E+00  0.15417136073E+04  0.15417136073E+04  0.25500000920E-02 0. -1.
       -2   -1    0    0    0  501  0.00000000000E+00  0.00000000000E+00 -0.12734740181E+04  0.12734740181E+04  0.25500000920E-02 0.  1.
    10030    2    1    2    0    0  0.00000000000E+00  0.00000000000E+00  0.26823958924E+03  0.28151876254E+04  0.28023791480E+04 0.  0.
        5    1    3    3  502    0 -0.20067734618E+03 -0.11681894076E+04 -0.61653862925E+03  0.13360688083E+04  0.46999998093E+01 0.  1.
       -5    1    3    3    0  502  0.20067734618E+03  0.11681894076E+04  0.88477821849E+03  0.14791188171E+04  0.46999998093E+01 0. -1.
</event>
<event>
 5   0  0.5546570E-06  0.2844653E+04  0.7818609E-02  0.8289538E-01
       -2   -1    0    0    0  501  0.00000000000E+00  0.00000000000E+00  0.92008895771E+03  0.92008895771E+03  0.25500000920E-02 0. -1.
        2   -1    0    0  501    0  0.00000000000E+00  0.00000000000E+00 -0.21987147161E+04  0.21987147161E+04  0.25500000920E-02 0.  1.
    10030    2    1    2    0    0  0.00000000000E+00  0.00000000000E+00 -0.12786257584E+04  0.31188036738E+04  0.28446533226E+04 0.  0.
        4    1    3    3  502    0 -0.13389216581E+04  0.48563308084E+02 -0.11586820093E+03  0.13448035747E+04  0.12699999809E+01 0. -1.
       -4    1    3    3    0  502  0.13389216581E+04 -0.48563308084E+02 -0.11627575575E+04  0.17740000992E+04  0.12699999809E+01 0.  1.
</event>
<event>
 5   0  0.2206967E-06  0.2793165E+04  0.7818609E-02  0.8305393E-01
       -1   -1    0    0    0  501  0.00000000000E+00  0.00000000000E+00  0.94744987180E+03  0.94744987181E+03  0.50400001928E-02 0. -1.
        1   -1    0    0  501    0  0.00000000000E+00  0.00000000000E+00 -0.20586240581E+04  0.20586240581E+04  0.50400001928E-02 0.  1.
    10030    2    1    2    0    0  0.00000000000E+00  0.00000000000E+00 -0.11111741863E+04  0.30060739299E+04  0.27931653012E+04 0.  0.
        5    1    3    3  502    0 -0.58613823987E+03 -0.96342110970E+03 -0.14422048418E+04  0.18307690096E+04  0.46999998093E+01 0.  1.
       -5    1    3    3    0  502  0.58613823987E+03  0.96342110970E+03  0.33103065548E+03  0.11753049203E+04  0.46999998093E+01 0. -1.
</event>
<event>
 5   0  0.5916603E-06  0.2786486E+04  0.7818609E-02  0.8307476E-01
        2   -1    0    0  501    0  0.00000000000E+00  0.00000000000E+00  0.13863530644E+04  0.13863530644E+04  0.25500000920E-02 0. -1.
       -2   -1    0    0    0  501  0.00000000000E+00  0.00000000000E+00 -0.14001668270E+04  0.14001668271E+04  0.25500000920E-02 0.  1.
    10030    2    1    2    0    0  0.00000000000E+00  0.00000000000E+00 -0.13813762696E+02  0.27865198914E+04  0.27864856513E+04 0.  0.
        2    1    3    3  502    0 -0.29065139256E+03 -0.11929708622E+04 -0.66529773346E+03  0.13965238216E+04  0.25500000920E-02 0.  1.
       -2    1    3    3    0  502  0.29065139256E+03  0.11929708622E+04  0.65148397076E+03  0.13899960698E+04  0.25500000920E-02 0. -1.
</event>
<event>
 5   0  0.2190865E-06  0.2792010E+04  0.7818609E-02  0.8305753E-01
       -1   -1    0    0    0  501  0.00000000000E+00  0.00000000000E+00  0.11264627846E+04  0.11264627846E+04  0.50400001928E-02 0.  1.
        1   -1    0    0  501    0  0.00000000000E+00  0.00000000000E+00 -0.17300432792E+04  0.17300432793E+04  0.50400001928E-02 0. -1.
    10030    2    1    2    0    0  0.00000000000E+00  0.00000000000E+00 -0.60358049468E+03  0.28565060638E+04  0.27920095772E+04 0.  0.
        2    1    3    3  502    0  0.50436685517E+03 -0.12944758558E+04 -0.44198002935E+03  0.14578751703E+04  0.25500000920E-02 0. -1.
       -2    1    3    3    0  502 -0.50436685517E+03  0.12944758558E+04 -0.16160046533E+03  0.13986308935E+04  0.25500000920E-02 0.  1.
</event>
<event>
 5   0  0.5916603E-06  0.2809538E+04  0.7818609E-02  0.8300313E-01
        2   -1    0    0  501    0  0.00000000000E+00  0.00000000000E+00  0.15657607554E+04  0.15657607554E+04  0.25500000920E-02 0.  1.
       -2   -1    0    0    0  501  0.00000000000E+00  0.00000000000E+00 -0.12603306423E+04  0.12603306423E+04  0.25500000920E-02 0. -1.
    10030    2    1    2    0    0  0.00000000000E+00  0.00000000000E+00  0.30543011306E+03  0.28260913978E+04  0.28095382244E+04 0.  0.
        2    1    3    3  502    0 -0.11261344790E+04  0.61355361115E+03 -0.42402978122E+03  0.13507139423E+04  0.25500000920E-02 0. -1.
       -2    1    3    3    0  502  0.11261344790E+04 -0.61355361115E+03  0.72945989428E+03  0.14753774554E+04  0.25500000920E-02 0.  1.
</event>
<event>
 5   0  0.2206967E-06  0.2836736E+04  0.7818609E-02  0.8291953E-01
       -1   -1    0    0    0  501  0.00000000000E+00  0.00000000000E+00  0.96231522869E+03  0.96231522870E+03  0.50400001928E-02 0.  1.
        1   -1    0    0  501    0  0.00000000000E+00  0.00000000000E+00 -0.20905492799E+04  0.20905492799E+04  0.50400001928E-02 0. -1.
    10030    2    1    2    0    0  0.00000000000E+00  0.00000000000E+00 -0.11282340512E+04  0.30528645086E+04  0.28367357356E+04 0.  0.
        5    1    3    3  502    0 -0.37405149705E+03 -0.53748836397E+03 -0.19181226645E+04  0.20268263147E+04  0.46999998093E+01 0. -1.
       -5    1    3    3    0  502  0.37405149705E+03  0.53748836397E+03  0.78988861332E+03  0.10260381939E+04  0.46999998093E+01 0.  1.
</event>
<event>
 5   0  0.5546570E-06  0.2785984E+04  0.7818609E-02  0.8307633E-01
       -2   -1    0    0    0  501  0.00000000000E+00  0.00000000000E+00  0.12399923606E+04  0.12399923606E+04  0.25500000920E-02 0.  1.
        2   -1    0    0  501    0  0.00000000000E+00  0.00000000000E+00 -0.15648695419E+04  0.15648695419E+04  0.25500000920E-02 0. -1.
    10030    2    1    2    0    0  0.00000000000E+00  0.00000000000E+00 -0.32487718129E+03  0.28048619025E+04  0.27859836879E+04 0.  0.
        4    1    3    3  502    0 -0.90430845216E+03 -0.40101034662E+03  0.82494223742E+03  0.12880661407E+04  0.12699999809E+01 0.  1.
       -4    1    3    3    0  502  0.90430845216E+03  0.40101034662E+03 -0.11498194187E+04  0.15167957619E+04  0.12699999809E+01 0. -1.
</event>
<event>
 5   0  0.2277133E-06  0.2812190E+04  0.7818609E-02  0.8299494E-01
        1   -1    0    0  501    0  0.00000000000E+00  0.00000000000E+00  0.20576276766E+04  0.20576276766E+04  0.50400001928E-02 0. -1.
       -1   -1    0    0    0  501  0.00000000000E+00  0.00000000000E+00 -0.96086551652E+03  0.96086551653E+03  0.50400001928E-02 0.  1.
    10030    2    1    2    0    0  0.00000000000E+00  0.00000000000E+00  0.10967621601E+04  0.30184931931E+04  0.28121902356E+04 0.  0.
        1    1    3    3  502    0 -0.98384679419E+03 -0.13754827035E+03 -0.51972262530E+03  0.11211537131E+04  0.50400001928E-02 0.  1.
       -1    1    3    3    0  502  0.98384679419E+03  0.13754827035E+03  0.16164847854E+04  0.18973394800E+04  0.50400001928E-02 0. -1.
</event>
<event>
 5   0  0.2206967E-06  0.2606584E+04  0.7818609E-02  0.8365968E-01
        1   -1    0    0  501    0  0.00000000000E+00  0.00000000000E+00  0.14851299802E+04  0.14851299802E+04  0.50400001928E-02 0. -1.
       -1   -1    0    0    0  501  0.00000000000E+00  0.00000000000E+00 -0.11437184856E+04  0.11437184856E+04  0.50400001928E-02 0.  1.
    10030    2    1    2    0    0  0.00000000000E+00  0.00000000000E+00  0.34141149454E+03  0.26288484658E+04  0.26065844409E+04 0.  0.
        5    1    3    3  502    0  0.51292247109E+03  0.60468896147E+03  0.12138566685E+04  0.14498994114E+04  0.46999998093E+01 0. -1.
       -5    1    3    3    0  502 -0.51292247109E+03 -0.60468896147E+03 -0.87244517392E+03  0.11789490544E+04  0.46999998093E+01 0.  1.
</event>
<event>
 5   0  0.2277133E-06  0.2688100E+04  0.7818609E-02  0.8338877E-01
       -1   -1    0    0    0  501  0.00000000000E+00  0.00000000000E+00  0.11433472329E+04  0.11433472329E+04  0.50400001928E-02 0. -1.
        1   -1    0    0  501    0  0.00000000000E+00  0.00000000000E+00 -0.15799835860E+04  0.15799835860E+04  0.50400001928E-02 0.  1.
    10030    2    1    2    0    0  0.00000000000E+00  0.00000000000E+00 -0.43663635310E+03  0.27233308188E+04  0.26880995971E+04 0.  0.
        1    1    3    3  502    0  0.11514905766E+03  0.12201893295E+04 -0.77722661611E+03  0.14512761688E+04  0.50400001928E-02 0.  1.
       -1    1    3    3    0  502 -0.11514905766E+03 -0.12201893295E+04  0.34059026301E+03  0.12720546500E+04  0.50400001928E-02 0. -1.
</event>
<event>
 5   0  0.5916603E-06  0.2798769E+04  0.7818609E-02  0.8303651E-01
        2   -1    0    0  501    0  0.00000000000E+00  0.00000000000E+00  0.16789854910E+04  0.16789854910E+04  0.25500000920E-02 0.  1.
       -2   -1    0    0    0  501  0.00000000000E+00  0.00000000000E+00 -0.11663451353E+04  0.11663451353E+04  0.25500000920E-02 0. -1.
    10030    2    1    2    0    0  0.00000000000E+00  0.00000000000E+00  0.51264035579E+03  0.28453306263E+04  0.27987687005E+04 0.  0.
        2    1    3    3  502    0  0.29050846208E+03  0.13665122236E+04  0.17419421520E+03  0.14078687611E+04  0.25500000920E-02 0.  1.
       -2    1    3    3    0  502 -0.29050846208E+03 -0.13665122236E+04  0.33844614058E+03  0.14374618652E+04  0.25500000920E-02 0. -1.
</event>
<event>
 5   0  0.5625245E-06  0.2812181E+04  0.7818609E-02  0.8299497E-01
        2   -1    0    0  501    0  0.00000000000E+00  0.00000000000E+00  0.19277949805E+04  0.19277949805E+04  0.25500000920E-02 0. -1.
       -2   -1    0    0    0  501  0.00000000000E+00  0.00000000000E+00 -0.10255707888E+04  0.10255707888E+04  0.25500000920E-02 0.  1.
    10030    2    1    2    0    0  0.00000000000E+00  0.00000000000E+00  0.90222419173E+03  0.29533657693E+04  0.28121808041E+04 0.  0.
        3    1    3    3  502    0 -0.39794313934E+02 -0.84163841397E+03 -0.73108054512E+03  0.11155346615E+04  0.10100000352E+00 0.  1.
       -3    1    3    3    0  502  0.39794313934E+02  0.84163841397E+03  0.16333047369E+04  0.18378311078E+04  0.10100000352E+00 0. -1.
</event>
<event>
 5   0  0.2206967E-06  0.2797395E+04  0.7818609E-02  0.8304078E-01
        1   -1    0    0  501    0  0.00000000000E+00  0.00000000000E+00  0.18089403623E+04  0.18089403623E+04  0.50400001928E-02 0.  1.
       -1   -1    0    0    0  501  0.00000000000E+00  0.00000000000E+00 -0.10814918905E+04  0.10814918905E+04  0.50400001928E-02 0. -1.
    10030    2    1    2    0    0  0.00000000000E+00  0.00000000000E+00  0.72744847175E+03  0.28904322528E+04  0.27973947395E+04 0.  0.
        5    1    3    3  502    0  0.48201671440E+03 -0.12351686711E+04  0.82390204516E+03  0.15610312069E+04  0.46999998093E+01 0.  1.
       -5    1    3    3    0  502 -0.48201671440E+03  0.12351686711E+04 -0.96453573409E+02  0.13294010459E+04  0.46999998093E+01 0. -1.
</event>
<event>
 5   0  0.5866136E-06  0.2804178E+04  0.7818609E-02  0.8301973E-01
       -2   -1    0    0    0  501  0.00000000000E+00  0.00000000000E+00  0.94731104800E+03  0.94731104800E+03  0.25500000920E-02 0.  1.
        2   -1    0    0  501    0  0.00000000000E+00  0.00000000000E+00 -0.20751926853E+04  0.20751926853E+04  0.25500000920E-02 0. -1.
    10030    2    1    2    0    0  0.00000000000E+00  0.00000000000E+00 -0.11278816373E+04  0.30225037333E+04  0.28041775675E+04 0.  0.
        5    1    3    3  502    0 -0.29958302702E+02 -0.62269378282E+03 -0.19175795342E+04  0.20163775457E+04  0.46999998093E+01 0. -1.
       -5    1    3    3    0  502  0.29958302702E+02  0.62269378282E+03  0.78969789685E+03  0.10061261876E+04  0.46999998093E+01 0.  1.
</event>
<event>
 5   0  0.5866136E-06  0.2786148E+04  0.7818609E-02  0.8307582E-01
        2   -1    0    0  501    0  0.00000000000E+00  0.00000000000E+00  0.15230522542E+04  0.15230522542E+04  0.25500000920E-02 0. -1.
       -2   -1    0    0    0  501  0.00000000000E+00  0.00000000000E+00 -0.12741880494E+04  0.12741880494E+04  0.25500000920E-02 0.  1.
    10030    2    1    2    0    0  0.00000000000E+00  0.00000000000E+00  0.24886420484E+03  0.27972403036E+04  0.27861478646E+04 0.  0.
        5    1    3    3  502    0  0.78589318723E+03 -0.85571028072E+03 -0.64724015300E+03  0.13299661995E+04  0.46999998093E+01 0.  1.
       -5    1    3    3    0  502 -0.78589318723E+03  0.85571028072E+03  0.89610435784E+03  0.14672741040E+04  0.46999998093E+01 0. -1.
</event>
<event>
 5   0  0.5866136E-06  0.2810998E+04  0.7818609E-02  0.8299862E-01
        2   -1    0    0  501    0  0.00000000000E+00  0.00000000000E+00  0.29254582854E+04  0.29254582854E+04  0.25500000920E-02 0. -1.
       -2   -1    0    0    0  501  0.00000000000E+00  0.00000000000E+00 -0.67525418131E+03  0.67525418131E+03  0.25500000920E-02 0.  1.
    10030    2    1    2    0    0  0.00000000000E+00  0.00000000000E+00  0.22502041041E+04  0.36007124667E+04  0.28109983561E+04 0.  0.
        5    1    3    3  502    0  0.11445251804E+04  0.33927341551E+03  0.20753826837E+04  0.23942179752E+04  0.46999998093E+01 0. -1.
       -5    1    3    3    0  502 -0.11445251804E+04 -0.33927341551E+03  0.17482142039E+03  0.12064944915E+04  0.46999998093E+01 0.  1.
</event>
<event>
 5   0  0.2277133E-06  0.2796810E+04  0.7818609E-02  0.8304260E-01
        1   -1    0    0  501    0  0.00000000000E+00  0.00000000000E+00  0.22161725849E+04  0.22161725849E+04  0.50400001928E-02 0. -1.
       -1   -1    0    0    0  501  0.00000000000E+00  0.00000000000E+00 -0.88239332470E+03  0.88239332471E+03  0.50400001928E-02 0.  1.
    10030    2    1    2    0    0  0.00000000000E+00  0.00000000000E+00  0.13337792602E+04  0.30985659096E+04  0.27968095361E+04 0.  0.
        1    1    3    3  502    0 -0.15804229891E+02 -0.73071179123E+03  0.19877223342E+04  0.21178360592E+04  0.50400001928E-02 0. -1.
       -1    1    3    3    0  502  0.15804229891E+02  0.73071179123E+03 -0.65394307400E+03  0.98072985046E+03  0.50400001928E-02 0.  1.
</event>
<event>
 5   0  0.5546570E-06  0.2791701E+04  0.7818609E-02  0.8305849E-01
        2   -1    0    0  501    0  0.00000000000E+00  0.00000000000E+00  0.19550463358E+04  0.19550463358E+04  0.25500000920E-02 0. -1.
       -2   -1    0    0    0  501  0.00000000000E+00  0.00000000000E+00 -0.99659983772E+03  0.99659983772E+03  0.25500000920E-02 0.  1.
    10030    2    1    2    0    0  0.00000000000E+00  0.00000000000E+00  0.95844649805E+03  0.29516461735E+04  0.27917011738E+04 0.  0.
        4    1    3    3  502    0 -0.80854147590E+03  0.72279874592E+03 -0.44988402819E+03  0.11741271639E+04  0.12699999809E+01 0.  1.
       -4    1    3    3    0  502  0.80854147590E+03 -0.72279874592E+03  0.14083305262E+04  0.17775190096E+04  0.12699999809E+01 0. -1.
</event>
<event>
 5   0  0.2277133E-06  0.2784311E+04  0.7818609E-02  0.8308156E-01
        1   -1    0    0  501    0  0.00000000000E+00  0.00000000000E+00  0.20600373560E+04  0.20600373560E+04  0.50400001928E-02 0.  1.
       -1   -1    0    0    0  501  0.00000000000E+00  0.00000000000E+00 -0.94080645727E+03  0.94080645729E+03  0.50400001928E-02 0. -1.
    10030    2    1    2    0    0  0.00000000000E+00  0.00000000000E+00  0.11192308987E+04  0.30008438133E+04  0.27843106484E+04 0.  0.
        1    1    3    3  502    0 -0.77070950472E+03  0.35652095725E+03  0.17485838139E+04  0.19438738868E+04  0.50400001928E-02 0.  1.
       -1    1    3    3    0  502  0.77070950472E+03 -0.35652095725E+03 -0.62935291516E+03  0.10569699265E+04  0.50400001928E-02 0. -1.
</event>
<event>
 5   0  0.2234068E-06  0.2802179E+04  0.7818609E-02  0.8302592E-01
        1   -1    0    0  501    0  0.00000000000E+00  0.00000000000E+00  0.78458856829E+03  0.78458856831E+03  0.50400001928E-02 0. -1.
       -1   -1    0    0    0  501  0.00000000000E+00  0.00000000000E+00 -0.25020140820E+04  0.25020140820E+04  0.50400001928E-02 0.  1.
    10030    2    1    2    0    0  0.00000000000E+00  0.00000000000E+00 -0.17174255137E+04  0.32866026503E+04  0.28021788997E+04 0.  0.
        3    1    3    3  502    0 -0.12652979840E+04  0.28744312410E+03 -0.14787284743E+04  0.19672926698E+04  0.10100000352E+00 0. -1.
       -3    1    3    3    0  502  0.12652979840E+04 -0.28744312410E+03 -0.23869703944E+03  0.13193099805E+04  0.10100000352E+00 0.  1.
</event>
<event>
 5   0  0.2190865E-06  0.2777940E+04  0.7818609E-02  0.8310150E-01
        1   -1    0    0  501    0  0.00000000000E+00  0.00000000000E+00  0.15171111089E+04  0.15171111089E+04  0.50400001928E-02 0.  1.
       -1   -1    0    0    0  501  0.00000000000E+00  0.00000000000E+00 -0.12716524993E+04  0.12716524993E+04  0.50400001928E-02 0. -1.
    10030    2    1    2    0    0  0.00000000000E+00  0.00000000000E+00  0.24545860954E+03  0.27887636082E+04  0.27779403401E+04 0.  0.
        2    1    3    3  502    0  0.57860672755E+03  0.42269241268E+03  0.13172322179E+04  0.14995183683E+04  0.25500000920E-02 0.  1.
       -2    1    3    3    0  502 -0.57860672755E+03 -0.42269241268E+03 -0.10717736084E+04  0.12892452399E+04  0.25500000920E-02 0. -1.
</event>
<event>
 5   0  0.5546570E-06  0.2726737E+04  0.7818609E-02  0.8326381E-01
       -2   -1    0    0    0  501  0.00000000000E+00  0.00000000000E+00  0.12212532832E+04  0.12212532832E+04  0.25500000920E-02 0. -1.
        2   -1    0    0  501    0  0.00000000000E+00  0.00000000000E+00 -0.15220218552E+04  0.15220218552E+04  0.25500000920E-02 0.  1.
    10030    2    1    2    0    0  0.00000000000E+00  0.00000000000E+00 -0.30076857194E+03  0.27432751384E+04  0.27267373821E+04 0.  0.
        4    1    3    3  502    0 -0.63682849319E+03 -0.98859787123E+03 -0.84442063563E+03  0.14477306737E+04  0.12699999809E+01 0.  1.
       -4    1    3    3    0  502  0.63682849319E+03  0.98859787123E+03  0.54365206369E+03  0.12955444647E+04  0.12699999809E+01 0. -1.
</event>
<event>
 5   0  0.2267565E-06  0.2805074E+04  0.7818609E-02  0.8301695E-01
        1   -1    0    0  501    0  0.00000000000E+00  0.00000000000E+00  0.79756657847E+03  0.79756657848E+03  0.50400001928E-02 0. -1.
       -1   -1    0    0    0  501  0.00000000000E+00  0.00000000000E+00 -0.24663899607E+04  0.24663899607E+04  0.50400001928E-02 0.  1.
    10030    2    1    2    0    0  0.00000000000E+00  0.00000000000E+00 -0.16688233823E+04  0.32639565392E+04  0.28050741182E+04 0.  0.
        4    1    3    3  502    0  0.98541837787E+02 -0.10430913363E+04 -0.19193361334E+04  0.21866876401E+04  0.12699999809E+01 0.  1.
       -4    1    3    3    0  502 -0.98541837787E+02  0.10430913363E+04  0.25051275109E+03  0.10772688991E+04  0.12699999809E+01 0. -1.
</event>
<event>
 5   0  0.2234068E-06  0.2568649E+04  0.7818609E-02  0.8378929E-01
       -1   -1    0    0    0  501  0.00000000000E+00  0.00000000000E+00  0.12238566208E+04  0.12238566208E+04  0.50400001928E-02 0. -1.
        1   -1    0    0  501    0  0.00000000000E+00  0.00000000000E+00 -0.13477797185E+04  0.13477797185E+04  0.50400001928E-02 0.  1.
    10030    2    1    2    0    0  0.00000000000E+00  0.00000000000E+00 -0.12392309773E+03  0.25716363393E+04  0.25686487747E+04 0.  0.
        3    1    3    3  502    0 -0.72701838055E+03 -0.75455594264E+03 -0.80550881763E+03  0.13216485394E+04  0.10100000352E+00 0.  1.
       -3    1    3    3    0  502  0.72701838055E+03  0.75455594264E+03  0.68158571990E+03  0.12499877999E+04  0.10100000352E+00 0. -1.
</event>
<event>
 5   0  0.5584205E-06  0.2484206E+04  0.7818609E-02  0.8408634E-01
       -2   -1    0    0    0  501  0.00000000000E+00  0.00000000000E+00  0.73603962977E+03  0.73603962977E+03  0.25500000920E-02 0.  1.
        2   -1    0    0  501    0  0.00000000000E+00  0.00000000000E+00 -0.20961093306E+04  0.20961093306E+04  0.25500000920E-02 0. -1.
    10030    2    1    2    0    0  0.00000000000E+00  0.00000000000E+00 -0.13600697008E+04  0.28321489604E+04  0.24842057368E+04 0.  0.
        1    1    3    3  502    0  0.23647881689E+03 -0.32059543946E+03  0.66123065464E+03  0.77196479538E+03  0.50400001928E-02 0.  1.
       -1    1    3    3    0  502 -0.23647881689E+03  0.32059543946E+03 -0.20213003554E+04  0.20601841650E+04  0.50400001928E-02 0. -1.
</event>
<event>
 5   0  0.5866136E-06  0.2804114E+04  0.7818609E-02  0.8301992E-01
        2   -1    0    0  501    0  0.00000000000E+00  0.00000000000E+00  0.87406224409E+03  0.87406224410E+03  0.25500000920E-02 0. -1.
       -2   -1    0    0    0  501  0.00000000000E+00  0.00000000000E+00 -0.22489975671E+04  0.22489975671E+04  0.25500000920E-02 0.  1.
    10030    2    1    2    0    0  0.00000000000E+00  0.00000000000E+00 -0.13749353230E+04  0.31230598112E+04  0.28041140208E+04 0.  0.
        5    1    3    3  502    0 -0.60701198490E+03  0.27598313117E+03  0.68614777330E+03  0.95679208573E+03  0.46999998093E+01 0. -1.
       -5    1    3    3    0  502  0.60701198490E+03 -0.27598313117E+03 -0.20610830963E+04  0.21662677254E+04  0.46999998093E+01 0.  1.
</event>
<event>
 5   0  0.2267565E-06  0.2794965E+04  0.7818609E-02  0.8304833E-01
        1   -1    0    0  501    0  0.00000000000E+00  0.00000000000E+00  0.17498723910E+04  0.17498723910E+04  0.50400001928E-02 0. -1.
       -1   -1    0    0    0  501  0.00000000000E+00  0.00000000000E+00 -0.11160567813E+04  0.11160567813E+04  0.50400001928E-02 0.  1.
    10030    2    1    2    0    0  0.00000000000E+00  0.00000000000E+00  0.63381560973E+03  0.28659291723E+04  0.27949647214E+04 0.  0.
        4    1    3    3  502    0 -0.27628852341E+03 -0.35471801524E+03 -0.10398639254E+04  0.11329072401E+04  0.12699999809E+01 0.  1.
       -4    1    3    3    0  502  0.27628852341E+03  0.35471801524E+03  0.16736795351E+04  0.17330219322E+04  0.12699999809E+01 0. -1.
</event>
<event>
 5   0  0.5546570E-06  0.2790884E+04  0.7818609E-02  0.8306104E-01
        2   -1    0    0  501    0  0.00000000000E+00  0.00000000000E+00  0.11893711624E+04  0.11893711624E+04  0.25500000920E-02 0. -1.
       -2   -1    0    0    0  501  0.00000000000E+00  0.00000000000E+00 -0.16372171015E+04  0.16372171015E+04  0.25500000920E-02 0.  1.
    10030    2    1    2    0    0  0.00000000000E+00  0.00000000000E+00 -0.44784593908E+03  0.28265882640E+04  0.27908843095E+04 0.  0.
        4    1    3    3  502    0  0.99918457789E+03 -0.96541991837E+03 -0.35539800110E+03  0.14341250962E+04  0.12699999809E+01 0.  1.
       -4    1    3    3    0  502 -0.99918457789E+03  0.96541991837E+03 -0.92447937980E+02  0.13924631678E+04  0.12699999809E+01 0. -1.
</event>
<event>
 5   0  0.5916603E-06  0.2798443E+04  0.7818609E-02  0.8303752E-01
       -2   -1    0    0    0  501  0.00000000000E+00  0.00000000000E+00  0.60255678596E+03  0.60255678596E+03  0.25500000920E-02 0. -1.
        2   -1    0    0  501    0  0.00000000000E+00  0.00000000000E+00 -0.32491888432E+04  0.32491888432E+04  0.25500000920E-02 0.  1.
    10030    2    1    2    0    0  0.00000000000E+00  0.00000000000E+00 -0.26466320573E+04  0.38517456292E+04  0.27984429859E+04 0.  0.
        2    1    3    3  502    0  0.43688595760E+03 -0.12774748854E+04 -0.81758094760E+03  0.15783694209E+04  0.25500000920E-02 0. -1.
       -2    1    3    3    0  502 -0.43688595760E+03  0.12774748854E+04 -0.18290511097E+04  0.22733762083E+04  0.25500000920E-02 0.  1.
</event>
<event>
 5   0  0.2277133E-06  0.2806538E+04  0.7818609E-02  0.8301241E-01
        1   -1    0    0  501    0  0.00000000000E+00  0.00000000000E+00  0.14648125547E+04  0.14648125548E+04  0.50400001928E-02 0.  1.
       -1   -1    0    0    0  501  0.00000000000E+00  0.00000000000E+00 -0.13443112349E+04  0.13443112349E+04  0.50400001928E-02 0. -1.
    10030    2    1    2    0    0  0.00000000000E+00  0.00000000000E+00  0.12050131989E+03  0.28091237896E+04  0.28065380627E+04 0.  0.
        1    1    3    3  502    0  0.84365651616E+03  0.68830579153E+03 -0.82580093856E+03  0.13665534640E+04  0.50400001928E-02 0. -1.
       -1    1    3    3    0  502 -0.84365651616E+03 -0.68830579153E+03  0.94630225845E+03  0.14425703256E+04  0.50400001928E-02 0.  1.
</event>
<event>
 5   0  0.5916603E-06  0.2757537E+04  0.7818609E-02  0.8316574E-01
       -2   -1    0    0    0  501  0.00000000000E+00  0.00000000000E+00  0.11061132105E+04  0.11061132105E+04  0.25500000920E-02 0.  1.
        2   -1    0    0  501    0  0.00000000000E+00  0.00000000000E+00 -0.17186325818E+04  0.17186325818E+04  0.25500000920E-02 0. -1.
    10030    2    1    2    0    0  0.00000000000E+00  0.00000000000E+00 -0.61251937129E+03  0.28247457923E+04  0.27575367288E+04 0.  0.
        2    1    3    3  502    0  0.66502421300E+03  0.29121110107E+03 -0.15069807270E+04  0.16727378817E+04  0.25500000920E-02 0. -1.
       -2    1    3    3    0  502 -0.66502421300E+03 -0.29121110107E+03  0.89446135569E+03  0.11520079106E+04  0.25500000920E-02 0.  1.
</event>
<event>
 5   0  0.2190865E-06  0.2806000E+04  0.7818609E-02  0.8301408E-01
        1   -1    0    0  501    0  0.00000000000E+00  0.00000000000E+00  0.17407358344E+04  0.17407358345E+04  0.50400001928E-02 0. -1.
       -1   -1    0    0    0  501  0.00000000000E+00  0.00000000000E+00 -0.11307915441E+04  0.11307915441E+04  0.50400001928E-02 0.  1.
    10030    2    1    2    0    0  0.00000000000E+00  0.00000000000E+00  0.60994429037E+03  0.28715273786E+04  0.28060002581E+04 0.  0.
        2    1    3    3  502    0 -0.69791897539E+02 -0.10403595391E+04  0.12656110115E+04  0.16398140480E+04  0.25500000920E-02 0. -1.
       -2    1    3    3    0  502  0.69791897539E+02  0.10403595391E+04 -0.65566672116E+03  0.12317133306E+04  0.25500000920E-02 0.  1.
</event>
<event>
 5   0  0.2277133E-06  0.2812141E+04  0.7818609E-02  0.8299509E-01
        1   -1    0    0  501    0  0.00000000000E+00  0.00000000000E+00  0.24971006379E+04  0.24971006379E+04  0.50400001928E-02 0. -1.
       -1   -1    0    0    0  501  0.00000000000E+00  0.00000000000E+00 -0.79173178056E+03  0.79173178057E+03  0.50400001928E-02 0.  1.
    10030    2    1    2    0    0  0.00000000000E+00  0.00000000000E+00  0.17053688574E+04  0.32888324185E+04  0.28121407748E+04 0.  0.
        1    1    3    3  502    0  0.63883083495E+03 -0.80684991586E+03 -0.26780470803E+03  0.10634053715E+04  0.50400001928E-02 0. -1.
       -1    1    3    3    0  502 -0.63883083495E+03  0.80684991586E+03  0.19731735654E+04  0.22254270470E+04  0.50400001928E-02 0.  1.
</event>
<event>
 5   0  0.5584205E-06  0.2797669E+04  0.7818609E-02  0.8303992E-01
        2   -1    0    0  501    0  0.00000000000E+00  0.00000000000E+00  0.26118220877E+04  0.26118220877E+04  0.25500000920E-02 0.  1.
       -2   -1    0    0    0  501  0.00000000000E+00  0.00000000000E+00 -0.74918494358E+03  0.74918494359E+03  0.25500000920E-02 0. -1.
    10030    2    1    2    0    0  0.00000000000E+00  0.00000000000E+00  0.18626371441E+04  0.33610070313E+04  0.27976688749E+04 0.  0.
        1    1    3    3  502    0  0.13563280182E+04 -0.29217605482E+03  0.71726994795E+03  0.15618798668E+04  0.50400001928E-02 0. -1.
       -1    1    3    3    0  502 -0.13563280182E+04  0.29217605482E+03  0.11453671962E+04  0.17991271645E+04  0.50400001928E-02 0.  1.
</event>
<event>
 5   0  0.5916603E-06  0.2798315E+04  0.7818609E-02  0.8303792E-01
       -2   -1    0    0    0  501  0.00000000000E+00  0.00000000000E+00  0.14246847514E+04  0.14246847514E+04  0.25500000920E-02 0. -1.
        2   -1    0    0  501    0  0.00000000000E+00  0.00000000000E+00 -0.13740877840E+04  0.13740877840E+04  0.25500000920E-02 0.  1.
    10030    2    1    2    0    0  0.00000000000E+00  0.00000000000E+00  0.50596967470E+02  0.27987725354E+04  0.27983151452E+04 0.  0.
        2    1    3    3  502    0 -0.95042656531E+03  0.89671493814E+03  0.52561376997E+03  0.14084311029E+04  0.25500000920E-02 0. -1.
       -2    1    3    3    0  502  0.95042656531E+03 -0.89671493814E+03 -0.47501680250E+03  0.13903414325E+04  0.25500000920E-02 0.  1.
</event>
<event>
 5   0  0.2277133E-06  0.2794229E+04  0.7818609E-02  0.8305062E-01
       -1   -1    0    0    0  501  0.00000000000E+00  0.00000000000E+00  0.97928766878E+03  0.97928766879E+03  0.50400001928E-02 0.  1.
        1   -1    0    0  501    0  0.00000000000E+00  0.00000000000E+00 -0.19932126628E+04  0.19932126628E+04  0.50400001928E-02 0. -1.
    10030    2    1    2    0    0  0.00000000000E+00  0.00000000000E+00 -0.10139249941E+04  0.29725003316E+04  0.27942287537E+04 0.  0.
        1    1    3    3  502    0 -0.31229849558E+03  0.13350515334E+04 -0.22144439470E+03  0.13888594483E+04  0.50400001928E-02 0.  1.
       -1    1    3    3    0  502  0.31229849558E+03 -0.13350515334E+04 -0.79248059935E+03  0.15836408834E+04  0.50400001928E-02 0. -1.
</event>
<event>
 5   0  0.2190865E-06  0.2800195E+04  0.7818609E-02  0.8303208E-01
       -1   -1    0    0    0  501  0.00000000000E+00  0.00000000000E+00  0.10549279567E+04  0.10549279568E+04  0.50400001928E-02 0. -1.
        1   -1    0    0  501    0  0.00000000000E+00  0.00000000000E+00 -0.18582049174E+04  0.18582049174E+04  0.50400001928E-02 0.  1.
    10030    2    1    2    0    0  0.00000000000E+00  0.00000000000E+00 -0.80327696068E+03  0.29131328742E+04  0.28001945052E+04 0.  0.
        2    1    3    3  502    0 -0.66473429129E+03 -0.67305848258E+03  0.67217041635E+03  0.11604707957E+04  0.25500000920E-02 0. -1.
       -2    1    3    3    0  502  0.66473429129E+03  0.67305848258E+03 -0.14754473770E+04  0.17526620785E+04  0.25500000920E-02 0.  1.
</event>
<event>
 5   0  0.5584205E-06  0.2800152E+04  0.7818609E-02  0.8303221E-01
       -2   -1    0    0    0  501  0.00000000000E+00  0.00000000000E+00  0.84723392503E+03  0.84723392504E+03  0.25500000920E-02 0. -1.
        2   -1    0    0  501    0  0.00000000000E+00  0.00000000000E+00 -0.23136622455E+04  0.23136622455E+04  0.25500000920E-02 0.  1.
    10030    2    1    2    0    0  0.00000000000E+00  0.00000000000E+00 -0.14664283205E+04  0.31608961705E+04  0.28001522426E+04 0.  0.
        1    1    3    3  502    0 -0.64384879689E+01 -0.75237417956E+02 -0.23113618648E+04  0.23125950344E+04  0.50400001928E-02 0.  1.
       -1    1    3    3    0  502  0.64384879689E+01  0.75237417956E+02  0.84493354432E+03  0.84830113612E+03  0.50400001928E-02 0. -1.
</event>
<event>
 5   0  0.2190865E-06  0.2795756E+04  0.7818609E-02  0.8304587E-01
        1   -1    0    0  501    0  0.00000000000E+00  0.00000000000E+00  0.16509952960E+04  0.16509952960E+04  0.50400001928E-02 0.  1.
       -1   -1    0    0    0  501  0.00000000000E+00  0.00000000000E+00 -0.11835668457E+04  0.11835668458E+04  0.50400001928E-02 0. -1.
    10030    2    1    2    0    0  0.00000000000E+00  0.00000000000E+00  0.46742845022E+03  0.28345621417E+04  0.27957562804E+04 0.  0.
        2    1    3    3  502    0 -0.11531246226E+04  0.77259033676E+03  0.65669660214E+02  0.13895699795E+04  0.25500000920E-02 0.  1.
       -2    1    3    3    0  502  0.11531246226E+04 -0.77259033676E+03  0.40175879001E+03  0.14449921623E+04  0.25500000920E-02 0. -1.
</event>
<event>
 5   0  0.2234068E-06  0.2739787E+04  0.7818609E-02  0.8322210E-01
        1   -1    0    0  501    0  0.00000000000E+00  0.00000000000E+00  0.10853510734E+04  0.10853510734E+04  0.50400001928E-02 0.  1.
       -1   -1    0    0    0  501  0.00000000000E+00  0.00000000000E+00 -0.17290329139E+04  0.17290329139E+04  0.50400001928E-02 0. -1.
    10030    2    1    2    0    0  0.00000000000E+00  0.00000000000E+00 -0.64368184052E+03  0.28143839873E+04  0.27397866552E+04 0.  0.
        3    1    3    3  502    0 -0.27530690531E+03  0.12678665855E+04 -0.77350354138E+03  0.15104924063E+04  0.10100000352E+00 0. -1.
       -3    1    3    3    0  502  0.27530690531E+03 -0.12678665855E+04  0.12982170086E+03  0.13038915810E+04  0.10100000352E+00 0.  1.
</event>
<event>
 5   0  0.5546570E-06  0.2805734E+04  0.7818609E-02  0.8301490E-01
       -2   -1    0    0    0  501  0.00000000000E+00  0.00000000000E+00  0.20242089919E+04  0.20242089919E+04  0.25500000920E-02 0.  1.
        2   -1    0    0  501    0  0.00000000000E+00  0.00000000000E+00 -0.97224919334E+03  0.97224919334E+03  0.25500000920E-02 0. -1.
    10030    2    1    2    0    0  0.00000000000E+00  0.00000000000E+00  0.10519597986E+04  0.29964581853E+04  0.28057338146E+04 0.  0.
        4    1    3    3  502    0 -0.28604328114E+03 -0.88075804422E+03 -0.59944578913E+03  0.11031284414E+04  0.12699999809E+01 0. -1.
       -4    1    3    3    0  502  0.28604328114E+03  0.88075804422E+03  0.16514055877E+04  0.18933297439E+04  0.12699999809E+01 0.  1.
</event>
<event>
 5   0  0.5546570E-06  0.2942332E+04  0.7818609E-02  0.8260393E-01
       -2   -1    0    0    0  501  0.00000000000E+00  0.00000000000E+00  0.11405327122E+04  0.11405327122E+04  0.25500000920E-02 0. -1.
        2   -1    0    0  501    0  0.00000000000E+00  0.00000000000E+00 -0.18976471789E+04  0.18976471789E+04  0.25500000920E-02 0.  1.
    10030    2    1    2    0    0  0.00000000000E+00  0.00000000000E+00 -0.75711446668E+03  0.30381798911E+04  0.29423315135E+04 0.  0.
        4    1    3    3  502    0 -0.72282074547E+03  0.75268899757E+03 -0.14493120566E+04  0.17859220608E+04  0.12699999809E+01 0.  1.
       -4    1    3    3    0  502  0.72282074547E+03 -0.75268899757E+03  0.69219758990E+03  0.12522578303E+04  0.12699999809E+01 0. -1.
</event>
<event>
 5   0  0.5546570E-06  0.2811959E+04  0.7818609E-02  0.8299565E-01
        2   -1    0    0  501    0  0.00000000000E+00  0.00000000000E+00  0.13509082405E+04  0.13509082405E+04  0.25500000920E-02 0. -1.
       -2   -1    0    0    0  501  0.00000000000E+00  0.00000000000E+00 -0.14632963068E+04  0.14632963068E+04  0.25500000920E-02 0.  1.
    10030    2    1    2    0    0  0.00000000000E+00  0.00000000000E+00 -0.11238806624E+03  0.28142045473E+04  0.28119594870E+04 0.  0.
        4    1    3    3  502    0  0.12775579128E+04  0.29327706051E+01  0.53131350120E+03  0.13836395741E+04  0.12699999809E+01 0. -1.
       -4    1    3    3    0  502 -0.12775579128E+04 -0.29327706051E+01 -0.64370156744E+03  0.14305649732E+04  0.12699999809E+01 0.  1.
</event>
<event>
 5   0  0.5625245E-06  0.2825598E+04  0.7818609E-02  0.8295365E-01
       -2   -1    0    0    0  501  0.00000000000E+00  0.00000000000E+00  0.12497842830E+04  0.12497842830E+04  0.25500000920E-02 0.  1.
        2   -1    0    0  501    0  0.00000000000E+00  0.00000000000E+00 -0.15970766720E+04  0.15970766720E+04  0.25500000920E-02 0. -1.
    10030    2    1    2    0    0  0.00000000000E+00  0.00000000000E+00 -0.34729238897E+03  0.28468609551E+04  0.28255982188E+04 0.  0.
        3    1    3    3  502    0  0.20310340708E+03  0.11937659335E+04  0.55961694499E+03  0.13339787230E+04  0.10100000352E+00 0.  1.
       -3    1    3    3    0  502 -0.20310340708E+03 -0.11937659335E+04 -0.90690933396E+03  0.15128822321E+04  0.10100000352E+00 0. -1.
</event>
<event>
 5   0  0.2277133E-06  0.2774141E+04  0.7818609E-02  0.8311342E-01
       -1   -1    0    0    0  501  0.00000000000E+00  0.00000000000E+00  0.95774171186E+03  0.95774171187E+03  0.50400001928E-02 0. -1.
        1   -1    0    0  501    0  0.00000000000E+00  0.00000000000E+00 -0.20088560208E+04  0.20088560208E+04  0.50400001928E-02 0.  1.
    10030    2    1    2    0    0  0.00000000000E+00  0.00000000000E+00 -0.10511143089E+04  0.29665977326E+04  0.27741414558E+04 0.  0.
        1    1    3    3  502    0  0.12907481973E+04 -0.25838394096E+03 -0.99312241813E+03  0.16489649199E+04  0.50400001928E-02 0.  1.
       -1    1    3    3    0  502 -0.12907481973E+04  0.25838394096E+03 -0.57991890781E+02  0.13176328127E+04  0.50400001928E-02 0. -1.
</event>
<event>
 5   0  0.5916603E-06  0.2791863E+04  0.7818609E-02  0.8305799E-01
        2   -1    0    0  501    0  0.00000000000E+00  0.00000000000E+00  0.16091194491E+04  0.16091194491E+04  0.25500000920E-02 0.  1.
       -2   -1    0    0    0  501  0.00000000000E+00  0.00000000000E+00 -0.12109882313E+04  0.12109882313E+04  0.25500000920E-02 0. -1.
    10030    2    1    2    0    0  0.00000000000E+00  0.00000000000E+00  0.39813121776E+03  0.28201076805E+04  0.27918629735E+04 0.  0.
        2    1    3    3  502    0  0.94557395616E+03 -0.53740782571E+02 -0.83679748647E+03  0.12638149436E+04  0.25500000920E-02 0. -1.
       -2    1    3    3    0  502 -0.94557395616E+03  0.53740782571E+02  0.12349287042E+04  0.15562927369E+04  0.25500000920E-02 0.  1.
</event>
<event>
 5   0  0.5584205E-06  0.2800458E+04  0.7818609E-02  0.8303126E-01
        2   -1    0    0  501    0  0.00000000000E+00  0.00000000000E+00  0.14262817015E+04  0.14262817015E+04  0.25500000920E-02 0.  1.
       -2   -1    0    0    0  501  0.00000000000E+00  0.00000000000E+00 -0.13746523398E+04  0.13746523398E+04  0.25500000920E-02 0. -1.
    10030    2    1    2    0    0  0.00000000000E+00  0.00000000000E+00  0.51629361746E+02  0.28009340413E+04  0.28004581612E+04 0.  0.
        1    1    3    3  502    0 -0.71463251453E+03 -0.92346566943E+03 -0.74707338972E+03  0.13862204453E+04  0.50400001928E-02 0. -1.
       -1    1    3    3    0  502  0.71463251453E+03  0.92346566943E+03  0.79870275146E+03  0.14147135960E+04  0.50400001928E-02 0.  1.
</event>
<event>
 5   0  0.2190865E-06  0.2789785E+04  0.7818609E-02  0.8306447E-01
        1   -1    0    0  501    0  0.00000000000E+00  0.00000000000E+00  0.16768025438E+04  0.16768025438E+04  0.50400001928E-02 0.  1.
       -1   -1    0    0    0  501  0.00000000000E+00  0.00000000000E+00 -0.11603784446E+04  0.11603784446E+04  0.50400001928E-02 0. -1.
    10030    2    1    2    0    0  0.00000000000E+00  0.00000000000E+00  0.51642409917E+03  0.28371809885E+04  0.27897853163E+04 0.  0.
        2    1    3    3  502    0 -0.45446447344E+03  0.57983332688E+03  0.14628100382E+04  0.16378515966E+04  0.25500000920E-02 0.  1.
       -2    1    3    3    0  502  0.45446447344E+03 -0.57983332688E+03 -0.94638593904E+03  0.11993293919E+04  0.25500000920E-02 0. -1.
</event>
<event>
 5   0  0.2190865E-06  0.2776739E+04  0.7818609E-02  0.8310527E-01
       -1   -1    0    0    0  501  0.00000000000E+00  0.00000000000E+00  0.23580631696E+04  0.23580631696E+04  0.50400001928E-02 0. -1.
        1   -1    0    0  501    0  0.00000000000E+00  0.00000000000E+00 -0.81743755686E+03  0.81743755688E+03  0.50400001928E-02 0.  1.
    10030    2    1    2    0    0  0.00000000000E+00  0.00000000000E+00  0.15406256127E+04  0.31755007264E+04  0.27767386599E+04 0.  0.
        2    1    3    3  502    0  0.95864425900E+03  0.66400471232E+02 -0.37567238418E+03  0.10317643036E+04  0.25500000920E-02 0.  1.
       -2    1    3    3    0  502 -0.95864425900E+03 -0.66400471232E+02  0.19162979969E+04  0.21437364229E+04  0.25500000920E-02 0. -1.
</event>
<event>
 5   0  0.5584205E-06  0.2797284E+04  0.7818609E-02  0.8304112E-01
        2   -1    0    0  501    0  0.00000000000E+00  0.00000000000E+00  0.16866079858E+04  0.16866079858E+04  0.25500000920E-02 0.  1.
       -2   -1    0    0    0  501  0.00000000000E+00  0.00000000000E+00 -0.11598422330E+04  0.11598422330E+04  0.25500000920E-02 0. -1.
    10030    2    1    2    0    0  0.00000000000E+00  0.00000000000E+00  0.52676575279E+03  0.28464502188E+04  0.27972838058E+04 0.  0.
        1    1    3    3  502    0  0.86996328608E+01 -0.67777180270E+03 -0.98153737457E+03  0.11928394351E+04  0.50400001928E-02 0. -1.
       -1    1    3    3    0  502 -0.86996328608E+01  0.67777180270E+03  0.15083031274E+04  0.16536107838E+04  0.50400001928E-02 0.  1.
</event>
<event>
 5   0  0.5546570E-06  0.2778027E+04  0.7818609E-02  0.8310123E-01
       -2   -1    0    0    0  501  0.00000000000E+00  0.00000000000E+00  0.92688063386E+03  0.92688063386E+03  0.25500000920E-02 0.  1.
        2   -1    0    0  501    0  0.00000000000E+00  0.00000000000E+00 -0.20815609785E+04  0.20815609785E+04  0.25500000920E-02 0. -1.
    10030    2    1    2    0    0  0.00000000000E+00  0.00000000000E+00 -0.11546803447E+04  0.30084416124E+04  0.27780270403E+04 0.  0.
        4    1    3    3  502    0 -0.31002759176E+03 -0.21661083046E+03 -0.20247272756E+04  0.20597474391E+04  0.12699999809E+01 0. -1.
       -4    1    3    3    0  502  0.31002759176E+03  0.21661083046E+03  0.87004693091E+03  0.94869417328E+03  0.12699999809E+01 0.  1.
</event>
<event>
 5   0  0.5546570E-06  0.2796496E+04  0.7818609E-02  0.8304357E-01
        2   -1    0    0  501    0  0.00000000000E+00  0.00000000000E+00  0.30571466784E+04  0.30571466784E+04  0.25500000920E-02 0.  1.
       -2   -1    0    0    0  501  0.00000000000E+00  0.00000000000E+00 -0.63951683655E+03  0.63951683655E+03  0.25500000920E-02 0. -1.
    10030    2    1    2    0    0  0.00000000000E+00  0.00000000000E+00  0.24176298419E+04  0.36966635150E+04  0.27964955016E+04 0.  0.
        4    1    3    3  502    0 -0.85486335418E+03 -0.95346146378E+03  0.19509778598E+04  0.23337087092E+04  0.12699999809E+01 0.  1.
       -4    1    3    3    0  502  0.85486335418E+03  0.95346146378E+03  0.46665198211E+03  0.13629548058E+04  0.12699999809E+01 0. -1.
</event>
<event>
 5   0  0.2234068E-06  0.2784561E+04  0.7818609E-02  0.8308078E-01
       -1   -1    0    0    0  501  0.00000000000E+00  0.00000000000E+00  0.13789748412E+04  0.13789748412E+04  0.50400001928E-02 0. -1.
        1   -1    0    0  501    0  0.00000000000E+00  0.00000000000E+00 -0.14057141196E+04  0.14057141196E+04  0.50400001928E-02 0.  1.
    10030    2    1    2    0    0  0.00000000000E+00  0.00000000000E+00 -0.26739278396E+02  0.27846889608E+04  0.27845605792E+04 0.  0.
        3    1    3    3  502    0 -0.12546744574E+04 -0.57917837053E+03  0.15631085598E+03  0.13907151659E+04  0.10100000352E+00 0.  1.
       -3    1    3    3    0  502  0.12546744574E+04  0.57917837053E+03 -0.18305013438E+03  0.13939737949E+04  0.10100000352E+00 0. -1.
</event>
<event>
 5   0  0.2206967E-06  0.2816575E+04  0.7818609E-02  0.8298141E-01
       -1   -1    0    0    0  501  0.00000000000E+00  0.00000000000E+00  0.14060767422E+04  0.14060767422E+04  0.50400001928E-02 0. -1.
        1   -1    0    0  501    0  0.00000000000E+00  0.00000000000E+00 -0.14105021668E+04  0.14105021668E+04  0.50400001928E-02 0.  1.
    10030    2    1    2    0    0  0.00000000000E+00  0.00000000000E+00 -0.44254245584E+01  0.28165789090E+04  0.28165754324E+04 0.  0.
        5    1    3    3  502    0 -0.66423402876E+03  0.40726461984E+03  0.11708960991E+04  0.14064462594E+04  0.46999998093E+01 0. -1.
       -5    1    3    3    0  502  0.66423402876E+03 -0.40726461984E+03 -0.11753215237E+04  0.14101326496E+04  0.46999998093E+01 0.  1.
</event>
<event>
 5   0  0.5916603E-06  0.2817919E+04  0.7818609E-02  0.8297727E-01
       -2   -1    0    0    0  501  0.00000000000E+00  0.00000000000E+00  0.95330347244E+03  0.95330347244E+03  0.25500000920E-02 0.  1.
        2   -1    0    0  501    0  0.00000000000E+00  0.00000000000E+00 -0.20824076053E+04  0.20824076053E+04  0.25500000920E-02 0. -1.
    10030    2    1    2    0    0  0.00000000000E+00  0.00000000000E+00 -0.11291041329E+04  0.30357110778E+04  0.28179186654E+04 0.  0.
        2    1    3    3  502    0 -0.12853356316E+04 -0.37907822051E+03 -0.10333624518E+04  0.16922251446E+04  0.25500000920E-02 0. -1.
       -2    1    3    3    0  502  0.12853356316E+04  0.37907822051E+03 -0.95741681107E+02  0.13434859332E+04  0.25500000920E-02 0.  1.
</event>
<event>
 5   0  0.2190865E-06  0.2778457E+04  0.7818609E-02  0.8309988E-01
       -1   -1    0    0    0  501  0.00000000000E+00  0.00000000000E+00  0.17302339678E+04  0.17302339678E+04  0.50400001928E-02 0.  1.
        1   -1    0    0  501    0  0.00000000000E+00  0.00000000000E+00 -0.11154305547E+04  0.11154305547E+04  0.50400001928E-02 0. -1.
    10030    2    1    2    0    0  0.00000000000E+00  0.00000000000E+00  0.61480341303E+03  0.28456645225E+04  0.27784570067E+04 0.  0.
        2    1    3    3  502    0 -0.10271198299E+04 -0.93527933789E+03  0.32304364245E+03  0.14262116883E+04  0.25500000920E-02 0.  1.
       -2    1    3    3    0  502  0.10271198299E+04  0.93527933789E+03  0.29175977058E+03  0.14194528342E+04  0.25500000920E-02 0. -1.
</event>
<event>
 5   0  0.2190865E-06  0.2798799E+04  0.7818609E-02  0.8303641E-01
        1   -1    0    0  501    0  0.00000000000E+00  0.00000000000E+00  0.16430140955E+04  0.16430140955E+04  0.50400001928E-02 0.  1.
       -1   -1    0    0    0  501  0.00000000000E+00  0.00000000000E+00 -0.11919065414E+04  0.11919065414E+04  0.50400001928E-02 0. -1.
    10030    2    1    2    0    0  0.00000000000E+00  0.00000000000E+00  0.45110755418E+03  0.28349206369E+04  0.27987992054E+04 0.  0.
        2    1    3    3  502    0 -0.44347458368E+03  0.12895436556E+04 -0.92709461936E+02  0.13668165899E+04  0.25500000920E-02 0.  1.
       -2    1    3    3    0  502  0.44347458368E+03 -0.12895436556E+04  0.54381701611E+03  0.14681040471E+04  0.25500000920E-02 0. -1.
</event>
<event>
 5   0  0.2277133E-06  0.2737324E+04  0.7818609E-02  0.8322995E-01
        1   -1    0    0  501    0  0.00000000000E+00  0.00000000000E+00  0.17676941355E+04  0.17676941355E+04  0.50400001928E-02 0. -1.
       -1   -1    0    0    0  501  0.00000000000E+00  0.00000000000E+00 -0.10597054039E+04  0.10597054039E+04  0.50400001928E-02 0.  1.
    10030    2    1    2    0    0  0.00000000000E+00  0.00000000000E+00  0.70798873163E+03  0.28273995395E+04  0.27373235307E+04 0.  0.
        1    1    3    3  502    0  0.29964964149E+02 -0.18369396179E+02  0.17672279156E+04  0.17675773928E+04  0.50400001928E-02 0. -1.
       -1    1    3    3    0  502 -0.29964964149E+02  0.18369396179E+02 -0.10592391839E+04  0.10598221467E+04  0.50400001928E-02 0.  1.
</event>
<event>
 5   0  0.5916603E-06  0.2904631E+04  0.7818609E-02  0.8271501E-01
       -2   -1    0    0    0  501  0.00000000000E+00  0.00000000000E+00  0.13803876714E+04  0.13803876714E+04  0.25500000920E-02 0. -1.
        2   -1    0    0  501    0  0.00000000000E+00  0.00000000000E+00 -0.15279917184E+04  0.15279917184E+04  0.25500000920E-02 0.  1.
    10030    2    1    2    0    0  0.00000000000E+00  0.00000000000E+00 -0.14760404696E+03  0.29083793898E+04  0.29046314259E+04 0.  0.
        2    1    3    3  502    0 -0.11714526241E+04  0.68021170192E+02 -0.93064730335E+03  0.14976757103E+04  0.25500000920E-02 0.  1.
       -2    1    3    3    0  502  0.11714526241E+04 -0.68021170192E+02  0.78304325639E+03  0.14107036795E+04  0.25500000920E-02 0. -1.
</event>
<event>
 5   0  0.5546570E-06  0.2806198E+04  0.7818609E-02  0.8301347E-01
        2   -1    0    0  501    0  0.00000000000E+00  0.00000000000E+00  0.21404149664E+04  0.21404149664E+04  0.25500000920E-02 0. -1.
       -2   -1    0    0    0  501  0.00000000000E+00  0.00000000000E+00 -0.91976867473E+03  0.91976867474E+03  0.25500000920E-02 0.  1.
    10030    2    1    2    0    0  0.00000000000E+00  0.00000000000E+00  0.12206462917E+04  0.30601836411E+04  0.28061978811E+04 0.  0.
        4    1    3    3  502    0  0.12750847452E+04 -0.57692480608E+03  0.71938321789E+03  0.15735937107E+04  0.12699999809E+01 0.  1.
       -4    1    3    3    0  502 -0.12750847452E+04  0.57692480608E+03  0.50126307377E+03  0.14865899304E+04  0.12699999809E+01 0. -1.
</event>
<event>
 5   0  0.2234068E-06  0.2800869E+04  0.7818609E-02  0.8302999E-01
        1   -1    0    0  501    0  0.00000000000E+00  0.00000000000E+00  0.11706928965E+04  0.11706928966E+04  0.50400001928E-02 0.  1.
       -1   -1    0    0    0  501  0.00000000000E+00  0.00000000000E+00 -0.16752617543E+04  0.16752617543E+04  0.50400001928E-02 0. -1.
    10030    2    1    2    0    0  0.00000000000E+00  0.00000000000E+00 -0.50456885778E+03  0.28459546509E+04  0.28008691763E+04 0.  0.
        3    1    3    3  502    0  0.94546383157E+03 -0.59403014460E+03 -0.11111378546E+04  0.15752463336E+04  0.10100000352E+00 0. -1.
       -3    1    3    3    0  502 -0.94546383157E+03  0.59403014460E+03  0.60656899680E+03  0.12707083173E+04  0.10100000352E+00 0.  1.
</event>
<event>
 5   0  0.5584205E-06  0.2807293E+04  0.7818609E-02  0.8301008E-01
       -2   -1    0    0    0  501  0.00000000000E+00  0.00000000000E+00  0.11979591458E+04  0.11979591458E+04  0.25500000920E-02 0. -1.
        2   -1    0    0  501    0  0.00000000000E+00  0.00000000000E+00 -0.16446496368E+04  0.16446496368E+04  0.25500000920E-02 0.  1.
    10030    2    1    2    0    0  0.00000000000E+00  0.00000000000E+00 -0.44669049105E+03  0.28426087826E+04  0.28072926987E+04 0.  0.
        1    1    3    3  502    0 -0.43066365920E+03 -0.30421360438E+03  0.10938677560E+04  0.12143161747E+04  0.50400001928E-02 0. -1.
       -1    1    3    3    0  502  0.43066365920E+03  0.30421360438E+03 -0.15405582470E+04  0.16282926079E+04  0.50400001928E-02 0.  1.
</event>
<event>
 5   0  0.2190865E-06  0.2806936E+04  0.7818609E-02  0.8301118E-01
        1   -1    0    0  501    0  0.00000000000E+00  0.00000000000E+00  0.13915707033E+04  0.13915707033E+04  0.50400001928E-02 0. -1.
       -1   -1    0    0    0  501  0.00000000000E+00  0.00000000000E+00 -0.14154670392E+04  0.14154670392E+04  0.50400001928E-02 0.  1.
    10030    2    1    2    0    0  0.00000000000E+00  0.00000000000E+00 -0.23896335829E+02  0.28070377425E+04  0.28069360258E+04 0.  0.
        2    1    3    3  502    0 -0.97052983684E+03 -0.10653974036E+03  0.99627663396E+03  0.13949358451E+04  0.25500000920E-02 0. -1.
       -2    1    3    3    0  502  0.97052983684E+03  0.10653974036E+03 -0.10201729698E+04  0.14121018974E+04  0.25500000920E-02 0.  1.
</event>
<event>
 5   0  0.2277133E-06  0.2808074E+04  0.7818609E-02  0.8300766E-01
        1   -1    0    0  501    0  0.00000000000E+00  0.00000000000E+00  0.75964637187E+03  0.75964637189E+03  0.50400001928E-02 0. -1.
       -1   -1    0    0    0  501  0.00000000000E+00  0.00000000000E+00 -0.25950494570E+04  0.25950494570E+04  0.50400001928E-02 0.  1.
    10030    2    1    2    0    0  0.00000000000E+00  0.00000000000E+00 -0.18354030851E+04  0.33546958289E+04  0.28080740053E+04 0.  0.
        1    1    3    3  502    0 -0.10223608430E+04 -0.38024276193E+03  0.13841752687E+03  0.10995297464E+04  0.50400001928E-02 0. -1.
       -1    1    3    3    0  502  0.10223608430E+04  0.38024276193E+03 -0.19738206120E+04  0.22551660825E+04  0.50400001928E-02 0.  1.
</event>
<event>
 5   0  0.2234068E-06  0.2800227E+04  0.7818609E-02  0.8303198E-01
        1   -1    0    0  501    0  0.00000000000E+00  0.00000000000E+00  0.15203410648E+04  0.15203410648E+04  0.50400001928E-02 0. -1.
       -1   -1    0    0    0  501  0.00000000000E+00  0.00000000000E+00 -0.12893930234E+04  0.12893930234E+04  0.50400001928E-02 0.  1.
    10030    2    1    2    0    0  0.00000000000E+00  0.00000000000E+00  0.23094804147E+03  0.28097340882E+04  0.28002265352E+04 0.  0.
        3    1    3    3  502    0  0.12624813913E+04 -0.25367844392E+03  0.66698112070E+03  0.14501985526E+04  0.10100000352E+00 0. -1.
       -3    1    3    3    0  502 -0.12624813913E+04  0.25367844392E+03 -0.43603307923E+03  0.13595355356E+04  0.10100000352E+00 0.  1.
</event>
<event>
 5   0  0.2277133E-06  0.2974118E+04  0.7818609E-02  0.8251160E-01
       -1   -1    0    0    0  501  0.00000000000E+00  0.00000000000E+00  0.93254921615E+03  0.93254921616E+03  0.50400001928E-02 0.  1.
        1   -1    0    0  501    0  0.00000000000E+00  0.00000000000E+00 -0.23712901902E+04  0.23712901902E+04  0.50400001928E-02 0. -1.
    10030    2    1    2    0    0  0.00000000000E+00  0.00000000000E+00 -0.14387409741E+04  0.33038394064E+04  0.29741182278E+04 0.  0.
        1    1    3    3  502    0  0.26838719533E+03 -0.10394824199E+04  0.42368022032E+03  0.11541491745E+04  0.50400001928E-02 0.  1.
       -1    1    3    3    0  502 -0.26838719533E+03  0.10394824199E+04 -0.18624211944E+04  0.21496902319E+04  0.50400001928E-02 0. -1.
</event>
<event>
 5   0  0.2277133E-06  0.2788411E+04  0.7818609E-02  0.8306875E-01
       -1   -1    0    0    0  501  0.00000000000E+00  0.00000000000E+00  0.14773096773E+04  0.14773096773E+04  0.50400001928E-02 0.  1.
        1   -1    0    0  501    0  0.00000000000E+00  0.00000000000E+00 -0.13157757865E+04  0.13157757865E+04  0.50400001928E-02 0. -1.
    10030    2    1    2    0    0  0.00000000000E+00  0.00000000000E+00  0.16153389082E+03  0.27930854639E+04  0.27884105169E+04 0.  0.
        1    1    3    3  502    0 -0.55743737387E+03 -0.79909636145E+02  0.13583214001E+04  0.14704281696E+04  0.50400001928E-02 0.  1.
       -1    1    3    3    0  502  0.55743737387E+03  0.79909636145E+02 -0.11967875093E+04  0.13226572943E+04  0.50400001928E-02 0. -1.
</event>
<event>
 5   0  0.2190865E-06  0.2796295E+04  0.7818609E-02  0.8304420E-01
        1   -1    0    0  501    0  0.00000000000E+00  0.00000000000E+00  0.13899198781E+04  0.13899198781E+04  0.50400001928E-02 0.  1.
       -1   -1    0    0    0  501  0.00000000000E+00  0.00000000000E+00 -0.14064236179E+04  0.14064236179E+04  0.50400001928E-02 0. -1.
    10030    2    1    2    0    0  0.00000000000E+00  0.00000000000E+00 -0.16503739805E+02  0.27963434960E+04  0.27962947939E+04 0.  0.
        2    1    3    3  502    0 -0.38943681728E+03  0.12594801128E+04 -0.47394759528E+03  0.14009202376E+04  0.25500000920E-02 0. -1.
       -2    1    3    3    0  502  0.38943681728E+03 -0.12594801128E+04  0.45744385547E+03  0.13954232584E+04  0.25500000920E-02 0.  1.
</event>
<event>
 5   0  0.2277133E-06  0.2799219E+04  0.7818609E-02  0.8303511E-01
       -1   -1    0    0    0  501  0.00000000000E+00  0.00000000000E+00  0.83111423141E+03  0.83111423142E+03  0.50400001928E-02 0.  1.
        1   -1    0    0  501    0  0.00000000000E+00  0.00000000000E+00 -0.23569637551E+04  0.23569637551E+04  0.50400001928E-02 0. -1.
    10030    2    1    2    0    0  0.00000000000E+00  0.00000000000E+00 -0.15258495237E+04  0.31880779865E+04  0.27992185480E+04 0.  0.
        1    1    3    3  502    0  0.16547472526E+03  0.95503548214E+02 -0.23420420269E+04  0.23498220503E+04  0.50400001928E-02 0. -1.
       -1    1    3    3    0  502 -0.16547472526E+03 -0.95503548214E+02  0.81619250316E+03  0.83825593625E+03  0.50400001928E-02 0.  1.
</event>
<event>
 5   0  0.5916603E-06  0.2797837E+04  0.7818609E-02  0.8303940E-01
        2   -1    0    0  501    0  0.00000000000E+00  0.00000000000E+00  0.12827684107E+04  0.12827684107E+04  0.25500000920E-02 0. -1.
       -2   -1    0    0    0  501  0.00000000000E+00  0.00000000000E+00 -0.15255853402E+04  0.15255853402E+04  0.25500000920E-02 0.  1.
    10030    2    1    2    0    0  0.00000000000E+00  0.00000000000E+00 -0.24281692945E+03  0.28083537509E+04  0.27978367945E+04 0.  0.
        2    1    3    3  502    0  0.13209838171E+04 -0.46008003733E+03 -0.10399978757E+03  0.14026716799E+04  0.25500000920E-02 0. -1.
       -2    1    3    3    0  502 -0.13209838171E+04  0.46008003733E+03 -0.13881714188E+03  0.14056820710E+04  0.25500000920E-02 0.  1.
</event>
<event>
 5   0  0.2190865E-06  0.2789162E+04  0.7818609E-02  0.8306641E-01
        1   -1    0    0  501    0  0.00000000000E+00  0.00000000000E+00  0.24535420888E+04  0.24535420888E+04  0.50400001928E-02 0. -1.
       -1   -1    0    0    0  501  0.00000000000E+00  0.00000000000E+00 -0.79267280102E+03  0.79267280104E+03  0.50400001928E-02 0.  1.
    10030    2    1    2    0    0  0.00000000000E+00  0.00000000000E+00  0.16608692878E+04  0.32462148898E+04  0.27891619386E+04 0.  0.
        2    1    3    3  502    0  0.85486162919E+03 -0.52780310773E+03 -0.29526744209E+03  0.10471615864E+04  0.25500000920E-02 0.  1.
       -2    1    3    3    0  502 -0.85486162919E+03  0.52780310773E+03  0.19561367299E+04  0.21990533035E+04  0.25500000920E-02 0. -1.
</event>
<event>
 5   0  0.2206967E-06  0.2508604E+04  0.7818609E-02  0.8399927E-01
       -1   -1    0    0    0  501  0.00000000000E+00  0.00000000000E+00  0.80738595557E+03  0.80738595558E+03  0.50400001928E-02 0.  1.
        1   -1    0    0  501    0  0.00000000000E+00  0.00000000000E+00 -0.19486009194E+04  0.19486009194E+04  0.50400001928E-02 0. -1.
    10030    2    1    2    0    0  0.00000000000E+00  0.00000000000E+00 -0.11412149638E+04  0.27559868749E+04  0.25086036078E+04 0.  0.
        5    1    3    3  502    0  0.58685617618E+03 -0.10831862204E+04 -0.31165514548E+03  0.12707649583E+04  0.46999998093E+01 0. -1.
       -5    1    3    3    0  502 -0.58685617618E+03  0.10831862204E+04 -0.82955981831E+03  0.14852219166E+04  0.46999998093E+01 0.  1.
</event>
<event>
 5   0  0.5584205E-06  0.2845322E+04  0.7818609E-02  0.8289334E-01
       -2   -1    0    0    0  501  0.00000000000E+00  0.00000000000E+00  0.14506280492E+04  0.14506280492E+04  0.25500000920E-02 0. -1.
        2   -1    0    0  501    0  0.00000000000E+00  0.00000000000E+00 -0.13952333272E+04  0.13952333273E+04  0.25500000920E-02 0.  1.
    10030    2    1    2    0    0  0.00000000000E+00  0.00000000000E+00  0.55394721960E+02  0.28458613765E+04  0.28453221960E+04 0.  0.
        1    1    3    3  502    0  0.87430836108E+03  0.42569058283E+03  0.10663242138E+04  0.14431475710E+04  0.50400001928E-02 0. -1.
       -1    1    3    3    0  502 -0.87430836108E+03 -0.42569058283E+03 -0.10109294919E+04  0.14027138055E+04  0.50400001928E-02 0.  1.
</event>
<event>
 5   0  0.5584205E-06  0.2805780E+04  0.7818609E-02  0.8301476E-01
       -2   -1    0    0    0  501  0.00000000000E+00  0.00000000000E+00  0.97429578405E+03  0.97429578406E+03  0.25500000920E-02 0.  1.
        2   -1    0    0  501    0  0.00000000000E+00  0.00000000000E+00 -0.20200238891E+04  0.20200238891E+04  0.25500000920E-02 0. -1.
    10030    2    1    2    0    0  0.00000000000E+00  0.00000000000E+00 -0.10457281051E+04  0.29943196732E+04  0.28057802900E+04 0.  0.
        1    1    3    3  502    0 -0.13950681470E+04  0.10069785930E+03 -0.40720451227E+03  0.14567672115E+04  0.50400001928E-02 0. -1.
       -1    1    3    3    0  502  0.13950681470E+04 -0.10069785930E+03 -0.63852359282E+03  0.15375524617E+04  0.50400001928E-02 0.  1.
</event>
<event>
 5   0  0.5916603E-06  0.2873208E+04  0.7818609E-02  0.8280894E-01
       -2   -1    0    0    0  501  0.00000000000E+00  0.00000000000E+00  0.81254412416E+03  0.81254412416E+03  0.25500000920E-02 0. -1.
        2   -1    0    0  501    0  0.00000000000E+00  0.00000000000E+00 -0.25399620390E+04  0.25399620390E+04  0.25500000920E-02 0.  1.
    10030    2    1    2    0    0  0.00000000000E+00  0.00000000000E+00 -0.17274179149E+04  0.33525061632E+04  0.28732081236E+04 0.  0.
        2    1    3    3  502    0 -0.47534603535E+03 -0.97047047620E+03  0.24080731539E+03  0.11071381854E+04  0.25500000920E-02 0. -1.
       -2    1    3    3    0  502  0.47534603535E+03  0.97047047620E+03 -0.19682252302E+04  0.22453679777E+04  0.25500000920E-02 0.  1.
</event>
<event>
 5   0  0.5866136E-06  0.2505677E+04  0.7818609E-02  0.8400966E-01
       -2   -1    0    0    0  501  0.00000000000E+00  0.00000000000E+00  0.98417376630E+03  0.98417376631E+03  0.25500000920E-02 0. -1.
        2   -1    0    0  501    0  0.00000000000E+00  0.00000000000E+00 -0.15948447421E+04  0.15948447421E+04  0.25500000920E-02 0.  1.
    10030    2    1    2    0    0  0.00000000000E+00  0.00000000000E+00 -0.61067097575E+03  0.25790185084E+04  0.25056770394E+04 0.  0.
        5    1    3    3  502    0 -0.54454432076E+03 -0.48123636118E+03  0.74505739545E+03  0.10407927580E+04  0.46999998093E+01 0. -1.
       -5    1    3    3    0  502  0.54454432076E+03  0.48123636118E+03 -0.13557283712E+04  0.15382257504E+04  0.46999998093E+01 0.  1.
</event>
<event>
 5   0  0.2267565E-06  0.2779635E+04  0.7818609E-02  0.8309619E-01
        1   -1    0    0  501    0  0.00000000000E+00  0.00000000000E+00  0.19492067863E+04  0.19492067863E+04  0.50400001928E-02 0. -1.
       -1   -1    0    0    0  501  0.00000000000E+00  0.00000000000E+00 -0.99096310205E+03  0.99096310206E+03  0.50400001928E-02 0.  1.
    10030    2    1    2    0    0  0.00000000000E+00  0.00000000000E+00  0.95824368421E+03  0.29401698883E+04  0.27796345109E+04 0.  0.
        4    1    3    3  502    0 -0.12305938213E+04  0.56389492978E+03  0.14588438807E+03  0.13614780616E+04  0.12699999809E+01 0.  1.
       -4    1    3    3    0  502  0.12305938213E+04 -0.56389492978E+03  0.81235929613E+03  0.15786918267E+04  0.12699999809E+01 0. -1.
</event>
<event>
 5   0  0.5584205E-06  0.2798525E+04  0.7818609E-02  0.8303726E-01
        2   -1    0    0  501    0  0.00000000000E+00  0.00000000000E+00  0.14235000715E+04  0.14235000715E+04  0.25500000920E-02 0.  1.
       -2   -1    0    0    0  501  0.00000000000E+00  0.00000000000E+00 -0.13754378024E+04  0.13754378024E+04  0.25500000920E-02 0. -1.
    10030    2    1    2    0    0  0.00000000000E+00  0.00000000000E+00  0.48062269110E+02  0.27989378740E+04  0.27985251903E+04 0.  0.
        1    1    3    3  502    0 -0.92614355488E+03 -0.10461010624E+04  0.10063546474E+03  0.14007843567E+04  0.50400001928E-02 0.  1.
       -1    1    3    3    0  502  0.92614355488E+03  0.10461010624E+04 -0.52573195626E+02  0.13981535173E+04  0.50400001928E-02 0. -1.
</event>
<event>
 5   0  0.2277133E-06  0.2798675E+04  0.7818609E-02  0.8303680E-01
        1   -1    0    0  501    0  0.00000000000E+00  0.00000000000E+00  0.19922783424E+04  0.19922783424E+04  0.50400001928E-02 0. -1.
       -1   -1    0    0    0  501  0.00000000000E+00  0.00000000000E+00 -0.98286760939E+03  0.98286760940E+03  0.50400001928E-02 0.  1.
    10030    2    1    2    0    0  0.00000000000E+00  0.00000000000E+00  0.10094107330E+04  0.29751459518E+04  0.27986752950E+04 0.  0.
        1    1    3    3  502    0 -0.10039763466E+04 -0.67189960144E+03  0.12554422551E+04  0.17422837986E+04  0.50400001928E-02 0. -1.
       -1    1    3    3    0  502  0.10039763466E+04  0.67189960144E+03 -0.24603152209E+03  0.12328621532E+04  0.50400001928E-02 0.  1.
</event>
<event>
 5   0  0.2190865E-06  0.2800753E+04  0.7818609E-02  0.8303035E-01
        1   -1    0    0  501    0  0.00000000000E+00  0.00000000000E+00  0.18231888339E+04  0.18231888339E+04  0.50400001928E-02 0.  1.
       -1   -1    0    0    0  501  0.00000000000E+00  0.00000000000E+00 -0.10756179298E+04  0.10756179298E+04  0.50400001928E-02 0. -1.
    10030    2    1    2    0    0  0.00000000000E+00  0.00000000000E+00  0.74757090411E+03  0.28988067637E+04  0.28007531838E+04 0.  0.
        2    1    3    3  502    0  0.50468176538E+02  0.48124061152E+03 -0.98634296089E+03  0.10986409784E+04  0.25500000920E-02 0. -1.
       -2    1    3    3    0  502 -0.50468176538E+02 -0.48124061152E+03  0.17339138650E+04  0.18001657852E+04  0.25500000920E-02 0.  1.
</event>
<event>
 5   0  0.2234068E-06  0.2748209E+04  0.7818609E-02  0.8319530E-01
       -1   -1    0    0    0  501  0.00000000000E+00  0.00000000000E+00  0.12870836211E+04  0.12870836211E+04  0.50400001928E-02 0.  1.
        1   -1    0    0  501    0  0.00000000000E+00  0.00000000000E+00 -0.14670089049E+04  0.14670089049E+04  0.50400001928E-02 0. -1.
    10030    2    1    2    0    0  0.00000000000E+00  0.00000000000E+00 -0.17992528376E+03  0.27540925260E+04  0.27482089684E+04 0.  0.
        3    1    3    3  502    0 -0.65709203282E+03 -0.13961965826E+03 -0.12912363618E+04  0.14555256579E+04  0.10100000352E+00 0. -1.
       -3    1    3    3    0  502  0.65709203282E+03  0.13961965826E+03  0.11113110780E+04  0.12985668681E+04  0.10100000352E+00 0.  1.
</event>
<event>
 5   0  0.2206967E-06  0.2799559E+04  0.7818609E-02  0.8303405E-01
        1   -1    0    0  501    0  0.00000000000E+00  0.00000000000E+00  0.20163099222E+04  0.20163099222E+04  0.50400001928E-02 0.  1.
       -1   -1    0    0    0  501  0.00000000000E+00  0.00000000000E+00 -0.97176672877E+03  0.97176672878E+03  0.50400001928E-02 0. -1.
    10030    2    1    2    0    0  0.00000000000E+00  0.00000000000E+00  0.10445431934E+04  0.29880766510E+04  0.27995591777E+04 0.  0.
        5    1    3    3  502    0  0.12619844487E+03  0.91432844084E+03 -0.60094068599E+03  0.11013965423E+04  0.46999998093E+01 0. -1.
       -5    1    3    3    0  502 -0.12619844487E+03 -0.91432844084E+03  0.16454838794E+04  0.18866801087E+04  0.46999998093E+01 0.  1.
</event>
<event>
 5   0  0.2190865E-06  0.2795143E+04  0.7818609E-02  0.8304778E-01
       -1   -1    0    0    0  501  0.00000000000E+00  0.00000000000E+00  0.10241251339E+04  0.10241251340E+04  0.50400001928E-02 0.  1.
        1   -1    0    0  501    0  0.00000000000E+00  0.00000000000E+00 -0.19071941020E+04  0.19071941020E+04  0.50400001928E-02 0. -1.
    10030    2    1    2    0    0  0.00000000000E+00  0.00000000000E+00 -0.88306896805E+03  0.29313192360E+04  0.27951425117E+04 0.  0.
        2    1    3    3  502    0  0.37277150870E+02  0.90819439792E+02 -0.19035736075E+04  0.19061034169E+04  0.25500000920E-02 0. -1.
       -2    1    3    3    0  502 -0.37277150870E+02 -0.90819439792E+02  0.10205046394E+04  0.10252158191E+04  0.25500000920E-02 0.  1.
</event>
<event>
 5   0  0.5584205E-06  0.2806769E+04  0.7818609E-02  0.8301170E-01
       -2   -1    0    0    0  501  0.00000000000E+00  0.00000000000E+00  0.17007874137E+04  0.17007874137E+04  0.25500000920E-02 0. -1.
        2   -1    0    0  501    0  0.00000000000E+00  0.00000000000E+00 -0.11579857578E+04  0.11579857578E+04  0.25500000920E-02 0.  1.
    10030    2    1    2    0    0  0.00000000000E+00  0.00000000000E+00  0.54280165586E+03  0.28587731715E+04  0.28067686774E+04 0.  0.
        1    1    3    3  502    0 -0.30407971000E+03  0.15285711704E+03 -0.11153162431E+04  0.11660875140E+04  0.50400001928E-02 0.  1.
       -1    1    3    3    0  502  0.30407971000E+03 -0.15285711704E+03  0.16581178989E+04  0.16926856575E+04  0.50400001928E-02 0. -1.
</event>
<event>
 5   0  0.5625245E-06  0.2813044E+04  0.7818609E-02  0.8299230E-01
       -2   -1    0    0    0  501  0.00000000000E+00  0.00000000000E+00  0.15795560608E+04  0.15795560608E+04  0.25500000920E-02 0. -1.
        2   -1    0    0  501    0  0.00000000000E+00  0.00000000000E+00 -0.12524434614E+04  0.12524434614E+04  0.25500000920E-02 0.  1.
    10030    2    1    2    0    0  0.00000000000E+00  0.00000000000E+00  0.32711259939E+03  0.28319995222E+04  0.28130443724E+04 0.  0.
        3    1    3    3  502    0  0.41673648679E+03 -0.11319576749E+03  0.15111657060E+04  0.15716565726E+04  0.10100000352E+00 0. -1.
       -3    1    3    3    0  502 -0.41673648679E+03  0.11319576749E+03 -0.11840531066E+04  0.12603429496E+04  0.10100000352E+00 0.  1.
</event>
<event>
 5   0  0.2277133E-06  0.2824276E+04  0.7818609E-02  0.8295771E-01
        1   -1    0    0  501    0  0.00000000000E+00  0.00000000000E+00  0.20684785443E+04  0.20684785443E+04  0.50400001928E-02 0. -1.
       -1   -1    0    0    0  501  0.00000000000E+00  0.00000000000E+00 -0.96405831627E+03  0.96405831628E+03  0.50400001928E-02 0.  1.
    10030    2    1    2    0    0  0.00000000000E+00  0.00000000000E+00  0.11044202281E+04  0.30325368606E+04  0.28242761499E+04 0.  0.
        1    1    3    3  502    0 -0.42469249236E+03 -0.12307963050E+04 -0.34832529249E+02  0.13024732483E+04  0.50400001928E-02 0.  1.
       -1    1    3    3    0  502  0.42469249236E+03  0.12307963050E+04  0.11392527573E+04  0.17300636123E+04  0.50400001928E-02 0. -1.
</event>
<event>
 5   0  0.2190865E-06  0.2788526E+04  0.7818609E-02  0.8306840E-01
        1   -1    0    0  501    0  0.00000000000E+00  0.00000000000E+00  0.13400394100E+04  0.13400394100E+04  0.50400001928E-02 0. -1.
       -1   -1    0    0    0  501  0.00000000000E+00  0.00000000000E+00 -0.14506801992E+04  0.14506801993E+04  0.50400001928E-02 0.  1.
    10030    2    1    2    0    0  0.00000000000E+00  0.00000000000E+00 -0.11064078925E+03  0.27907196093E+04  0.27885255160E+04 0.  0.
        2    1    3    3  502    0  0.12568354862E+04 -0.51746146471E+03 -0.36631694529E+03  0.14076895649E+04  0.25500000920E-02 0.  1.
       -2    1    3    3    0  502 -0.12568354862E+04  0.51746146471E+03  0.25567615604E+03  0.13830300443E+04  0.25500000920E-02 0. -1.
</event>
<event>
 5   0  0.2277133E-06  0.2748145E+04  0.7818609E-02  0.8319551E-01
        1   -1    0    0  501    0  0.00000000000E+00  0.00000000000E+00  0.14805410743E+04  0.14805410743E+04  0.50400001928E-02 0. -1.
       -1   -1    0    0    0  501  0.00000000000E+00  0.00000000000E+00 -0.12752598803E+04  0.12752598803E+04  0.50400001928E-02 0.  1.
    10030    2    1    2    0    0  0.00000000000E+00  0.00000000000E+00  0.20528119401E+03  0.27558009546E+04  0.27481445618E+04 0.  0.
        1    1    3    3  502    0 -0.49516947666E+03 -0.12630131569E+04 -0.11632431097E+03  0.13615896557E+04  0.50400001928E-02 0. -1.
       -1    1    3    3    0  502  0.49516947666E+03  0.12630131569E+04  0.32160550498E+03  0.13942112989E+04  0.50400001928E-02 0.  1.
</event>
<event>
 5   0  0.2267565E-06  0.2702797E+04  0.7818609E-02  0.8334098E-01
        1   -1    0    0  501    0  0.00000000000E+00  0.00000000000E+00  0.13872071418E+04  0.13872071418E+04  0.50400001928E-02 0.  1.
       -1   -1    0    0    0  501  0.00000000000E+00  0.00000000000E+00 -0.13165139242E+04  0.13165139243E+04  0.50400001928E-02 0. -1.
    10030    2    1    2    0    0  0.00000000000E+00  0.00000000000E+00  0.70693217536E+02  0.27037210660E+04  0.27027967130E+04 0.  0.
        4    1    3    3  502    0  0.62936111983E+03  0.93992249575E+03 -0.70431561899E+03  0.13325208521E+04  0.12699999809E+01 0. -1.
       -4    1    3    3    0  502 -0.62936111983E+03 -0.93992249575E+03  0.77500883653E+03  0.13712002140E+04  0.12699999809E+01 0.  1.
</event>
<event>
 5   0  0.2234068E-06  0.2719066E+04  0.7818609E-02  0.8328845E-01
        1   -1    0    0  501    0  0.00000000000E+00  0.00000000000E+00  0.18369884781E+04  0.18369884781E+04  0.50400001928E-02 0.  1.
       -1   -1    0    0    0  501  0.00000000000E+00  0.00000000000E+00 -0.10061742389E+04  0.10061742389E+04  0.50400001928E-02 0. -1.
    10030    2    1    2    0    0  0.00000000000E+00  0.00000000000E+00  0.83081423918E+03  0.28431627170E+04  0.27190663720E+04 0.  0.
        3    1    3    3  502    0 -0.71655175733E+03 -0.60906867580E+03 -0.61119526201E+03  0.11215929437E+04  0.10100000352E+00 0.  1.
       -3    1    3    3    0  502  0.71655175733E+03  0.60906867580E+03  0.14420095012E+04  0.17215697733E+04  0.10100000352E+00 0. -1.
</event>
<event>
 5   0  0.5584205E-06  0.2832287E+04  0.7818609E-02  0.8293314E-01
        2   -1    0    0  501    0  0.00000000000E+00  0.00000000000E+00  0.22114373221E+04  0.22114373221E+04  0.25500000920E-02 0.  1.
       -2   -1    0    0    0  501  0.00000000000E+00  0.00000000000E+00 -0.90685912777E+03  0.90685912777E+03  0.25500000920E-02 0. -1.
    10030    2    1    2    0    0  0.00000000000E+00  0.00000000000E+00  0.13045781944E+04  0.31182964499E+04  0.28322867942E+04 0.  0.
        1    1    3    3  502    0  0.12390678267E+04  0.67926828546E+03  0.54919792375E+03  0.15160187474E+04  0.50400001928E-02 0.  1.
       -1    1    3    3    0  502 -0.12390678267E+04 -0.67926828546E+03  0.75538027063E+03  0.16022777026E+04  0.50400001928E-02 0. -1.
</event>
<event>
 5   0  0.2206967E-06  0.2777474E+04  0.7818609E-02  0.8310296E-01
       -1   -1    0    0    0  501  0.00000000000E+00  0.00000000000E+00  0.12940639726E+04  0.12940639726E+04  0.50400001928E-02 0.  1.
        1   -1    0    0  501    0  0.00000000000E+00  0.00000000000E+00 -0.14903364103E+04  0.14903364104E+04  0.50400001928E-02 0. -1.
    10030    2    1    2    0    0  0.00000000000E+00  0.00000000000E+00 -0.19627243771E+03  0.27844003830E+04  0.27774741444E+04 0.  0.
        5    1    3    3  502    0 -0.32301765004E+02  0.89648589006E+03  0.96461976047E+03  0.13172865016E+04  0.46999998093E+01 0.  1.
       -5    1    3    3    0  502  0.32301765004E+02 -0.89648589006E+03 -0.11608921982E+04  0.14671138814E+04  0.46999998093E+01 0. -1.
</event>
<event>
 5   0  0.5916603E-06  0.2802084E+04  0.7818609E-02  0.8302622E-01
        2   -1    0    0  501    0  0.00000000000E+00  0.00000000000E+00  0.15535246111E+04  0.15535246111E+04  0.25500000920E-02 0. -1.
       -2   -1    0    0    0  501  0.00000000000E+00  0.00000000000E+00 -0.12635255888E+04  0.12635255888E+04  0.25500000920E-02 0.  1.
    10030    2    1    2    0    0  0.00000000000E+00  0.00000000000E+00  0.28999902225E+03  0.28170501999E+04  0.28020835812E+04 0.  0.
        2    1    3    3  502    0  0.64051472277E+03 -0.10365245809E+03  0.13933707073E+04  0.15370376931E+04  0.25500000920E-02 0. -1.
       -2    1    3    3    0  502 -0.64051472277E+03  0.10365245809E+03 -0.11033716851E+04  0.12800125068E+04  0.25500000920E-02 0.  1.
</event>
<event>
 5   0  0.2267565E-06  0.2721519E+04  0.7818609E-02  0.8328056E-01
       -1   -1    0    0    0  501  0.00000000000E+00  0.00000000000E+00  0.99216919182E+03  0.99216919183E+03  0.50400001928E-02 0. -1.
        1   -1    0    0  501    0  0.00000000000E+00  0.00000000000E+00 -0.18662805768E+04  0.18662805768E+04  0.50400001928E-02 0.  1.
    10030    2    1    2    0    0  0.00000000000E+00  0.00000000000E+00 -0.87411138502E+03  0.28584497687E+04  0.27215187610E+04 0.  0.
        4    1    3    3  502    0  0.59742178626E+03  0.10990985990E+04  0.12536177044E+03  0.12572381267E+04  0.12699999809E+01 0. -1.
       -4    1    3    3    0  502 -0.59742178626E+03 -0.10990985990E+04 -0.99947315546E+03  0.16012116420E+04  0.12699999809E+01 0.  1.
</event>
<event>
 5   0  0.5625245E-06  0.2838199E+04  0.7818609E-02  0.8291506E-01
        2   -1    0    0  501    0  0.00000000000E+00  0.00000000000E+00  0.84979131618E+03  0.84979131618E+03  0.25500000920E-02 0.  1.
       -2   -1    0    0    0  501  0.00000000000E+00  0.00000000000E+00 -0.23698086957E+04  0.23698086957E+04  0.25500000920E-02 0. -1.
    10030    2    1    2    0    0  0.00000000000E+00  0.00000000000E+00 -0.15200173795E+04  0.32196000119E+04  0.28381986193E+04 0.  0.
        3    1    3    3  502    0  0.68586808605E+03  0.44149810361E+03 -0.20773119785E+04  0.22317169787E+04  0.10100000352E+00 0. -1.
       -3    1    3    3    0  502 -0.68586808605E+03 -0.44149810361E+03  0.55729459897E+03  0.98788303315E+03  0.10100000352E+00 0.  1.
</event>
<event>
 5   0  0.2277133E-06  0.2796619E+04  0.7818609E-02  0.8304319E-01
        1   -1    0    0  501    0  0.00000000000E+00  0.00000000000E+00  0.90384703344E+03  0.90384703346E+03  0.50400001928E-02 0. -1.
       -1   -1    0    0    0  501  0.00000000000E+00  0.00000000000E+00 -0.21632749058E+04  0.21632749058E+04  0.50400001928E-02 0.  1.
    10030    2    1    2    0    0  0.00000000000E+00  0.00000000000E+00 -0.12594278723E+04  0.30671219392E+04  0.27966191061E+04 0.  0.
        1    1    3    3  502    0 -0.29516820097E+03 -0.12829625143E+04 -0.11279391880E+03  0.13213022168E+04  0.50400001928E-02 0. -1.
       -1    1    3    3    0  502  0.29516820097E+03  0.12829625143E+04 -0.11466339535E+04  0.17458197225E+04  0.50400001928E-02 0.  1.
</event>
<event>
 5   0  0.5625245E-06  0.2795764E+04  0.7818609E-02  0.8304585E-01
        2   -1    0    0  501    0  0.00000000000E+00  0.00000000000E+00  0.14446453421E+04  0.14446453421E+04  0.25500000920E-02 0. -1.
       -2   -1    0    0    0  501  0.00000000000E+00  0.00000000000E+00 -0.13526328543E+04  0.13526328543E+04  0.25500000920E-02 0.  1.
    10030    2    1    2    0    0  0.00000000000E+00  0.00000000000E+00  0.92012487831E+02  0.27972781963E+04  0.27957644768E+04 0.  0.
        3    1    3    3  502    0 -0.69330863944E+03 -0.84099175645E+03  0.92176909998E+03  0.14274460718E+04  0.10100000352E+00 0. -1.
       -3    1    3    3    0  502  0.69330863944E+03  0.84099175645E+03 -0.82975661215E+03  0.13698321246E+04  0.10100000352E+00 0.  1.
</event>
<event>
 5   0  0.2206967E-06  0.2828112E+04  0.7818609E-02  0.8294593E-01
        1   -1    0    0  501    0  0.00000000000E+00  0.00000000000E+00  0.19576668171E+04  0.19576668171E+04  0.50400001928E-02 0.  1.
       -1   -1    0    0    0  501  0.00000000000E+00  0.00000000000E+00 -0.10213969997E+04  0.10213969998E+04  0.50400001928E-02 0. -1.
    10030    2    1    2    0    0  0.00000000000E+00  0.00000000000E+00  0.93626981739E+03  0.29790638169E+04  0.28281124543E+04 0.  0.
        5    1    3    3  502    0  0.19339472389E+03  0.51465450272E+03 -0.90419205065E+03  0.10582325505E+04  0.46999998093E+01 0. -1.
       -5    1    3    3    0  502 -0.19339472389E+03 -0.51465450272E+03  0.18404618680E+04  0.19208312664E+04  0.46999998093E+01 0.  1.
</event>
<event>
 5   0  0.2206967E-06  0.2743444E+04  0.7818609E-02  0.8321045E-01
        1   -1    0    0  501    0  0.00000000000E+00  0.00000000000E+00  0.15655713379E+04  0.15655713379E+04  0.50400001928E-02 0.  1.
       -1   -1    0    0    0  501  0.00000000000E+00  0.00000000000E+00 -0.12018749483E+04  0.12018749483E+04  0.50400001928E-02 0. -1.
    10030    2    1    2    0    0  0.00000000000E+00  0.00000000000E+00  0.36369638959E+03  0.27674462862E+04  0.27434437999E+04 0.  0.
        5    1    3    3  502    0  0.13214197329E+04 -0.28897228570E+03  0.41175400276E+03  0.14139372480E+04  0.46999998093E+01 0. -1.
       -5    1    3    3    0  502 -0.13214197329E+04  0.28897228570E+03 -0.48057613166E+02  0.13535090383E+04  0.46999998093E+01 0.  1.
</event>
<event>
 5   0  0.2234068E-06  0.2762879E+04  0.7818609E-02  0.8314886E-01
       -1   -1    0    0    0  501  0.00000000000E+00  0.00000000000E+00  0.12902820936E+04  0.12902820936E+04  0.50400001928E-02 0. -1.
        1   -1    0    0  501    0  0.00000000000E+00  0.00000000000E+00 -0.14790375468E+04  0.14790375468E+04  0.50400001928E-02 0.  1.
    10030    2    1    2    0    0  0.00000000000E+00  0.00000000000E+00 -0.18875545324E+03  0.27693196404E+04  0.27628794128E+04 0.  0.
        3    1    3    3  502    0 -0.26094592820E+03 -0.45342295005E+03  0.11871527100E+04  0.12973113412E+04  0.10100000352E+00 0. -1.
       -3    1    3    3    0  502  0.26094592820E+03  0.45342295005E+03 -0.13759081632E+04  0.14720082992E+04  0.10100000352E+00 0.  1.
</event>
<event>
 5   0  0.5866136E-06  0.2798534E+04  0.7818609E-02  0.8303723E-01
        2   -1    0    0  501    0  0.00000000000E+00  0.00000000000E+00  0.22183926201E+04  0.22183926201E+04  0.25500000920E-02 0. -1.
       -2   -1    0    0    0  501  0.00000000000E+00  0.00000000000E+00 -0.88259797292E+03  0.88259797292E+03  0.25500000920E-02 0.  1.
    10030    2    1    2    0    0  0.00000000000E+00  0.00000000000E+00  0.13357946472E+04  0.31009905930E+04  0.27985344948E+04 0.  0.
        5    1    3    3  502    0 -0.32839980350E+03 -0.91846399865E+03 -0.44377700903E+03  0.10716261809E+04  0.46999998093E+01 0.  1.
       -5    1    3    3    0  502  0.32839980350E+03  0.91846399865E+03  0.17795716562E+04  0.20293644122E+04  0.46999998093E+01 0. -1.
</event>
<event>
 5   0  0.5584205E-06  0.2790180E+04  0.7818609E-02  0.8306323E-01
        2   -1    0    0  501    0  0.00000000000E+00  0.00000000000E+00  0.89086897188E+03  0.89086897189E+03  0.25500000920E-02 0.  1.
       -2   -1    0    0    0  501  0.00000000000E+00  0.00000000000E+00 -0.21846943568E+04  0.21846943568E+04  0.25500000920E-02 0. -1.
    10030    2    1    2    0    0  0.00000000000E+00  0.00000000000E+00 -0.12938253849E+04  0.30755633287E+04  0.27901802204E+04 0.  0.
        1    1    3    3  502    0  0.13911596896E+04  0.43415863504E+02 -0.75186813858E+03  0.15819342328E+04  0.50400001928E-02 0. -1.
       -1    1    3    3    0  502 -0.13911596896E+04 -0.43415863504E+02 -0.54195724635E+03  0.14936290959E+04  0.50400001928E-02 0.  1.
</event>
<event>
 5   0  0.5584205E-06  0.2719653E+04  0.7818609E-02  0.8328656E-01
       -2   -1    0    0    0  501  0.00000000000E+00  0.00000000000E+00  0.11843332891E+04  0.11843332891E+04  0.25500000920E-02 0.  1.
        2   -1    0    0  501    0  0.00000000000E+00  0.00000000000E+00 -0.15613242856E+04  0.15613242856E+04  0.25500000920E-02 0. -1.
    10030    2    1    2    0    0  0.00000000000E+00  0.00000000000E+00 -0.37699099650E+03  0.27456575747E+04  0.27196531591E+04 0.  0.
        1    1    3    3  502    0 -0.41700505848E+03 -0.21849215649E+03  0.10994362671E+04  0.11959900278E+04  0.50400001928E-02 0.  1.
       -1    1    3    3    0  502  0.41700505848E+03  0.21849215649E+03 -0.14764272636E+04  0.15496675469E+04  0.50400001928E-02 0. -1.
</event>
<event>
 5   0  0.2190865E-06  0.2789696E+04  0.7818609E-02  0.8306474E-01
        1   -1    0    0  501    0  0.00000000000E+00  0.00000000000E+00  0.16522670872E+04  0.16522670872E+04  0.50400001928E-02 0. -1.
       -1   -1    0    0    0  501  0.00000000000E+00  0.00000000000E+00 -0.11775344995E+04  0.11775344995E+04  0.50400001928E-02 0.  1.
    10030    2    1    2    0    0  0.00000000000E+00  0.00000000000E+00  0.47473258766E+03  0.28298015868E+04  0.27896963976E+04 0.  0.
        2    1    3    3  502    0 -0.47157322411E+03  0.12830967921E+04 -0.43897402263E+02  0.13677154915E+04  0.25500000920E-02 0.  1.
       -2    1    3    3    0  502  0.47157322411E+03 -0.12830967921E+04  0.51862998993E+03  0.14620860953E+04  0.25500000920E-02 0. -1.
</event>
<event>
 5   0  0.1901375E-06  0.2795787E+04  0.7818609E-02  0.8304578E-01
       -4   -1    0    0    0  501  0.00000000000E+00  0.00000000000E+00  0.19415953417E+04  0.19415957571E+04  0.12699999809E+01 0. -1.
        4   -1    0    0  501    0  0.00000000000E+00  0.00000000000E+00 -0.10064425676E+04  0.10064433688E+04  0.12699999809E+01 0.  1.
    10030    2    1    2    0    0  0.00000000000E+00  0.00000000000E+00  0.93515277417E+03  0.29480391259E+04  0.27957868261E+04 0.  0.
        5    1    3    3  502    0  0.13903430905E+04 -0.14100128617E+03  0.43183925382E+03  0.14626833229E+04  0.46999998093E+01 0.  1.
       -5    1    3    3    0  502 -0.13903430905E+04  0.14100128617E+03  0.50331352035E+03  0.14853558030E+04  0.46999998093E+01 0. -1.
</event>
<event>
 5   0  0.5916603E-06  0.2744757E+04  0.7818609E-02  0.8320627E-01
        2   -1    0    0  501    0  0.00000000000E+00  0.00000000000E+00  0.13400950249E+04  0.13400950249E+04  0.25500000920E-02 0. -1.
       -2   -1    0    0    0  501  0.00000000000E+00  0.00000000000E+00 -0.14054398828E+04  0.14054398828E+04  0.25500000920E-02 0.  1.
    10030    2    1    2    0    0  0.00000000000E+00  0.00000000000E+00 -0.65344857855E+02  0.27455349077E+04  0.27447571803E+04 0.  0.
        2    1    3    3  502    0  0.27943290124E+03 -0.13308115168E+04  0.15253120218E+03  0.13683595314E+04  0.25500000920E-02 0. -1.
       -2    1    3    3    0  502 -0.27943290124E+03  0.13308115168E+04 -0.21787606004E+03  0.13771753763E+04  0.25500000920E-02 0.  1.
</event>
<event>
 5   0  0.2206967E-06  0.2807997E+04  0.7818609E-02  0.8300790E-01
       -1   -1    0    0    0  501  0.00000000000E+00  0.00000000000E+00  0.93237017672E+03  0.93237017673E+03  0.50400001928E-02 0. -1.
        1   -1    0    0  501    0  0.00000000000E+00  0.00000000000E+00 -0.21141943125E+04  0.21141943125E+04  0.50400001928E-02 0.  1.
    10030    2    1    2    0    0  0.00000000000E+00  0.00000000000E+00 -0.11818241358E+04  0.30465644893E+04  0.28079969550E+04 0.  0.
        5    1    3    3  502    0 -0.49256149633E+03  0.34474646289E+03 -0.19674534604E+04  0.20572705608E+04  0.46999998093E+01 0.  1.
       -5    1    3    3    0  502  0.49256149633E+03 -0.34474646289E+03  0.78562932459E+03  0.98929392851E+03  0.46999998093E+01 0. -1.
</event>
<event>
 5   0  0.2267565E-06  0.2732549E+04  0.7818609E-02  0.8324521E-01
        1   -1    0    0  501    0  0.00000000000E+00  0.00000000000E+00  0.12716192611E+04  0.12716192611E+04  0.50400001928E-02 0.  1.
       -1   -1    0    0    0  501  0.00000000000E+00  0.00000000000E+00 -0.14679751323E+04  0.14679751323E+04  0.50400001928E-02 0. -1.
    10030    2    1    2    0    0  0.00000000000E+00  0.00000000000E+00 -0.19635587118E+03  0.27395943933E+04  0.27325485928E+04 0.  0.
        4    1    3    3  502    0  0.12434762988E+03  0.93588221832E+03  0.89197476643E+03  0.12988296488E+04  0.12699999809E+01 0.  1.
       -4    1    3    3    0  502 -0.12434762988E+03 -0.93588221832E+03 -0.10883306376E+04  0.14407647446E+04  0.12699999809E+01 0. -1.
</event>
<event>
 5   0  0.2234068E-06  0.2813322E+04  0.7818609E-02  0.8299144E-01
        1   -1    0    0  501    0  0.00000000000E+00  0.00000000000E+00  0.18199005608E+04  0.18199005608E+04  0.50400001928E-02 0. -1.
       -1   -1    0    0    0  501  0.00000000000E+00  0.00000000000E+00 -0.10872542334E+04  0.10872542334E+04  0.50400001928E-02 0.  1.
    10030    2    1    2    0    0  0.00000000000E+00  0.00000000000E+00  0.73264632746E+03  0.29071547942E+04  0.28133215878E+04 0.  0.
        3    1    3    3  502    0 -0.17157602608E+02 -0.92708163409E+02 -0.10839854923E+04  0.10880780048E+04  0.10100000352E+00 0.  1.
       -3    1    3    3    0  502  0.17157602608E+02  0.92708163409E+02  0.18166318197E+04  0.18190767894E+04  0.10100000352E+00 0. -1.
</event>
<event>
 5   0  0.2206967E-06  0.2812112E+04  0.7818609E-02  0.8299518E-01
        1   -1    0    0  501    0  0.00000000000E+00  0.00000000000E+00  0.11532311088E+04  0.11532311089E+04  0.50400001928E-02 0.  1.
       -1   -1    0    0    0  501  0.00000000000E+00  0.00000000000E+00 -0.17143082200E+04  0.17143082200E+04  0.50400001928E-02 0. -1.
    10030    2    1    2    0    0  0.00000000000E+00  0.00000000000E+00 -0.56107711116E+03  0.28675393289E+04  0.28121120671E+04 0.  0.
        5    1    3    3  502    0 -0.65267387062E+03  0.10936809045E+04  0.32689586059E+03  0.13149160034E+04  0.46999998093E+01 0.  1.
       -5    1    3    3    0  502  0.65267387062E+03 -0.10936809045E+04 -0.88797297174E+03  0.15526233255E+04  0.46999998093E+01 0. -1.
</event>
<event>
 5   0  0.5916603E-06  0.2808156E+04  0.7818609E-02  0.8300741E-01
       -2   -1    0    0    0  501  0.00000000000E+00  0.00000000000E+00  0.20093480259E+04  0.20093480259E+04  0.25500000920E-02 0.  1.
        2   -1    0    0  501    0  0.00000000000E+00  0.00000000000E+00 -0.98113163152E+03  0.98113163153E+03  0.25500000920E-02 0. -1.
    10030    2    1    2    0    0  0.00000000000E+00  0.00000000000E+00  0.10282163943E+04  0.29904796574E+04  0.28081559123E+04 0.  0.
        2    1    3    3  502    0 -0.90676926740E+02  0.96993094865E+03  0.15909203396E+04  0.18654800662E+04  0.25500000920E-02 0.  1.
       -2    1    3    3    0  502  0.90676926740E+02 -0.96993094865E+03 -0.56270394529E+03  0.11249995912E+04  0.25500000920E-02 0. -1.
</event>
<event>
 5   0  0.5916603E-06  0.2742915E+04  0.7818609E-02  0.8321213E-01
        2   -1    0    0  501    0  0.00000000000E+00  0.00000000000E+00  0.13705720810E+04  0.13705720810E+04  0.25500000920E-02 0. -1.
       -2   -1    0    0    0  501  0.00000000000E+00  0.00000000000E+00 -0.13723437690E+04  0.13723437690E+04  0.25500000920E-02 0.  1.
    10030    2    1    2    0    0  0.00000000000E+00  0.00000000000E+00 -0.17716879669E+01  0.27429158499E+04  0.27429152778E+04 0.  0.
        2    1    3    3  502    0  0.27355073079E+02 -0.52012555580E+03  0.12678213062E+04  0.13706384492E+04  0.25500000920E-02 0. -1.
       -2    1    3    3    0  502 -0.27355073079E+02  0.52012555580E+03 -0.12695929942E+04  0.13722774008E+04  0.25500000920E-02 0.  1.
</event>
<event>
 5   0  0.2267565E-06  0.2815837E+04  0.7818609E-02  0.8298368E-01
        1   -1    0    0  501    0  0.00000000000E+00  0.00000000000E+00  0.20538356907E+04  0.20538356907E+04  0.50400001928E-02 0. -1.
       -1   -1    0    0    0  501  0.00000000000E+00  0.00000000000E+00 -0.96513816067E+03  0.96513816068E+03  0.50400001928E-02 0.  1.
    10030    2    1    2    0    0  0.00000000000E+00  0.00000000000E+00  0.10886975300E+04  0.30189738514E+04  0.28158374959E+04 0.  0.
        4    1    3    3  502    0 -0.40302948195E+03 -0.10801701707E+03 -0.89732490834E+03  0.98959286746E+03  0.12699999809E+01 0.  1.
       -4    1    3    3    0  502  0.40302948195E+03  0.10801701707E+03  0.19860224384E+04  0.20293809839E+04  0.12699999809E+01 0. -1.
</event>
<event>
 5   0  0.2277133E-06  0.2800236E+04  0.7818609E-02  0.8303195E-01
        1   -1    0    0  501    0  0.00000000000E+00  0.00000000000E+00  0.14379090824E+04  0.14379090824E+04  0.50400001928E-02 0. -1.
       -1   -1    0    0    0  501  0.00000000000E+00  0.00000000000E+00 -0.13633199463E+04  0.13633199463E+04  0.50400001928E-02 0.  1.
    10030    2    1    2    0    0  0.00000000000E+00  0.00000000000E+00  0.74589136103E+02  0.28012290287E+04  0.28002357994E+04 0.  0.
        1    1    3    3  502    0 -0.16969553271E+03  0.11391476742E+04  0.83374034811E+03  0.14218217066E+04  0.50400001928E-02 0. -1.
       -1    1    3    3    0  502  0.16969553271E+03 -0.11391476742E+04 -0.75915121200E+03  0.13794073220E+04  0.50400001928E-02 0.  1.
</event>
<event>
 5   0  0.2277133E-06  0.2805094E+04  0.7818609E-02  0.8301689E-01
       -1   -1    0    0    0  501  0.00000000000E+00  0.00000000000E+00  0.14312650431E+04  0.14312650431E+04  0.50400001928E-02 0. -1.
        1   -1    0    0  501    0  0.00000000000E+00  0.00000000000E+00 -0.13744049287E+04  0.13744049287E+04  0.50400001928E-02 0.  1.
    10030    2    1    2    0    0  0.00000000000E+00  0.00000000000E+00  0.56860114427E+02  0.28056699718E+04  0.28050937450E+04 0.  0.
        1    1    3    3  502    0 -0.21720438127E+02  0.81262675989E+03 -0.11147411645E+04  0.13796673122E+04  0.50400001928E-02 0.  1.
       -1    1    3    3    0  502  0.21720438127E+02 -0.81262675989E+03  0.11716012790E+04  0.14260026596E+04  0.50400001928E-02 0. -1.
</event>
<event>
 5   0  0.2206967E-06  0.2813636E+04  0.7818609E-02  0.8299047E-01
        1   -1    0    0  501    0  0.00000000000E+00  0.00000000000E+00  0.15062238323E+04  0.15062238323E+04  0.50400001928E-02 0.  1.
       -1   -1    0    0    0  501  0.00000000000E+00  0.00000000000E+00 -0.13139723379E+04  0.13139723379E+04  0.50400001928E-02 0. -1.
    10030    2    1    2    0    0  0.00000000000E+00  0.00000000000E+00  0.19225149441E+03  0.28201961703E+04  0.28136356910E+04 0.  0.
        5    1    3    3  502    0  0.57780565248E+03 -0.12892396757E+03 -0.11830291834E+04  0.13228986734E+04  0.46999998093E+01 0. -1.
       -5    1    3    3    0  502 -0.57780565248E+03  0.12892396757E+03  0.13752806778E+04  0.14972974969E+04  0.46999998093E+01 0.  1.
</event>
<event>
 5   0  0.5584205E-06  0.2832638E+04  0.7818609E-02  0.8293207E-01
        2   -1    0    0  501    0  0.00000000000E+00  0.00000000000E+00  0.24837470786E+04  0.24837470786E+04  0.25500000920E-02 0. -1.
       -2   -1    0    0    0  501  0.00000000000E+00  0.00000000000E+00 -0.80763443484E+03  0.80763443484E+03  0.25500000920E-02 0.  1.
    10030    2    1    2    0    0  0.00000000000E+00  0.00000000000E+00  0.16761126437E+04  0.32913815134E+04  0.28326381118E+04 0.  0.
        1    1    3    3  502    0 -0.15762124254E+03  0.13057721486E+04  0.22753599572E+03  0.13347876196E+04  0.50400001928E-02 0.  1.
       -1    1    3    3    0  502  0.15762124254E+03 -0.13057721486E+04  0.14485766480E+04  0.19565938938E+04  0.50400001928E-02 0. -1.
</event>
<event>
 5   0  0.5625245E-06  0.2795604E+04  0.7818609E-02  0.8304635E-01
        2   -1    0    0  501    0  0.00000000000E+00  0.00000000000E+00  0.26350607989E+04  0.26350607989E+04  0.25500000920E-02 0. -1.
       -2   -1    0    0    0  501  0.00000000000E+00  0.00000000000E+00 -0.74148184765E+03  0.74148184766E+03  0.25500000920E-02 0.  1.
    10030    2    1    2    0    0  0.00000000000E+00  0.00000000000E+00  0.18935789513E+04  0.33765426466E+04  0.27956035126E+04 0.  0.
        3    1    3    3  502    0 -0.49179323128E+03  0.31005834589E+03  0.24821047958E+04  0.25492824457E+04  0.10100000352E+00 0. -1.
       -3    1    3    3    0  502  0.49179323128E+03 -0.31005834589E+03 -0.58852584452E+03  0.82726020094E+03  0.10100000352E+00 0.  1.
</event>
<event>
 5   0  0.5584205E-06  0.2860040E+04  0.7818609E-02  0.8284867E-01
       -2   -1    0    0    0  501  0.00000000000E+00  0.00000000000E+00  0.13031951336E+04  0.13031951336E+04  0.25500000920E-02 0. -1.
        2   -1    0    0  501    0  0.00000000000E+00  0.00000000000E+00 -0.15691875147E+04  0.15691875147E+04  0.25500000920E-02 0.  1.
    10030    2    1    2    0    0  0.00000000000E+00  0.00000000000E+00 -0.26599238113E+03  0.28723826483E+04  0.28600402325E+04 0.  0.
        1    1    3    3  502    0  0.87909261173E+03 -0.95092961708E+03  0.47615784081E+03  0.13797815936E+04  0.50400001928E-02 0. -1.
       -1    1    3    3    0  502 -0.87909261173E+03  0.95092961708E+03 -0.74215022194E+03  0.14926010547E+04  0.50400001928E-02 0.  1.
</event>
<event>
 5   0  0.5625245E-06  0.2802266E+04  0.7818609E-02  0.8302565E-01
        2   -1    0    0  501    0  0.00000000000E+00  0.00000000000E+00  0.12943269591E+04  0.12943269591E+04  0.25500000920E-02 0.  1.
       -2   -1    0    0    0  501  0.00000000000E+00  0.00000000000E+00 -0.15167520736E+04  0.15167520736E+04  0.25500000920E-02 0. -1.
    10030    2    1    2    0    0  0.00000000000E+00  0.00000000000E+00 -0.22242511454E+03  0.28110790327E+04  0.28022655828E+04 0.  0.
        3    1    3    3  502    0  0.23535422664E+03 -0.12938112567E+04  0.37387206575E+03  0.13671574568E+04  0.10100000352E+00 0. -1.
       -3    1    3    3    0  502 -0.23535422664E+03  0.12938112567E+04 -0.59629718028E+03  0.14439215759E+04  0.10100000352E+00 0.  1.
</event>
<event>
 5   0  0.5866136E-06  0.2803029E+04  0.7818609E-02  0.8302329E-01
       -2   -1    0    0    0  501  0.00000000000E+00  0.00000000000E+00  0.99616042394E+03  0.99616042394E+03  0.25500000920E-02 0. -1.
        2   -1    0    0  501    0  0.00000000000E+00  0.00000000000E+00 -0.19718135460E+04  0.19718135460E+04  0.25500000920E-02 0.  1.
    10030    2    1    2    0    0  0.00000000000E+00  0.00000000000E+00 -0.97565312209E+03  0.29679739700E+04  0.28030288032E+04 0.  0.
        5    1    3    3  502    0  0.19264764301E+03 -0.72294939111E+03 -0.17426595123E+04  0.18964844324E+04  0.46999998093E+01 0.  1.
       -5    1    3    3    0  502 -0.19264764301E+03  0.72294939111E+03  0.76700639023E+03  0.10714895376E+04  0.46999998093E+01 0. -1.
</event>
<event>
 5   0  0.1901375E-06  0.2774493E+04  0.7818609E-02  0.8311231E-01
        4   -1    0    0  501    0  0.00000000000E+00  0.00000000000E+00  0.14567346194E+04  0.14567351730E+04  0.12699999809E+01 0. -1.
       -4   -1    0    0    0  501  0.00000000000E+00  0.00000000000E+00 -0.13210716323E+04  0.13210722427E+04  0.12699999809E+01 0.  1.
    10030    2    1    2    0    0  0.00000000000E+00  0.00000000000E+00  0.13566298708E+03  0.27778074157E+04  0.27744926730E+04 0.  0.
        3    1    3    3  502    0  0.98716838790E+03  0.92751016866E+03  0.36764852452E+03  0.14035462183E+04  0.10100000352E+00 0.  1.
       -3    1    3    3    0  502 -0.98716838790E+03 -0.92751016866E+03 -0.23198553744E+03  0.13742611975E+04  0.10100000352E+00 0. -1.
</event>
<event>
 5   0  0.2234068E-06  0.2801247E+04  0.7818609E-02  0.8302881E-01
       -1   -1    0    0    0  501  0.00000000000E+00  0.00000000000E+00  0.14376155323E+04  0.14376155323E+04  0.50400001928E-02 0.  1.
        1   -1    0    0  501    0  0.00000000000E+00  0.00000000000E+00 -0.13645830903E+04  0.13645830903E+04  0.50400001928E-02 0. -1.
    10030    2    1    2    0    0  0.00000000000E+00  0.00000000000E+00  0.73032441996E+02  0.28021986226E+04  0.28012467551E+04 0.  0.
        3    1    3    3  502    0  0.15341744650E+03  0.49038934101E+03 -0.12668951465E+04  0.13671290873E+04  0.10100000352E+00 0. -1.
       -3    1    3    3    0  502 -0.15341744650E+03 -0.49038934101E+03  0.13399275885E+04  0.14350695354E+04  0.10100000352E+00 0.  1.
</event>
<event>
 5   0  0.5584205E-06  0.2809030E+04  0.7818609E-02  0.8300470E-01
       -2   -1    0    0    0  501  0.00000000000E+00  0.00000000000E+00  0.97846312372E+03  0.97846312372E+03  0.25500000920E-02 0.  1.
        2   -1    0    0  501    0  0.00000000000E+00  0.00000000000E+00 -0.20160828670E+04  0.20160828670E+04  0.25500000920E-02 0. -1.
    10030    2    1    2    0    0  0.00000000000E+00  0.00000000000E+00 -0.10376197433E+04  0.29945459907E+04  0.28090302524E+04 0.  0.
        1    1    3    3  502    0 -0.20375535401E+03 -0.81401470045E+03  0.68186204813E+03  0.10812363431E+04  0.50400001928E-02 0.  1.
       -1    1    3    3    0  502  0.20375535401E+03  0.81401470045E+03 -0.17194817914E+04  0.19133096476E+04  0.50400001928E-02 0. -1.
</event>
<event>
 5   0  0.2234068E-06  0.2788643E+04  0.7818609E-02  0.8306803E-01
        1   -1    0    0  501    0  0.00000000000E+00  0.00000000000E+00  0.20074677538E+04  0.20074677538E+04  0.50400001928E-02 0.  1.
       -1   -1    0    0    0  501  0.00000000000E+00  0.00000000000E+00 -0.96845003048E+03  0.96845003049E+03  0.50400001928E-02 0. -1.
    10030    2    1    2    0    0  0.00000000000E+00  0.00000000000E+00  0.10390177233E+04  0.29759177843E+04  0.27886428293E+04 0.  0.
        3    1    3    3  502    0 -0.13502116819E+04 -0.65671128670E+02  0.88413903195E+03  0.16152665790E+04  0.10100000352E+00 0.  1.
       -3    1    3    3    0  502  0.13502116819E+04  0.65671128670E+02  0.15487869134E+03  0.13606512053E+04  0.10100000352E+00 0. -1.
</event>
<event>
 5   0  0.2190865E-06  0.2977159E+04  0.7818609E-02  0.8250283E-01
       -1   -1    0    0    0  501  0.00000000000E+00  0.00000000000E+00  0.13153635061E+04  0.13153635061E+04  0.50400001928E-02 0.  1.
        1   -1    0    0  501    0  0.00000000000E+00  0.00000000000E+00 -0.16846060401E+04  0.16846060401E+04  0.50400001928E-02 0. -1.
    10030    2    1    2    0    0  0.00000000000E+00  0.00000000000E+00 -0.36924253400E+03  0.29999695463E+04  0.29771592550E+04 0.  0.
        2    1    3    3  502    0 -0.56470728011E+03  0.12865968856E+04  0.31071746991E+03  0.14390174441E+04  0.25500000920E-02 0. -1.
       -2    1    3    3    0  502  0.56470728011E+03 -0.12865968856E+04 -0.67996000391E+03  0.15609521022E+04  0.25500000920E-02 0.  1.
</event>
<event>
 5   0  0.2267565E-06  0.2832911E+04  0.7818609E-02  0.8293123E-01
       -1   -1    0    0    0  501  0.00000000000E+00  0.00000000000E+00  0.10985678465E+04  0.10985678466E+04  0.50400001928E-02 0.  1.
        1   -1    0    0  501    0  0.00000000000E+00  0.00000000000E+00 -0.18263289398E+04  0.18263289398E+04  0.50400001928E-02 0. -1.
    10030    2    1    2    0    0  0.00000000000E+00  0.00000000000E+00 -0.72776109329E+03  0.29248967864E+04  0.28329110473E+04 0.  0.
        4    1    3    3  502    0  0.32889567429E+03  0.53260470379E+03 -0.16757699907E+04  0.17888674657E+04  0.12699999809E+01 0. -1.
       -4    1    3    3    0  502 -0.32889567429E+03 -0.53260470379E+03  0.94800889741E+03  0.11360293207E+04  0.12699999809E+01 0.  1.
</event>
<event>
 5   0  0.5546570E-06  0.2804552E+04  0.7818609E-02  0.8301856E-01
       -2   -1    0    0    0  501  0.00000000000E+00  0.00000000000E+00  0.93003267612E+03  0.93003267612E+03  0.25500000920E-02 0.  1.
        2   -1    0    0  501    0  0.00000000000E+00  0.00000000000E+00 -0.21143108809E+04  0.21143108809E+04  0.25500000920E-02 0. -1.
    10030    2    1    2    0    0  0.00000000000E+00  0.00000000000E+00 -0.11842782048E+04  0.30443435570E+04  0.28045521615E+04 0.  0.
        4    1    3    3  502    0  0.53926902714E+03  0.12868016926E+04 -0.74452313122E+03  0.15814505953E+04  0.12699999809E+01 0.  1.
       -4    1    3    3    0  502 -0.53926902714E+03 -0.12868016926E+04 -0.43975507355E+03  0.14628929617E+04  0.12699999809E+01 0. -1.
</event>
<event>
 5   0  0.1901375E-06  0.2810077E+04  0.7818609E-02  0.8300147E-01
       -3   -1    0    0    0  501  0.00000000000E+00  0.00000000000E+00  0.19479810819E+04  0.19479810845E+04  0.10100000352E+00 0.  1.
        3   -1    0    0  501    0  0.00000000000E+00  0.00000000000E+00 -0.10134254384E+04  0.10134254434E+04  0.10100000352E+00 0. -1.
    10030    2    1    2    0    0  0.00000000000E+00  0.00000000000E+00  0.93455564353E+03  0.29614065279E+04  0.28100772895E+04 0.  0.
        4    1    3    3  502    0  0.57256806821E+03  0.10744752385E+04  0.12063287340E+04  0.17139316959E+04  0.12699999809E+01 0.  1.
       -4    1    3    3    0  502 -0.57256806821E+03 -0.10744752385E+04 -0.27177309052E+03  0.12474748320E+04  0.12699999809E+01 0. -1.
</event>
<event>
 5   0  0.2206967E-06  0.2787756E+04  0.7818609E-02  0.8307080E-01
        1   -1    0    0  501    0  0.00000000000E+00  0.00000000000E+00  0.22005403675E+04  0.22005403675E+04  0.50400001928E-02 0. -1.
       -1   -1    0    0    0  501  0.00000000000E+00  0.00000000000E+00 -0.88291768161E+03  0.88291768163E+03  0.50400001928E-02 0.  1.
    10030    2    1    2    0    0  0.00000000000E+00  0.00000000000E+00  0.13176226859E+04  0.30834580491E+04  0.27877560866E+04 0.  0.
        5    1    3    3  502    0 -0.64307356486E+03 -0.72974281870E+03 -0.44549236861E+03  0.10698381802E+04  0.46999998093E+01 0.  1.
       -5    1    3    3    0  502  0.64307356486E+03  0.72974281870E+03  0.17631150545E+04  0.20136198689E+04  0.46999998093E+01 0. -1.
</event>
<event>
 5   0  0.2206967E-06  0.2747340E+04  0.7818609E-02  0.8319806E-01
       -1   -1    0    0    0  501  0.00000000000E+00  0.00000000000E+00  0.10222362651E+04  0.10222362651E+04  0.50400001928E-02 0.  1.
        1   -1    0    0  501    0  0.00000000000E+00  0.00000000000E+00 -0.18459230369E+04  0.18459230369E+04  0.50400001928E-02 0. -1.
    10030    2    1    2    0    0  0.00000000000E+00  0.00000000000E+00 -0.82368677186E+03  0.28681593020E+04  0.27473401470E+04 0.  0.
        5    1    3    3  502    0  0.37837773578E+03 -0.12850277601E+04 -0.94362298177E+02  0.13429044600E+04  0.46999998093E+01 0.  1.
       -5    1    3    3    0  502 -0.37837773578E+03  0.12850277601E+04 -0.72932447368E+03  0.15252548420E+04  0.46999998093E+01 0. -1.
</event>
<event>
 5   0  0.5866136E-06  0.2626088E+04  0.7818609E-02  0.8359393E-01
       -2   -1    0    0    0  501  0.00000000000E+00  0.00000000000E+00  0.11224980271E+04  0.11224980271E+04  0.25500000920E-02 0. -1.
        2   -1    0    0  501    0  0.00000000000E+00  0.00000000000E+00 -0.15359355651E+04  0.15359355651E+04  0.25500000920E-02 0.  1.
    10030    2    1    2    0    0  0.00000000000E+00  0.00000000000E+00 -0.41343753809E+03  0.26584335922E+04  0.26260880728E+04 0.  0.
        5    1    3    3  502    0  0.79569572961E+03  0.17857996378E+03 -0.12484908679E+04  0.14912323879E+04  0.46999998093E+01 0.  1.
       -5    1    3    3    0  502 -0.79569572961E+03 -0.17857996378E+03  0.83505332983E+03  0.11672012043E+04  0.46999998093E+01 0. -1.
</event>
<event>
 5   0  0.5584205E-06  0.2825206E+04  0.7818609E-02  0.8295485E-01
        2   -1    0    0  501    0  0.00000000000E+00  0.00000000000E+00  0.21398547699E+04  0.21398547699E+04  0.25500000920E-02 0.  1.
       -2   -1    0    0    0  501  0.00000000000E+00  0.00000000000E+00 -0.93251504006E+03  0.93251504006E+03  0.25500000920E-02 0. -1.
    10030    2    1    2    0    0  0.00000000000E+00  0.00000000000E+00  0.12073397298E+04  0.30723698099E+04  0.28252056608E+04 0.  0.
        1    1    3    3  502    0  0.81708450186E+03  0.59047488605E+02  0.18551444452E+04  0.20279730279E+04  0.50400001928E-02 0.  1.
       -1    1    3    3    0  502 -0.81708450186E+03 -0.59047488605E+02 -0.64780471540E+03  0.10443967821E+04  0.50400001928E-02 0. -1.
</event>
<event>
 5   0  0.2190865E-06  0.2799723E+04  0.7818609E-02  0.8303355E-01
       -1   -1    0    0    0  501  0.00000000000E+00  0.00000000000E+00  0.12626152975E+04  0.12626152975E+04  0.50400001928E-02 0.  1.
        1   -1    0    0  501    0  0.00000000000E+00  0.00000000000E+00 -0.15520258026E+04  0.15520258026E+04  0.50400001928E-02 0. -1.
    10030    2    1    2    0    0  0.00000000000E+00  0.00000000000E+00 -0.28941050506E+03  0.28146411001E+04  0.27997225009E+04 0.  0.
        2    1    3    3  502    0 -0.12727597434E+04  0.40557717764E+03 -0.56550620169E+03  0.14505886652E+04  0.25500000920E-02 0.  1.
       -2    1    3    3    0  502  0.12727597434E+04 -0.40557717764E+03  0.27609569663E+03  0.13640524349E+04  0.25500000920E-02 0. -1.
</event>
<event>
 5   0  0.1901375E-06  0.2818033E+04  0.7818609E-02  0.8297691E-01
       -4   -1    0    0    0  501  0.00000000000E+00  0.00000000000E+00  0.14184683000E+04  0.14184688685E+04  0.12699999809E+01 0. -1.
        4   -1    0    0  501    0  0.00000000000E+00  0.00000000000E+00 -0.13996270204E+04  0.13996275966E+04  0.12699999809E+01 0.  1.
    10030    2    1    2    0    0  0.00000000000E+00  0.00000000000E+00  0.18841279607E+02  0.28180964651E+04  0.28180334797E+04 0.  0.
        4    1    3    3  502    0 -0.16407910406E+02  0.13547321127E+04 -0.37757411216E+03  0.14064608561E+04  0.12699999809E+01 0.  1.
       -4    1    3    3    0  502  0.16407910406E+02 -0.13547321127E+04  0.39641539177E+03  0.14116356090E+04  0.12699999809E+01 0. -1.
</event>
<event>
 5   0  0.5584205E-06  0.2843387E+04  0.7818609E-02  0.8289924E-01
        2   -1    0    0  501    0  0.00000000000E+00  0.00000000000E+00  0.20383184587E+04  0.20383184587E+04  0.25500000920E-02 0. -1.
       -2   -1    0    0    0  501  0.00000000000E+00  0.00000000000E+00 -0.99160779788E+03  0.99160779789E+03  0.25500000920E-02 0.  1.
    10030    2    1    2    0    0  0.00000000000E+00  0.00000000000E+00  0.10467106608E+04  0.30299262566E+04  0.28433870495E+04 0.  0.
        1    1    3    3  502    0  0.10398437832E+04  0.60602865323E+03 -0.28303818359E+03  0.12363884646E+04  0.50400001928E-02 0.  1.
       -1    1    3    3    0  502 -0.10398437832E+04 -0.60602865323E+03  0.13297488444E+04  0.17935377920E+04  0.50400001928E-02 0. -1.
</event>
<event>
 5   0  0.5584205E-06  0.2814388E+04  0.7818609E-02  0.8298815E-01
       -2   -1    0    0    0  501  0.00000000000E+00  0.00000000000E+00  0.94588017284E+03  0.94588017284E+03  0.25500000920E-02 0. -1.
        2   -1    0    0  501    0  0.00000000000E+00  0.00000000000E+00 -0.20934952012E+04  0.20934952012E+04  0.25500000920E-02 0.  1.
    10030    2    1    2    0    0  0.00000000000E+00  0.00000000000E+00 -0.11476150284E+04  0.30393753741E+04  0.28143884613E+04 0.  0.
        1    1    3    3  502    0 -0.11213048742E+04 -0.66206193028E+03  0.22631563488E+01  0.13021734686E+04  0.50400001928E-02 0. -1.
       -1    1    3    3    0  502  0.11213048742E+04  0.66206193028E+03 -0.11498781847E+04  0.17372019054E+04  0.50400001928E-02 0.  1.
</event>
<event>
 5   0  0.5625245E-06  0.2820379E+04  0.7818609E-02  0.8296969E-01
       -2   -1    0    0    0  501  0.00000000000E+00  0.00000000000E+00  0.14676885617E+04  0.14676885617E+04  0.25500000920E-02 0. -1.
        2   -1    0    0  501    0  0.00000000000E+00  0.00000000000E+00 -0.13549434795E+04  0.13549434795E+04  0.25500000920E-02 0.  1.
    10030    2    1    2    0    0  0.00000000000E+00  0.00000000000E+00  0.11274508224E+03  0.28226320412E+04  0.28203794401E+04 0.  0.
        3    1    3    3  502    0 -0.72735756965E+03 -0.11397839198E+04 -0.34454523742E+03  0.13953020637E+04  0.10100000352E+00 0.  1.
       -3    1    3    3    0  502  0.72735756965E+03  0.11397839198E+04  0.45729031966E+03  0.14273299775E+04  0.10100000352E+00 0. -1.
</event>
<event>
 5   0  0.2267565E-06  0.2820669E+04  0.7818609E-02  0.8296880E-01
        1   -1    0    0  501    0  0.00000000000E+00  0.00000000000E+00  0.83457385884E+03  0.83457385886E+03  0.50400001928E-02 0. -1.
       -1   -1    0    0    0  501  0.00000000000E+00  0.00000000000E+00 -0.23833047533E+04  0.23833047533E+04  0.50400001928E-02 0.  1.
    10030    2    1    2    0    0  0.00000000000E+00  0.00000000000E+00 -0.15487308945E+04  0.32178786122E+04  0.28206693140E+04 0.  0.
        4    1    3    3  502    0 -0.82385816232E+03  0.10643387334E+04 -0.12549788629E+04  0.18402534527E+04  0.12699999809E+01 0.  1.
       -4    1    3    3    0  502  0.82385816232E+03 -0.10643387334E+04 -0.29375203158E+03  0.13776251595E+04  0.12699999809E+01 0. -1.
</event>
<event>
 5   0  0.2267565E-06  0.2841027E+04  0.7818609E-02  0.8290643E-01
        1   -1    0    0  501    0  0.00000000000E+00  0.00000000000E+00  0.14684013220E+04  0.14684013220E+04  0.50400001928E-02 0.  1.
       -1   -1    0    0    0  501  0.00000000000E+00  0.00000000000E+00 -0.13741878094E+04  0.13741878094E+04  0.50400001928E-02 0. -1.
    10030    2    1    2    0    0  0.00000000000E+00  0.00000000000E+00  0.94213512577E+02  0.28425891315E+04  0.28410274170E+04 0.  0.
        4    1    3    3  502    0  0.52288367534E+03  0.10197109624E+04  0.88699644731E+03  0.14491314969E+04  0.12699999809E+01 0.  1.
       -4    1    3    3    0  502 -0.52288367534E+03 -0.10197109624E+04 -0.79278293474E+03  0.13934576346E+04  0.12699999809E+01 0. -1.
</event>
<event>
 5   0  0.2277133E-06  0.2808724E+04  0.7818609E-02  0.8300565E-01
       -1   -1    0    0    0  501  0.00000000000E+00  0.00000000000E+00  0.12701729440E+04  0.12701729441E+04  0.50400001928E-02 0. -1.
        1   -1    0    0  501    0  0.00000000000E+00  0.00000000000E+00 -0.15527272673E+04  0.15527272673E+04  0.50400001928E-02 0.  1.
    10030    2    1    2    0    0  0.00000000000E+00  0.00000000000E+00 -0.28255432328E+03  0.28229002114E+04  0.28087236706E+04 0.  0.
        1    1    3    3  502    0 -0.13014382662E+04  0.42120825601E+03 -0.46080351791E+03  0.14434326579E+04  0.50400001928E-02 0. -1.
       -1    1    3    3    0  502  0.13014382662E+04 -0.42120825601E+03  0.17824919463E+03  0.13794675535E+04  0.50400001928E-02 0.  1.
</event>
<event>
 5   0  0.5866136E-06  0.3016713E+04  0.7818609E-02  0.8238975E-01
        2   -1    0    0  501    0  0.00000000000E+00  0.00000000000E+00  0.18342963837E+04  0.18342963837E+04  0.25500000920E-02 0. -1.
       -2   -1    0    0    0  501  0.00000000000E+00  0.00000000000E+00 -0.12403332996E+04  0.12403332996E+04  0.25500000920E-02 0.  1.
    10030    2    1    2    0    0  0.00000000000E+00  0.00000000000E+00  0.59396308411E+03  0.30746296833E+04  0.30167127050E+04 0.  0.
        5    1    3    3  502    0 -0.12775256709E+04 -0.73689528238E+03 -0.25366210893E+02  0.14750430609E+04  0.46999998093E+01 0. -1.
       -5    1    3    3    0  502  0.12775256709E+04  0.73689528238E+03  0.61932929500E+03  0.15995866224E+04  0.46999998093E+01 0.  1.
</event>
<event>
 5   0  0.2234068E-06  0.2841741E+04  0.7818609E-02  0.8290425E-01
       -1   -1    0    0    0  501  0.00000000000E+00  0.00000000000E+00  0.17037568779E+04  0.17037568779E+04  0.50400001928E-02 0.  1.
        1   -1    0    0  501    0  0.00000000000E+00  0.00000000000E+00 -0.11849538769E+04  0.11849538769E+04  0.50400001928E-02 0. -1.
    10030    2    1    2    0    0  0.00000000000E+00  0.00000000000E+00  0.51880300102E+03  0.28887107548E+04  0.28417412393E+04 0.  0.
        3    1    3    3  502    0 -0.55831827492E+03 -0.73969073707E+03  0.13542416097E+04  0.16409850792E+04  0.10100000352E+00 0.  1.
       -3    1    3    3    0  502  0.55831827492E+03  0.73969073707E+03 -0.83543860866E+03  0.12477256756E+04  0.10100000352E+00 0. -1.
</event>
<event>
 5   0  0.5866136E-06  0.2810322E+04  0.7818609E-02  0.8300071E-01
       -2   -1    0    0    0  501  0.00000000000E+00  0.00000000000E+00  0.65991849318E+03  0.65991849318E+03  0.25500000920E-02 0.  1.
        2   -1    0    0  501    0  0.00000000000E+00  0.00000000000E+00 -0.29920023459E+04  0.29920023459E+04  0.25500000920E-02 0. -1.
    10030    2    1    2    0    0  0.00000000000E+00  0.00000000000E+00 -0.23320838527E+04  0.36519208391E+04  0.28103221735E+04 0.  0.
        5    1    3    3  502    0  0.29970062950E+03  0.89811020495E+03 -0.25152573877E+04  0.26875572969E+04  0.46999998093E+01 0. -1.
       -5    1    3    3    0  502 -0.29970062950E+03 -0.89811020495E+03  0.18317353501E+03  0.96436354218E+03  0.46999998093E+01 0.  1.
</event>
<event>
 5   0  0.5584205E-06  0.2779268E+04  0.7818609E-02  0.8309734E-01
        2   -1    0    0  501    0  0.00000000000E+00  0.00000000000E+00  0.20037606335E+04  0.20037606335E+04  0.25500000920E-02 0.  1.
       -2   -1    0    0    0  501  0.00000000000E+00  0.00000000000E+00 -0.96372936205E+03  0.96372936206E+03  0.25500000920E-02 0. -1.
    10030    2    1    2    0    0  0.00000000000E+00  0.00000000000E+00  0.10400312714E+04  0.29674899955E+04  0.27792682181E+04 0.  0.
        1    1    3    3  502    0  0.13423004123E+03 -0.63232062279E+03  0.18334613200E+04  0.19440749692E+04  0.50400001928E-02 0.  1.
       -1    1    3    3    0  502 -0.13423004123E+03  0.63232062279E+03 -0.79343004861E+03  0.10234150263E+04  0.50400001928E-02 0. -1.
</event>
<event>
 5   0  0.5546570E-06  0.2784482E+04  0.7818609E-02  0.8308102E-01
        2   -1    0    0  501    0  0.00000000000E+00  0.00000000000E+00  0.12939226007E+04  0.12939226007E+04  0.25500000920E-02 0. -1.
       -2   -1    0    0    0  501  0.00000000000E+00  0.00000000000E+00 -0.14980300575E+04  0.14980300575E+04  0.25500000920E-02 0.  1.
    10030    2    1    2    0    0  0.00000000000E+00  0.00000000000E+00 -0.20410745687E+03  0.27919526582E+04  0.27844819611E+04 0.  0.
        4    1    3    3  502    0 -0.30770329813E+03  0.70523891478E+03 -0.12654641918E+04  0.14810281835E+04  0.12699999809E+01 0.  1.
       -4    1    3    3    0  502  0.30770329813E+03 -0.70523891478E+03  0.10613567350E+04  0.13109244747E+04  0.12699999809E+01 0. -1.
</event>
<event>
 5   0  0.5866136E-06  0.2822726E+04  0.7818609E-02  0.8296248E-01
       -2   -1    0    0    0  501  0.00000000000E+00  0.00000000000E+00  0.10739037134E+04  0.10739037134E+04  0.25500000920E-02 0.  1.
        2   -1    0    0  501    0  0.00000000000E+00  0.00000000000E+00 -0.18548635260E+04  0.18548635260E+04  0.25500000920E-02 0. -1.
    10030    2    1    2    0    0  0.00000000000E+00  0.00000000000E+00 -0.78095981260E+03  0.29287672394E+04  0.28227255115E+04 0.  0.
        5    1    3    3  502    0 -0.13552401526E+04 -0.22686070339E+03 -0.72473291104E+03  0.15535126431E+04  0.46999998093E+01 0. -1.
       -5    1    3    3    0  502  0.13552401526E+04  0.22686070339E+03 -0.56226901557E+02  0.13752545962E+04  0.46999998093E+01 0.  1.
</event>
<event>
 5   0  0.2267565E-06  0.2796656E+04  0.7818609E-02  0.8304307E-01
        1   -1    0    0  501    0  0.00000000000E+00  0.00000000000E+00  0.12933958392E+04  0.12933958392E+04  0.50400001928E-02 0.  1.
       -1   -1    0    0    0  501  0.00000000000E+00  0.00000000000E+00 -0.15117737525E+04  0.15117737525E+04  0.50400001928E-02 0. -1.
    10030    2    1    2    0    0  0.00000000000E+00  0.00000000000E+00 -0.21837791325E+03  0.28051695917E+04  0.27966564904E+04 0.  0.
        4    1    3    3  502    0 -0.15075020467E+03 -0.11842136347E+04 -0.83957632737E+03  0.14594442707E+04  0.12699999809E+01 0. -1.
       -4    1    3    3    0  502  0.15075020467E+03  0.11842136347E+04  0.62119841412E+03  0.13457253210E+04  0.12699999809E+01 0.  1.
</event>
<event>
 5   0  0.5584205E-06  0.2539831E+04  0.7818609E-02  0.8388931E-01
       -2   -1    0    0    0  501  0.00000000000E+00  0.00000000000E+00  0.13027772993E+04  0.13027772993E+04  0.25500000920E-02 0.  1.
        2   -1    0    0  501    0  0.00000000000E+00  0.00000000000E+00 -0.12378825945E+04  0.12378825945E+04  0.25500000920E-02 0. -1.
    10030    2    1    2    0    0  0.00000000000E+00  0.00000000000E+00  0.64894704872E+02  0.25406598938E+04  0.25398309734E+04 0.  0.
        1    1    3    3  502    0 -0.83178792349E+03  0.92095447597E+03 -0.23719033128E+03  0.12634427370E+04  0.50400001928E-02 0. -1.
       -1    1    3    3    0  502  0.83178792349E+03 -0.92095447597E+03  0.30208503615E+03  0.12772171568E+04  0.50400001928E-02 0.  1.
</event>
<event>
 5   0  0.2267565E-06  0.2797769E+04  0.7818609E-02  0.8303961E-01
       -1   -1    0    0    0  501  0.00000000000E+00  0.00000000000E+00  0.12508701956E+04  0.12508701956E+04  0.50400001928E-02 0.  1.
        1   -1    0    0  501    0  0.00000000000E+00  0.00000000000E+00 -0.15644128096E+04  0.15644128096E+04  0.50400001928E-02 0. -1.
    10030    2    1    2    0    0  0.00000000000E+00  0.00000000000E+00 -0.31354261402E+03  0.28152830053E+04  0.27977686518E+04 0.  0.
        4    1    3    3  502    0  0.90179432033E+03  0.67124407900E+03  0.68095104737E+03  0.13143430114E+04  0.12699999809E+01 0.  1.
       -4    1    3    3    0  502 -0.90179432033E+03 -0.67124407900E+03 -0.99449366139E+03  0.15009399939E+04  0.12699999809E+01 0. -1.
</event>
<event>
 5   0  0.2190865E-06  0.2799154E+04  0.7818609E-02  0.8303531E-01
       -1   -1    0    0    0  501  0.00000000000E+00  0.00000000000E+00  0.17322252476E+04  0.17322252476E+04  0.50400001928E-02 0. -1.
        1   -1    0    0  501    0  0.00000000000E+00  0.00000000000E+00 -0.11308086199E+04  0.11308086199E+04  0.50400001928E-02 0.  1.
    10030    2    1    2    0    0  0.00000000000E+00  0.00000000000E+00  0.60141662770E+03  0.28630338675E+04  0.27991536161E+04 0.  0.
        2    1    3    3  502    0  0.54298754589E+03  0.77073258634E+03  0.13586986638E+04  0.16537612445E+04  0.25500000920E-02 0. -1.
       -2    1    3    3    0  502 -0.54298754589E+03 -0.77073258634E+03 -0.75728203613E+03  0.12092726231E+04  0.25500000920E-02 0.  1.
</event>
<event>
 5   0  0.2190865E-06  0.2796068E+04  0.7818609E-02  0.8304490E-01
        1   -1    0    0  501    0  0.00000000000E+00  0.00000000000E+00  0.13164189864E+04  0.13164189864E+04  0.50400001928E-02 0. -1.
       -1   -1    0    0    0  501  0.00000000000E+00  0.00000000000E+00 -0.14847089278E+04  0.14847089278E+04  0.50400001928E-02 0.  1.
    10030    2    1    2    0    0  0.00000000000E+00  0.00000000000E+00 -0.16828994141E+03  0.28011279141E+04  0.27960679689E+04 0.  0.
        2    1    3    3  502    0 -0.56414614306E+03 -0.47638082249E+03 -0.12734324872E+04  0.14720155768E+04  0.25500000920E-02 0.  1.
       -2    1    3    3    0  502  0.56414614306E+03  0.47638082249E+03  0.11051425458E+04  0.13291123374E+04  0.25500000920E-02 0. -1.
</event>
<event>
 5   0  0.2277133E-06  0.2789384E+04  0.7818609E-02  0.8306572E-01
        1   -1    0    0  501    0  0.00000000000E+00  0.00000000000E+00  0.12685298822E+04  0.12685298822E+04  0.50400001928E-02 0.  1.
       -1   -1    0    0    0  501  0.00000000000E+00  0.00000000000E+00 -0.15334018416E+04  0.15334018416E+04  0.50400001928E-02 0. -1.
    10030    2    1    2    0    0  0.00000000000E+00  0.00000000000E+00 -0.26487195947E+03  0.28019317238E+04  0.27893842026E+04 0.  0.
        1    1    3    3  502    0  0.37169614609E+03 -0.50392571010E+03  0.11193909640E+04  0.12826282691E+04  0.50400001928E-02 0.  1.
       -1    1    3    3    0  502 -0.37169614609E+03  0.50392571010E+03 -0.13842629235E+04  0.15193034547E+04  0.50400001928E-02 0. -1.
</event>
<event>
 5   0  0.2267565E-06  0.2800593E+04  0.7818609E-02  0.8303084E-01
       -1   -1    0    0    0  501  0.00000000000E+00  0.00000000000E+00  0.13963981072E+04  0.13963981073E+04  0.50400001928E-02 0. -1.
        1   -1    0    0  501    0  0.00000000000E+00  0.00000000000E+00 -0.14042058742E+04  0.14042058742E+04  0.50400001928E-02 0.  1.
    10030    2    1    2    0    0  0.00000000000E+00  0.00000000000E+00 -0.78077669326E+01  0.28006039814E+04  0.28005930978E+04 0.  0.
        4    1    3    3  502    0 -0.33595056131E+03 -0.10722074203E+04 -0.83957290169E+03  0.14026317414E+04  0.12699999809E+01 0.  1.
       -4    1    3    3    0  502  0.33595056131E+03  0.10722074203E+04  0.83176513475E+03  0.13979722401E+04  0.12699999809E+01 0. -1.
</event>
<event>
 5   0  0.5546570E-06  0.2785281E+04  0.7818609E-02  0.8307853E-01
       -2   -1    0    0    0  501  0.00000000000E+00  0.00000000000E+00  0.10876886135E+04  0.10876886135E+04  0.25500000920E-02 0.  1.
        2   -1    0    0  501    0  0.00000000000E+00  0.00000000000E+00 -0.17830910632E+04  0.17830910632E+04  0.25500000920E-02 0. -1.
    10030    2    1    2    0    0  0.00000000000E+00  0.00000000000E+00 -0.69540244975E+03  0.28707796767E+04  0.27852812039E+04 0.  0.
        4    1    3    3  502    0 -0.10315707902E+04  0.77255272358E+03 -0.89160265339E+03  0.15671416369E+04  0.12699999809E+01 0. -1.
       -4    1    3    3    0  502  0.10315707902E+04 -0.77255272358E+03  0.19620020364E+03  0.13036380397E+04  0.12699999809E+01 0.  1.
</event>
<event>
 5   0  0.5546570E-06  0.2672873E+04  0.7818609E-02  0.8343861E-01
       -2   -1    0    0    0  501  0.00000000000E+00  0.00000000000E+00  0.10118956832E+04  0.10118956832E+04  0.25500000920E-02 0. -1.
        2   -1    0    0  501    0  0.00000000000E+00  0.00000000000E+00 -0.17650660755E+04  0.17650660755E+04  0.25500000920E-02 0.  1.
    10030    2    1    2    0    0  0.00000000000E+00  0.00000000000E+00 -0.75317039232E+03  0.27769617587E+04  0.26728731674E+04 0.  0.
        4    1    3    3  502    0  0.16739264709E+03 -0.56482563197E+02 -0.17528804625E+04  0.17617610812E+04  0.12699999809E+01 0.  1.
       -4    1    3    3    0  502 -0.16739264709E+03  0.56482563197E+02  0.99971007021E+03  0.10152006775E+04  0.12699999809E+01 0. -1.
</event>
<event>
 5   0  0.2206967E-06  0.2798049E+04  0.7818609E-02  0.8303874E-01
        1   -1    0    0  501    0  0.00000000000E+00  0.00000000000E+00  0.17725838864E+04  0.17725838864E+04  0.50400001928E-02 0.  1.
       -1   -1    0    0    0  501  0.00000000000E+00  0.00000000000E+00 -0.11041902128E+04  0.11041902128E+04  0.50400001928E-02 0. -1.
    10030    2    1    2    0    0  0.00000000000E+00  0.00000000000E+00  0.66839367363E+03  0.28767740992E+04  0.27980491624E+04 0.  0.
        5    1    3    3  502    0  0.96328463154E+03  0.61402262298E+03 -0.49618208009E+03  0.12454556634E+04  0.46999998093E+01 0. -1.
       -5    1    3    3    0  502 -0.96328463154E+03 -0.61402262298E+03  0.11645757537E+04  0.16313184358E+04  0.46999998093E+01 0.  1.
</event>
<event>
 5   0  0.5916603E-06  0.2844928E+04  0.7818609E-02  0.8289454E-01
       -2   -1    0    0    0  501  0.00000000000E+00  0.00000000000E+00  0.72550280678E+03  0.72550280679E+03  0.25500000920E-02 0.  1.
        2   -1    0    0  501    0  0.00000000000E+00  0.00000000000E+00 -0.27889670216E+04  0.27889670216E+04  0.25500000920E-02 0. -1.
    10030    2    1    2    0    0  0.00000000000E+00  0.00000000000E+00 -0.20634642148E+04  0.35144698284E+04  0.28449276983E+04 0.  0.
        2    1    3    3  502    0 -0.12536635863E+04 -0.96234062026E+02 -0.20999951911E+03  0.12747678927E+04  0.25500000920E-02 0.  1.
       -2    1    3    3    0  502  0.12536635863E+04  0.96234062026E+02 -0.18534646957E+04  0.22397019356E+04  0.25500000920E-02 0. -1.
</event>
<event>
 5   0  0.1901375E-06  0.2805469E+04  0.7818609E-02  0.8301572E-01
       -3   -1    0    0    0  501  0.00000000000E+00  0.00000000000E+00  0.96798029183E+03  0.96798029709E+03  0.10100000352E+00 0.  1.
        3   -1    0    0  501    0  0.00000000000E+00  0.00000000000E+00 -0.20327526536E+04  0.20327526561E+04  0.10100000352E+00 0. -1.
    10030    2    1    2    0    0  0.00000000000E+00  0.00000000000E+00 -0.10647723618E+04  0.30007329532E+04  0.28054693144E+04 0.  0.
        2    1    3    3  502    0  0.50893499274E+03 -0.34948102902E+03 -0.18796219397E+04  0.19784161475E+04  0.25500000920E-02 0. -1.
       -2    1    3    3    0  502 -0.50893499274E+03  0.34948102902E+03  0.81484957795E+03  0.10223168057E+04  0.25500000920E-02 0.  1.
</event>
<event>
 5   0  0.5584205E-06  0.2795447E+04  0.7818609E-02  0.8304683E-01
       -2   -1    0    0    0  501  0.00000000000E+00  0.00000000000E+00  0.14754929125E+04  0.14754929125E+04  0.25500000920E-02 0.  1.
        2   -1    0    0  501    0  0.00000000000E+00  0.00000000000E+00 -0.13240533890E+04  0.13240533890E+04  0.25500000920E-02 0. -1.
    10030    2    1    2    0    0  0.00000000000E+00  0.00000000000E+00  0.15143952348E+03  0.27995463015E+04  0.27954472925E+04 0.  0.
        1    1    3    3  502    0 -0.11929074615E+04  0.72488891964E+03  0.39261945957E+01  0.13958895273E+04  0.50400001928E-02 0. -1.
       -1    1    3    3    0  502  0.11929074615E+04 -0.72488891964E+03  0.14751332888E+03  0.14036567742E+04  0.50400001928E-02 0.  1.
</event>
<event>
 5   0  0.5546570E-06  0.2711602E+04  0.7818609E-02  0.8331250E-01
        2   -1    0    0  501    0  0.00000000000E+00  0.00000000000E+00  0.22814774594E+04  0.22814774594E+04  0.25500000920E-02 0. -1.
       -2   -1    0    0    0  501  0.00000000000E+00  0.00000000000E+00 -0.80570458992E+03  0.80570458992E+03  0.25500000920E-02 0.  1.
    10030    2    1    2    0    0  0.00000000000E+00  0.00000000000E+00  0.14757728694E+04  0.30871820493E+04  0.27116023756E+04 0.  0.
        4    1    3    3  502    0 -0.35929873454E+03 -0.42601799138E+03  0.21450424280E+04  0.22162571016E+04  0.12699999809E+01 0. -1.
       -4    1    3    3    0  502  0.35929873454E+03  0.42601799138E+03 -0.66926955854E+03  0.87092494769E+03  0.12699999809E+01 0.  1.
</event>
<event>
 5   0  0.2206967E-06  0.2794194E+04  0.7818609E-02  0.8305073E-01
        1   -1    0    0  501    0  0.00000000000E+00  0.00000000000E+00  0.24222216931E+04  0.24222216931E+04  0.50400001928E-02 0.  1.
       -1   -1    0    0    0  501  0.00000000000E+00  0.00000000000E+00 -0.80582244547E+03  0.80582244549E+03  0.50400001928E-02 0. -1.
    10030    2    1    2    0    0  0.00000000000E+00  0.00000000000E+00  0.16163992476E+04  0.32280441386E+04  0.27941944158E+04 0.  0.
        5    1    3    3  502    0 -0.50707767041E+03  0.11513963238E+03 -0.68985577155E+03  0.86389118198E+03  0.46999998093E+01 0. -1.
       -5    1    3    3    0  502  0.50707767041E+03 -0.11513963238E+03  0.23062550192E+04  0.23641529566E+04  0.46999998093E+01 0.  1.
</event>
<event>
 5   0  0.5546570E-06  0.2806989E+04  0.7818609E-02  0.8301102E-01
        2   -1    0    0  501    0  0.00000000000E+00  0.00000000000E+00  0.17863095421E+04  0.17863095421E+04  0.25500000920E-02 0.  1.
       -2   -1    0    0    0  501  0.00000000000E+00  0.00000000000E+00 -0.11027186354E+04  0.11027186355E+04  0.25500000920E-02 0. -1.
    10030    2    1    2    0    0  0.00000000000E+00  0.00000000000E+00  0.68359090667E+03  0.28890281776E+04  0.28069890066E+04 0.  0.
        4    1    3    3  502    0  0.12361920217E+04  0.36901229896E+03 -0.22703687476E+03  0.13099191375E+04  0.12699999809E+01 0. -1.
       -4    1    3    3    0  502 -0.12361920217E+04 -0.36901229896E+03  0.91062778143E+03  0.15791090401E+04  0.12699999809E+01 0.  1.
</event>
<event>
 5   0  0.5866136E-06  0.2810923E+04  0.7818609E-02  0.8299885E-01
        2   -1    0    0  501    0  0.00000000000E+00  0.00000000000E+00  0.23788766752E+04  0.23788766752E+04  0.25500000920E-02 0.  1.
       -2   -1    0    0    0  501  0.00000000000E+00  0.00000000000E+00 -0.83035937096E+03  0.83035937096E+03  0.25500000920E-02 0. -1.
    10030    2    1    2    0    0  0.00000000000E+00  0.00000000000E+00  0.15485173043E+04  0.32092360462E+04  0.28109233640E+04 0.  0.
        5    1    3    3  502    0  0.65600753183E+03  0.37468500571E+03  0.21273393157E+04  0.22575051250E+04  0.46999998093E+01 0.  1.
       -5    1    3    3    0  502 -0.65600753183E+03 -0.37468500571E+03 -0.57882201146E+03  0.95173092115E+03  0.46999998093E+01 0. -1.
</event>
<event>
 5   0  0.5584205E-06  0.2794390E+04  0.7818609E-02  0.8305012E-01
        2   -1    0    0  501    0  0.00000000000E+00  0.00000000000E+00  0.15223621598E+04  0.15223621598E+04  0.25500000920E-02 0.  1.
       -2   -1    0    0    0  501  0.00000000000E+00  0.00000000000E+00 -0.12823186369E+04  0.12823186369E+04  0.25500000920E-02 0. -1.
    10030    2    1    2    0    0  0.00000000000E+00  0.00000000000E+00  0.24004352288E+03  0.28046807968E+04  0.27943896434E+04 0.  0.
        1    1    3    3  502    0  0.11402346924E+03  0.11249859000E+04 -0.70370697464E+03  0.13318401304E+04  0.50400001928E-02 0. -1.
       -1    1    3    3    0  502 -0.11402346924E+03 -0.11249859000E+04  0.94375049752E+03  0.14728406663E+04  0.50400001928E-02 0.  1.
</event>
<event>
 5   0  0.2267565E-06  0.2799593E+04  0.7818609E-02  0.8303395E-01
       -1   -1    0    0    0  501  0.00000000000E+00  0.00000000000E+00  0.94757753717E+03  0.94757753719E+03  0.50400001928E-02 0. -1.
        1   -1    0    0  501    0  0.00000000000E+00  0.00000000000E+00 -0.20678317535E+04  0.20678317535E+04  0.50400001928E-02 0.  1.
    10030    2    1    2    0    0  0.00000000000E+00  0.00000000000E+00 -0.11202542163E+04  0.30154092907E+04  0.27995934850E+04 0.  0.
        4    1    3    3  502    0  0.42857700944E+03  0.65872564805E+03 -0.18077987322E+04  0.19712269280E+04  0.12699999809E+01 0.  1.
       -4    1    3    3    0  502 -0.42857700944E+03 -0.65872564805E+03  0.68754451589E+03  0.10441823627E+04  0.12699999809E+01 0. -1.
</event>
<event>
 5   0  0.5584205E-06  0.2799403E+04  0.7818609E-02  0.8303454E-01
        2   -1    0    0  501    0  0.00000000000E+00  0.00000000000E+00  0.20546753045E+04  0.20546753045E+04  0.25500000920E-02 0.  1.
       -2   -1    0    0    0  501  0.00000000000E+00  0.00000000000E+00 -0.95351557083E+03  0.95351557083E+03  0.25500000920E-02 0. -1.
    10030    2    1    2    0    0  0.00000000000E+00  0.00000000000E+00  0.11011597336E+04  0.30081908753E+04  0.27994034335E+04 0.  0.
        1    1    3    3  502    0  0.11288848375E+04  0.42171534484E+03 -0.21452015854E+03  0.12240276577E+04  0.50400001928E-02 0. -1.
       -1    1    3    3    0  502 -0.11288848375E+04 -0.42171534484E+03  0.13156798922E+04  0.17841632176E+04  0.50400001928E-02 0.  1.
</event>
<event>
 5   0  0.2190865E-06  0.2803111E+04  0.7818609E-02  0.8302303E-01
       -1   -1    0    0    0  501  0.00000000000E+00  0.00000000000E+00  0.20257140384E+04  0.20257140384E+04  0.50400001928E-02 0. -1.
        1   -1    0    0  501    0  0.00000000000E+00  0.00000000000E+00 -0.96971124462E+03  0.96971124464E+03  0.50400001928E-02 0.  1.
    10030    2    1    2    0    0  0.00000000000E+00  0.00000000000E+00  0.10560027938E+04  0.29954252830E+04  0.28031109014E+04 0.  0.
        2    1    3    3  502    0 -0.10987814174E+04 -0.69543940623E+03  0.10867524413E+04  0.16946939073E+04  0.25500000920E-02 0. -1.
       -2    1    3    3    0  502  0.10987814174E+04  0.69543940623E+03 -0.30749647552E+02  0.13007313757E+04  0.25500000920E-02 0.  1.
</event>
<event>
 5   0  0.5625245E-06  0.2794809E+04  0.7818609E-02  0.8304882E-01
        2   -1    0    0  501    0  0.00000000000E+00  0.00000000000E+00  0.22344453570E+04  0.22344453570E+04  0.25500000920E-02 0.  1.
       -2   -1    0    0    0  501  0.00000000000E+00  0.00000000000E+00 -0.87392557529E+03  0.87392557529E+03  0.25500000920E-02 0. -1.
    10030    2    1    2    0    0  0.00000000000E+00  0.00000000000E+00  0.13605197817E+04  0.31083709323E+04  0.27948087191E+04 0.  0.
        3    1    3    3  502    0 -0.60368677581E+03 -0.27112049793E+03 -0.68859579648E+03  0.95504357430E+03  0.10100000352E+00 0. -1.
       -3    1    3    3    0  502  0.60368677581E+03  0.27112049793E+03  0.20491155782E+04  0.21533273580E+04  0.10100000352E+00 0.  1.
</event>
<event>
 5   0  0.2267565E-06  0.2604533E+04  0.7818609E-02  0.8366663E-01
        1   -1    0    0  501    0  0.00000000000E+00  0.00000000000E+00  0.24719423152E+04  0.24719423152E+04  0.50400001928E-02 0.  1.
       -1   -1    0    0    0  501  0.00000000000E+00  0.00000000000E+00 -0.68605886636E+03  0.68605886637E+03  0.50400001928E-02 0. -1.
    10030    2    1    2    0    0  0.00000000000E+00  0.00000000000E+00  0.17858834489E+04  0.31580011816E+04  0.26045329274E+04 0.  0.
        4    1    3    3  502    0 -0.91832550932E+03  0.88109486012E+03  0.55813651254E+03  0.13896646621E+04  0.12699999809E+01 0. -1.
       -4    1    3    3    0  502  0.91832550932E+03 -0.88109486012E+03  0.12277469363E+04  0.17683365195E+04  0.12699999809E+01 0.  1.
</event>
<event>
 5   0  0.2277133E-06  0.2793311E+04  0.7818609E-02  0.8305348E-01
       -1   -1    0    0    0  501  0.00000000000E+00  0.00000000000E+00  0.13158353116E+04  0.13158353116E+04  0.50400001928E-02 0. -1.
        1   -1    0    0  501    0  0.00000000000E+00  0.00000000000E+00 -0.14824402375E+04  0.14824402375E+04  0.50400001928E-02 0.  1.
    10030    2    1    2    0    0  0.00000000000E+00  0.00000000000E+00 -0.16660492590E+03  0.27982755491E+04  0.27933114483E+04 0.  0.
        1    1    3    3  502    0  0.98591688832E+02 -0.89045136673E+03  0.99006013752E+03  0.13352314532E+04  0.50400001928E-02 0. -1.
       -1    1    3    3    0  502 -0.98591688832E+02  0.89045136673E+03 -0.11566650634E+04  0.14630440959E+04  0.50400001928E-02 0.  1.
</event>
<event>
 5   0  0.5584205E-06  0.2800750E+04  0.7818609E-02  0.8303035E-01
       -2   -1    0    0    0  501  0.00000000000E+00  0.00000000000E+00  0.17927537152E+04  0.17927537152E+04  0.25500000920E-02 0. -1.
        2   -1    0    0  501    0  0.00000000000E+00  0.00000000000E+00 -0.10938762056E+04  0.10938762056E+04  0.25500000920E-02 0.  1.
    10030    2    1    2    0    0  0.00000000000E+00  0.00000000000E+00  0.69887750962E+03  0.28866299209E+04  0.28007503506E+04 0.  0.
        1    1    3    3  502    0 -0.78909333160E+02  0.10138498091E+04 -0.64285616476E+03  0.12030719708E+04  0.50400001928E-02 0.  1.
       -1    1    3    3    0  502  0.78909333160E+02 -0.10138498091E+04  0.13417336744E+04  0.16835579501E+04  0.50400001928E-02 0. -1.
</event>
<event>
 5   0  0.5546570E-06  0.2683262E+04  0.7818609E-02  0.8340456E-01
       -2   -1    0    0    0  501  0.00000000000E+00  0.00000000000E+00  0.90701338814E+03  0.90701338815E+03  0.25500000920E-02 0.  1.
        2   -1    0    0  501    0  0.00000000000E+00  0.00000000000E+00 -0.19845069543E+04  0.19845069543E+04  0.25500000920E-02 0. -1.
    10030    2    1    2    0    0  0.00000000000E+00  0.00000000000E+00 -0.10774935661E+04  0.28915203424E+04  0.26832624742E+04 0.  0.
        4    1    3    3  502    0  0.16632806294E+03 -0.31658035156E+03  0.85470588377E+03  0.92650521001E+03  0.12699999809E+01 0.  1.
       -4    1    3    3    0  502 -0.16632806294E+03  0.31658035156E+03 -0.19321994499E+04  0.19650151324E+04  0.12699999809E+01 0. -1.
</event>
<event>
 5   0  0.1901375E-06  0.2796370E+04  0.7818609E-02  0.8304396E-01
       -3   -1    0    0    0  501  0.00000000000E+00  0.00000000000E+00  0.22194874785E+04  0.22194874808E+04  0.10100000352E+00 0.  1.
        3   -1    0    0  501    0  0.00000000000E+00  0.00000000000E+00 -0.88079830827E+03  0.88079831406E+03  0.10100000352E+00 0. -1.
    10030    2    1    2    0    0  0.00000000000E+00  0.00000000000E+00  0.13386891702E+04  0.31002857948E+04  0.27963696671E+04 0.  0.
        2    1    3    3  502    0 -0.54002736924E+03 -0.11956532448E+04  0.12053149370E+04  0.17815724343E+04  0.25500000920E-02 0.  1.
       -2    1    3    3    0  502  0.54002736924E+03  0.11956532448E+04  0.13337423321E+03  0.13187133606E+04  0.25500000920E-02 0. -1.
</event>
<event>
 5   0  0.5584205E-06  0.2799985E+04  0.7818609E-02  0.8303273E-01
       -2   -1    0    0    0  501  0.00000000000E+00  0.00000000000E+00  0.17795599906E+04  0.17795599906E+04  0.25500000920E-02 0. -1.
        2   -1    0    0  501    0  0.00000000000E+00  0.00000000000E+00 -0.11013840733E+04  0.11013840733E+04  0.25500000920E-02 0.  1.
    10030    2    1    2    0    0  0.00000000000E+00  0.00000000000E+00  0.67817591732E+03  0.28809440640E+04  0.27999850222E+04 0.  0.
        1    1    3    3  502    0  0.37272575500E+03  0.60286367628E+03 -0.90313564527E+03  0.11480518692E+04  0.50400001928E-02 0.  1.
       -1    1    3    3    0  502 -0.37272575500E+03 -0.60286367628E+03  0.15813115626E+04  0.17328921947E+04  0.50400001928E-02 0. -1.
</event>
<event>
 5   0  0.5625245E-06  0.2782977E+04  0.7818609E-02  0.8308573E-01
        2   -1    0    0  501    0  0.00000000000E+00  0.00000000000E+00  0.16906525438E+04  0.16906525438E+04  0.25500000920E-02 0. -1.
       -2   -1    0    0    0  501  0.00000000000E+00  0.00000000000E+00 -0.11452620840E+04  0.11452620840E+04  0.25500000920E-02 0.  1.
    10030    2    1    2    0    0  0.00000000000E+00  0.00000000000E+00  0.54539045974E+03  0.28359146278E+04  0.27829770072E+04 0.  0.
        3    1    3    3  502    0 -0.42390835420E+03 -0.12384416957E+04 -0.20830484297E+03  0.13254535240E+04  0.10100000352E+00 0.  1.
       -3    1    3    3    0  502  0.42390835420E+03  0.12384416957E+04  0.75369530272E+03  0.15104611038E+04  0.10100000352E+00 0. -1.
</event>
<event>
 5   0  0.2277133E-06  0.2797765E+04  0.7818609E-02  0.8303962E-01
       -1   -1    0    0    0  501  0.00000000000E+00  0.00000000000E+00  0.16137279964E+04  0.16137279964E+04  0.50400001928E-02 0. -1.
        1   -1    0    0  501    0  0.00000000000E+00  0.00000000000E+00 -0.12126409548E+04  0.12126409548E+04  0.50400001928E-02 0.  1.
    10030    2    1    2    0    0  0.00000000000E+00  0.00000000000E+00  0.40108704160E+03  0.28263689513E+04  0.27977652928E+04 0.  0.
        1    1    3    3  502    0 -0.11655292953E+04  0.78891523212E+01 -0.58089696114E+03  0.13022910797E+04  0.50400001928E-02 0.  1.
       -1    1    3    3    0  502  0.11655292953E+04 -0.78891523212E+01  0.98198400273E+03  0.15240778715E+04  0.50400001928E-02 0. -1.
</event>
<event>
 5   0  0.2277133E-06  0.2783067E+04  0.7818609E-02  0.8308545E-01
        1   -1    0    0  501    0  0.00000000000E+00  0.00000000000E+00  0.29287967425E+04  0.29287967425E+04  0.50400001928E-02 0.  1.
       -1   -1    0    0    0  501  0.00000000000E+00  0.00000000000E+00 -0.66114706046E+03  0.66114706048E+03  0.50400001928E-02 0. -1.
    10030    2    1    2    0    0  0.00000000000E+00  0.00000000000E+00  0.22676496821E+04  0.35899438030E+04  0.27830669105E+04 0.  0.
        1    1    3    3  502    0 -0.10037723682E+04  0.93964825327E+03  0.14100840566E+04  0.19694757814E+04  0.50400001928E-02 0.  1.
       -1    1    3    3    0  502  0.10037723682E+04 -0.93964825327E+03  0.85756562550E+03  0.16204680216E+04  0.50400001928E-02 0. -1.
</event>
<event>
 5   0  0.2234068E-06  0.2785866E+04  0.7818609E-02  0.8307670E-01
        1   -1    0    0  501    0  0.00000000000E+00  0.00000000000E+00  0.11134852335E+04  0.11134852335E+04  0.50400001928E-02 0.  1.
       -1   -1    0    0    0  501  0.00000000000E+00  0.00000000000E+00 -0.17425129491E+04  0.17425129491E+04  0.50400001928E-02 0. -1.
    10030    2    1    2    0    0  0.00000000000E+00  0.00000000000E+00 -0.62902771563E+03  0.28559981826E+04  0.27858660686E+04 0.  0.
        3    1    3    3  502    0 -0.23863840064E+03 -0.10900057606E+04  0.54026361741E+03  0.12397361135E+04  0.10100000352E+00 0.  1.
       -3    1    3    3    0  502  0.23863840064E+03  0.10900057606E+04 -0.11692913330E+04  0.16162620692E+04  0.10100000352E+00 0. -1.
</event>
<event>
 5   0  0.2206967E-06  0.2791677E+04  0.7818609E-02  0.8305857E-01
       -1   -1    0    0    0  501  0.00000000000E+00  0.00000000000E+00  0.19135249971E+04  0.19135249971E+04  0.50400001928E-02 0. -1.
        1   -1    0    0  501    0  0.00000000000E+00  0.00000000000E+00 -0.10182071965E+04  0.10182071966E+04  0.50400001928E-02 0.  1.
    10030    2    1    2    0    0  0.00000000000E+00  0.00000000000E+00  0.89531780056E+03  0.29317321937E+04  0.27916768601E+04 0.  0.
        5    1    3    3  502    0  0.18778318960E+03 -0.11491923247E+04 -0.36065556168E+03  0.12190160169E+04  0.46999998093E+01 0.  1.
       -5    1    3    3    0  502 -0.18778318960E+03  0.11491923247E+04  0.12559733622E+04  0.17127161767E+04  0.46999998093E+01 0. -1.
</event>
<event>
 5   0  0.2206967E-06  0.2797521E+04  0.7818609E-02  0.8304038E-01
        1   -1    0    0  501    0  0.00000000000E+00  0.00000000000E+00  0.23028379991E+04  0.23028379991E+04  0.50400001928E-02 0. -1.
       -1   -1    0    0    0  501  0.00000000000E+00  0.00000000000E+00 -0.84961713890E+03  0.84961713891E+03  0.50400001928E-02 0.  1.
    10030    2    1    2    0    0  0.00000000000E+00  0.00000000000E+00  0.14532208602E+04  0.31524551380E+04  0.27975207825E+04 0.  0.
        5    1    3    3  502    0  0.12626690914E+04  0.26476713572E+03  0.11760411174E+03  0.12954874325E+04  0.46999998093E+01 0.  1.
       -5    1    3    3    0  502 -0.12626690914E+04 -0.26476713572E+03  0.13356167484E+04  0.18569677055E+04  0.46999998093E+01 0. -1.
</event>
<event>
 5   0  0.5546570E-06  0.2803781E+04  0.7818609E-02  0.8302096E-01
        2   -1    0    0  501    0  0.00000000000E+00  0.00000000000E+00  0.20623185904E+04  0.20623185904E+04  0.25500000920E-02 0. -1.
       -2   -1    0    0    0  501  0.00000000000E+00  0.00000000000E+00 -0.95295488062E+03  0.95295488062E+03  0.25500000920E-02 0.  1.
    10030    2    1    2    0    0  0.00000000000E+00  0.00000000000E+00  0.11093637098E+04  0.30152734711E+04  0.28037807091E+04 0.  0.
        4    1    3    3  502    0 -0.18296953487E+03  0.89438824949E+03 -0.58947127682E+03  0.10866858749E+04  0.12699999809E+01 0.  1.
       -4    1    3    3    0  502  0.18296953487E+03 -0.89438824949E+03  0.16988349866E+04  0.19285875962E+04  0.12699999809E+01 0. -1.
</event>
<event>
 5   0  0.5584205E-06  0.2783857E+04  0.7818609E-02  0.8308298E-01
        2   -1    0    0  501    0  0.00000000000E+00  0.00000000000E+00  0.16948433115E+04  0.16948433115E+04  0.25500000920E-02 0.  1.
       -2   -1    0    0    0  501  0.00000000000E+00  0.00000000000E+00 -0.11431530552E+04  0.11431530552E+04  0.25500000920E-02 0. -1.
    10030    2    1    2    0    0  0.00000000000E+00  0.00000000000E+00  0.55169025632E+03  0.28379963667E+04  0.27838572590E+04 0.  0.
        1    1    3    3  502    0  0.12657243373E+04 -0.54840327094E+03  0.86049668945E+02  0.13821030320E+04  0.50400001928E-02 0.  1.
       -1    1    3    3    0  502 -0.12657243373E+04  0.54840327094E+03  0.46564058737E+03  0.14558933347E+04  0.50400001928E-02 0. -1.
</event>
<event>
 5   0  0.2190865E-06  0.2773955E+04  0.7818609E-02  0.8311400E-01
       -1   -1    0    0    0  501  0.00000000000E+00  0.00000000000E+00  0.14049767457E+04  0.14049767457E+04  0.50400001928E-02 0.  1.
        1   -1    0    0  501    0  0.00000000000E+00  0.00000000000E+00 -0.13692086796E+04  0.13692086796E+04  0.50400001928E-02 0. -1.
    10030    2    1    2    0    0  0.00000000000E+00  0.00000000000E+00  0.35768066093E+02  0.27741854253E+04  0.27739548337E+04 0.  0.
        2    1    3    3  502    0 -0.11671751811E+04 -0.71466114798E+03  0.24299804686E+03  0.13899951477E+04  0.25500000920E-02 0. -1.
       -2    1    3    3    0  502  0.11671751811E+04  0.71466114798E+03 -0.20722998077E+03  0.13841902776E+04  0.25500000920E-02 0.  1.
</event>
<event>
 5   0  0.5866136E-06  0.3029867E+04  0.7818609E-02  0.8235253E-01
        2   -1    0    0  501    0  0.00000000000E+00  0.00000000000E+00  0.17596062125E+04  0.17596062125E+04  0.25500000920E-02 0. -1.
       -2   -1    0    0    0  501  0.00000000000E+00  0.00000000000E+00 -0.13042825209E+04  0.13042825209E+04  0.25500000920E-02 0.  1.
    10030    2    1    2    0    0  0.00000000000E+00  0.00000000000E+00  0.45532369158E+03  0.30638887334E+04  0.30298670774E+04 0.  0.
        5    1    3    3  502    0  0.88500325493E+03 -0.12252872755E+04  0.33099471965E+03  0.15473006377E+04  0.46999998093E+01 0.  1.
       -5    1    3    3    0  502 -0.88500325493E+03  0.12252872755E+04  0.12432897192E+03  0.15165880957E+04  0.46999998093E+01 0. -1.
</event>
<event>
 5   0  0.2190865E-06  0.2791983E+04  0.7818609E-02  0.8305762E-01
        1   -1    0    0  501    0  0.00000000000E+00  0.00000000000E+00  0.16039808487E+04  0.16039808487E+04  0.50400001928E-02 0.  1.
       -1   -1    0    0    0  501  0.00000000000E+00  0.00000000000E+00 -0.12149722512E+04  0.12149722512E+04  0.50400001928E-02 0. -1.
    10030    2    1    2    0    0  0.00000000000E+00  0.00000000000E+00  0.38900859752E+03  0.28189530999E+04  0.27919829674E+04 0.  0.
        2    1    3    3  502    0 -0.38533814920E+03 -0.13372530769E+04  0.30538748424E+03  0.14247781569E+04  0.25500000920E-02 0.  1.
       -2    1    3    3    0  502  0.38533814920E+03  0.13372530769E+04  0.83621113280E+02  0.13941749429E+04  0.25500000920E-02 0. -1.
</event>
<event>
 5   0  0.5916603E-06  0.2801103E+04  0.7818609E-02  0.8302926E-01
        2   -1    0    0  501    0  0.00000000000E+00  0.00000000000E+00  0.10417457743E+04  0.10417457743E+04  0.25500000920E-02 0.  1.
       -2   -1    0    0    0  501  0.00000000000E+00  0.00000000000E+00 -0.18829400564E+04  0.18829400564E+04  0.25500000920E-02 0. -1.
    10030    2    1    2    0    0  0.00000000000E+00  0.00000000000E+00 -0.84119428212E+03  0.29246858306E+04  0.28011032447E+04 0.  0.
        2    1    3    3  502    0 -0.22489664279E+03  0.64921037547E+03  0.85369565014E+03  0.10958325030E+04  0.25500000920E-02 0.  1.
       -2    1    3    3    0  502  0.22489664279E+03 -0.64921037547E+03 -0.16948899323E+04  0.18288533276E+04  0.25500000920E-02 0. -1.
</event>
<event>
 5   0  0.5625245E-06  0.2798355E+04  0.7818609E-02  0.8303779E-01
        2   -1    0    0  501    0  0.00000000000E+00  0.00000000000E+00  0.17901819118E+04  0.17901819118E+04  0.25500000920E-02 0. -1.
       -2   -1    0    0    0  501  0.00000000000E+00  0.00000000000E+00 -0.10935749783E+04  0.10935749783E+04  0.25500000920E-02 0.  1.
    10030    2    1    2    0    0  0.00000000000E+00  0.00000000000E+00  0.69660693347E+03  0.28837568901E+04  0.27983553351E+04 0.  0.
        3    1    3    3  502    0  0.64625181368E+03  0.38871401767E+03  0.15628114213E+04  0.17352577742E+04  0.10100000352E+00 0. -1.
       -3    1    3    3    0  502 -0.64625181368E+03 -0.38871401767E+03 -0.86620448785E+03  0.11484991159E+04  0.10100000352E+00 0.  1.
</event>
<event>
 5   0  0.5584205E-06  0.2798588E+04  0.7818609E-02  0.8303707E-01
       -2   -1    0    0    0  501  0.00000000000E+00  0.00000000000E+00  0.86574521307E+03  0.86574521308E+03  0.25500000920E-02 0.  1.
        2   -1    0    0  501    0  0.00000000000E+00  0.00000000000E+00 -0.22616632929E+04  0.22616632929E+04  0.25500000920E-02 0. -1.
    10030    2    1    2    0    0  0.00000000000E+00  0.00000000000E+00 -0.13959180798E+04  0.31274085060E+04  0.27985883366E+04 0.  0.
        1    1    3    3  502    0  0.12182493852E+04  0.15459317794E+03 -0.14475921142E+04  0.18983028063E+04  0.50400001928E-02 0. -1.
       -1    1    3    3    0  502 -0.12182493852E+04 -0.15459317794E+03  0.51674034329E+02  0.12291056997E+04  0.50400001928E-02 0.  1.
</event>
<event>
 5   0  0.5546570E-06  0.2810143E+04  0.7818609E-02  0.8300126E-01
       -2   -1    0    0    0  501  0.00000000000E+00  0.00000000000E+00  0.16374572449E+04  0.16374572449E+04  0.25500000920E-02 0. -1.
        2   -1    0    0  501    0  0.00000000000E+00  0.00000000000E+00 -0.12056652590E+04  0.12056652590E+04  0.25500000920E-02 0.  1.
    10030    2    1    2    0    0  0.00000000000E+00  0.00000000000E+00  0.43179198590E+03  0.28431225038E+04  0.28101425680E+04 0.  0.
        4    1    3    3  502    0 -0.11247108661E+04 -0.34478453515E+03 -0.56147867875E+03  0.13034994544E+04  0.12699999809E+01 0.  1.
       -4    1    3    3    0  502  0.11247108661E+04  0.34478453515E+03  0.99327066465E+03  0.15396230494E+04  0.12699999809E+01 0. -1.
</event>
<event>
 5   0  0.2206967E-06  0.2809925E+04  0.7818609E-02  0.8300194E-01
        1   -1    0    0  501    0  0.00000000000E+00  0.00000000000E+00  0.11668949597E+04  0.11668949597E+04  0.50400001928E-02 0.  1.
       -1   -1    0    0    0  501  0.00000000000E+00  0.00000000000E+00 -0.16915996070E+04  0.16915996070E+04  0.50400001928E-02 0. -1.
    10030    2    1    2    0    0  0.00000000000E+00  0.00000000000E+00 -0.52470464727E+03  0.28584945667E+04  0.28099245934E+04 0.  0.
        5    1    3    3  502    0  0.13246960136E+04 -0.18664484848E+03 -0.69900488162E+03  0.15093991329E+04  0.46999998093E+01 0.  1.
       -5    1    3    3    0  502 -0.13246960136E+04  0.18664484848E+03  0.17430023435E+03  0.13490954338E+04  0.46999998093E+01 0. -1.
</event>
<event>
 5   0  0.2267565E-06  0.2800110E+04  0.7818609E-02  0.8303234E-01
       -1   -1    0    0    0  501  0.00000000000E+00  0.00000000000E+00  0.11166380975E+04  0.11166380975E+04  0.50400001928E-02 0.  1.
        1   -1    0    0  501    0  0.00000000000E+00  0.00000000000E+00 -0.17554073265E+04  0.17554073265E+04  0.50400001928E-02 0. -1.
    10030    2    1    2    0    0  0.00000000000E+00  0.00000000000E+00 -0.63876922894E+03  0.28720454240E+04  0.28001104960E+04 0.  0.
        4    1    3    3  502    0  0.61400542188E+03 -0.11673869246E+04  0.16209814155E+03  0.13289365336E+04  0.12699999809E+01 0.  1.
       -4    1    3    3    0  502 -0.61400542188E+03  0.11673869246E+04 -0.80086737050E+03  0.15431088905E+04  0.12699999809E+01 0. -1.
</event>
<event>
 5   0  0.1901375E-06  0.2805133E+04  0.7818609E-02  0.8301677E-01
        3   -1    0    0  501    0  0.00000000000E+00  0.00000000000E+00  0.11877390124E+04  0.11877390167E+04  0.10100000352E+00 0. -1.
       -3   -1    0    0    0  501  0.00000000000E+00  0.00000000000E+00 -0.16562498077E+04  0.16562498108E+04  0.10100000352E+00 0.  1.
    10030    2    1    2    0    0  0.00000000000E+00  0.00000000000E+00 -0.46851079535E+03  0.28439888275E+04  0.28051328107E+04 0.  0.
        1    1    3    3  502    0  0.13537073377E+04 -0.35427298186E+02 -0.60457350822E+03  0.14829995875E+04  0.50400001928E-02 0. -1.
       -1    1    3    3    0  502 -0.13537073377E+04  0.35427298186E+02  0.13606271287E+03  0.13609892400E+04  0.50400001928E-02 0.  1.
</event>
<event>
 5   0  0.5625245E-06  0.2746649E+04  0.7818609E-02  0.8320026E-01
        2   -1    0    0  501    0  0.00000000000E+00  0.00000000000E+00  0.13468608963E+04  0.13468608963E+04  0.25500000920E-02 0.  1.
       -2   -1    0    0    0  501  0.00000000000E+00  0.00000000000E+00 -0.14003078650E+04  0.14003078650E+04  0.25500000920E-02 0. -1.
    10030    2    1    2    0    0  0.00000000000E+00  0.00000000000E+00 -0.53446968711E+02  0.27471687613E+04  0.27466487989E+04 0.  0.
        3    1    3    3  502    0 -0.11531320060E+03  0.12811246132E+04 -0.50789925599E+03  0.13829457955E+04  0.10100000352E+00 0. -1.
       -3    1    3    3    0  502  0.11531320060E+03 -0.12811246132E+04  0.45445228728E+03  0.13642229658E+04  0.10100000352E+00 0.  1.
</event>
<event>
 5   0  0.5916603E-06  0.2810478E+04  0.7818609E-02  0.8300023E-01
       -2   -1    0    0    0  501  0.00000000000E+00  0.00000000000E+00  0.18171792691E+04  0.18171792691E+04  0.25500000920E-02 0.  1.
        2   -1    0    0  501    0  0.00000000000E+00  0.00000000000E+00 -0.10866826580E+04  0.10866826580E+04  0.25500000920E-02 0. -1.
    10030    2    1    2    0    0  0.00000000000E+00  0.00000000000E+00  0.73049661118E+03  0.29038619271E+04  0.28104783921E+04 0.  0.
        2    1    3    3  502    0  0.44451588416E+03 -0.13089627865E+04  0.10443422076E+03  0.13863204731E+04  0.25500000920E-02 0.  1.
       -2    1    3    3    0  502 -0.44451588416E+03  0.13089627865E+04  0.62606239042E+03  0.15175414540E+04  0.25500000920E-02 0. -1.
</event>
<event>
 5   0  0.5866136E-06  0.2745430E+04  0.7818609E-02  0.8320413E-01
       -2   -1    0    0    0  501  0.00000000000E+00  0.00000000000E+00  0.14709051142E+04  0.14709051142E+04  0.25500000920E-02 0.  1.
        2   -1    0    0  501    0  0.00000000000E+00  0.00000000000E+00 -0.12810794550E+04  0.12810794550E+04  0.25500000920E-02 0. -1.
    10030    2    1    2    0    0  0.00000000000E+00  0.00000000000E+00  0.18982565919E+03  0.27519845692E+04  0.27454298914E+04 0.  0.
        5    1    3    3  502    0 -0.93703501378E+03 -0.95052046252E+03  0.41630343446E+03  0.13981610802E+04  0.46999998093E+01 0.  1.
       -5    1    3    3    0  502  0.93703501378E+03  0.95052046252E+03 -0.22647777526E+03  0.13538234890E+04  0.46999998093E+01 0. -1.
</event>
<event>
 5   0  0.2267565E-06  0.2825889E+04  0.7818609E-02  0.8295276E-01
        1   -1    0    0  501    0  0.00000000000E+00  0.00000000000E+00  0.27898595698E+04  0.27898595698E+04  0.50400001928E-02 0. -1.
       -1   -1    0    0    0  501  0.00000000000E+00  0.00000000000E+00 -0.71559598295E+03  0.71559598297E+03  0.50400001928E-02 0.  1.
    10030    2    1    2    0    0  0.00000000000E+00  0.00000000000E+00  0.20742635868E+04  0.35054555527E+04  0.28258890998E+04 0.  0.
        4    1    3    3  502    0  0.12304956744E+04 -0.14661145333E+03  0.18791932301E+04  0.22509960755E+04  0.12699999809E+01 0. -1.
       -4    1    3    3    0  502 -0.12304956744E+04  0.14661145333E+03  0.19507035666E+03  0.12544594772E+04  0.12699999809E+01 0.  1.
</event>
<event>
 5   0  0.2277133E-06  0.2777015E+04  0.7818609E-02  0.8310440E-01
        1   -1    0    0  501    0  0.00000000000E+00  0.00000000000E+00  0.15544314951E+04  0.15544314951E+04  0.50400001928E-02 0.  1.
       -1   -1    0    0    0  501  0.00000000000E+00  0.00000000000E+00 -0.12402949045E+04  0.12402949045E+04  0.50400001928E-02 0. -1.
    10030    2    1    2    0    0  0.00000000000E+00  0.00000000000E+00  0.31413659065E+03  0.27947263996E+04  0.27770152774E+04 0.  0.
        1    1    3    3  502    0  0.12268074622E+04  0.19010717491E+02 -0.49710473121E+03  0.13238319646E+04  0.50400001928E-02 0. -1.
       -1    1    3    3    0  502 -0.12268074622E+04 -0.19010717491E+02  0.81124132186E+03  0.14708944350E+04  0.50400001928E-02 0.  1.
</event>
<event>
 5   0  0.5916603E-06  0.2781313E+04  0.7818609E-02  0.8309093E-01
       -2   -1    0    0    0  501  0.00000000000E+00  0.00000000000E+00  0.80939513604E+03  0.80939513604E+03  0.25500000920E-02 0. -1.
        2   -1    0    0  501    0  0.00000000000E+00  0.00000000000E+00 -0.23893467243E+04  0.23893467243E+04  0.25500000920E-02 0.  1.
    10030    2    1    2    0    0  0.00000000000E+00  0.00000000000E+00 -0.15799515882E+04  0.31987418603E+04  0.27813130834E+04 0.  0.
        2    1    3    3  502    0  0.85578283544E+02 -0.95433404387E+03  0.36918527929E+03  0.10268275806E+04  0.25500000920E-02 0. -1.
       -2    1    3    3    0  502 -0.85578283544E+02  0.95433404387E+03 -0.19491368675E+04  0.21719142797E+04  0.25500000920E-02 0.  1.
</event>
<event>
 5   0  0.2267565E-06  0.2779726E+04  0.7818609E-02  0.8309590E-01
       -1   -1    0    0    0  501  0.00000000000E+00  0.00000000000E+00  0.17626274622E+04  0.17626274623E+04  0.50400001928E-02 0.  1.
        1   -1    0    0  501    0  0.00000000000E+00  0.00000000000E+00 -0.10959318244E+04  0.10959318245E+04  0.50400001928E-02 0. -1.
    10030    2    1    2    0    0  0.00000000000E+00  0.00000000000E+00  0.66669563780E+03  0.28585592867E+04  0.27797262675E+04 0.  0.
        4    1    3    3  502    0  0.60168490500E+03  0.12509988000E+04  0.26288305545E+03  0.14128452980E+04  0.12699999809E+01 0. -1.
       -4    1    3    3    0  502 -0.60168490500E+03 -0.12509988000E+04  0.40381258234E+03  0.14457139887E+04  0.12699999809E+01 0.  1.
</event>
<event>
 5   0  0.5546570E-06  0.2814515E+04  0.7818609E-02  0.8298776E-01
        2   -1    0    0  501    0  0.00000000000E+00  0.00000000000E+00  0.17994746237E+04  0.17994746237E+04  0.25500000920E-02 0.  1.
       -2   -1    0    0    0  501  0.00000000000E+00  0.00000000000E+00 -0.11005288941E+04  0.11005288941E+04  0.25500000920E-02 0. -1.
    10030    2    1    2    0    0  0.00000000000E+00  0.00000000000E+00  0.69894572959E+03  0.29000035177E+04  0.28145151039E+04 0.  0.
        4    1    3    3  502    0  0.35394332708E+03  0.46951791574E+03  0.16668412329E+04  0.17675079238E+04  0.12699999809E+01 0.  1.
       -4    1    3    3    0  502 -0.35394332708E+03 -0.46951791574E+03 -0.96789550334E+03  0.11324955939E+04  0.12699999809E+01 0. -1.
</event>
<event>
 5   0  0.2206967E-06  0.2812822E+04  0.7818609E-02  0.8299299E-01
       -1   -1    0    0    0  501  0.00000000000E+00  0.00000000000E+00  0.15281237676E+04  0.15281237677E+04  0.50400001928E-02 0. -1.
        1   -1    0    0  501    0  0.00000000000E+00  0.00000000000E+00 -0.12943922826E+04  0.12943922826E+04  0.50400001928E-02 0.  1.
    10030    2    1    2    0    0  0.00000000000E+00  0.00000000000E+00  0.23373148507E+03  0.28225160502E+04  0.28128217943E+04 0.  0.
        5    1    3    3  502    0  0.36790425459E+03 -0.12781042496E+04 -0.34194692096E+03  0.13732639222E+04  0.46999998093E+01 0. -1.
       -5    1    3    3    0  502 -0.36790425459E+03  0.12781042496E+04  0.57567840603E+03  0.14492521280E+04  0.46999998093E+01 0.  1.
</event>
<event>
 5   0  0.5625245E-06  0.2743274E+04  0.7818609E-02  0.8321099E-01
        2   -1    0    0  501    0  0.00000000000E+00  0.00000000000E+00  0.80889924075E+03  0.80889924075E+03  0.25500000920E-02 0. -1.
       -2   -1    0    0    0  501  0.00000000000E+00  0.00000000000E+00 -0.23258624355E+04  0.23258624355E+04  0.25500000920E-02 0.  1.
    10030    2    1    2    0    0  0.00000000000E+00  0.00000000000E+00 -0.15169631948E+04  0.31347616763E+04  0.27432742176E+04 0.  0.
        3    1    3    3  502    0  0.91497400760E+03  0.10185275816E+04 -0.85279814487E+03  0.16130221806E+04  0.10100000352E+00 0.  1.
       -3    1    3    3    0  502 -0.91497400760E+03 -0.10185275816E+04 -0.66416504988E+03  0.15217394957E+04  0.10100000352E+00 0. -1.
</event>
<event>
 5   0  0.5584205E-06  0.2791396E+04  0.7818609E-02  0.8305945E-01
        2   -1    0    0  501    0  0.00000000000E+00  0.00000000000E+00  0.77392961383E+03  0.77392961384E+03  0.25500000920E-02 0. -1.
       -2   -1    0    0    0  501  0.00000000000E+00  0.00000000000E+00 -0.25169899081E+04  0.25169899081E+04  0.25500000920E-02 0.  1.
    10030    2    1    2    0    0  0.00000000000E+00  0.00000000000E+00 -0.17430602942E+04  0.32909195219E+04  0.27913960863E+04 0.  0.
        1    1    3    3  502    0  0.20100388877E+03 -0.12115350582E+04 -0.89721744208E+02  0.12313690560E+04  0.50400001928E-02 0. -1.
       -1    1    3    3    0  502 -0.20100388877E+03  0.12115350582E+04 -0.16533385500E+04  0.20595504659E+04  0.50400001928E-02 0.  1.
</event>
<event>
 5   0  0.2234068E-06  0.2802574E+04  0.7818609E-02  0.8302470E-01
       -1   -1    0    0    0  501  0.00000000000E+00  0.00000000000E+00  0.15985709023E+04  0.15985709023E+04  0.50400001928E-02 0.  1.
        1   -1    0    0  501    0  0.00000000000E+00  0.00000000000E+00 -0.12283503417E+04  0.12283503418E+04  0.50400001928E-02 0. -1.
    10030    2    1    2    0    0  0.00000000000E+00  0.00000000000E+00  0.37022056057E+03  0.28269212441E+04  0.28025738985E+04 0.  0.
        3    1    3    3  502    0 -0.14474374317E+03  0.39948246769E+03  0.15320265630E+04  0.15898560919E+04  0.10100000352E+00 0.  1.
       -3    1    3    3    0  502  0.14474374317E+03 -0.39948246769E+03 -0.11618060024E+04  0.12370651521E+04  0.10100000352E+00 0. -1.
</event>
<event>
 5   0  0.2267565E-06  0.2810566E+04  0.7818609E-02  0.8299995E-01
        1   -1    0    0  501    0  0.00000000000E+00  0.00000000000E+00  0.18657656742E+04  0.18657656742E+04  0.50400001928E-02 0.  1.
       -1   -1    0    0    0  501  0.00000000000E+00  0.00000000000E+00 -0.10584506358E+04  0.10584506358E+04  0.50400001928E-02 0. -1.
    10030    2    1    2    0    0  0.00000000000E+00  0.00000000000E+00  0.80731503847E+03  0.29242163100E+04  0.28105663942E+04 0.  0.
        4    1    3    3  502    0  0.56439339142E+03  0.11716017514E+04  0.95776080221E+03  0.16150844966E+04  0.12699999809E+01 0.  1.
       -4    1    3    3    0  502 -0.56439339142E+03 -0.11716017514E+04 -0.15044576374E+03  0.13091318134E+04  0.12699999809E+01 0. -1.
</event>
<event>
 5   0  0.2267565E-06  0.2802205E+04  0.7818609E-02  0.8302584E-01
       -1   -1    0    0    0  501  0.00000000000E+00  0.00000000000E+00  0.10097071953E+04  0.10097071953E+04  0.50400001928E-02 0.  1.
        1   -1    0    0  501    0  0.00000000000E+00  0.00000000000E+00 -0.19442158690E+04  0.19442158690E+04  0.50400001928E-02 0. -1.
    10030    2    1    2    0    0  0.00000000000E+00  0.00000000000E+00 -0.93450867367E+03  0.29539230643E+04  0.28022053830E+04 0.  0.
        4    1    3    3  502    0  0.35782592518E+03 -0.12421494346E+04  0.10248251164E+03  0.12967185079E+04  0.12699999809E+01 0.  1.
       -4    1    3    3    0  502 -0.35782592518E+03  0.12421494346E+04 -0.10369911853E+04  0.16572045564E+04  0.12699999809E+01 0. -1.
</event>
<event>
 5   0  0.2267565E-06  0.2805792E+04  0.7818609E-02  0.8301472E-01
       -1   -1    0    0    0  501  0.00000000000E+00  0.00000000000E+00  0.14402913880E+04  0.14402913880E+04  0.50400001928E-02 0.  1.
        1   -1    0    0  501    0  0.00000000000E+00  0.00000000000E+00 -0.13664716067E+04  0.13664716067E+04  0.50400001928E-02 0. -1.
    10030    2    1    2    0    0  0.00000000000E+00  0.00000000000E+00  0.73819781277E+02  0.28067629947E+04  0.28057920715E+04 0.  0.
        4    1    3    3  502    0  0.37625048816E+03  0.64753388438E+03  0.12235965463E+04  0.14345921658E+04  0.12699999809E+01 0.  1.
       -4    1    3    3    0  502 -0.37625048816E+03 -0.64753388438E+03 -0.11497767650E+04  0.13721708289E+04  0.12699999809E+01 0. -1.
</event>
<event>
 5   0  0.2234068E-06  0.2686167E+04  0.7818609E-02  0.8339507E-01
       -1   -1    0    0    0  501  0.00000000000E+00  0.00000000000E+00  0.14250841347E+04  0.14250841347E+04  0.50400001928E-02 0.  1.
        1   -1    0    0  501    0  0.00000000000E+00  0.00000000000E+00 -0.12658012925E+04  0.12658012925E+04  0.50400001928E-02 0. -1.
    10030    2    1    2    0    0  0.00000000000E+00  0.00000000000E+00  0.15928284224E+03  0.26908854272E+04  0.26861670385E+04 0.  0.
        3    1    3    3  502    0  0.10118275211E+03  0.57635734746E+03 -0.11313855444E+04  0.12737578269E+04  0.10100000352E+00 0. -1.
       -3    1    3    3    0  502 -0.10118275211E+03 -0.57635734746E+03  0.12906683866E+04  0.14171276003E+04  0.10100000352E+00 0.  1.
</event>
<event>
 5   0  0.5866136E-06  0.2807721E+04  0.7818609E-02  0.8300875E-01
       -2   -1    0    0    0  501  0.00000000000E+00  0.00000000000E+00  0.29728877868E+04  0.29728877868E+04  0.25500000920E-02 0.  1.
        2   -1    0    0  501    0  0.00000000000E+00  0.00000000000E+00 -0.66293245596E+03  0.66293245596E+03  0.25500000920E-02 0. -1.
    10030    2    1    2    0    0  0.00000000000E+00  0.00000000000E+00  0.23099553308E+04  0.36358202428E+04  0.28077206427E+04 0.  0.
        5    1    3    3  502    0 -0.13920391255E+04 -0.18125831428E+03  0.11378860496E+04  0.18070512597E+04  0.46999998093E+01 0. -1.
       -5    1    3    3    0  502  0.13920391255E+04  0.18125831428E+03  0.11720692813E+04  0.18287689831E+04  0.46999998093E+01 0.  1.
</event>
<event>
 5   0  0.5916603E-06  0.2794850E+04  0.7818609E-02  0.8304869E-01
        2   -1    0    0  501    0  0.00000000000E+00  0.00000000000E+00  0.18481265102E+04  0.18481265102E+04  0.25500000920E-02 0. -1.
       -2   -1    0    0    0  501  0.00000000000E+00  0.00000000000E+00 -0.10566357245E+04  0.10566357245E+04  0.25500000920E-02 0.  1.
    10030    2    1    2    0    0  0.00000000000E+00  0.00000000000E+00  0.79149078569E+03  0.29047622346E+04  0.27948499022E+04 0.  0.
        2    1    3    3  502    0  0.55597585290E+03  0.12301249152E+04  0.77117121269E+03  0.15546772962E+04  0.25500000920E-02 0. -1.
       -2    1    3    3    0  502 -0.55597585290E+03 -0.12301249152E+04  0.20319572997E+02  0.13500849384E+04  0.25500000920E-02 0.  1.
</event>
<event>
 5   0  0.2190865E-06  0.2708021E+04  0.7818609E-02  0.8332407E-01
       -1   -1    0    0    0  501  0.00000000000E+00  0.00000000000E+00  0.57741301301E+03  0.57741301303E+03  0.50400001928E-02 0. -1.
        1   -1    0    0  501    0  0.00000000000E+00  0.00000000000E+00 -0.31751017471E+04  0.31751017471E+04  0.50400001928E-02 0.  1.
    10030    2    1    2    0    0  0.00000000000E+00  0.00000000000E+00 -0.25976887341E+04  0.37525147601E+04  0.27080214670E+04 0.  0.
        2    1    3    3  502    0 -0.82074440223E+03  0.46328279577E+02  0.19204467551E+03  0.84418531182E+03  0.25500000920E-02 0. -1.
       -2    1    3    3    0  502  0.82074440223E+03 -0.46328279577E+02 -0.27897334096E+04  0.29083294483E+04  0.25500000920E-02 0.  1.
</event>
<event>
 5   0  0.2277133E-06  0.2779229E+04  0.7818609E-02  0.8309746E-01
       -1   -1    0    0    0  501  0.00000000000E+00  0.00000000000E+00  0.12097419285E+04  0.12097419285E+04  0.50400001928E-02 0. -1.
        1   -1    0    0  501    0  0.00000000000E+00  0.00000000000E+00 -0.15962320462E+04  0.15962320463E+04  0.50400001928E-02 0.  1.
    10030    2    1    2    0    0  0.00000000000E+00  0.00000000000E+00 -0.38649011775E+03  0.28059739748E+04  0.27792292701E+04 0.  0.
        1    1    3    3  502    0 -0.11540953339E+03  0.91582099062E+02 -0.15883242919E+04  0.15951428455E+04  0.50400001928E-02 0.  1.
       -1    1    3    3    0  502  0.11540953339E+03 -0.91582099062E+02  0.12018341742E+04  0.12108311292E+04  0.50400001928E-02 0. -1.
</event>
<event>
 5   0  0.2234068E-06  0.2832554E+04  0.7818609E-02  0.8293232E-01
        1   -1    0    0  501    0  0.00000000000E+00  0.00000000000E+00  0.16600655460E+04  0.16600655461E+04  0.50400001928E-02 0.  1.
       -1   -1    0    0    0  501  0.00000000000E+00  0.00000000000E+00 -0.12082901093E+04  0.12082901093E+04  0.50400001928E-02 0. -1.
    10030    2    1    2    0    0  0.00000000000E+00  0.00000000000E+00  0.45177543679E+03  0.28683556553E+04  0.28325541690E+04 0.  0.
        3    1    3    3  502    0  0.56179256459E+03  0.37764604976E+03 -0.10338670438E+04  0.12357623150E+04  0.10100000352E+00 0. -1.
       -3    1    3    3    0  502 -0.56179256459E+03 -0.37764604976E+03  0.14856424806E+04  0.16325933404E+04  0.10100000352E+00 0.  1.
</event>
<event>
 5   0  0.2277133E-06  0.2766246E+04  0.7818609E-02  0.8313825E-01
        1   -1    0    0  501    0  0.00000000000E+00  0.00000000000E+00  0.15285595467E+04  0.15285595467E+04  0.50400001928E-02 0. -1.
       -1   -1    0    0    0  501  0.00000000000E+00  0.00000000000E+00 -0.12515240509E+04  0.12515240509E+04  0.50400001928E-02 0.  1.
    10030    2    1    2    0    0  0.00000000000E+00  0.00000000000E+00  0.27703549583E+03  0.27800835976E+04  0.27662458574E+04 0.  0.
        1    1    3    3  502    0  0.99619193886E+03 -0.95226913042E+03  0.20396147818E+02  0.13782709743E+04  0.50400001928E-02 0. -1.
       -1    1    3    3    0  502 -0.99619193886E+03  0.95226913042E+03  0.25663934801E+03  0.14018126233E+04  0.50400001928E-02 0.  1.
</event>
<event>
 5   0  0.2267565E-06  0.2788426E+04  0.7818609E-02  0.8306871E-01
        1   -1    0    0  501    0  0.00000000000E+00  0.00000000000E+00  0.10257618153E+04  0.10257618153E+04  0.50400001928E-02 0.  1.
       -1   -1    0    0    0  501  0.00000000000E+00  0.00000000000E+00 -0.18950111565E+04  0.18950111565E+04  0.50400001928E-02 0. -1.
    10030    2    1    2    0    0  0.00000000000E+00  0.00000000000E+00 -0.86924934119E+03  0.29207729718E+04  0.27884261395E+04 0.  0.
        4    1    3    3  502    0 -0.54476644063E+03 -0.44976852886E+03  0.82440931182E+03  0.10856862027E+04  0.12699999809E+01 0.  1.
       -4    1    3    3    0  502  0.54476644063E+03  0.44976852886E+03 -0.16936586530E+04  0.18350867691E+04  0.12699999809E+01 0. -1.
</event>
<event>
 5   0  0.2267565E-06  0.2809465E+04  0.7818609E-02  0.8300336E-01
        1   -1    0    0  501    0  0.00000000000E+00  0.00000000000E+00  0.13585216013E+04  0.13585216013E+04  0.50400001928E-02 0. -1.
       -1   -1    0    0    0  501  0.00000000000E+00  0.00000000000E+00 -0.14525151965E+04  0.14525151965E+04  0.50400001928E-02 0.  1.
    10030    2    1    2    0    0  0.00000000000E+00  0.00000000000E+00 -0.93993595167E+02  0.28110367979E+04  0.28094649104E+04 0.  0.
        4    1    3    3  502    0  0.48706692195E+02  0.71653560405E+03  0.11609383859E+04  0.13651282586E+04  0.12699999809E+01 0. -1.
       -4    1    3    3    0  502 -0.48706692195E+02 -0.71653560405E+03 -0.12549319811E+04  0.14459085392E+04  0.12699999809E+01 0.  1.
</event>
<event>
 5   0  0.2234068E-06  0.2827186E+04  0.7818609E-02  0.8294878E-01
        1   -1    0    0  501    0  0.00000000000E+00  0.00000000000E+00  0.87113686670E+03  0.87113686671E+03  0.50400001928E-02 0.  1.
       -1   -1    0    0    0  501  0.00000000000E+00  0.00000000000E+00 -0.22938358856E+04  0.22938358856E+04  0.50400001928E-02 0. -1.
    10030    2    1    2    0    0  0.00000000000E+00  0.00000000000E+00 -0.14226990189E+04  0.31649727523E+04  0.28271858843E+04 0.  0.
        3    1    3    3  502    0  0.13927946589E+04  0.41356732750E+02 -0.97781741486E+03  0.17022673845E+04  0.10100000352E+00 0. -1.
       -3    1    3    3    0  502 -0.13927946589E+04 -0.41356732750E+02 -0.44488160405E+03  0.14627053678E+04  0.10100000352E+00 0.  1.
</event>
<event>
 5   0  0.5916603E-06  0.2791180E+04  0.7818609E-02  0.8306012E-01
        2   -1    0    0  501    0  0.00000000000E+00  0.00000000000E+00  0.19878220345E+04  0.19878220345E+04  0.25500000920E-02 0. -1.
       -2   -1    0    0    0  501  0.00000000000E+00  0.00000000000E+00 -0.97980145776E+03  0.97980145776E+03  0.25500000920E-02 0.  1.
    10030    2    1    2    0    0  0.00000000000E+00  0.00000000000E+00  0.10080205767E+04  0.29676234922E+04  0.27911796267E+04 0.  0.
        2    1    3    3  502    0 -0.11103773605E+04  0.81091472211E+03  0.24983665856E+03  0.13974759122E+04  0.25500000920E-02 0. -1.
       -2    1    3    3    0  502  0.11103773605E+04 -0.81091472211E+03  0.75818391817E+03  0.15701475800E+04  0.25500000920E-02 0.  1.
</event>
<event>
 5   0  0.1901375E-06  0.2816665E+04  0.7818609E-02  0.8298113E-01
       -3   -1    0    0    0  501  0.00000000000E+00  0.00000000000E+00  0.17658351561E+04  0.17658351590E+04  0.10100000352E+00 0. -1.
        3   -1    0    0  501    0  0.00000000000E+00  0.00000000000E+00 -0.11232083762E+04  0.11232083808E+04  0.10100000352E+00 0.  1.
    10030    2    1    2    0    0  0.00000000000E+00  0.00000000000E+00  0.64262677991E+03  0.28890435398E+04  0.28166652972E+04 0.  0.
        4    1    3    3  502    0 -0.55776147111E+03 -0.94502501636E+03 -0.58410940516E+03  0.12431233045E+04  0.12699999809E+01 0. -1.
       -4    1    3    3    0  502  0.55776147111E+03  0.94502501636E+03  0.12267361851E+04  0.16459202353E+04  0.12699999809E+01 0.  1.
</event>
<event>
 5   0  0.5584205E-06  0.2809672E+04  0.7818609E-02  0.8300272E-01
       -2   -1    0    0    0  501  0.00000000000E+00  0.00000000000E+00  0.10258599347E+04  0.10258599347E+04  0.25500000920E-02 0. -1.
        2   -1    0    0  501    0  0.00000000000E+00  0.00000000000E+00 -0.19238141760E+04  0.19238141760E+04  0.25500000920E-02 0.  1.
    10030    2    1    2    0    0  0.00000000000E+00  0.00000000000E+00 -0.89795424129E+03  0.29496741106E+04  0.28096717850E+04 0.  0.
        1    1    3    3  502    0 -0.11436424199E+04  0.32206076779E+03 -0.12359445502E+04  0.17144095351E+04  0.50400001928E-02 0.  1.
       -1    1    3    3    0  502  0.11436424199E+04 -0.32206076779E+03  0.33799030890E+03  0.12352645756E+04  0.50400001928E-02 0. -1.
</event>
<event>
 5   0  0.2234068E-06  0.2788552E+04  0.7818609E-02  0.8306831E-01
        1   -1    0    0  501    0  0.00000000000E+00  0.00000000000E+00  0.15977103048E+04  0.15977103048E+04  0.50400001928E-02 0.  1.
       -1   -1    0    0    0  501  0.00000000000E+00  0.00000000000E+00 -0.12167450087E+04  0.12167450087E+04  0.50400001928E-02 0. -1.
    10030    2    1    2    0    0  0.00000000000E+00  0.00000000000E+00  0.38096529608E+03  0.28144553135E+04  0.27885523403E+04 0.  0.
        3    1    3    3  502    0 -0.35848414845E+03 -0.12253761574E+04  0.75599839898E+03  0.14837759943E+04  0.10100000352E+00 0.  1.
       -3    1    3    3    0  502  0.35848414845E+03  0.12253761574E+04 -0.37503310290E+03  0.13306793191E+04  0.10100000352E+00 0. -1.
</event>
<event>
 5   0  0.5584205E-06  0.2807353E+04  0.7818609E-02  0.8300989E-01
        2   -1    0    0  501    0  0.00000000000E+00  0.00000000000E+00  0.19062828423E+04  0.19062828423E+04  0.25500000920E-02 0.  1.
       -2   -1    0    0    0  501  0.00000000000E+00  0.00000000000E+00 -0.10335864220E+04  0.10335864220E+04  0.25500000920E-02 0. -1.
    10030    2    1    2    0    0  0.00000000000E+00  0.00000000000E+00  0.87269642027E+03  0.29398692644E+04  0.28073532463E+04 0.  0.
        1    1    3    3  502    0 -0.83946405248E+03 -0.70636114456E+03  0.13532713908E+04  0.17421221023E+04  0.50400001928E-02 0.  1.
       -1    1    3    3    0  502  0.83946405248E+03  0.70636114456E+03 -0.48057497055E+03  0.11977471621E+04  0.50400001928E-02 0. -1.
</event>
<event>
 5   0  0.2277133E-06  0.2827448E+04  0.7818609E-02  0.8294797E-01
        1   -1    0    0  501    0  0.00000000000E+00  0.00000000000E+00  0.17284704867E+04  0.17284704867E+04  0.50400001928E-02 0. -1.
       -1   -1    0    0    0  501  0.00000000000E+00  0.00000000000E+00 -0.11562915639E+04  0.11562915639E+04  0.50400001928E-02 0.  1.
    10030    2    1    2    0    0  0.00000000000E+00  0.00000000000E+00  0.57217892278E+03  0.28847620506E+04  0.28274482080E+04 0.  0.
        1    1    3    3  502    0 -0.10753818184E+03  0.31693221767E+03 -0.11152903890E+04  0.11644239533E+04  0.50400001928E-02 0.  1.
       -1    1    3    3    0  502  0.10753818184E+03 -0.31693221767E+03  0.16874693118E+04  0.17203380974E+04  0.50400001928E-02 0. -1.
</event>
<event>
 5   0  0.5866136E-06  0.2699203E+04  0.7818609E-02  0.8335264E-01
       -2   -1    0    0    0  501  0.00000000000E+00  0.00000000000E+00  0.10440033976E+04  0.10440033976E+04  0.25500000920E-02 0.  1.
        2   -1    0    0  501    0  0.00000000000E+00  0.00000000000E+00 -0.17446529264E+04  0.17446529264E+04  0.25500000920E-02 0. -1.
    10030    2    1    2    0    0  0.00000000000E+00  0.00000000000E+00 -0.70064952884E+03  0.27886563240E+04  0.26992025362E+04 0.  0.
        5    1    3    3  502    0  0.23844636807E+03  0.88582504173E+03  0.67235879450E+03  0.11373790545E+04  0.46999998093E+01 0.  1.
       -5    1    3    3    0  502 -0.23844636807E+03 -0.88582504173E+03 -0.13730083233E+04  0.16512772696E+04  0.46999998093E+01 0. -1.
</event>
<event>
 5   0  0.2190865E-06  0.2803374E+04  0.7818609E-02  0.8302222E-01
        1   -1    0    0  501    0  0.00000000000E+00  0.00000000000E+00  0.11567916516E+04  0.11567916517E+04  0.50400001928E-02 0. -1.
       -1   -1    0    0    0  501  0.00000000000E+00  0.00000000000E+00 -0.16984274444E+04  0.16984274445E+04  0.50400001928E-02 0.  1.
    10030    2    1    2    0    0  0.00000000000E+00  0.00000000000E+00 -0.54163579281E+03  0.28552190961E+04  0.28033741732E+04 0.  0.
        2    1    3    3  502    0 -0.73445522734E+03  0.45246359500E+03 -0.13960478931E+04  0.16410659662E+04  0.25500000920E-02 0.  1.
       -2    1    3    3    0  502  0.73445522734E+03 -0.45246359500E+03  0.85441210025E+03  0.12141531299E+04  0.25500000920E-02 0. -1.
</event>
<event>
 5   0  0.5625245E-06  0.2762333E+04  0.7818609E-02  0.8315059E-01
       -2   -1    0    0    0  501  0.00000000000E+00  0.00000000000E+00  0.11801030842E+04  0.11801030842E+04  0.25500000920E-02 0.  1.
        2   -1    0    0  501    0  0.00000000000E+00  0.00000000000E+00 -0.16164865260E+04  0.16164865260E+04  0.25500000920E-02 0. -1.
    10030    2    1    2    0    0  0.00000000000E+00  0.00000000000E+00 -0.43638344181E+03  0.27965896103E+04  0.27623328800E+04 0.  0.
        3    1    3    3  502    0  0.70274222550E+03 -0.11843252232E+04 -0.32508450380E+03  0.14149744925E+04  0.10100000352E+00 0. -1.
       -3    1    3    3    0  502 -0.70274222550E+03  0.11843252232E+04 -0.11129893801E+03  0.13816151177E+04  0.10100000352E+00 0.  1.
</event>
<event>
 5   0  0.5916603E-06  0.2790710E+04  0.7818609E-02  0.8306158E-01
       -2   -1    0    0    0  501  0.00000000000E+00  0.00000000000E+00  0.18118424597E+04  0.18118424597E+04  0.25500000920E-02 0. -1.
        2   -1    0    0  501    0  0.00000000000E+00  0.00000000000E+00 -0.10746053947E+04  0.10746053947E+04  0.25500000920E-02 0.  1.
    10030    2    1    2    0    0  0.00000000000E+00  0.00000000000E+00  0.73723706499E+03  0.28864478545E+04  0.27907100757E+04 0.  0.
        2    1    3    3  502    0  0.11733060683E+04 -0.70311641148E+03  0.83487837311E+02  0.13703977660E+04  0.25500000920E-02 0.  1.
       -2    1    3    3    0  502 -0.11733060683E+04  0.70311641148E+03  0.65374922768E+03  0.15160500885E+04  0.25500000920E-02 0. -1.
</event>
<event>
 5   0  0.2190865E-06  0.2849781E+04  0.7818609E-02  0.8287978E-01
       -1   -1    0    0    0  501  0.00000000000E+00  0.00000000000E+00  0.12518824278E+04  0.12518824278E+04  0.50400001928E-02 0.  1.
        1   -1    0    0  501    0  0.00000000000E+00  0.00000000000E+00 -0.16218078796E+04  0.16218078796E+04  0.50400001928E-02 0. -1.
    10030    2    1    2    0    0  0.00000000000E+00  0.00000000000E+00 -0.36992545180E+03  0.28736903074E+04  0.28497808939E+04 0.  0.
        2    1    3    3  502    0 -0.17371758844E+02 -0.12234800075E+04  0.55130533584E+03  0.13420665707E+04  0.25500000920E-02 0.  1.
       -2    1    3    3    0  502  0.17371758844E+02  0.12234800075E+04 -0.92123078763E+03  0.15316237367E+04  0.25500000920E-02 0. -1.
</event>
<event>
 5   0  0.5866136E-06  0.2904204E+04  0.7818609E-02  0.8271628E-01
       -2   -1    0    0    0  501  0.00000000000E+00  0.00000000000E+00  0.18973033640E+04  0.18973033640E+04  0.25500000920E-02 0.  1.
        2   -1    0    0  501    0  0.00000000000E+00  0.00000000000E+00 -0.11113670518E+04  0.11113670518E+04  0.25500000920E-02 0. -1.
    10030    2    1    2    0    0  0.00000000000E+00  0.00000000000E+00  0.78593631220E+03  0.30086704157E+04  0.29042041567E+04 0.  0.
        5    1    3    3  502    0  0.10016030722E+04  0.92042944187E+03  0.91935880933E+03  0.16418409734E+04  0.46999998093E+01 0.  1.
       -5    1    3    3    0  502 -0.10016030722E+04 -0.92042944187E+03 -0.13342249713E+03  0.13668294423E+04  0.46999998093E+01 0. -1.
</event>
<event>
 5   0  0.5866136E-06  0.2797447E+04  0.7818609E-02  0.8304062E-01
       -2   -1    0    0    0  501  0.00000000000E+00  0.00000000000E+00  0.67435997774E+03  0.67435997775E+03  0.25500000920E-02 0. -1.
        2   -1    0    0  501    0  0.00000000000E+00  0.00000000000E+00 -0.29011610932E+04  0.29011610932E+04  0.25500000920E-02 0.  1.
    10030    2    1    2    0    0  0.00000000000E+00  0.00000000000E+00 -0.22268011154E+04  0.35755210709E+04  0.27974466431E+04 0.  0.
        5    1    3    3  502    0  0.16147064371E+03  0.71714045918E+03 -0.26343526726E+04  0.27349953017E+04  0.46999998093E+01 0.  1.
       -5    1    3    3    0  502 -0.16147064371E+03 -0.71714045918E+03  0.40755155714E+03  0.84052576921E+03  0.46999998093E+01 0. -1.
</event>
<event>
 5   0  0.5625245E-06  0.2808287E+04  0.7818609E-02  0.8300700E-01
        2   -1    0    0  501    0  0.00000000000E+00  0.00000000000E+00  0.10318152685E+04  0.10318152685E+04  0.25500000920E-02 0.  1.
       -2   -1    0    0    0  501  0.00000000000E+00  0.00000000000E+00 -0.19108256810E+04  0.19108256810E+04  0.25500000920E-02 0. -1.
    10030    2    1    2    0    0  0.00000000000E+00  0.00000000000E+00 -0.87901041257E+03  0.29426409495E+04  0.28082871029E+04 0.  0.
        3    1    3    3  502    0  0.11872350310E+04  0.40944836113E+03  0.21858967675E+03  0.12747377912E+04  0.10100000352E+00 0.  1.
       -3    1    3    3    0  502 -0.11872350310E+04 -0.40944836113E+03 -0.10976000893E+04  0.16679031583E+04  0.10100000352E+00 0. -1.
</event>
<event>
 5   0  0.5584205E-06  0.2642958E+04  0.7818609E-02  0.8353754E-01
       -2   -1    0    0    0  501  0.00000000000E+00  0.00000000000E+00  0.88414108354E+03  0.88414108354E+03  0.25500000920E-02 0. -1.
        2   -1    0    0  501    0  0.00000000000E+00  0.00000000000E+00 -0.19751446680E+04  0.19751446680E+04  0.25500000920E-02 0.  1.
    10030    2    1    2    0    0  0.00000000000E+00  0.00000000000E+00 -0.10910035845E+04  0.28592857516E+04  0.26429578483E+04 0.  0.
        1    1    3    3  502    0 -0.10387669715E+04  0.76447959051E+03 -0.85688067438E+03  0.15484541825E+04  0.50400001928E-02 0.  1.
       -1    1    3    3    0  502  0.10387669715E+04 -0.76447959051E+03 -0.23412291012E+03  0.13108315690E+04  0.50400001928E-02 0. -1.
</event>
<event>
 5   0  0.2206967E-06  0.2644432E+04  0.7818609E-02  0.8353263E-01
        1   -1    0    0  501    0  0.00000000000E+00  0.00000000000E+00  0.15584735782E+04  0.15584735782E+04  0.50400001928E-02 0.  1.
       -1   -1    0    0    0  501  0.00000000000E+00  0.00000000000E+00 -0.11217742739E+04  0.11217742739E+04  0.50400001928E-02 0. -1.
    10030    2    1    2    0    0  0.00000000000E+00  0.00000000000E+00  0.43669930423E+03  0.26802478521E+04  0.26444323146E+04 0.  0.
        5    1    3    3  502    0 -0.56724097009E+03  0.97863500008E+03 -0.47557239178E+03  0.12270615190E+04  0.46999998093E+01 0. -1.
       -5    1    3    3    0  502  0.56724097009E+03 -0.97863500008E+03  0.91227169601E+03  0.14531863332E+04  0.46999998093E+01 0.  1.
</event>
<event>
 5   0  0.2277133E-06  0.2798645E+04  0.7818609E-02  0.8303689E-01
       -1   -1    0    0    0  501  0.00000000000E+00  0.00000000000E+00  0.12735082404E+04  0.12735082404E+04  0.50400001928E-02 0.  1.
        1   -1    0    0  501    0  0.00000000000E+00  0.00000000000E+00 -0.15375669115E+04  0.15375669115E+04  0.50400001928E-02 0. -1.
    10030    2    1    2    0    0  0.00000000000E+00  0.00000000000E+00 -0.26405867106E+03  0.28110751519E+04  0.27986454809E+04 0.  0.
        1    1    3    3  502    0  0.11145970124E+04  0.70153294194E+03  0.34296539107E+03  0.13609188911E+04  0.50400001928E-02 0.  1.
       -1    1    3    3    0  502 -0.11145970124E+04 -0.70153294194E+03 -0.60702406213E+03  0.14501562608E+04  0.50400001928E-02 0. -1.
</event>
<event>
 5   0  0.5916603E-06  0.2813752E+04  0.7818609E-02  0.8299012E-01
        2   -1    0    0  501    0  0.00000000000E+00  0.00000000000E+00  0.11124014361E+04  0.11124014361E+04  0.25500000920E-02 0. -1.
       -2   -1    0    0    0  501  0.00000000000E+00  0.00000000000E+00 -0.17793032957E+04  0.17793032957E+04  0.25500000920E-02 0.  1.
    10030    2    1    2    0    0  0.00000000000E+00  0.00000000000E+00 -0.66690185964E+03  0.28917047318E+04  0.28137516176E+04 0.  0.
        2    1    3    3  502    0  0.14664962780E+03 -0.28555180379E+03  0.10742615367E+04  0.11211974827E+04  0.25500000920E-02 0. -1.
       -2    1    3    3    0  502 -0.14664962780E+03  0.28555180379E+03 -0.17411633964E+04  0.17705072490E+04  0.25500000920E-02 0.  1.
</event>
<event>
 5   0  0.2190865E-06  0.2807864E+04  0.7818609E-02  0.8300831E-01
        1   -1    0    0  501    0  0.00000000000E+00  0.00000000000E+00  0.14462156864E+04  0.14462156864E+04  0.50400001928E-02 0.  1.
       -1   -1    0    0    0  501  0.00000000000E+00  0.00000000000E+00 -0.13628844073E+04  0.13628844073E+04  0.50400001928E-02 0. -1.
    10030    2    1    2    0    0  0.00000000000E+00  0.00000000000E+00  0.83331279059E+02  0.28091000937E+04  0.28078638204E+04 0.  0.
        2    1    3    3  502    0 -0.86124705298E+03  0.98152573358E+03  0.55753358914E+03  0.14198531456E+04  0.25500000920E-02 0.  1.
       -2    1    3    3    0  502  0.86124705298E+03 -0.98152573358E+03 -0.47420231008E+03  0.13892469481E+04  0.25500000920E-02 0. -1.
</event>
<event>
 5   0  0.5584205E-06  0.2735070E+04  0.7818609E-02  0.8323715E-01
        2   -1    0    0  501    0  0.00000000000E+00  0.00000000000E+00  0.18984884491E+04  0.18984884491E+04  0.25500000920E-02 0. -1.
       -2   -1    0    0    0  501  0.00000000000E+00  0.00000000000E+00 -0.98507394210E+03  0.98507394210E+03  0.25500000920E-02 0.  1.
    10030    2    1    2    0    0  0.00000000000E+00  0.00000000000E+00  0.91341450699E+03  0.28835623912E+04  0.27350696522E+04 0.  0.
        1    1    3    3  502    0  0.10708121162E+04  0.84509842273E+03  0.35491717423E+03  0.14095375600E+04  0.50400001928E-02 0.  1.
       -1    1    3    3    0  502 -0.10708121162E+04 -0.84509842273E+03  0.55849733276E+03  0.14740248312E+04  0.50400001928E-02 0. -1.
</event>
<event>
 5   0  0.5866136E-06  0.2780047E+04  0.7818609E-02  0.8309490E-01
       -2   -1    0    0    0  501  0.00000000000E+00  0.00000000000E+00  0.11441726855E+04  0.11441726855E+04  0.25500000920E-02 0.  1.
        2   -1    0    0  501    0  0.00000000000E+00  0.00000000000E+00 -0.16887007018E+04  0.16887007018E+04  0.25500000920E-02 0. -1.
    10030    2    1    2    0    0  0.00000000000E+00  0.00000000000E+00 -0.54452801626E+03  0.28328733873E+04  0.27800469183E+04 0.  0.
        5    1    3    3  502    0  0.45363807055E+03  0.38374544256E+03  0.10082347953E+04  0.11703023354E+04  0.46999998093E+01 0.  1.
       -5    1    3    3    0  502 -0.45363807055E+03 -0.38374544256E+03 -0.15527628116E+04  0.16625710519E+04  0.46999998093E+01 0. -1.
</event>
<event>
 5   0  0.2206967E-06  0.2937052E+04  0.7818609E-02  0.8261938E-01
       -1   -1    0    0    0  501  0.00000000000E+00  0.00000000000E+00  0.10963171619E+04  0.10963171619E+04  0.50400001928E-02 0. -1.
        1   -1    0    0  501    0  0.00000000000E+00  0.00000000000E+00 -0.19671033842E+04  0.19671033843E+04  0.50400001928E-02 0.  1.
    10030    2    1    2    0    0  0.00000000000E+00  0.00000000000E+00 -0.87078622237E+03  0.30634205461E+04  0.29370523995E+04 0.  0.
        5    1    3    3  502    0  0.12154228480E+04  0.80791423089E+03 -0.26537993728E+03  0.14833835327E+04  0.46999998093E+01 0.  1.
       -5    1    3    3    0  502 -0.12154228480E+04 -0.80791423089E+03 -0.60540628509E+03  0.15800370135E+04  0.46999998093E+01 0. -1.
</event>
<event>
 5   0  0.2206967E-06  0.2767003E+04  0.7818609E-02  0.8313586E-01
       -1   -1    0    0    0  501  0.00000000000E+00  0.00000000000E+00  0.10211211841E+04  0.10211211841E+04  0.50400001928E-02 0.  1.
        1   -1    0    0  501    0  0.00000000000E+00  0.00000000000E+00 -0.18744847259E+04  0.18744847259E+04  0.50400001928E-02 0. -1.
    10030    2    1    2    0    0  0.00000000000E+00  0.00000000000E+00 -0.85336354179E+03  0.28956059100E+04  0.27670027560E+04 0.  0.
        5    1    3    3  502    0 -0.54978482490E+03 -0.11341334290E+03  0.89657559767E+03  0.10578259934E+04  0.46999998093E+01 0.  1.
       -5    1    3    3    0  502  0.54978482490E+03  0.11341334290E+03 -0.17499391395E+04  0.18377799166E+04  0.46999998093E+01 0. -1.
</event>
<event>
 5   0  0.5584205E-06  0.2808448E+04  0.7818609E-02  0.8300650E-01
       -2   -1    0    0    0  501  0.00000000000E+00  0.00000000000E+00  0.89857066283E+03  0.89857066283E+03  0.25500000920E-02 0. -1.
        2   -1    0    0  501    0  0.00000000000E+00  0.00000000000E+00 -0.21944247126E+04  0.21944247126E+04  0.25500000920E-02 0.  1.
    10030    2    1    2    0    0  0.00000000000E+00  0.00000000000E+00 -0.12958540497E+04  0.30929953754E+04  0.28084484460E+04 0.  0.
        1    1    3    3  502    0  0.72935784681E+03  0.10766162911E+04 -0.64352904117E+02  0.13020010765E+04  0.50400001928E-02 0. -1.
       -1    1    3    3    0  502 -0.72935784681E+03 -0.10766162911E+04 -0.12315011456E+04  0.17909942989E+04  0.50400001928E-02 0.  1.
</event>
<event>
 5   0  0.5546570E-06  0.2776072E+04  0.7818609E-02  0.8310736E-01
       -2   -1    0    0    0  501  0.00000000000E+00  0.00000000000E+00  0.75726005485E+03  0.75726005485E+03  0.25500000920E-02 0.  1.
        2   -1    0    0  501    0  0.00000000000E+00  0.00000000000E+00 -0.25442309130E+04  0.25442309130E+04  0.25500000920E-02 0. -1.
    10030    2    1    2    0    0  0.00000000000E+00  0.00000000000E+00 -0.17869708581E+04  0.33014909678E+04  0.27760723627E+04 0.  0.
        4    1    3    3  502    0 -0.62516782564E+03 -0.37902870942E+03 -0.22966919903E+04  0.24102475565E+04  0.12699999809E+01 0. -1.
       -4    1    3    3    0  502  0.62516782564E+03  0.37902870942E+03  0.50972113211E+03  0.89124341131E+03  0.12699999809E+01 0.  1.
</event>
<event>
 5   0  0.2190865E-06  0.2452233E+04  0.7818609E-02  0.8420203E-01
        1   -1    0    0  501    0  0.00000000000E+00  0.00000000000E+00  0.12985931479E+04  0.12985931479E+04  0.50400001928E-02 0.  1.
       -1   -1    0    0    0  501  0.00000000000E+00  0.00000000000E+00 -0.11576847423E+04  0.11576847423E+04  0.50400001928E-02 0. -1.
    10030    2    1    2    0    0  0.00000000000E+00  0.00000000000E+00  0.14090840559E+03  0.24562778903E+04  0.24522328387E+04 0.  0.
        2    1    3    3  502    0  0.10856014743E+04  0.19917568545E+03  0.60533876923E+03  0.12588234746E+04  0.25500000920E-02 0.  1.
       -2    1    3    3    0  502 -0.10856014743E+04 -0.19917568545E+03 -0.46443036364E+03  0.11974544156E+04  0.25500000920E-02 0. -1.
</event>
<event>
 5   0  0.2267565E-06  0.2816388E+04  0.7818609E-02  0.8298199E-01
       -1   -1    0    0    0  501  0.00000000000E+00  0.00000000000E+00  0.11978882482E+04  0.11978882482E+04  0.50400001928E-02 0. -1.
        1   -1    0    0  501    0  0.00000000000E+00  0.00000000000E+00 -0.16554215038E+04  0.16554215038E+04  0.50400001928E-02 0.  1.
    10030    2    1    2    0    0  0.00000000000E+00  0.00000000000E+00 -0.45753325556E+03  0.28533097520E+04  0.28163877327E+04 0.  0.
        4    1    3    3  502    0 -0.30552987007E+03 -0.28606657011E+03  0.11334141984E+04  0.12082267759E+04  0.12699999809E+01 0. -1.
       -4    1    3    3    0  502  0.30552987007E+03  0.28606657011E+03 -0.15909474540E+04  0.16450829761E+04  0.12699999809E+01 0.  1.
</event>
<event>
 5   0  0.5625245E-06  0.2802644E+04  0.7818609E-02  0.8302448E-01
       -2   -1    0    0    0  501  0.00000000000E+00  0.00000000000E+00  0.16711895242E+04  0.16711895242E+04  0.25500000920E-02 0.  1.
        2   -1    0    0  501    0  0.00000000000E+00  0.00000000000E+00 -0.11750329570E+04  0.11750329570E+04  0.25500000920E-02 0. -1.
    10030    2    1    2    0    0  0.00000000000E+00  0.00000000000E+00  0.49615656717E+03  0.28462224811E+04  0.28026435865E+04 0.  0.
        3    1    3    3  502    0 -0.51155372583E+03 -0.66292250340E+03  0.13891820667E+04  0.16220296806E+04  0.10100000352E+00 0.  1.
       -3    1    3    3    0  502  0.51155372583E+03  0.66292250340E+03 -0.89302549954E+03  0.12241928006E+04  0.10100000352E+00 0. -1.
</event>
<event>
 5   0  0.2277133E-06  0.2790700E+04  0.7818609E-02  0.8306161E-01
       -1   -1    0    0    0  501  0.00000000000E+00  0.00000000000E+00  0.20350021474E+04  0.20350021474E+04  0.50400001928E-02 0.  1.
        1   -1    0    0  501    0  0.00000000000E+00  0.00000000000E+00 -0.95675684195E+03  0.95675684197E+03  0.50400001928E-02 0. -1.
    10030    2    1    2    0    0  0.00000000000E+00  0.00000000000E+00  0.10782453054E+04  0.29917589893E+04  0.27907004339E+04 0.  0.
        1    1    3    3  502    0  0.62576869072E+03 -0.49125785414E+03 -0.68979995689E+03  0.10529694744E+04  0.50400001928E-02 0. -1.
       -1    1    3    3    0  502 -0.62576869072E+03  0.49125785414E+03  0.17680452623E+04  0.19387895149E+04  0.50400001928E-02 0.  1.
</event>
<event>
 5   0  0.5866136E-06  0.2795874E+04  0.7818609E-02  0.8304550E-01
        2   -1    0    0  501    0  0.00000000000E+00  0.00000000000E+00  0.15078888834E+04  0.15078888834E+04  0.25500000920E-02 0. -1.
       -2   -1    0    0    0  501  0.00000000000E+00  0.00000000000E+00 -0.12960028569E+04  0.12960028569E+04  0.25500000920E-02 0.  1.
    10030    2    1    2    0    0  0.00000000000E+00  0.00000000000E+00  0.21188602654E+03  0.28038917403E+04  0.27958743182E+04 0.  0.
        5    1    3    3  502    0  0.81039710558E+03  0.10405655448E+04  0.57061399145E+03  0.14370603811E+04  0.46999998093E+01 0.  1.
       -5    1    3    3    0  502 -0.81039710558E+03 -0.10405655448E+04 -0.35872796491E+03  0.13668313592E+04  0.46999998093E+01 0. -1.
</event>
<event>
 5   0  0.2190865E-06  0.2789131E+04  0.7818609E-02  0.8306651E-01
       -1   -1    0    0    0  501  0.00000000000E+00  0.00000000000E+00  0.16581653624E+04  0.16581653624E+04  0.50400001928E-02 0.  1.
        1   -1    0    0  501    0  0.00000000000E+00  0.00000000000E+00 -0.11728699765E+04  0.11728699765E+04  0.50400001928E-02 0. -1.
    10030    2    1    2    0    0  0.00000000000E+00  0.00000000000E+00  0.48529538591E+03  0.28310353390E+04  0.27891305955E+04 0.  0.
        2    1    3    3  502    0 -0.98467908722E+03  0.74369476113E+03 -0.41683506018E+03  0.13024692971E+04  0.25500000920E-02 0. -1.
       -2    1    3    3    0  502  0.98467908722E+03 -0.74369476113E+03  0.90213044608E+03  0.15285660418E+04  0.25500000920E-02 0.  1.
</event>
<event>
 5   0  0.5584205E-06  0.2564290E+04  0.7818609E-02  0.8380433E-01
        2   -1    0    0  501    0  0.00000000000E+00  0.00000000000E+00  0.21680144924E+04  0.21680144924E+04  0.25500000920E-02 0. -1.
       -2   -1    0    0    0  501  0.00000000000E+00  0.00000000000E+00 -0.75824956987E+03  0.75824956987E+03  0.25500000920E-02 0.  1.
    10030    2    1    2    0    0  0.00000000000E+00  0.00000000000E+00  0.14097649225E+04  0.29262640623E+04  0.25642901991E+04 0.  0.
        1    1    3    3  502    0 -0.68248265692E+03 -0.99067016059E+02 -0.52857274370E+03  0.86889930146E+03  0.50400001928E-02 0.  1.
       -1    1    3    3    0  502  0.68248265692E+03  0.99067016059E+02  0.19383376663E+04  0.20573647608E+04  0.50400001928E-02 0. -1.
</event>
<event>
 5   0  0.5916603E-06  0.2809148E+04  0.7818609E-02  0.8300434E-01
        2   -1    0    0  501    0  0.00000000000E+00  0.00000000000E+00  0.17635815802E+04  0.17635815802E+04  0.25500000920E-02 0. -1.
       -2   -1    0    0    0  501  0.00000000000E+00  0.00000000000E+00 -0.11186489470E+04  0.11186489470E+04  0.25500000920E-02 0.  1.
    10030    2    1    2    0    0  0.00000000000E+00  0.00000000000E+00  0.64493263318E+03  0.28822305273E+04  0.28091483960E+04 0.  0.
        2    1    3    3  502    0  0.49640281058E+03 -0.10767271544E+04 -0.45016617253E+03  0.12682297498E+04  0.25500000920E-02 0.  1.
       -2    1    3    3    0  502 -0.49640281058E+03  0.10767271544E+04  0.10950988057E+04  0.16140007775E+04  0.25500000920E-02 0. -1.
</event>
<event>
 5   0  0.2267565E-06  0.2811267E+04  0.7818609E-02  0.8299779E-01
        1   -1    0    0  501    0  0.00000000000E+00  0.00000000000E+00  0.18787915456E+04  0.18787915456E+04  0.50400001928E-02 0.  1.
       -1   -1    0    0    0  501  0.00000000000E+00  0.00000000000E+00 -0.10516366773E+04  0.10516366773E+04  0.50400001928E-02 0. -1.
    10030    2    1    2    0    0  0.00000000000E+00  0.00000000000E+00  0.82715486827E+03  0.29304282229E+04  0.28112673999E+04 0.  0.
        4    1    3    3  502    0 -0.35731713364E+03  0.56577169316E+03  0.17021090030E+04  0.18289203957E+04  0.12699999809E+01 0.  1.
       -4    1    3    3    0  502  0.35731713364E+03 -0.56577169316E+03 -0.87495413469E+03  0.11015078273E+04  0.12699999809E+01 0. -1.
</event>
<event>
 5   0  0.5546570E-06  0.2805236E+04  0.7818609E-02  0.8301645E-01
        2   -1    0    0  501    0  0.00000000000E+00  0.00000000000E+00  0.20887624412E+04  0.20887624412E+04  0.25500000920E-02 0. -1.
       -2   -1    0    0    0  501  0.00000000000E+00  0.00000000000E+00 -0.94186736776E+03  0.94186736776E+03  0.25500000920E-02 0.  1.
    10030    2    1    2    0    0  0.00000000000E+00  0.00000000000E+00  0.11468950734E+04  0.30306298089E+04  0.28052359490E+04 0.  0.
        4    1    3    3  502    0  0.13319724829E+04 -0.21599045376E+03  0.98700057182E+03  0.16718176674E+04  0.12699999809E+01 0. -1.
       -4    1    3    3    0  502 -0.13319724829E+04  0.21599045376E+03  0.15989450159E+03  0.13588121415E+04  0.12699999809E+01 0.  1.
</event>
<event>
 5   0  0.5866136E-06  0.2731678E+04  0.7818609E-02  0.8324799E-01
       -2   -1    0    0    0  501  0.00000000000E+00  0.00000000000E+00  0.82855047255E+03  0.82855047256E+03  0.25500000920E-02 0. -1.
        2   -1    0    0  501    0  0.00000000000E+00  0.00000000000E+00 -0.22515423330E+04  0.22515423330E+04  0.25500000920E-02 0.  1.
    10030    2    1    2    0    0  0.00000000000E+00  0.00000000000E+00 -0.14229918604E+04  0.30800928055E+04  0.27316782124E+04 0.  0.
        5    1    3    3  502    0 -0.21303733679E+03  0.21021630112E+03  0.79111238647E+03  0.84584673443E+03  0.46999998093E+01 0. -1.
       -5    1    3    3    0  502  0.21303733679E+03 -0.21021630112E+03 -0.22141042469E+04  0.22342460711E+04  0.46999998093E+01 0.  1.
</event>
<event>
 5   0  0.2277133E-06  0.2781550E+04  0.7818609E-02  0.8309019E-01
       -1   -1    0    0    0  501  0.00000000000E+00  0.00000000000E+00  0.11057273712E+04  0.11057273713E+04  0.50400001928E-02 0. -1.
        1   -1    0    0  501    0  0.00000000000E+00  0.00000000000E+00 -0.17493062076E+04  0.17493062076E+04  0.50400001928E-02 0.  1.
    10030    2    1    2    0    0  0.00000000000E+00  0.00000000000E+00 -0.64357883637E+03  0.28550335789E+04  0.27815504701E+04 0.  0.
        1    1    3    3  502    0  0.50421509133E+02 -0.64387407359E+03  0.94247247743E+03  0.11425281274E+04  0.50400001928E-02 0. -1.
       -1    1    3    3    0  502 -0.50421509133E+02  0.64387407359E+03 -0.15860513138E+04  0.17125054514E+04  0.50400001928E-02 0.  1.
</event>
<event>
 5   0  0.5546570E-06  0.2805899E+04  0.7818609E-02  0.8301439E-01
        2   -1    0    0  501    0  0.00000000000E+00  0.00000000000E+00  0.20809483173E+04  0.20809483173E+04  0.25500000920E-02 0.  1.
       -2   -1    0    0    0  501  0.00000000000E+00  0.00000000000E+00 -0.94585107018E+03  0.94585107019E+03  0.25500000920E-02 0. -1.
    10030    2    1    2    0    0  0.00000000000E+00  0.00000000000E+00  0.11350972471E+04  0.30267993875E+04  0.28058989240E+04 0.  0.
        4    1    3    3  502    0  0.93443962130E+03 -0.47119186474E+02 -0.56015625976E+03  0.10904926739E+04  0.12699999809E+01 0. -1.
       -4    1    3    3    0  502 -0.93443962130E+03  0.47119186474E+02  0.16952535069E+04  0.19363067136E+04  0.12699999809E+01 0.  1.
</event>
<event>
 5   0  0.2234068E-06  0.2790766E+04  0.7818609E-02  0.8306141E-01
       -1   -1    0    0    0  501  0.00000000000E+00  0.00000000000E+00  0.14706507399E+04  0.14706507399E+04  0.50400001928E-02 0. -1.
        1   -1    0    0  501    0  0.00000000000E+00  0.00000000000E+00 -0.13239675465E+04  0.13239675465E+04  0.50400001928E-02 0.  1.
    10030    2    1    2    0    0  0.00000000000E+00  0.00000000000E+00  0.14668319341E+03  0.27946182864E+04  0.27907660968E+04 0.  0.
        3    1    3    3  502    0  0.53164709651E+02 -0.27073198978E+03 -0.12963810910E+04  0.13254154971E+04  0.10100000352E+00 0.  1.
       -3    1    3    3    0  502 -0.53164709651E+02  0.27073198978E+03  0.14430642845E+04  0.14692027892E+04  0.10100000352E+00 0. -1.
</event>
<event>
 5   0  0.2190865E-06  0.2821577E+04  0.7818609E-02  0.8296601E-01
        1   -1    0    0  501    0  0.00000000000E+00  0.00000000000E+00  0.21268372427E+04  0.21268372427E+04  0.50400001928E-02 0.  1.
       -1   -1    0    0    0  501  0.00000000000E+00  0.00000000000E+00 -0.93581393387E+03  0.93581393389E+03  0.50400001928E-02 0. -1.
    10030    2    1    2    0    0  0.00000000000E+00  0.00000000000E+00  0.11910233089E+04  0.30626511766E+04  0.28215768122E+04 0.  0.
        2    1    3    3  502    0  0.16227690860E+03 -0.12170842462E+04 -0.15861195725E+03  0.12380571919E+04  0.25500000920E-02 0. -1.
       -2    1    3    3    0  502 -0.16227690860E+03  0.12170842462E+04  0.13496352661E+04  0.18245939847E+04  0.25500000920E-02 0.  1.
</event>
<event>
 5   0  0.2190865E-06  0.2793063E+04  0.7818609E-02  0.8305425E-01
       -1   -1    0    0    0  501  0.00000000000E+00  0.00000000000E+00  0.14111186459E+04  0.14111186459E+04  0.50400001928E-02 0.  1.
        1   -1    0    0  501    0  0.00000000000E+00  0.00000000000E+00 -0.13820955744E+04  0.13820955744E+04  0.50400001928E-02 0. -1.
    10030    2    1    2    0    0  0.00000000000E+00  0.00000000000E+00  0.29023071452E+02  0.27932142203E+04  0.27930634332E+04 0.  0.
        2    1    3    3  502    0  0.10473409033E+04 -0.25947069592E+03  0.90115560188E+03  0.14058198422E+04  0.25500000920E-02 0.  1.
       -2    1    3    3    0  502 -0.10473409033E+04  0.25947069592E+03 -0.87213253042E+03  0.13873943781E+04  0.25500000920E-02 0. -1.
</event>
<event>
 5   0  0.2277133E-06  0.2849810E+04  0.7818609E-02  0.8287969E-01
        1   -1    0    0  501    0  0.00000000000E+00  0.00000000000E+00  0.19610977083E+04  0.19610977083E+04  0.50400001928E-02 0.  1.
       -1   -1    0    0    0  501  0.00000000000E+00  0.00000000000E+00 -0.10353154488E+04  0.10353154489E+04  0.50400001928E-02 0. -1.
    10030    2    1    2    0    0  0.00000000000E+00  0.00000000000E+00  0.92578225944E+03  0.29964131571E+04  0.28498103474E+04 0.  0.
        1    1    3    3  502    0  0.78283228190E+03 -0.10841317503E+04 -0.54549944232E+02  0.13383361797E+04  0.50400001928E-02 0. -1.
       -1    1    3    3    0  502 -0.78283228190E+03  0.10841317503E+04  0.98033220367E+03  0.16580769774E+04  0.50400001928E-02 0.  1.
</event>
<event>
 5   0  0.2206967E-06  0.2751688E+04  0.7818609E-02  0.8318426E-01
       -1   -1    0    0    0  501  0.00000000000E+00  0.00000000000E+00  0.92011569472E+03  0.92011569474E+03  0.50400001928E-02 0.  1.
        1   -1    0    0  501    0  0.00000000000E+00  0.00000000000E+00 -0.20572913316E+04  0.20572913316E+04  0.50400001928E-02 0. -1.
    10030    2    1    2    0    0  0.00000000000E+00  0.00000000000E+00 -0.11371756369E+04  0.29774070263E+04  0.27516875134E+04 0.  0.
        5    1    3    3  502    0  0.11502672526E+04 -0.64874876697E+03 -0.98616462556E+03  0.16481906667E+04  0.46999998093E+01 0.  1.
       -5    1    3    3    0  502 -0.11502672526E+04  0.64874876697E+03 -0.15101101130E+03  0.13292163596E+04  0.46999998093E+01 0. -1.
</event>
<event>
 5   0  0.2190865E-06  0.2794549E+04  0.7818609E-02  0.8304963E-01
       -1   -1    0    0    0  501  0.00000000000E+00  0.00000000000E+00  0.12889806349E+04  0.12889806349E+04  0.50400001928E-02 0. -1.
        1   -1    0    0  501    0  0.00000000000E+00  0.00000000000E+00 -0.15146664923E+04  0.15146664923E+04  0.50400001928E-02 0.  1.
    10030    2    1    2    0    0  0.00000000000E+00  0.00000000000E+00 -0.22568585742E+03  0.28036471272E+04  0.27945488200E+04 0.  0.
        2    1    3    3  502    0  0.81343367911E+03  0.35156256944E+03 -0.11966866098E+04  0.14890699892E+04  0.25500000920E-02 0.  1.
       -2    1    3    3    0  502 -0.81343367911E+03 -0.35156256944E+03  0.97100075242E+03  0.13145771380E+04  0.25500000920E-02 0. -1.
</event>
<event>
 5   0  0.5546570E-06  0.2795757E+04  0.7818609E-02  0.8304587E-01
       -2   -1    0    0    0  501  0.00000000000E+00  0.00000000000E+00  0.10210271490E+04  0.10210271490E+04  0.25500000920E-02 0. -1.
        2   -1    0    0  501    0  0.00000000000E+00  0.00000000000E+00 -0.19138222408E+04  0.19138222408E+04  0.25500000920E-02 0.  1.
    10030    2    1    2    0    0  0.00000000000E+00  0.00000000000E+00 -0.89279509185E+03  0.29348493898E+04  0.27957571184E+04 0.  0.
        4    1    3    3  502    0  0.70422138809E+03 -0.22384638377E+03  0.79924091099E+03  0.10884955736E+04  0.12699999809E+01 0. -1.
       -4    1    3    3    0  502 -0.70422138809E+03  0.22384638377E+03 -0.16920360028E+04  0.18463538162E+04  0.12699999809E+01 0.  1.
</event>
<event>
 5   0  0.5546570E-06  0.2801101E+04  0.7818609E-02  0.8302927E-01
       -2   -1    0    0    0  501  0.00000000000E+00  0.00000000000E+00  0.12742682662E+04  0.12742682662E+04  0.25500000920E-02 0.  1.
        2   -1    0    0  501    0  0.00000000000E+00  0.00000000000E+00 -0.15393473248E+04  0.15393473248E+04  0.25500000920E-02 0. -1.
    10030    2    1    2    0    0  0.00000000000E+00  0.00000000000E+00 -0.26507905863E+03  0.28136155909E+04  0.28011008169E+04 0.  0.
        4    1    3    3  502    0  0.38668372055E+03 -0.26240857572E+02  0.12193289633E+04  0.12794442606E+04  0.12699999809E+01 0.  1.
       -4    1    3    3    0  502 -0.38668372055E+03  0.26240857572E+02 -0.14844080219E+04  0.15341713303E+04  0.12699999809E+01 0. -1.
</event>
<event>
 5   0  0.5584205E-06  0.2784252E+04  0.7818609E-02  0.8308174E-01
       -2   -1    0    0    0  501  0.00000000000E+00  0.00000000000E+00  0.12648047021E+04  0.12648047021E+04  0.25500000920E-02 0.  1.
        2   -1    0    0  501    0  0.00000000000E+00  0.00000000000E+00 -0.15322643142E+04  0.15322643142E+04  0.25500000920E-02 0. -1.
    10030    2    1    2    0    0  0.00000000000E+00  0.00000000000E+00 -0.26745961207E+03  0.27970690164E+04  0.27842522224E+04 0.  0.
        1    1    3    3  502    0  0.98640095668E+03  0.57998355423E+03 -0.93025248968E+03  0.14746991100E+04  0.50400001928E-02 0. -1.
       -1    1    3    3    0  502 -0.98640095668E+03 -0.57998355423E+03  0.66279287762E+03  0.13223699063E+04  0.50400001928E-02 0.  1.
</event>
<event>
 5   0  0.2267565E-06  0.2769024E+04  0.7818609E-02  0.8312950E-01
       -1   -1    0    0    0  501  0.00000000000E+00  0.00000000000E+00  0.12808437174E+04  0.12808437175E+04  0.50400001928E-02 0.  1.
        1   -1    0    0  501    0  0.00000000000E+00  0.00000000000E+00 -0.14965703967E+04  0.14965703968E+04  0.50400001928E-02 0. -1.
    10030    2    1    2    0    0  0.00000000000E+00  0.00000000000E+00 -0.21572667929E+03  0.27774141142E+04  0.27690235033E+04 0.  0.
        4    1    3    3  502    0 -0.13347072607E+03  0.27626890347E+03  0.12463136605E+04  0.12835257282E+04  0.12699999809E+01 0.  1.
       -4    1    3    3    0  502  0.13347072607E+03 -0.27626890347E+03 -0.14620403398E+04  0.14938883860E+04  0.12699999809E+01 0. -1.
</event>
<event>
 5   0  0.2267565E-06  0.2673339E+04  0.7818609E-02  0.8343708E-01
       -1   -1    0    0    0  501  0.00000000000E+00  0.00000000000E+00  0.10325692261E+04  0.10325692261E+04  0.50400001928E-02 0.  1.
        1   -1    0    0  501    0  0.00000000000E+00  0.00000000000E+00 -0.17303298306E+04  0.17303298306E+04  0.50400001928E-02 0. -1.
    10030    2    1    2    0    0  0.00000000000E+00  0.00000000000E+00 -0.69776060448E+03  0.27628990567E+04  0.26733389864E+04 0.  0.
        4    1    3    3  502    0 -0.27449957858E+02  0.91879163141E+03  0.65406973413E+03  0.11281579642E+04  0.12699999809E+01 0.  1.
       -4    1    3    3    0  502  0.27449957858E+02 -0.91879163141E+03 -0.13518303386E+04  0.16347410925E+04  0.12699999809E+01 0. -1.
</event>
<event>
 5   0  0.5866136E-06  0.2784705E+04  0.7818609E-02  0.8308033E-01
        2   -1    0    0  501    0  0.00000000000E+00  0.00000000000E+00  0.30553045932E+04  0.30553045932E+04  0.25500000920E-02 0. -1.
       -2   -1    0    0    0  501  0.00000000000E+00  0.00000000000E+00 -0.63451785645E+03  0.63451785645E+03  0.25500000920E-02 0.  1.
    10030    2    1    2    0    0  0.00000000000E+00  0.00000000000E+00  0.24207867367E+04  0.36898224496E+04  0.27847048829E+04 0.  0.
        5    1    3    3  502    0 -0.25816426253E+03  0.20023558297E+03  0.30037836897E+04  0.30215032053E+04  0.46999998093E+01 0. -1.
       -5    1    3    3    0  502  0.25816426253E+03 -0.20023558297E+03 -0.58299695299E+03  0.66831924432E+03  0.46999998093E+01 0.  1.
</event>
<event>
 5   0  0.2206967E-06  0.2844051E+04  0.7818609E-02  0.8289721E-01
       -1   -1    0    0    0  501  0.00000000000E+00  0.00000000000E+00  0.96028818791E+03  0.96028818793E+03  0.50400001928E-02 0.  1.
        1   -1    0    0  501    0  0.00000000000E+00  0.00000000000E+00 -0.21057814716E+04  0.21057814716E+04  0.50400001928E-02 0. -1.
    10030    2    1    2    0    0  0.00000000000E+00  0.00000000000E+00 -0.11454932837E+04  0.30660696595E+04  0.28440513874E+04 0.  0.
        5    1    3    3  502    0 -0.32262289339E+01  0.25999488512E+03 -0.20799277494E+04  0.20961224395E+04  0.46999998093E+01 0. -1.
       -5    1    3    3    0  502  0.32262289339E+01 -0.25999488512E+03  0.93443446572E+03  0.96994721999E+03  0.46999998093E+01 0.  1.
</event>
<event>
 5   0  0.1901375E-06  0.2838864E+04  0.7818609E-02  0.8291303E-01
        3   -1    0    0  501    0  0.00000000000E+00  0.00000000000E+00  0.19357871103E+04  0.19357871129E+04  0.10100000352E+00 0. -1.
       -3   -1    0    0    0  501  0.00000000000E+00  0.00000000000E+00 -0.10408104174E+04  0.10408104223E+04  0.10100000352E+00 0.  1.
    10030    2    1    2    0    0  0.00000000000E+00  0.00000000000E+00  0.89497669282E+03  0.29765975352E+04  0.28388641401E+04 0.  0.
        1    1    3    3  502    0 -0.72560456776E+03 -0.12198978435E+04  0.45965585201E+03  0.14919571843E+04  0.50400001928E-02 0.  1.
       -1    1    3    3    0  502  0.72560456776E+03  0.12198978435E+04  0.43532084081E+03  0.14846403510E+04  0.50400001928E-02 0. -1.
</event>
<event>
 5   0  0.5916603E-06  0.2794743E+04  0.7818609E-02  0.8304902E-01
       -2   -1    0    0    0  501  0.00000000000E+00  0.00000000000E+00  0.10388019355E+04  0.10388019355E+04  0.25500000920E-02 0.  1.
        2   -1    0    0  501    0  0.00000000000E+00  0.00000000000E+00 -0.18797111142E+04  0.18797111142E+04  0.25500000920E-02 0. -1.
    10030    2    1    2    0    0  0.00000000000E+00  0.00000000000E+00 -0.84090917871E+03  0.29185130498E+04  0.27947433111E+04 0.  0.
        2    1    3    3  502    0  0.80307515097E+02 -0.85877100154E+03 -0.15685576692E+04  0.17900586839E+04  0.25500000920E-02 0. -1.
       -2    1    3    3    0  502 -0.80307515097E+02  0.85877100154E+03  0.72764849054E+03  0.11284543659E+04  0.25500000920E-02 0.  1.
</event>
<event>
 5   0  0.2234068E-06  0.2812248E+04  0.7818609E-02  0.8299476E-01
        1   -1    0    0  501    0  0.00000000000E+00  0.00000000000E+00  0.19540680589E+04  0.19540680590E+04  0.50400001928E-02 0. -1.
       -1   -1    0    0    0  501  0.00000000000E+00  0.00000000000E+00 -0.10118298590E+04  0.10118298590E+04  0.50400001928E-02 0.  1.
    10030    2    1    2    0    0  0.00000000000E+00  0.00000000000E+00  0.94223819995E+03  0.29658979180E+04  0.28122477904E+04 0.  0.
        3    1    3    3  502    0  0.11905458614E+04 -0.45925257760E+03 -0.15180579127E+03  0.12850515112E+04  0.10100000352E+00 0.  1.
       -3    1    3    3    0  502 -0.11905458614E+04  0.45925257760E+03  0.10940439912E+04  0.16808464067E+04  0.10100000352E+00 0. -1.
</event>
<event>
 5   0  0.5625245E-06  0.2767161E+04  0.7818609E-02  0.8313537E-01
       -2   -1    0    0    0  501  0.00000000000E+00  0.00000000000E+00  0.11024744031E+04  0.11024744031E+04  0.25500000920E-02 0. -1.
        2   -1    0    0  501    0  0.00000000000E+00  0.00000000000E+00 -0.17363624893E+04  0.17363624893E+04  0.25500000920E-02 0.  1.
    10030    2    1    2    0    0  0.00000000000E+00  0.00000000000E+00 -0.63388808624E+03  0.28388368924E+04  0.27671611438E+04 0.  0.
        3    1    3    3  502    0 -0.10958325159E+04 -0.82927342573E+03 -0.15231350906E+03  0.13826578509E+04  0.10100000352E+00 0. -1.
       -3    1    3    3    0  502  0.10958325159E+04  0.82927342573E+03 -0.48157457718E+03  0.14561790415E+04  0.10100000352E+00 0.  1.
</event>
<event>
 5   0  0.5546570E-06  0.2775923E+04  0.7818609E-02  0.8310783E-01
       -2   -1    0    0    0  501  0.00000000000E+00  0.00000000000E+00  0.18743266738E+04  0.18743266738E+04  0.25500000920E-02 0. -1.
        2   -1    0    0  501    0  0.00000000000E+00  0.00000000000E+00 -0.10278022244E+04  0.10278022244E+04  0.25500000920E-02 0.  1.
    10030    2    1    2    0    0  0.00000000000E+00  0.00000000000E+00  0.84652444940E+03  0.29021288982E+04  0.27759229993E+04 0.  0.
        4    1    3    3  502    0  0.92648162175E+03  0.41078967959E+03  0.14147016947E+04  0.17402582723E+04  0.12699999809E+01 0. -1.
       -4    1    3    3    0  502 -0.92648162175E+03 -0.41078967959E+03 -0.56817724531E+03  0.11618706259E+04  0.12699999809E+01 0.  1.
</event>
<event>
 5   0  0.5546570E-06  0.3154502E+04  0.7818609E-02  0.8200937E-01
       -2   -1    0    0    0  501  0.00000000000E+00  0.00000000000E+00  0.16465581519E+04  0.16465581519E+04  0.25500000920E-02 0. -1.
        2   -1    0    0  501    0  0.00000000000E+00  0.00000000000E+00 -0.15108611955E+04  0.15108611955E+04  0.25500000920E-02 0.  1.
    10030    2    1    2    0    0  0.00000000000E+00  0.00000000000E+00  0.13569695641E+03  0.31574193473E+04  0.31545020639E+04 0.  0.
        4    1    3    3  502    0  0.11438815799E+04 -0.10342395815E+03  0.11498466226E+04  0.16252108947E+04  0.12699999809E+01 0. -1.
       -4    1    3    3    0  502 -0.11438815799E+04  0.10342395815E+03 -0.10141496662E+04  0.15322084526E+04  0.12699999809E+01 0.  1.
</event>
<event>
 5   0  0.2190865E-06  0.2790577E+04  0.7818609E-02  0.8306200E-01
        1   -1    0    0  501    0  0.00000000000E+00  0.00000000000E+00  0.16790138390E+04  0.16790138390E+04  0.50400001928E-02 0.  1.
       -1   -1    0    0    0  501  0.00000000000E+00  0.00000000000E+00 -0.11595080626E+04  0.11595080626E+04  0.50400001928E-02 0. -1.
    10030    2    1    2    0    0  0.00000000000E+00  0.00000000000E+00  0.51950577635E+03  0.28385219016E+04  0.27905770612E+04 0.  0.
        2    1    3    3  502    0 -0.65762538304E+03 -0.12190709771E+04  0.43064199224E+03  0.14505370444E+04  0.25500000920E-02 0. -1.
       -2    1    3    3    0  502  0.65762538304E+03  0.12190709771E+04  0.88863784115E+02  0.13879848572E+04  0.25500000920E-02 0.  1.
</event>
<event>
 5   0  0.5584205E-06  0.2798242E+04  0.7818609E-02  0.8303814E-01
       -2   -1    0    0    0  501  0.00000000000E+00  0.00000000000E+00  0.89856265248E+03  0.89856265248E+03  0.25500000920E-02 0. -1.
        2   -1    0    0  501    0  0.00000000000E+00  0.00000000000E+00 -0.21785230887E+04  0.21785230887E+04  0.25500000920E-02 0.  1.
    10030    2    1    2    0    0  0.00000000000E+00  0.00000000000E+00 -0.12799604363E+04  0.30770857412E+04  0.27982419374E+04 0.  0.
        1    1    3    3  502    0  0.16518384248E+03  0.60057195478E+03  0.73768686395E+03  0.96548137421E+03  0.50400001928E-02 0. -1.
       -1    1    3    3    0  502 -0.16518384248E+03 -0.60057195478E+03 -0.20176473002E+04  0.21116043670E+04  0.50400001928E-02 0.  1.
</event>
<event>
 5   0  0.2277133E-06  0.2685259E+04  0.7818609E-02  0.8339804E-01
        1   -1    0    0  501    0  0.00000000000E+00  0.00000000000E+00  0.15275497677E+04  0.15275497677E+04  0.50400001928E-02 0. -1.
       -1   -1    0    0    0  501  0.00000000000E+00  0.00000000000E+00 -0.11800953294E+04  0.11800953294E+04  0.50400001928E-02 0.  1.
    10030    2    1    2    0    0  0.00000000000E+00  0.00000000000E+00  0.34745443829E+03  0.27076450971E+04  0.26852592770E+04 0.  0.
        1    1    3    3  502    0 -0.99713647134E+03  0.29694274028E+03  0.10294469243E+04  0.14636314780E+04  0.50400001928E-02 0. -1.
       -1    1    3    3    0  502  0.99713647134E+03 -0.29694274028E+03 -0.68199248597E+03  0.12440136191E+04  0.50400001928E-02 0.  1.
</event>
<event>
 5   0  0.2206967E-06  0.2812968E+04  0.7818609E-02  0.8299254E-01
        1   -1    0    0  501    0  0.00000000000E+00  0.00000000000E+00  0.17354190988E+04  0.17354190988E+04  0.50400001928E-02 0. -1.
       -1   -1    0    0    0  501  0.00000000000E+00  0.00000000000E+00 -0.11398956047E+04  0.11398956047E+04  0.50400001928E-02 0.  1.
    10030    2    1    2    0    0  0.00000000000E+00  0.00000000000E+00  0.59552349412E+03  0.28753147035E+04  0.28129675455E+04 0.  0.
        5    1    3    3  502    0 -0.44581807302E+03  0.51319562844E+03  0.15563323112E+04  0.16983273713E+04  0.46999998093E+01 0. -1.
       -5    1    3    3    0  502  0.44581807302E+03 -0.51319562844E+03 -0.96080881703E+03  0.11769873322E+04  0.46999998093E+01 0.  1.
</event>
<event>
 5   0  0.5584205E-06  0.2807977E+04  0.7818609E-02  0.8300796E-01
        2   -1    0    0  501    0  0.00000000000E+00  0.00000000000E+00  0.14821958306E+04  0.14821958306E+04  0.25500000920E-02 0. -1.
       -2   -1    0    0    0  501  0.00000000000E+00  0.00000000000E+00 -0.13299077182E+04  0.13299077182E+04  0.25500000920E-02 0.  1.
    10030    2    1    2    0    0  0.00000000000E+00  0.00000000000E+00  0.15228811247E+03  0.28121035488E+04  0.28079769764E+04 0.  0.
        1    1    3    3  502    0 -0.10121765667E+04 -0.59257100289E+03  0.84899175740E+03  0.14479049692E+04  0.50400001928E-02 0. -1.
       -1    1    3    3    0  502  0.10121765667E+04  0.59257100289E+03 -0.69670364493E+03  0.13641985796E+04  0.50400001928E-02 0.  1.
</event>
<event>
 5   0  0.2206967E-06  0.2761119E+04  0.7818609E-02  0.8315442E-01
        1   -1    0    0  501    0  0.00000000000E+00  0.00000000000E+00  0.10815719179E+04  0.10815719179E+04  0.50400001928E-02 0. -1.
       -1   -1    0    0    0  501  0.00000000000E+00  0.00000000000E+00 -0.17621989484E+04  0.17621989484E+04  0.50400001928E-02 0.  1.
    10030    2    1    2    0    0  0.00000000000E+00  0.00000000000E+00 -0.68062703058E+03  0.28437708663E+04  0.27611192631E+04 0.  0.
        5    1    3    3  502    0  0.10108919811E+04  0.83886094088E+03 -0.77768098028E+03  0.15265647948E+04  0.46999998093E+01 0.  1.
       -5    1    3    3    0  502 -0.10108919811E+04 -0.83886094088E+03  0.97053949702E+02  0.13172060715E+04  0.46999998093E+01 0. -1.
</event>
<event>
 5   0  0.2206967E-06  0.2805580E+04  0.7818609E-02  0.8301538E-01
       -1   -1    0    0    0  501  0.00000000000E+00  0.00000000000E+00  0.85277883444E+03  0.85277883445E+03  0.50400001928E-02 0. -1.
        1   -1    0    0  501    0  0.00000000000E+00  0.00000000000E+00 -0.23075379161E+04  0.23075379161E+04  0.50400001928E-02 0.  1.
    10030    2    1    2    0    0  0.00000000000E+00  0.00000000000E+00 -0.14547590817E+04  0.31603167506E+04  0.28055797936E+04 0.  0.
        5    1    3    3  502    0  0.67938386753E+03 -0.26090217045E+03  0.62348670195E+03  0.95832673943E+03  0.46999998093E+01 0. -1.
       -5    1    3    3    0  502 -0.67938386753E+03  0.26090217045E+03 -0.20782457837E+04  0.22019900112E+04  0.46999998093E+01 0.  1.
</event>
<event>
 5   0  0.2267565E-06  0.2816452E+04  0.7818609E-02  0.8298179E-01
        1   -1    0    0  501    0  0.00000000000E+00  0.00000000000E+00  0.20196225785E+04  0.20196225785E+04  0.50400001928E-02 0. -1.
       -1   -1    0    0    0  501  0.00000000000E+00  0.00000000000E+00 -0.98191615090E+03  0.98191615092E+03  0.50400001928E-02 0.  1.
    10030    2    1    2    0    0  0.00000000000E+00  0.00000000000E+00  0.10377064276E+04  0.30015387294E+04  0.28164516886E+04 0.  0.
        4    1    3    3  502    0  0.11435522056E+04 -0.81057539533E+03  0.37447205447E+03  0.14508532148E+04  0.12699999809E+01 0.  1.
       -4    1    3    3    0  502 -0.11435522056E+04  0.81057539533E+03  0.66323437315E+03  0.15506855146E+04  0.12699999809E+01 0. -1.
</event>
<event>
 5   0  0.5866136E-06  0.2812139E+04  0.7818609E-02  0.8299509E-01
        2   -1    0    0  501    0  0.00000000000E+00  0.00000000000E+00  0.21380118921E+04  0.21380118921E+04  0.25500000920E-02 0. -1.
       -2   -1    0    0    0  501  0.00000000000E+00  0.00000000000E+00 -0.92470585356E+03  0.92470585356E+03  0.25500000920E-02 0.  1.
    10030    2    1    2    0    0  0.00000000000E+00  0.00000000000E+00  0.12133060385E+04  0.30627177456E+04  0.28121394785E+04 0.  0.
        5    1    3    3  502    0  0.20953853785E+02 -0.49389197123E+03  0.20402414783E+04  0.20992798105E+04  0.46999998093E+01 0. -1.
       -5    1    3    3    0  502 -0.20953853785E+02  0.49389197123E+03 -0.82693543977E+03  0.96343793509E+03  0.46999998093E+01 0.  1.
</event>
<event>
 5   0  0.5584205E-06  0.2816211E+04  0.7818609E-02  0.8298253E-01
        2   -1    0    0  501    0  0.00000000000E+00  0.00000000000E+00  0.18098849942E+04  0.18098849942E+04  0.25500000920E-02 0. -1.
       -2   -1    0    0    0  501  0.00000000000E+00  0.00000000000E+00 -0.10955179272E+04  0.10955179272E+04  0.25500000920E-02 0.  1.
    10030    2    1    2    0    0  0.00000000000E+00  0.00000000000E+00  0.71436706700E+03  0.29054029213E+04  0.28162112543E+04 0.  0.
        1    1    3    3  502    0  0.12088481320E+04  0.20846423922E+03  0.10704481601E+04  0.16280756766E+04  0.50400001928E-02 0. -1.
       -1    1    3    3    0  502 -0.12088481320E+04 -0.20846423922E+03 -0.35608109307E+03  0.12773272447E+04  0.50400001928E-02 0.  1.
</event>
<event>
 5   0  0.2190865E-06  0.2820933E+04  0.7818609E-02  0.8296799E-01
       -1   -1    0    0    0  501  0.00000000000E+00  0.00000000000E+00  0.13838792097E+04  0.13838792097E+04  0.50400001928E-02 0. -1.
        1   -1    0    0  501    0  0.00000000000E+00  0.00000000000E+00 -0.14375644388E+04  0.14375644388E+04  0.50400001928E-02 0.  1.
    10030    2    1    2    0    0  0.00000000000E+00  0.00000000000E+00 -0.53685229085E+02  0.28214436485E+04  0.28209328525E+04 0.  0.
        2    1    3    3  502    0  0.30597786572E+03  0.14729500256E+03 -0.13960672226E+04  0.14367748474E+04  0.25500000920E-02 0.  1.
       -2    1    3    3    0  502 -0.30597786572E+03 -0.14729500256E+03  0.13423819936E+04  0.13846688011E+04  0.25500000920E-02 0. -1.
</event>
<event>
 5   0  0.2206967E-06  0.2808536E+04  0.7818609E-02  0.8300623E-01
        1   -1    0    0  501    0  0.00000000000E+00  0.00000000000E+00  0.25096231046E+04  0.25096231046E+04  0.50400001928E-02 0.  1.
       -1   -1    0    0    0  501  0.00000000000E+00  0.00000000000E+00 -0.78576259266E+03  0.78576259268E+03  0.50400001928E-02 0. -1.
    10030    2    1    2    0    0  0.00000000000E+00  0.00000000000E+00  0.17238605120E+04  0.32953856973E+04  0.28085355311E+04 0.  0.
        5    1    3    3  502    0 -0.52559659124E+03  0.88098618686E+03 -0.26323356341E+03  0.10591045449E+04  0.46999998093E+01 0. -1.
       -5    1    3    3    0  502  0.52559659124E+03 -0.88098618686E+03  0.19870940754E+04  0.22362811524E+04  0.46999998093E+01 0.  1.
</event>
<event>
 5   0  0.5625245E-06  0.2693485E+04  0.7818609E-02  0.8337122E-01
       -2   -1    0    0    0  501  0.00000000000E+00  0.00000000000E+00  0.86472611534E+03  0.86472611534E+03  0.25500000920E-02 0. -1.
        2   -1    0    0  501    0  0.00000000000E+00  0.00000000000E+00 -0.20974451779E+04  0.20974451779E+04  0.25500000920E-02 0.  1.
    10030    2    1    2    0    0  0.00000000000E+00  0.00000000000E+00 -0.12327190626E+04  0.29621712933E+04  0.26934851927E+04 0.  0.
        3    1    3    3  502    0 -0.47661093553E+03  0.20073132100E+03  0.75117240714E+03  0.91198193105E+03  0.10100000352E+00 0. -1.
       -3    1    3    3    0  502  0.47661093553E+03 -0.20073132100E+03 -0.19838914697E+04  0.20501893622E+04  0.10100000352E+00 0.  1.
</event>
<event>
 5   0  0.5584205E-06  0.2789541E+04  0.7818609E-02  0.8306523E-01
        2   -1    0    0  501    0  0.00000000000E+00  0.00000000000E+00  0.21138286598E+04  0.21138286598E+04  0.25500000920E-02 0.  1.
       -2   -1    0    0    0  501  0.00000000000E+00  0.00000000000E+00 -0.92031355177E+03  0.92031355177E+03  0.25500000920E-02 0. -1.
    10030    2    1    2    0    0  0.00000000000E+00  0.00000000000E+00  0.11935151080E+04  0.30341422116E+04  0.27895412969E+04 0.  0.
        1    1    3    3  502    0 -0.64341709563E+02  0.10460140108E+04  0.15978414544E+04  0.19108590947E+04  0.50400001928E-02 0.  1.
       -1    1    3    3    0  502  0.64341709563E+02 -0.10460140108E+04 -0.40432634636E+03  0.11232831169E+04  0.50400001928E-02 0. -1.
</event>
<event>
 5   0  0.1901375E-06  0.2774309E+04  0.7818609E-02  0.8311289E-01
        3   -1    0    0  501    0  0.00000000000E+00  0.00000000000E+00  0.20155461552E+04  0.20155461577E+04  0.10100000352E+00 0.  1.
       -3   -1    0    0    0  501  0.00000000000E+00  0.00000000000E+00 -0.95467783122E+03  0.95467783657E+03  0.10100000352E+00 0. -1.
    10030    2    1    2    0    0  0.00000000000E+00  0.00000000000E+00  0.10608683240E+04  0.29702239943E+04  0.27743087383E+04 0.  0.
        5    1    3    3  502    0  0.52157438463E+03  0.12809647744E+04  0.64406378549E+03  0.15256968380E+04  0.46999998093E+01 0. -1.
       -5    1    3    3    0  502 -0.52157438463E+03 -0.12809647744E+04  0.41680453849E+03  0.14445271563E+04  0.46999998093E+01 0.  1.
</event>
<event>
 5   0  0.2190865E-06  0.2782080E+04  0.7818609E-02  0.8308853E-01
       -1   -1    0    0    0  501  0.00000000000E+00  0.00000000000E+00  0.76261509466E+03  0.76261509468E+03  0.50400001928E-02 0. -1.
        1   -1    0    0  501    0  0.00000000000E+00  0.00000000000E+00 -0.25373123344E+04  0.25373123344E+04  0.50400001928E-02 0.  1.
    10030    2    1    2    0    0  0.00000000000E+00  0.00000000000E+00 -0.17746972398E+04  0.32999274291E+04  0.27820802908E+04 0.  0.
        2    1    3    3  502    0  0.55081468728E+03  0.11195740133E+04 -0.15794700294E+03  0.12576923498E+04  0.25500000920E-02 0. -1.
       -2    1    3    3    0  502 -0.55081468728E+03 -0.11195740133E+04 -0.16167502368E+04  0.20422350793E+04  0.25500000920E-02 0.  1.
</event>
<event>
 5   0  0.2206967E-06  0.2781104E+04  0.7818609E-02  0.8309159E-01
        1   -1    0    0  501    0  0.00000000000E+00  0.00000000000E+00  0.12417972309E+04  0.12417972309E+04  0.50400001928E-02 0.  1.
       -1   -1    0    0    0  501  0.00000000000E+00  0.00000000000E+00 -0.15571256029E+04  0.15571256029E+04  0.50400001928E-02 0. -1.
    10030    2    1    2    0    0  0.00000000000E+00  0.00000000000E+00 -0.31532837201E+03  0.27989228338E+04  0.27811035665E+04 0.  0.
        5    1    3    3  502    0 -0.32702723746E+03 -0.27861252949E+03  0.11733224218E+04  0.12495116451E+04  0.46999998093E+01 0.  1.
       -5    1    3    3    0  502  0.32702723746E+03  0.27861252949E+03 -0.14886507939E+04  0.15494111887E+04  0.46999998093E+01 0. -1.
</event>
<event>
 5   0  0.2190865E-06  0.2812953E+04  0.7818609E-02  0.8299258E-01
        1   -1    0    0  501    0  0.00000000000E+00  0.00000000000E+00  0.12401847038E+04  0.12401847038E+04  0.50400001928E-02 0.  1.
       -1   -1    0    0    0  501  0.00000000000E+00  0.00000000000E+00 -0.15950653778E+04  0.15950653778E+04  0.50400001928E-02 0. -1.
    10030    2    1    2    0    0  0.00000000000E+00  0.00000000000E+00 -0.35488067403E+03  0.28352500816E+04  0.28129526715E+04 0.  0.
        2    1    3    3  502    0 -0.68865150343E+03 -0.10431862158E+04 -0.82729696541E+03  0.14989658579E+04  0.25500000920E-02 0. -1.
       -2    1    3    3    0  502  0.68865150343E+03  0.10431862158E+04  0.47241629138E+03  0.13362842237E+04  0.25500000920E-02 0.  1.
</event>
<event>
 5   0  0.2206967E-06  0.2840025E+04  0.7818609E-02  0.8290949E-01
        1   -1    0    0  501    0  0.00000000000E+00  0.00000000000E+00  0.71633996207E+03  0.71633996209E+03  0.50400001928E-02 0.  1.
       -1   -1    0    0    0  501  0.00000000000E+00  0.00000000000E+00 -0.28149147853E+04  0.28149147853E+04  0.50400001928E-02 0. -1.
    10030    2    1    2    0    0  0.00000000000E+00  0.00000000000E+00 -0.20985748232E+04  0.35312547474E+04  0.28400253172E+04 0.  0.
        5    1    3    3  502    0 -0.32210778351E+03 -0.62649675702E+03 -0.25823214906E+04  0.26766878753E+04  0.46999998093E+01 0. -1.
       -5    1    3    3    0  502  0.32210778351E+03  0.62649675702E+03  0.48374666737E+03  0.85456687213E+03  0.46999998093E+01 0.  1.
</event>
<event>
 5   0  0.2190865E-06  0.2804132E+04  0.7818609E-02  0.8301987E-01
        1   -1    0    0  501    0  0.00000000000E+00  0.00000000000E+00  0.15471802216E+04  0.15471802216E+04  0.50400001928E-02 0.  1.
       -1   -1    0    0    0  501  0.00000000000E+00  0.00000000000E+00 -0.12705626519E+04  0.12705626519E+04  0.50400001928E-02 0. -1.
    10030    2    1    2    0    0  0.00000000000E+00  0.00000000000E+00  0.27661756964E+03  0.28177428735E+04  0.28041322403E+04 0.  0.
        2    1    3    3  502    0 -0.40283165286E+03 -0.79095008657E+03  0.12288941508E+04  0.15159341060E+04  0.25500000920E-02 0.  1.
       -2    1    3    3    0  502  0.40283165286E+03  0.79095008657E+03 -0.95227658114E+03  0.13018087674E+04  0.25500000920E-02 0. -1.
</event>
<event>
 5   0  0.5625245E-06  0.2687393E+04  0.7818609E-02  0.8339107E-01
       -2   -1    0    0    0  501  0.00000000000E+00  0.00000000000E+00  0.15414893978E+04  0.15414893978E+04  0.25500000920E-02 0. -1.
        2   -1    0    0  501    0  0.00000000000E+00  0.00000000000E+00 -0.11712827750E+04  0.11712827750E+04  0.25500000920E-02 0.  1.
    10030    2    1    2    0    0  0.00000000000E+00  0.00000000000E+00  0.37020662276E+03  0.27127721728E+04  0.26873927733E+04 0.  0.
        3    1    3    3  502    0 -0.39103707315E+03  0.12374958612E+04 -0.16634261616E+03  0.13084249597E+04  0.10100000352E+00 0.  1.
       -3    1    3    3    0  502  0.39103707315E+03 -0.12374958612E+04  0.53654923892E+03  0.14043472131E+04  0.10100000352E+00 0. -1.
</event>
<event>
 5   0  0.5916603E-06  0.2790590E+04  0.7818609E-02  0.8306196E-01
        2   -1    0    0  501    0  0.00000000000E+00  0.00000000000E+00  0.24714449938E+04  0.24714449938E+04  0.25500000920E-02 0. -1.
       -2   -1    0    0    0  501  0.00000000000E+00  0.00000000000E+00 -0.78773652704E+03  0.78773652705E+03  0.25500000920E-02 0.  1.
    10030    2    1    2    0    0  0.00000000000E+00  0.00000000000E+00  0.16837084667E+04  0.32591815208E+04  0.27905895407E+04 0.  0.
        2    1    3    3  502    0 -0.64476079219E+03 -0.74824288879E+03 -0.30916118921E+03  0.10349707922E+04  0.25500000920E-02 0.  1.
       -2    1    3    3    0  502  0.64476079219E+03  0.74824288879E+03  0.19928696559E+04  0.22242107286E+04  0.25500000920E-02 0. -1.
</event>
<event>
 5   0  0.5584205E-06  0.2860739E+04  0.7818609E-02  0.8284655E-01
        2   -1    0    0  501    0  0.00000000000E+00  0.00000000000E+00  0.18103892501E+04  0.18103892501E+04  0.25500000920E-02 0. -1.
       -2   -1    0    0    0  501  0.00000000000E+00  0.00000000000E+00 -0.11301202223E+04  0.11301202223E+04  0.25500000920E-02 0.  1.
    10030    2    1    2    0    0  0.00000000000E+00  0.00000000000E+00  0.68026902782E+03  0.29405094724E+04  0.28607394161E+04 0.  0.
        1    1    3    3  502    0  0.53284635770E+03  0.14942390048E+03  0.16958921481E+04  0.17839010402E+04  0.50400001928E-02 0. -1.
       -1    1    3    3    0  502 -0.53284635770E+03 -0.14942390048E+03 -0.10156231203E+04  0.11566084322E+04  0.50400001928E-02 0.  1.
</event>
<event>
 5   0  0.2190865E-06  0.2802857E+04  0.7818609E-02  0.8302382E-01
        1   -1    0    0  501    0  0.00000000000E+00  0.00000000000E+00  0.14120540372E+04  0.14120540372E+04  0.50400001928E-02 0.  1.
       -1   -1    0    0    0  501  0.00000000000E+00  0.00000000000E+00 -0.13908833921E+04  0.13908833921E+04  0.50400001928E-02 0. -1.
    10030    2    1    2    0    0  0.00000000000E+00  0.00000000000E+00  0.21170645095E+02  0.28029374293E+04  0.28028574770E+04 0.  0.
        2    1    3    3  502    0 -0.12587279214E+04  0.58282349186E+03  0.21039919586E+03  0.14029779130E+04  0.25500000920E-02 0.  1.
       -2    1    3    3    0  502  0.12587279214E+04 -0.58282349186E+03 -0.18922855077E+03  0.13999595163E+04  0.25500000920E-02 0. -1.
</event>
<event>
 5   0  0.5546570E-06  0.2753124E+04  0.7818609E-02  0.8317971E-01
        2   -1    0    0  501    0  0.00000000000E+00  0.00000000000E+00  0.20522896607E+04  0.20522896607E+04  0.25500000920E-02 0. -1.
       -2   -1    0    0    0  501  0.00000000000E+00  0.00000000000E+00 -0.92332149017E+03  0.92332149017E+03  0.25500000920E-02 0.  1.
    10030    2    1    2    0    0  0.00000000000E+00  0.00000000000E+00  0.11289681706E+04  0.29756111509E+04  0.27531241511E+04 0.  0.
        4    1    3    3  502    0  0.11884331510E+04  0.67847576792E+03  0.40337842238E+03  0.14266809337E+04  0.12699999809E+01 0. -1.
       -4    1    3    3    0  502 -0.11884331510E+04 -0.67847576792E+03  0.72558974818E+03  0.15489302172E+04  0.12699999809E+01 0.  1.
</event>
<event>
 5   0  0.2277133E-06  0.2790809E+04  0.7818609E-02  0.8306127E-01
       -1   -1    0    0    0  501  0.00000000000E+00  0.00000000000E+00  0.25522127548E+04  0.25522127548E+04  0.50400001928E-02 0. -1.
        1   -1    0    0  501    0  0.00000000000E+00  0.00000000000E+00 -0.76292775705E+03  0.76292775707E+03  0.50400001928E-02 0.  1.
    10030    2    1    2    0    0  0.00000000000E+00  0.00000000000E+00  0.17892849978E+04  0.33151405119E+04  0.27908091677E+04 0.  0.
        1    1    3    3  502    0  0.32916335369E+02 -0.28898814042E+03  0.25158048406E+04  0.25325622651E+04  0.50400001928E-02 0. -1.
       -1    1    3    3    0  502 -0.32916335369E+02  0.28898814042E+03 -0.72651984280E+03  0.78257824685E+03  0.50400001928E-02 0.  1.
</event>
<event>
 5   0  0.2267565E-06  0.2758599E+04  0.7818609E-02  0.8316238E-01
       -1   -1    0    0    0  501  0.00000000000E+00  0.00000000000E+00  0.18049822903E+04  0.18049822903E+04  0.50400001928E-02 0. -1.
        1   -1    0    0  501    0  0.00000000000E+00  0.00000000000E+00 -0.10540083912E+04  0.10540083912E+04  0.50400001928E-02 0.  1.
    10030    2    1    2    0    0  0.00000000000E+00  0.00000000000E+00  0.75097389910E+03  0.28589906815E+04  0.27585985427E+04 0.  0.
        4    1    3    3  502    0 -0.27062448421E+03  0.13523726221E+04  0.39389703996E+03  0.14343311373E+04  0.12699999809E+01 0.  1.
       -4    1    3    3    0  502  0.27062448421E+03 -0.13523726221E+04  0.35707685914E+03  0.14246595442E+04  0.12699999809E+01 0. -1.
</event>
<event>
 5   0  0.5625245E-06  0.2782155E+04  0.7818609E-02  0.8308830E-01
        2   -1    0    0  501    0  0.00000000000E+00  0.00000000000E+00  0.11147953486E+04  0.11147953486E+04  0.25500000920E-02 0. -1.
       -2   -1    0    0    0  501  0.00000000000E+00  0.00000000000E+00 -0.17358312364E+04  0.17358312364E+04  0.25500000920E-02 0.  1.
    10030    2    1    2    0    0  0.00000000000E+00  0.00000000000E+00 -0.62103588786E+03  0.28506265850E+04  0.27821549837E+04 0.  0.
        3    1    3    3  502    0  0.48486603094E+03 -0.84519840952E+03 -0.13277462276E+04  0.16469260683E+04  0.10100000352E+00 0.  1.
       -3    1    3    3    0  502 -0.48486603094E+03  0.84519840952E+03  0.70671033973E+03  0.12037005167E+04  0.10100000352E+00 0. -1.
</event>
<event>
 5   0  0.2206967E-06  0.2808673E+04  0.7818609E-02  0.8300581E-01
        1   -1    0    0  501    0  0.00000000000E+00  0.00000000000E+00  0.14897350551E+04  0.14897350551E+04  0.50400001928E-02 0. -1.
       -1   -1    0    0    0  501  0.00000000000E+00  0.00000000000E+00 -0.13238333132E+04  0.13238333132E+04  0.50400001928E-02 0.  1.
    10030    2    1    2    0    0  0.00000000000E+00  0.00000000000E+00  0.16590174187E+03  0.28135683683E+04  0.28086729206E+04 0.  0.
        5    1    3    3  502    0 -0.13378644664E+04 -0.16331479487E+03  0.47808197335E+03  0.14300830451E+04  0.46999998093E+01 0. -1.
       -5    1    3    3    0  502  0.13378644664E+04  0.16331479487E+03 -0.31218023149E+03  0.13834853232E+04  0.46999998093E+01 0.  1.
</event>
<event>
 5   0  0.5625245E-06  0.2786888E+04  0.7818609E-02  0.8307351E-01
       -2   -1    0    0    0  501  0.00000000000E+00  0.00000000000E+00  0.94465762420E+03  0.94465762420E+03  0.25500000920E-02 0. -1.
        2   -1    0    0  501    0  0.00000000000E+00  0.00000000000E+00 -0.20554386133E+04  0.20554386133E+04  0.25500000920E-02 0.  1.
    10030    2    1    2    0    0  0.00000000000E+00  0.00000000000E+00 -0.11107809891E+04  0.30000962375E+04  0.27868876957E+04 0.  0.
        3    1    3    3  502    0  0.73004980661E+03  0.11735112764E+04 -0.36407443769E+03  0.14292136448E+04  0.10100000352E+00 0. -1.
       -3    1    3    3    0  502 -0.73004980661E+03 -0.11735112764E+04 -0.74670655142E+03  0.15708825927E+04  0.10100000352E+00 0.  1.
</event>
<event>
 5   0  0.2267565E-06  0.2827423E+04  0.7818609E-02  0.8294805E-01
       -1   -1    0    0    0  501  0.00000000000E+00  0.00000000000E+00  0.32190834817E+04  0.32190834817E+04  0.50400001928E-02 0. -1.
        1   -1    0    0  501    0  0.00000000000E+00  0.00000000000E+00 -0.62085387440E+03  0.62085387442E+03  0.50400001928E-02 0.  1.
    10030    2    1    2    0    0  0.00000000000E+00  0.00000000000E+00  0.25982296073E+04  0.38399373561E+04  0.28274231743E+04 0.  0.
        4    1    3    3  502    0 -0.97253677437E+03  0.99876119409E+03  0.16182756417E+04  0.21359235393E+04  0.12699999809E+01 0. -1.
       -4    1    3    3    0  502  0.97253677437E+03 -0.99876119409E+03  0.97995396559E+03  0.17040138168E+04  0.12699999809E+01 0.  1.
</event>
<event>
 5   0  0.2206967E-06  0.2799665E+04  0.7818609E-02  0.8303372E-01
       -1   -1    0    0    0  501  0.00000000000E+00  0.00000000000E+00  0.83760537010E+03  0.83760537011E+03  0.50400001928E-02 0.  1.
        1   -1    0    0  501    0  0.00000000000E+00  0.00000000000E+00 -0.23394445440E+04  0.23394445440E+04  0.50400001928E-02 0. -1.
    10030    2    1    2    0    0  0.00000000000E+00  0.00000000000E+00 -0.15018391739E+04  0.31770499141E+04  0.27996652036E+04 0.  0.
        5    1    3    3  502    0  0.78883574252E+03 -0.29513657191E+03  0.51789328665E+03  0.98873807003E+03  0.46999998093E+01 0.  1.
       -5    1    3    3    0  502 -0.78883574252E+03  0.29513657191E+03 -0.20197324605E+04  0.21883118441E+04  0.46999998093E+01 0. -1.
</event>
<event>
 5   0  0.5866136E-06  0.2810965E+04  0.7818609E-02  0.8299872E-01
       -2   -1    0    0    0  501  0.00000000000E+00  0.00000000000E+00  0.75431190416E+03  0.75431190416E+03  0.25500000920E-02 0. -1.
        2   -1    0    0  501    0  0.00000000000E+00  0.00000000000E+00 -0.26187852012E+04  0.26187852012E+04  0.25500000920E-02 0.  1.
    10030    2    1    2    0    0  0.00000000000E+00  0.00000000000E+00 -0.18644732970E+04  0.33730971054E+04  0.28109648534E+04 0.  0.
        5    1    3    3  502    0 -0.72219750647E+03 -0.11258180030E+04 -0.14502095832E+04  0.19728571513E+04  0.46999998093E+01 0. -1.
       -5    1    3    3    0  502  0.72219750647E+03  0.11258180030E+04 -0.41426371382E+03  0.14002399540E+04  0.46999998093E+01 0.  1.
</event>
<event>
 5   0  0.2277133E-06  0.2801687E+04  0.7818609E-02  0.8302745E-01
       -1   -1    0    0    0  501  0.00000000000E+00  0.00000000000E+00  0.20272802910E+04  0.20272802910E+04  0.50400001928E-02 0. -1.
        1   -1    0    0  501    0  0.00000000000E+00  0.00000000000E+00 -0.96797760149E+03  0.96797760150E+03  0.50400001928E-02 0.  1.
    10030    2    1    2    0    0  0.00000000000E+00  0.00000000000E+00  0.10593026896E+04  0.29952578926E+04  0.28016865733E+04 0.  0.
        1    1    3    3  502    0 -0.13896139918E+04  0.69761069092E+02  0.70358249704E+03  0.15591414250E+04  0.50400001928E-02 0.  1.
       -1    1    3    3    0  502  0.13896139918E+04 -0.69761069092E+02  0.35572019252E+03  0.14361164676E+04  0.50400001928E-02 0. -1.
</event>
<event>
 5   0  0.5866136E-06  0.2840138E+04  0.7818609E-02  0.8290914E-01
        2   -1    0    0  501    0  0.00000000000E+00  0.00000000000E+00  0.16076821846E+04  0.16076821846E+04  0.25500000920E-02 0. -1.
       -2   -1    0    0    0  501  0.00000000000E+00  0.00000000000E+00 -0.12543498425E+04  0.12543498425E+04  0.25500000920E-02 0.  1.
    10030    2    1    2    0    0  0.00000000000E+00  0.00000000000E+00  0.35333234212E+03  0.28620320272E+04  0.28401379510E+04 0.  0.
        5    1    3    3  502    0 -0.91399962140E+03 -0.99315693109E+03  0.62145040021E+03  0.14859268783E+04  0.46999998093E+01 0. -1.
       -5    1    3    3    0  502  0.91399962140E+03  0.99315693109E+03 -0.26811805809E+03  0.13761051489E+04  0.46999998093E+01 0.  1.
</event>
<event>
 5   0  0.2190865E-06  0.2798658E+04  0.7818609E-02  0.8303685E-01
        1   -1    0    0  501    0  0.00000000000E+00  0.00000000000E+00  0.95663246458E+03  0.95663246459E+03  0.50400001928E-02 0.  1.
       -1   -1    0    0    0  501  0.00000000000E+00  0.00000000000E+00 -0.20468903941E+04  0.20468903941E+04  0.50400001928E-02 0. -1.
    10030    2    1    2    0    0  0.00000000000E+00  0.00000000000E+00 -0.10902579295E+04  0.30035228587E+04  0.27986581087E+04 0.  0.
        2    1    3    3  502    0 -0.85177211529E+03  0.95416061752E+03  0.64033025867E+02  0.12806398591E+04  0.25500000920E-02 0.  1.
       -2    1    3    3    0  502  0.85177211529E+03 -0.95416061752E+03 -0.11542909554E+04  0.17228829995E+04  0.25500000920E-02 0. -1.
</event>
<event>
 5   0  0.2234068E-06  0.2763265E+04  0.7818609E-02  0.8314765E-01
       -1   -1    0    0    0  501  0.00000000000E+00  0.00000000000E+00  0.13081909538E+04  0.13081909538E+04  0.50400001928E-02 0. -1.
        1   -1    0    0  501    0  0.00000000000E+00  0.00000000000E+00 -0.14591968862E+04  0.14591968862E+04  0.50400001928E-02 0.  1.
    10030    2    1    2    0    0  0.00000000000E+00  0.00000000000E+00 -0.15100593242E+03  0.27673878400E+04  0.27632648561E+04 0.  0.
        3    1    3    3  502    0 -0.83305560198E+03  0.81523299388E+03  0.66744060340E+03  0.13431542873E+04  0.10100000352E+00 0. -1.
       -3    1    3    3    0  502  0.83305560198E+03 -0.81523299388E+03 -0.81844653581E+03  0.14242335526E+04  0.10100000352E+00 0.  1.
</event>
<event>
 5   0  0.2206967E-06  0.2790887E+04  0.7818609E-02  0.8306103E-01
        1   -1    0    0  501    0  0.00000000000E+00  0.00000000000E+00  0.19690550297E+04  0.19690550297E+04  0.50400001928E-02 0. -1.
       -1   -1    0    0    0  501  0.00000000000E+00  0.00000000000E+00 -0.98893228270E+03  0.98893228272E+03  0.50400001928E-02 0.  1.
    10030    2    1    2    0    0  0.00000000000E+00  0.00000000000E+00  0.98012274696E+03  0.29579873124E+04  0.27908866586E+04 0.  0.
        5    1    3    3  502    0  0.14423887008E+02  0.13501077295E+04  0.86364401681E+03  0.16027794632E+04  0.46999998093E+01 0. -1.
       -5    1    3    3    0  502 -0.14423887008E+02 -0.13501077295E+04  0.11647873015E+03  0.13552078492E+04  0.46999998093E+01 0.  1.
</event>
<event>
 5   0  0.5916603E-06  0.2811678E+04  0.7818609E-02  0.8299652E-01
       -2   -1    0    0    0  501  0.00000000000E+00  0.00000000000E+00  0.11885786220E+04  0.11885786220E+04  0.25500000920E-02 0. -1.
        2   -1    0    0  501    0  0.00000000000E+00  0.00000000000E+00 -0.16628122328E+04  0.16628122328E+04  0.25500000920E-02 0.  1.
    10030    2    1    2    0    0  0.00000000000E+00  0.00000000000E+00 -0.47423361079E+03  0.28513908548E+04  0.28116778423E+04 0.  0.
        2    1    3    3  502    0 -0.74329790405E+03 -0.66169582716E+03  0.76990911058E+03  0.12582103085E+04  0.25500000920E-02 0. -1.
       -2    1    3    3    0  502  0.74329790405E+03  0.66169582716E+03 -0.12441427214E+04  0.15931805463E+04  0.25500000920E-02 0.  1.
</event>
<event>
 5   0  0.5584205E-06  0.2782047E+04  0.7818609E-02  0.8308864E-01
       -2   -1    0    0    0  501  0.00000000000E+00  0.00000000000E+00  0.12389467305E+04  0.12389467305E+04  0.25500000920E-02 0.  1.
        2   -1    0    0  501    0  0.00000000000E+00  0.00000000000E+00 -0.15617666897E+04  0.15617666897E+04  0.25500000920E-02 0. -1.
    10030    2    1    2    0    0  0.00000000000E+00  0.00000000000E+00 -0.32281995922E+03  0.28007134202E+04  0.27820465374E+04 0.  0.
        1    1    3    3  502    0  0.12787000922E+04  0.12102147516E+03 -0.69905860677E+03  0.14623279588E+04  0.50400001928E-02 0. -1.
       -1    1    3    3    0  502 -0.12787000922E+04 -0.12102147516E+03  0.37623864755E+03  0.13383854614E+04  0.50400001928E-02 0.  1.
</event>
<event>
 5   0  0.2277133E-06  0.2593522E+04  0.7818609E-02  0.8370405E-01
        1   -1    0    0  501    0  0.00000000000E+00  0.00000000000E+00  0.16178817133E+04  0.16178817133E+04  0.50400001928E-02 0.  1.
       -1   -1    0    0    0  501  0.00000000000E+00  0.00000000000E+00 -0.10393768431E+04  0.10393768431E+04  0.50400001928E-02 0. -1.
    10030    2    1    2    0    0  0.00000000000E+00  0.00000000000E+00  0.57850487025E+03  0.26572585564E+04  0.25935217660E+04 0.  0.
        1    1    3    3  502    0  0.31201963690E+03 -0.45891229821E+03 -0.91157091043E+03  0.10672011413E+04  0.50400001928E-02 0. -1.
       -1    1    3    3    0  502 -0.31201963690E+03  0.45891229821E+03  0.14900757807E+04  0.15900574151E+04  0.50400001928E-02 0.  1.
</event>
<event>
 5   0  0.2234068E-06  0.2788206E+04  0.7818609E-02  0.8306939E-01
        1   -1    0    0  501    0  0.00000000000E+00  0.00000000000E+00  0.14428609714E+04  0.14428609714E+04  0.50400001928E-02 0.  1.
       -1   -1    0    0    0  501  0.00000000000E+00  0.00000000000E+00 -0.13469931272E+04  0.13469931272E+04  0.50400001928E-02 0. -1.
    10030    2    1    2    0    0  0.00000000000E+00  0.00000000000E+00  0.95867844195E+02  0.27898540987E+04  0.27882064573E+04 0.  0.
        3    1    3    3  502    0  0.99943378543E+03  0.95838560638E+03 -0.11388034891E+03  0.13893666205E+04  0.10100000352E+00 0. -1.
       -3    1    3    3    0  502 -0.99943378543E+03 -0.95838560638E+03  0.20974819310E+03  0.14004874782E+04  0.10100000352E+00 0.  1.
</event>
<event>
 5   0  0.2234068E-06  0.2950610E+04  0.7818609E-02  0.8257977E-01
        1   -1    0    0  501    0  0.00000000000E+00  0.00000000000E+00  0.13770897374E+04  0.13770897374E+04  0.50400001928E-02 0.  1.
       -1   -1    0    0    0  501  0.00000000000E+00  0.00000000000E+00 -0.15805251487E+04  0.15805251487E+04  0.50400001928E-02 0. -1.
    10030    2    1    2    0    0  0.00000000000E+00  0.00000000000E+00 -0.20343541130E+03  0.29576148861E+04  0.29506100806E+04 0.  0.
        3    1    3    3  502    0  0.12487452244E+04  0.27538510189E+03 -0.83921118845E+03  0.15295349028E+04  0.10100000352E+00 0. -1.
       -3    1    3    3    0  502 -0.12487452244E+04 -0.27538510189E+03  0.63577577715E+03  0.14280799833E+04  0.10100000352E+00 0.  1.
</event>
<event>
 5   0  0.2267565E-06  0.2790835E+04  0.7818609E-02  0.8306119E-01
        1   -1    0    0  501    0  0.00000000000E+00  0.00000000000E+00  0.14493354633E+04  0.14493354633E+04  0.50400001928E-02 0.  1.
       -1   -1    0    0    0  501  0.00000000000E+00  0.00000000000E+00 -0.13435053736E+04  0.13435053736E+04  0.50400001928E-02 0. -1.
    10030    2    1    2    0    0  0.00000000000E+00  0.00000000000E+00  0.10583008970E+03  0.27928408369E+04  0.27908349883E+04 0.  0.
        4    1    3    3  502    0 -0.17563176650E+02 -0.13324738845E+04 -0.36137918697E+03  0.13807214229E+04  0.12699999809E+01 0. -1.
       -4    1    3    3    0  502  0.17563176650E+02  0.13324738845E+04  0.46720927666E+03  0.14121194139E+04  0.12699999809E+01 0.  1.
</event>
<event>
 5   0  0.5584205E-06  0.2788868E+04  0.7818609E-02  0.8306733E-01
        2   -1    0    0  501    0  0.00000000000E+00  0.00000000000E+00  0.18216543163E+04  0.18216543163E+04  0.25500000920E-02 0. -1.
       -2   -1    0    0    0  501  0.00000000000E+00  0.00000000000E+00 -0.10674064092E+04  0.10674064092E+04  0.25500000920E-02 0.  1.
    10030    2    1    2    0    0  0.00000000000E+00  0.00000000000E+00  0.75424790714E+03  0.28890607255E+04  0.27888675068E+04 0.  0.
        1    1    3    3  502    0 -0.52305661374E+03  0.41349525783E+03 -0.89157006443E+03  0.11133120538E+04  0.50400001928E-02 0.  1.
       -1    1    3    3    0  502  0.52305661374E+03 -0.41349525783E+03  0.16458179716E+04  0.17757486717E+04  0.50400001928E-02 0. -1.
</event>
<event>
 5   0  0.5625245E-06  0.2825129E+04  0.7818609E-02  0.8295509E-01
        2   -1    0    0  501    0  0.00000000000E+00  0.00000000000E+00  0.15605593903E+04  0.15605593903E+04  0.25500000920E-02 0.  1.
       -2   -1    0    0    0  501  0.00000000000E+00  0.00000000000E+00 -0.12786049306E+04  0.12786049306E+04  0.25500000920E-02 0. -1.
    10030    2    1    2    0    0  0.00000000000E+00  0.00000000000E+00  0.28195445961E+03  0.28391643209E+04  0.28251293287E+04 0.  0.
        3    1    3    3  502    0  0.44698843656E+02  0.34229422479E+03 -0.12355630894E+04  0.12828793712E+04  0.10100000352E+00 0. -1.
       -3    1    3    3    0  502 -0.44698843656E+02 -0.34229422479E+03  0.15175175490E+04  0.15562849497E+04  0.10100000352E+00 0.  1.
</event>
<event>
 5   0  0.2234068E-06  0.2801549E+04  0.7818609E-02  0.8302787E-01
        1   -1    0    0  501    0  0.00000000000E+00  0.00000000000E+00  0.18549238193E+04  0.18549238193E+04  0.50400001928E-02 0.  1.
       -1   -1    0    0    0  501  0.00000000000E+00  0.00000000000E+00 -0.10578169042E+04  0.10578169043E+04  0.50400001928E-02 0. -1.
    10030    2    1    2    0    0  0.00000000000E+00  0.00000000000E+00  0.79710691509E+03  0.29127407236E+04  0.28015494086E+04 0.  0.
        3    1    3    3  502    0  0.96835541727E+03 -0.99511660488E+03  0.20627983484E+03  0.14037523471E+04  0.10100000352E+00 0.  1.
       -3    1    3    3    0  502 -0.96835541727E+03  0.99511660488E+03  0.59082708024E+03  0.15089883765E+04  0.10100000352E+00 0. -1.
</event>
<event>
 5   0  0.5546570E-06  0.2729653E+04  0.7818609E-02  0.8325447E-01
        2   -1    0    0  501    0  0.00000000000E+00  0.00000000000E+00  0.12561249390E+04  0.12561249390E+04  0.25500000920E-02 0. -1.
       -2   -1    0    0    0  501  0.00000000000E+00  0.00000000000E+00 -0.14829350889E+04  0.14829350889E+04  0.25500000920E-02 0.  1.
    10030    2    1    2    0    0  0.00000000000E+00  0.00000000000E+00 -0.22681014983E+03  0.27390600279E+04  0.27296532733E+04 0.  0.
        4    1    3    3  502    0 -0.36610746468E+03 -0.11288230788E+04  0.56306493242E+03  0.13135143509E+04  0.12699999809E+01 0. -1.
       -4    1    3    3    0  502  0.36610746468E+03  0.11288230788E+04 -0.78987508226E+03  0.14255456771E+04  0.12699999809E+01 0.  1.
</event>
<event>
 5   0  0.2234068E-06  0.2735783E+04  0.7818609E-02  0.8323487E-01
       -1   -1    0    0    0  501  0.00000000000E+00  0.00000000000E+00  0.16237502337E+04  0.16237502337E+04  0.50400001928E-02 0.  1.
        1   -1    0    0  501    0  0.00000000000E+00  0.00000000000E+00 -0.11523494049E+04  0.11523494049E+04  0.50400001928E-02 0. -1.
    10030    2    1    2    0    0  0.00000000000E+00  0.00000000000E+00  0.47140082880E+03  0.27760996387E+04  0.27357833362E+04 0.  0.
        3    1    3    3  502    0  0.98390029569E+02 -0.10887789950E+03 -0.11443386833E+04  0.11537096806E+04  0.10100000352E+00 0. -1.
       -3    1    3    3    0  502 -0.98390029569E+02  0.10887789950E+03  0.16157395121E+04  0.16223899580E+04  0.10100000352E+00 0.  1.
</event>
<event>
 5   0  0.2234068E-06  0.2794485E+04  0.7818609E-02  0.8304982E-01
       -1   -1    0    0    0  501  0.00000000000E+00  0.00000000000E+00  0.14401891843E+04  0.14401891843E+04  0.50400001928E-02 0. -1.
        1   -1    0    0  501    0  0.00000000000E+00  0.00000000000E+00 -0.13555769422E+04  0.13555769422E+04  0.50400001928E-02 0.  1.
    10030    2    1    2    0    0  0.00000000000E+00  0.00000000000E+00  0.84612242114E+02  0.27957661265E+04  0.27944854630E+04 0.  0.
        3    1    3    3  502    0 -0.81639937792E+03 -0.90892737031E+03 -0.63596499674E+03  0.13773555808E+04  0.10100000352E+00 0.  1.
       -3    1    3    3    0  502  0.81639937792E+03  0.90892737031E+03  0.72057723885E+03  0.14184105457E+04  0.10100000352E+00 0. -1.
</event>
<event>
 5   0  0.5625245E-06  0.2809378E+04  0.7818609E-02  0.8300363E-01
       -2   -1    0    0    0  501  0.00000000000E+00  0.00000000000E+00  0.18863155046E+04  0.18863155046E+04  0.25500000920E-02 0. -1.
        2   -1    0    0  501    0  0.00000000000E+00  0.00000000000E+00 -0.10460343161E+04  0.10460343161E+04  0.25500000920E-02 0.  1.
    10030    2    1    2    0    0  0.00000000000E+00  0.00000000000E+00  0.84028118846E+03  0.29323498207E+04  0.28093776883E+04 0.  0.
        3    1    3    3  502    0 -0.39136066611E+03  0.78528347657E+03  0.15651149339E+04  0.17942736904E+04  0.10100000352E+00 0. -1.
       -3    1    3    3    0  502  0.39136066611E+03 -0.78528347657E+03 -0.72483374548E+03  0.11380761303E+04  0.10100000352E+00 0.  1.
</event>
<event>
 5   0  0.2267565E-06  0.2836174E+04  0.7818609E-02  0.8292125E-01
        1   -1    0    0  501    0  0.00000000000E+00  0.00000000000E+00  0.14680661511E+04  0.14680661511E+04  0.50400001928E-02 0.  1.
       -1   -1    0    0    0  501  0.00000000000E+00  0.00000000000E+00 -0.13698094248E+04  0.13698094248E+04  0.50400001928E-02 0. -1.
    10030    2    1    2    0    0  0.00000000000E+00  0.00000000000E+00  0.98256726250E+02  0.28378755759E+04  0.28361740779E+04 0.  0.
        4    1    3    3  502    0  0.69735735390E+02  0.10825340913E+04 -0.86477937600E+03  0.13872952511E+04  0.12699999809E+01 0. -1.
       -4    1    3    3    0  502 -0.69735735390E+02 -0.10825340913E+04  0.96303610225E+03  0.14505803248E+04  0.12699999809E+01 0.  1.
</event>
<event>
 5   0  0.2234068E-06  0.2819455E+04  0.7818609E-02  0.8297254E-01
        1   -1    0    0  501    0  0.00000000000E+00  0.00000000000E+00  0.19808420012E+04  0.19808420012E+04  0.50400001928E-02 0. -1.
       -1   -1    0    0    0  501  0.00000000000E+00  0.00000000000E+00 -0.10032760782E+04  0.10032760782E+04  0.50400001928E-02 0.  1.
    10030    2    1    2    0    0  0.00000000000E+00  0.00000000000E+00  0.97756592301E+03  0.29841180794E+04  0.28194548370E+04 0.  0.
        3    1    3    3  502    0 -0.57923414433E+03 -0.53588072348E+03  0.17251905642E+04  0.18970932599E+04  0.10100000352E+00 0. -1.
       -3    1    3    3    0  502  0.57923414433E+03  0.53588072348E+03 -0.74762464121E+03  0.10870248194E+04  0.10100000352E+00 0.  1.
</event>
<event>
 5   0  0.5916603E-06  0.2902662E+04  0.7818609E-02  0.8272086E-01
        2   -1    0    0  501    0  0.00000000000E+00  0.00000000000E+00  0.13708262366E+04  0.13708262366E+04  0.25500000920E-02 0. -1.
       -2   -1    0    0    0  501  0.00000000000E+00  0.00000000000E+00 -0.15365637304E+04  0.15365637304E+04  0.25500000920E-02 0.  1.
    10030    2    1    2    0    0  0.00000000000E+00  0.00000000000E+00 -0.16573749387E+03  0.29073899670E+04  0.29026621407E+04 0.  0.
        2    1    3    3  502    0  0.10184178750E+03 -0.47409395451E+03  0.12872866008E+04  0.13755884632E+04  0.25500000920E-02 0. -1.
       -2    1    3    3    0  502 -0.10184178750E+03  0.47409395451E+03 -0.14530240947E+04  0.15318015038E+04  0.25500000920E-02 0.  1.
</event>
<event>
 5   0  0.2277133E-06  0.2812964E+04  0.7818609E-02  0.8299255E-01
       -1   -1    0    0    0  501  0.00000000000E+00  0.00000000000E+00  0.89233212579E+03  0.89233212580E+03  0.50400001928E-02 0. -1.
        1   -1    0    0  501    0  0.00000000000E+00  0.00000000000E+00 -0.22168783626E+04  0.22168783626E+04  0.50400001928E-02 0.  1.
    10030    2    1    2    0    0  0.00000000000E+00  0.00000000000E+00 -0.13245462368E+04  0.31092104884E+04  0.28129641177E+04 0.  0.
        1    1    3    3  502    0 -0.10194922101E+04 -0.38469770374E+03 -0.16452173941E+04  0.19733466405E+04  0.50400001928E-02 0.  1.
       -1    1    3    3    0  502  0.10194922101E+04  0.38469770374E+03  0.32067115735E+03  0.11358638479E+04  0.50400001928E-02 0. -1.
</event>
<event>
 5   0  0.5584205E-06  0.2755015E+04  0.7818609E-02  0.8317372E-01
       -2   -1    0    0    0  501  0.00000000000E+00  0.00000000000E+00  0.11528008863E+04  0.11528008863E+04  0.25500000920E-02 0. -1.
        2   -1    0    0  501    0  0.00000000000E+00  0.00000000000E+00 -0.16460146512E+04  0.16460146512E+04  0.25500000920E-02 0.  1.
    10030    2    1    2    0    0  0.00000000000E+00  0.00000000000E+00 -0.49321376485E+03  0.27988155375E+04  0.27550151715E+04 0.  0.
        1    1    3    3  502    0 -0.42664544661E+03 -0.40029556446E+03 -0.15135361798E+04  0.16226689877E+04  0.50400001928E-02 0.  1.
       -1    1    3    3    0  502  0.42664544661E+03  0.40029556446E+03  0.10203224150E+04  0.11761465498E+04  0.50400001928E-02 0. -1.
</event>
<event>
 5   0  0.2190865E-06  0.2794547E+04  0.7818609E-02  0.8304963E-01
       -1   -1    0    0    0  501  0.00000000000E+00  0.00000000000E+00  0.10011146285E+04  0.10011146285E+04  0.50400001928E-02 0. -1.
        1   -1    0    0  501    0  0.00000000000E+00  0.00000000000E+00 -0.19501990900E+04  0.19501990900E+04  0.50400001928E-02 0.  1.
    10030    2    1    2    0    0  0.00000000000E+00  0.00000000000E+00 -0.94908446152E+03  0.29513137186E+04  0.27945467164E+04 0.  0.
        2    1    3    3  502    0  0.20137620633E+03 -0.13107213477E+04 -0.93950107294E+03  0.16251784806E+04  0.25500000920E-02 0.  1.
       -2    1    3    3    0  502 -0.20137620633E+03  0.13107213477E+04 -0.95833885855E+01  0.13261352379E+04  0.25500000920E-02 0. -1.
</event>
<event>
 5   0  0.2267565E-06  0.2816591E+04  0.7818609E-02  0.8298136E-01
       -1   -1    0    0    0  501  0.00000000000E+00  0.00000000000E+00  0.22973143514E+04  0.22973143514E+04  0.50400001928E-02 0. -1.
        1   -1    0    0  501    0  0.00000000000E+00  0.00000000000E+00 -0.86331071796E+03  0.86331071797E+03  0.50400001928E-02 0.  1.
    10030    2    1    2    0    0  0.00000000000E+00  0.00000000000E+00  0.14340036334E+04  0.31606250693E+04  0.28165909196E+04 0.  0.
        4    1    3    3  502    0  0.10618666145E+03 -0.11092908367E+04  0.16832810630E+04  0.20187220011E+04  0.12699999809E+01 0. -1.
       -4    1    3    3    0  502 -0.10618666145E+03  0.11092908367E+04 -0.24927742963E+03  0.11419030683E+04  0.12699999809E+01 0.  1.
</event>
<event>
 5   0  0.5625245E-06  0.2478241E+04  0.7818609E-02  0.8410779E-01
        2   -1    0    0  501    0  0.00000000000E+00  0.00000000000E+00  0.15649717128E+04  0.15649717128E+04  0.25500000920E-02 0.  1.
       -2   -1    0    0    0  501  0.00000000000E+00  0.00000000000E+00 -0.98111650712E+03  0.98111650713E+03  0.25500000920E-02 0. -1.
    10030    2    1    2    0    0  0.00000000000E+00  0.00000000000E+00  0.58385520566E+03  0.25460882199E+04  0.24782409734E+04 0.  0.
        3    1    3    3  502    0  0.10706193574E+04  0.24587380099E+03  0.88098292147E+03  0.14081230956E+04  0.10100000352E+00 0.  1.
       -3    1    3    3    0  502 -0.10706193574E+04 -0.24587380099E+03 -0.29712771581E+03  0.11379651243E+04  0.10100000352E+00 0. -1.
</event>
<event>
 5   0  0.2234068E-06  0.2754146E+04  0.7818609E-02  0.8317647E-01
        1   -1    0    0  501    0  0.00000000000E+00  0.00000000000E+00  0.22758674102E+04  0.22758674102E+04  0.50400001928E-02 0.  1.
       -1   -1    0    0    0  501  0.00000000000E+00  0.00000000000E+00 -0.83323382798E+03  0.83323382800E+03  0.50400001928E-02 0. -1.
    10030    2    1    2    0    0  0.00000000000E+00  0.00000000000E+00  0.14426335822E+04  0.31091012382E+04  0.27541457581E+04 0.  0.
        3    1    3    3  502    0  0.72015949411E+02 -0.22897788156E+03 -0.80943530063E+03  0.84427642589E+03  0.10100000352E+00 0. -1.
       -3    1    3    3    0  502 -0.72015949411E+02  0.22897788156E+03  0.22520688828E+04  0.22648248123E+04  0.10100000352E+00 0.  1.
</event>
<event>
 5   0  0.5916603E-06  0.2799092E+04  0.7818609E-02  0.8303550E-01
       -2   -1    0    0    0  501  0.00000000000E+00  0.00000000000E+00  0.12787708159E+04  0.12787708159E+04  0.25500000920E-02 0. -1.
        2   -1    0    0  501    0  0.00000000000E+00  0.00000000000E+00 -0.15317279469E+04  0.15317279469E+04  0.25500000920E-02 0.  1.
    10030    2    1    2    0    0  0.00000000000E+00  0.00000000000E+00 -0.25295713098E+03  0.28104987628E+04  0.27990919930E+04 0.  0.
        2    1    3    3  502    0 -0.13474354651E+03 -0.71012318428E+03 -0.13298190832E+04  0.15135552696E+04  0.25500000920E-02 0.  1.
       -2    1    3    3    0  502  0.13474354651E+03  0.71012318428E+03  0.10768619522E+04  0.12969434931E+04  0.25500000920E-02 0. -1.
</event>
<event>
 5   0  0.5625245E-06  0.2828525E+04  0.7818609E-02  0.8294467E-01
       -2   -1    0    0    0  501  0.00000000000E+00  0.00000000000E+00  0.58313461538E+03  0.58313461538E+03  0.25500000920E-02 0.  1.
        2   -1    0    0  501    0  0.00000000000E+00  0.00000000000E+00 -0.34299774302E+04  0.34299774302E+04  0.25500000920E-02 0. -1.
    10030    2    1    2    0    0  0.00000000000E+00  0.00000000000E+00 -0.28468428148E+04  0.40131120455E+04  0.28285251065E+04 0.  0.
        3    1    3    3  502    0 -0.92270971656E+03  0.26296957302E+03  0.50760731453E+02  0.96079283898E+03  0.10100000352E+00 0.  1.
       -3    1    3    3    0  502  0.92270971656E+03 -0.26296957302E+03 -0.28976035462E+04  0.30523192066E+04  0.10100000352E+00 0. -1.
</event>
<event>
 5   0  0.5916603E-06  0.2811687E+04  0.7818609E-02  0.8299649E-01
       -2   -1    0    0    0  501  0.00000000000E+00  0.00000000000E+00  0.14915184213E+04  0.14915184213E+04  0.25500000920E-02 0. -1.
        2   -1    0    0  501    0  0.00000000000E+00  0.00000000000E+00 -0.13250898370E+04  0.13250898370E+04  0.25500000920E-02 0.  1.
    10030    2    1    2    0    0  0.00000000000E+00  0.00000000000E+00  0.16642858428E+03  0.28166082583E+04  0.28116869682E+04 0.  0.
        2    1    3    3  502    0  0.82354268618E+02 -0.11673665030E+04 -0.69716727262E+03  0.13621927118E+04  0.25500000920E-02 0.  1.
       -2    1    3    3    0  502 -0.82354268618E+02  0.11673665030E+04  0.86359585690E+03  0.14544155465E+04  0.25500000920E-02 0. -1.
</event>
<event>
 5   0  0.5546570E-06  0.2804467E+04  0.7818609E-02  0.8301883E-01
        2   -1    0    0  501    0  0.00000000000E+00  0.00000000000E+00  0.14754511414E+04  0.14754511414E+04  0.25500000920E-02 0.  1.
       -2   -1    0    0    0  501  0.00000000000E+00  0.00000000000E+00 -0.13326495752E+04  0.13326495752E+04  0.25500000920E-02 0. -1.
    10030    2    1    2    0    0  0.00000000000E+00  0.00000000000E+00  0.14280156621E+03  0.28081007166E+04  0.28044673910E+04 0.  0.
        4    1    3    3  502    0 -0.18358954490E+03 -0.13782221124E+04 -0.11064898927E+03  0.13947925021E+04  0.12699999809E+01 0. -1.
       -4    1    3    3    0  502  0.18358954490E+03  0.13782221124E+04  0.25345055548E+03  0.14133082145E+04  0.12699999809E+01 0.  1.
</event>
<event>
 5   0  0.2206967E-06  0.2799247E+04  0.7818609E-02  0.8303502E-01
       -1   -1    0    0    0  501  0.00000000000E+00  0.00000000000E+00  0.12508706397E+04  0.12508706397E+04  0.50400001928E-02 0.  1.
        1   -1    0    0  501    0  0.00000000000E+00  0.00000000000E+00 -0.15660658305E+04  0.15660658305E+04  0.50400001928E-02 0. -1.
    10030    2    1    2    0    0  0.00000000000E+00  0.00000000000E+00 -0.31519519081E+03  0.28169364702E+04  0.27992468753E+04 0.  0.
        5    1    3    3  502    0  0.10037141416E+04 -0.97469261030E+03 -0.19599517110E+03  0.14127646512E+04  0.46999998093E+01 0.  1.
       -5    1    3    3    0  502 -0.10037141416E+04  0.97469261030E+03 -0.11920001971E+03  0.14041718190E+04  0.46999998093E+01 0. -1.
</event>
<event>
 5   0  0.2277133E-06  0.2809228E+04  0.7818609E-02  0.8300409E-01
       -1   -1    0    0    0  501  0.00000000000E+00  0.00000000000E+00  0.98238779776E+03  0.98238779778E+03  0.50400001928E-02 0. -1.
        1   -1    0    0  501    0  0.00000000000E+00  0.00000000000E+00 -0.20083110902E+04  0.20083110902E+04  0.50400001928E-02 0.  1.
    10030    2    1    2    0    0  0.00000000000E+00  0.00000000000E+00 -0.10259232925E+04  0.29906988880E+04  0.28092278720E+04 0.  0.
        1    1    3    3  502    0  0.12600215318E+04  0.44304809499E+03 -0.50143660489E+02  0.13365852991E+04  0.50400001928E-02 0. -1.
       -1    1    3    3    0  502 -0.12600215318E+04 -0.44304809499E+03 -0.97577963197E+03  0.16541135889E+04  0.50400001928E-02 0.  1.
</event>
<event>
 5   0  0.5916603E-06  0.2811079E+04  0.7818609E-02  0.8299837E-01
       -2   -1    0    0    0  501  0.00000000000E+00  0.00000000000E+00  0.84378421980E+03  0.84378421980E+03  0.25500000920E-02 0. -1.
        2   -1    0    0  501    0  0.00000000000E+00  0.00000000000E+00 -0.23412870814E+04  0.23412870814E+04  0.25500000920E-02 0.  1.
    10030    2    1    2    0    0  0.00000000000E+00  0.00000000000E+00 -0.14975028616E+04  0.31850713012E+04  0.28110788628E+04 0.  0.
        2    1    3    3  502    0  0.13521405067E+04 -0.38092780595E+03 -0.69620036997E+03  0.15678280832E+04  0.25500000920E-02 0. -1.
       -2    1    3    3    0  502 -0.13521405067E+04  0.38092780595E+03 -0.80130249161E+03  0.16172432180E+04  0.25500000920E-02 0.  1.
</event>
<event>
 5   0  0.5916603E-06  0.2789887E+04  0.7818609E-02  0.8306415E-01
        2   -1    0    0  501    0  0.00000000000E+00  0.00000000000E+00  0.19270847689E+04  0.19270847689E+04  0.25500000920E-02 0. -1.
       -2   -1    0    0    0  501  0.00000000000E+00  0.00000000000E+00 -0.10097466995E+04  0.10097466995E+04  0.25500000920E-02 0.  1.
    10030    2    1    2    0    0  0.00000000000E+00  0.00000000000E+00  0.91733806939E+03  0.29368314684E+04  0.27898870838E+04 0.  0.
        2    1    3    3  502    0 -0.51939792249E+03 -0.12934512135E+04  0.51706370190E+03  0.14866556815E+04  0.25500000920E-02 0.  1.
       -2    1    3    3    0  502  0.51939792249E+03  0.12934512135E+04  0.40027436749E+03  0.14501757869E+04  0.25500000920E-02 0. -1.
</event>
<event>
 5   0  0.5625245E-06  0.2799884E+04  0.7818609E-02  0.8303304E-01
       -2   -1    0    0    0  501  0.00000000000E+00  0.00000000000E+00  0.93335363966E+03  0.93335363967E+03  0.25500000920E-02 0. -1.
        2   -1    0    0  501    0  0.00000000000E+00  0.00000000000E+00 -0.20997806145E+04  0.20997806145E+04  0.25500000920E-02 0.  1.
    10030    2    1    2    0    0  0.00000000000E+00  0.00000000000E+00 -0.11664269748E+04  0.30331342541E+04  0.27998841969E+04 0.  0.
        3    1    3    3  502    0 -0.10534064274E+03  0.10120944249E+04  0.45834332562E+03  0.11160243681E+04  0.10100000352E+00 0. -1.
       -3    1    3    3    0  502  0.10534064274E+03 -0.10120944249E+04 -0.16247703004E+04  0.19171098860E+04  0.10100000352E+00 0.  1.
</event>
<event>
 5   0  0.2190865E-06  0.2840365E+04  0.7818609E-02  0.8290845E-01
       -1   -1    0    0    0  501  0.00000000000E+00  0.00000000000E+00  0.17642427068E+04  0.17642427068E+04  0.50400001928E-02 0.  1.
        1   -1    0    0  501    0  0.00000000000E+00  0.00000000000E+00 -0.11432205221E+04  0.11432205221E+04  0.50400001928E-02 0. -1.
    10030    2    1    2    0    0  0.00000000000E+00  0.00000000000E+00  0.62102218471E+03  0.29074632289E+04  0.28403650951E+04 0.  0.
        2    1    3    3  502    0  0.34913251977E+03  0.98287949321E+03 -0.67608996258E+03  0.12429976879E+04  0.25500000920E-02 0. -1.
       -2    1    3    3    0  502 -0.34913251977E+03 -0.98287949321E+03  0.12971121473E+04  0.16644655410E+04  0.25500000920E-02 0.  1.
</event>
<event>
 5   0  0.2277133E-06  0.2783163E+04  0.7818609E-02  0.8308515E-01
        1   -1    0    0  501    0  0.00000000000E+00  0.00000000000E+00  0.17653246180E+04  0.17653246180E+04  0.50400001928E-02 0.  1.
       -1   -1    0    0    0  501  0.00000000000E+00  0.00000000000E+00 -0.10969647485E+04  0.10969647485E+04  0.50400001928E-02 0. -1.
    10030    2    1    2    0    0  0.00000000000E+00  0.00000000000E+00  0.66835986948E+03  0.28622893665E+04  0.27831628595E+04 0.  0.
        1    1    3    3  502    0  0.51569664317E+03 -0.54175023380E+03 -0.87266576656E+03  0.11493397599E+04  0.50400001928E-02 0. -1.
       -1    1    3    3    0  502 -0.51569664317E+03  0.54175023380E+03  0.15410256360E+04  0.17129496065E+04  0.50400001928E-02 0.  1.
</event>
<event>
 5   0  0.5916603E-06  0.2769629E+04  0.7818609E-02  0.8312760E-01
       -2   -1    0    0    0  501  0.00000000000E+00  0.00000000000E+00  0.11277561072E+04  0.11277561072E+04  0.25500000920E-02 0.  1.
        2   -1    0    0  501    0  0.00000000000E+00  0.00000000000E+00 -0.17004668627E+04  0.17004668627E+04  0.25500000920E-02 0. -1.
    10030    2    1    2    0    0  0.00000000000E+00  0.00000000000E+00 -0.57271075547E+03  0.28282229699E+04  0.27696294983E+04 0.  0.
        2    1    3    3  502    0 -0.76068285634E+03  0.11287303969E+04 -0.54678246339E+03  0.14668475650E+04  0.25500000920E-02 0. -1.
       -2    1    3    3    0  502  0.76068285634E+03 -0.11287303969E+04 -0.25928292084E+02  0.13613754049E+04  0.25500000920E-02 0.  1.
</event>
<event>
 5   0  0.5866136E-06  0.2805594E+04  0.7818609E-02  0.8301534E-01
        2   -1    0    0  501    0  0.00000000000E+00  0.00000000000E+00  0.10603965007E+04  0.10603965007E+04  0.25500000920E-02 0. -1.
       -2   -1    0    0    0  501  0.00000000000E+00  0.00000000000E+00 -0.18557583407E+04  0.18557583407E+04  0.25500000920E-02 0.  1.
    10030    2    1    2    0    0  0.00000000000E+00  0.00000000000E+00 -0.79536183996E+03  0.29161548414E+04  0.28055941621E+04 0.  0.
        5    1    3    3  502    0 -0.91426134297E+03  0.90309086929E+03  0.18695274151E+03  0.12986224775E+04  0.46999998093E+01 0. -1.
       -5    1    3    3    0  502  0.91426134297E+03 -0.90309086929E+03 -0.98231458147E+03  0.16175323639E+04  0.46999998093E+01 0.  1.
</event>
<event>
 5   0  0.2190865E-06  0.2794723E+04  0.7818609E-02  0.8304909E-01
       -1   -1    0    0    0  501  0.00000000000E+00  0.00000000000E+00  0.10725900440E+04  0.10725900441E+04  0.50400001928E-02 0.  1.
        1   -1    0    0  501    0  0.00000000000E+00  0.00000000000E+00 -0.18204705007E+04  0.18204705007E+04  0.50400001928E-02 0. -1.
    10030    2    1    2    0    0  0.00000000000E+00  0.00000000000E+00 -0.74788045668E+03  0.28930605448E+04  0.27947225512E+04 0.  0.
        2    1    3    3  502    0  0.11892491603E+04 -0.92282597492E+02 -0.11274176570E+04  0.16413105180E+04  0.25500000920E-02 0. -1.
       -2    1    3    3    0  502 -0.11892491603E+04  0.92282597492E+02  0.37953720035E+03  0.12517500268E+04  0.25500000920E-02 0.  1.
</event>
<event>
 5   0  0.2206967E-06  0.2849064E+04  0.7818609E-02  0.8288196E-01
        1   -1    0    0  501    0  0.00000000000E+00  0.00000000000E+00  0.20793614179E+04  0.20793614179E+04  0.50400001928E-02 0.  1.
       -1   -1    0    0    0  501  0.00000000000E+00  0.00000000000E+00 -0.97592042511E+03  0.97592042512E+03  0.50400001928E-02 0. -1.
    10030    2    1    2    0    0  0.00000000000E+00  0.00000000000E+00  0.11034409928E+04  0.30552818430E+04  0.28490639016E+04 0.  0.
        5    1    3    3  502    0 -0.11895682805E+04 -0.44899295948E+03 -0.13711363371E+03  0.12788626236E+04  0.46999998093E+01 0. -1.
       -5    1    3    3    0  502  0.11895682805E+04  0.44899295948E+03  0.12405546265E+04  0.17764192194E+04  0.46999998093E+01 0.  1.
</event>
<event>
 5   0  0.5546570E-06  0.2794671E+04  0.7818609E-02  0.8304925E-01
       -2   -1    0    0    0  501  0.00000000000E+00  0.00000000000E+00  0.10908218117E+04  0.10908218117E+04  0.25500000920E-02 0.  1.
        2   -1    0    0  501    0  0.00000000000E+00  0.00000000000E+00 -0.17899776718E+04  0.17899776718E+04  0.25500000920E-02 0. -1.
    10030    2    1    2    0    0  0.00000000000E+00  0.00000000000E+00 -0.69915586008E+03  0.28807994835E+04  0.27946711341E+04 0.  0.
        4    1    3    3  502    0  0.85105334968E+02  0.13132118890E+04  0.13477165383E+03  0.13228504809E+04  0.12699999809E+01 0.  1.
       -4    1    3    3    0  502 -0.85105334968E+02 -0.13132118890E+04 -0.83392751391E+03  0.15579490026E+04  0.12699999809E+01 0. -1.
</event>
<event>
 5   0  0.2234068E-06  0.2793043E+04  0.7818609E-02  0.8305431E-01
        1   -1    0    0  501    0  0.00000000000E+00  0.00000000000E+00  0.21196070113E+04  0.21196070113E+04  0.50400001928E-02 0.  1.
       -1   -1    0    0    0  501  0.00000000000E+00  0.00000000000E+00 -0.92011051688E+03  0.92011051689E+03  0.50400001928E-02 0. -1.
    10030    2    1    2    0    0  0.00000000000E+00  0.00000000000E+00  0.11994964945E+04  0.30397175282E+04  0.27930432885E+04 0.  0.
        3    1    3    3  502    0 -0.77998212420E+03 -0.84044753606E+03 -0.26787247498E+03  0.11774887889E+04  0.10100000352E+00 0. -1.
       -3    1    3    3    0  502  0.77998212420E+03  0.84044753606E+03  0.14673689694E+04  0.18622287393E+04  0.10100000352E+00 0.  1.
</event>
<event>
 5   0  0.2190865E-06  0.2798190E+04  0.7818609E-02  0.8303830E-01
       -1   -1    0    0    0  501  0.00000000000E+00  0.00000000000E+00  0.11022627405E+04  0.11022627405E+04  0.50400001928E-02 0.  1.
        1   -1    0    0  501    0  0.00000000000E+00  0.00000000000E+00 -0.17758626903E+04  0.17758626903E+04  0.50400001928E-02 0. -1.
    10030    2    1    2    0    0  0.00000000000E+00  0.00000000000E+00 -0.67359994985E+03  0.28781254308E+04  0.27981903265E+04 0.  0.
        2    1    3    3  502    0  0.96933816499E+03 -0.60508912250E+03 -0.11671521123E+04  0.16333993319E+04  0.25500000920E-02 0. -1.
       -2    1    3    3    0  502 -0.96933816499E+03  0.60508912250E+03  0.49355216243E+03  0.12447260989E+04  0.25500000920E-02 0.  1.
</event>
<event>
 5   0  0.5916603E-06  0.2533184E+04  0.7818609E-02  0.8391258E-01
       -2   -1    0    0    0  501  0.00000000000E+00  0.00000000000E+00  0.82585252003E+03  0.82585252004E+03  0.25500000920E-02 0. -1.
        2   -1    0    0  501    0  0.00000000000E+00  0.00000000000E+00 -0.19425449464E+04  0.19425449464E+04  0.25500000920E-02 0.  1.
    10030    2    1    2    0    0  0.00000000000E+00  0.00000000000E+00 -0.11166924264E+04  0.27683974665E+04  0.25331842722E+04 0.  0.
        2    1    3    3  502    0  0.42822603428E+03  0.11638218334E+04 -0.83994797991E+03  0.14977888387E+04  0.25500000920E-02 0. -1.
       -2    1    3    3    0  502 -0.42822603428E+03 -0.11638218334E+04 -0.27674444649E+03  0.12706086278E+04  0.25500000920E-02 0.  1.
</event>
<event>
 5   0  0.5625245E-06  0.2795232E+04  0.7818609E-02  0.8304750E-01
       -2   -1    0    0    0  501  0.00000000000E+00  0.00000000000E+00  0.77943327878E+03  0.77943327878E+03  0.25500000920E-02 0. -1.
        2   -1    0    0  501    0  0.00000000000E+00  0.00000000000E+00 -0.25060901361E+04  0.25060901361E+04  0.25500000920E-02 0.  1.
    10030    2    1    2    0    0  0.00000000000E+00  0.00000000000E+00 -0.17266568573E+04  0.32855234148E+04  0.27952316910E+04 0.  0.
        3    1    3    3  502    0  0.62488040087E+03  0.11837061178E+04 -0.13359724637E+04  0.18911525911E+04  0.10100000352E+00 0. -1.
       -3    1    3    3    0  502 -0.62488040087E+03 -0.11837061178E+04 -0.39068439353E+03  0.13943708238E+04  0.10100000352E+00 0.  1.
</event>
<event>
 5   0  0.2267565E-06  0.2891443E+04  0.7818609E-02  0.8275428E-01
       -1   -1    0    0    0  501  0.00000000000E+00  0.00000000000E+00  0.11159110796E+04  0.11159110796E+04  0.50400001928E-02 0. -1.
        1   -1    0    0  501    0  0.00000000000E+00  0.00000000000E+00 -0.18730079153E+04  0.18730079153E+04  0.50400001928E-02 0.  1.
    10030    2    1    2    0    0  0.00000000000E+00  0.00000000000E+00 -0.75709683574E+03  0.29889189950E+04  0.28914427436E+04 0.  0.
        4    1    3    3  502    0 -0.11481536713E+04  0.78211590426E+03  0.35125668559E+02  0.13896753456E+04  0.12699999809E+01 0.  1.
       -4    1    3    3    0  502  0.11481536713E+04 -0.78211590426E+03 -0.79222250430E+03  0.15992436493E+04  0.12699999809E+01 0. -1.
</event>
<event>
 5   0  0.5625245E-06  0.2808951E+04  0.7818609E-02  0.8300495E-01
        2   -1    0    0  501    0  0.00000000000E+00  0.00000000000E+00  0.13795234142E+04  0.13795234142E+04  0.25500000920E-02 0. -1.
       -2   -1    0    0    0  501  0.00000000000E+00  0.00000000000E+00 -0.14298786147E+04  0.14298786147E+04  0.25500000920E-02 0.  1.
    10030    2    1    2    0    0  0.00000000000E+00  0.00000000000E+00 -0.50355200447E+02  0.28094020289E+04  0.28089507140E+04 0.  0.
        3    1    3    3  502    0 -0.10999618444E+03 -0.71714985814E+03 -0.12279297284E+04  0.14262589203E+04  0.10100000352E+00 0.  1.
       -3    1    3    3    0  502  0.10999618444E+03  0.71714985814E+03  0.11775745280E+04  0.13831431086E+04  0.10100000352E+00 0. -1.
</event>
<event>
 5   0  0.2234068E-06  0.2797965E+04  0.7818609E-02  0.8303901E-01
       -1   -1    0    0    0  501  0.00000000000E+00  0.00000000000E+00  0.14743790184E+04  0.14743790185E+04  0.50400001928E-02 0. -1.
        1   -1    0    0  501    0  0.00000000000E+00  0.00000000000E+00 -0.13274411212E+04  0.13274411212E+04  0.50400001928E-02 0.  1.
    10030    2    1    2    0    0  0.00000000000E+00  0.00000000000E+00  0.14693789725E+03  0.28018201397E+04  0.27979645011E+04 0.  0.
        3    1    3    3  502    0  0.53632764270E+03  0.73823461982E+03 -0.98842321294E+03  0.13452204846E+04  0.10100000352E+00 0.  1.
       -3    1    3    3    0  502 -0.53632764270E+03 -0.73823461982E+03  0.11353611102E+04  0.14565996550E+04  0.10100000352E+00 0. -1.
</event>
<event>
 5   0  0.5916603E-06  0.2800602E+04  0.7818609E-02  0.8303082E-01
        2   -1    0    0  501    0  0.00000000000E+00  0.00000000000E+00  0.52467235155E+03  0.52467235156E+03  0.25500000920E-02 0.  1.
       -2   -1    0    0    0  501  0.00000000000E+00  0.00000000000E+00 -0.37372710621E+04  0.37372710621E+04  0.25500000920E-02 0. -1.
    10030    2    1    2    0    0  0.00000000000E+00  0.00000000000E+00 -0.32125987105E+04  0.42619434136E+04  0.28006019328E+04 0.  0.
        2    1    3    3  502    0 -0.12177333637E+04  0.38088626340E+03 -0.72826963332E+03  0.14691240756E+04  0.25500000920E-02 0.  1.
       -2    1    3    3    0  502  0.12177333637E+04 -0.38088626340E+03 -0.24843290772E+04  0.27928193380E+04  0.25500000920E-02 0. -1.
</event>
<event>
 5   0  0.5625245E-06  0.2796688E+04  0.7818609E-02  0.8304297E-01
        2   -1    0    0  501    0  0.00000000000E+00  0.00000000000E+00  0.13952079754E+04  0.13952079754E+04  0.25500000920E-02 0.  1.
       -2   -1    0    0    0  501  0.00000000000E+00  0.00000000000E+00 -0.14014866680E+04  0.14014866680E+04  0.25500000920E-02 0. -1.
    10030    2    1    2    0    0  0.00000000000E+00  0.00000000000E+00 -0.62786925975E+01  0.27966946434E+04  0.27966875955E+04 0.  0.
        3    1    3    3  502    0  0.12769092970E+04  0.13285758544E+03 -0.55741222509E+03  0.13995916868E+04  0.10100000352E+00 0. -1.
       -3    1    3    3    0  502 -0.12769092970E+04 -0.13285758544E+03  0.55113353249E+03  0.13971029567E+04  0.10100000352E+00 0.  1.
</event>
<event>
 5   0  0.5584205E-06  0.2522672E+04  0.7818609E-02  0.8394953E-01
       -2   -1    0    0    0  501  0.00000000000E+00  0.00000000000E+00  0.69307353564E+03  0.69307353564E+03  0.25500000920E-02 0. -1.
        2   -1    0    0  501    0  0.00000000000E+00  0.00000000000E+00 -0.22955259914E+04  0.22955259914E+04  0.25500000920E-02 0.  1.
    10030    2    1    2    0    0  0.00000000000E+00  0.00000000000E+00 -0.16024524558E+04  0.29885995271E+04  0.25226718495E+04 0.  0.
        1    1    3    3  502    0  0.21724196832E+03 -0.41058558856E+01  0.67073539244E+03  0.70505098933E+03  0.50400001928E-02 0. -1.
       -1    1    3    3    0  502 -0.21724196832E+03  0.41058558856E+01 -0.22731878482E+04  0.22835485378E+04  0.50400001928E-02 0.  1.
</event>
<event>
 5   0  0.2277133E-06  0.2735387E+04  0.7818609E-02  0.8323614E-01
        1   -1    0    0  501    0  0.00000000000E+00  0.00000000000E+00  0.16529447488E+04  0.16529447489E+04  0.50400001928E-02 0. -1.
       -1   -1    0    0    0  501  0.00000000000E+00  0.00000000000E+00 -0.11316685200E+04  0.11316685201E+04  0.50400001928E-02 0.  1.
    10030    2    1    2    0    0  0.00000000000E+00  0.00000000000E+00  0.52127622881E+03  0.27846132689E+04  0.27353870203E+04 0.  0.
        1    1    3    3  502    0  0.95400406768E+03 -0.97240704920E+03  0.13643296708E+03  0.13690555814E+04  0.50400001928E-02 0. -1.
       -1    1    3    3    0  502 -0.95400406768E+03  0.97240704920E+03  0.38484326173E+03  0.14155576875E+04  0.50400001928E-02 0.  1.
</event>
<event>
 5   0  0.5625245E-06  0.2777947E+04  0.7818609E-02  0.8310148E-01
       -2   -1    0    0    0  501  0.00000000000E+00  0.00000000000E+00  0.10790163070E+04  0.10790163070E+04  0.25500000920E-02 0. -1.
        2   -1    0    0  501    0  0.00000000000E+00  0.00000000000E+00 -0.17879682824E+04  0.17879682824E+04  0.25500000920E-02 0.  1.
    10030    2    1    2    0    0  0.00000000000E+00  0.00000000000E+00 -0.70895197541E+03  0.28669845893E+04  0.27779466755E+04 0.  0.
        3    1    3    3  502    0  0.32373805882E+03 -0.12735540336E+04 -0.81890007331E+03  0.15483357348E+04  0.10100000352E+00 0.  1.
       -3    1    3    3    0  502 -0.32373805882E+03  0.12735540336E+04  0.10994809791E+03  0.13186488546E+04  0.10100000352E+00 0. -1.
</event>
<event>
 5   0  0.2267565E-06  0.2840275E+04  0.7818609E-02  0.8290873E-01
        1   -1    0    0  501    0  0.00000000000E+00  0.00000000000E+00  0.20628154637E+04  0.20628154637E+04  0.50400001928E-02 0. -1.
       -1   -1    0    0    0  501  0.00000000000E+00  0.00000000000E+00 -0.97768801069E+03  0.97768801070E+03  0.50400001928E-02 0.  1.
    10030    2    1    2    0    0  0.00000000000E+00  0.00000000000E+00  0.10851274530E+04  0.30405034744E+04  0.28402745974E+04 0.  0.
        4    1    3    3  502    0 -0.87761591619E+03 -0.10588506985E+04  0.16346013350E+03  0.13849531856E+04  0.12699999809E+01 0.  1.
       -4    1    3    3    0  502  0.87761591619E+03  0.10588506985E+04  0.92166731949E+03  0.16555502888E+04  0.12699999809E+01 0. -1.
</event>
<event>
 5   0  0.5866136E-06  0.2759592E+04  0.7818609E-02  0.8315924E-01
       -2   -1    0    0    0  501  0.00000000000E+00  0.00000000000E+00  0.17146499359E+04  0.17146499359E+04  0.25500000920E-02 0.  1.
        2   -1    0    0  501    0  0.00000000000E+00  0.00000000000E+00 -0.11103355984E+04  0.11103355984E+04  0.25500000920E-02 0. -1.
    10030    2    1    2    0    0  0.00000000000E+00  0.00000000000E+00  0.60431433747E+03  0.28249855343E+04  0.27595918993E+04 0.  0.
        5    1    3    3  502    0 -0.25386533959E+03 -0.12562154190E+04 -0.22112115791E+03  0.13005542841E+04  0.46999998093E+01 0. -1.
       -5    1    3    3    0  502  0.25386533959E+03  0.12562154190E+04  0.82543549538E+03  0.15244312502E+04  0.46999998093E+01 0.  1.
</event>
<event>
 5   0  0.2267565E-06  0.2783663E+04  0.7818609E-02  0.8308358E-01
       -1   -1    0    0    0  501  0.00000000000E+00  0.00000000000E+00  0.16656321356E+04  0.16656321356E+04  0.50400001928E-02 0. -1.
        1   -1    0    0  501    0  0.00000000000E+00  0.00000000000E+00 -0.11630388276E+04  0.11630388276E+04  0.50400001928E-02 0.  1.
    10030    2    1    2    0    0  0.00000000000E+00  0.00000000000E+00  0.50259330802E+03  0.28286709632E+04  0.27836629438E+04 0.  0.
        4    1    3    3  502    0 -0.85585221627E+03 -0.11303587682E+03  0.13607057589E+04  0.16114533505E+04  0.12699999809E+01 0. -1.
       -4    1    3    3    0  502  0.85585221627E+03  0.11303587682E+03 -0.85811245087E+03  0.12172176127E+04  0.12699999809E+01 0.  1.
</event>
<event>
 5   0  0.2206967E-06  0.2794564E+04  0.7818609E-02  0.8304958E-01
       -1   -1    0    0    0  501  0.00000000000E+00  0.00000000000E+00  0.19512714987E+04  0.19512714987E+04  0.50400001928E-02 0.  1.
        1   -1    0    0  501    0  0.00000000000E+00  0.00000000000E+00 -0.10005767157E+04  0.10005767157E+04  0.50400001928E-02 0. -1.
    10030    2    1    2    0    0  0.00000000000E+00  0.00000000000E+00  0.95069478298E+03  0.29518482144E+04  0.27945638855E+04 0.  0.
        5    1    3    3  502    0  0.11715105454E+04  0.73833902753E+03  0.27831957672E+03  0.14124678242E+04  0.46999998093E+01 0.  1.
       -5    1    3    3    0  502 -0.11715105454E+04 -0.73833902753E+03  0.67237520626E+03  0.15393803902E+04  0.46999998093E+01 0. -1.
</event>
<event>
 5   0  0.5584205E-06  0.2746697E+04  0.7818609E-02  0.8320010E-01
       -2   -1    0    0    0  501  0.00000000000E+00  0.00000000000E+00  0.11135423508E+04  0.11135423508E+04  0.25500000920E-02 0.  1.
        2   -1    0    0  501    0  0.00000000000E+00  0.00000000000E+00 -0.16937715601E+04  0.16937715601E+04  0.25500000920E-02 0. -1.
    10030    2    1    2    0    0  0.00000000000E+00  0.00000000000E+00 -0.58022920935E+03  0.28073139109E+04  0.27466971910E+04 0.  0.
        1    1    3    3  502    0  0.91841118756E+03 -0.93543327723E+03  0.12827483323E+03  0.13171822040E+04  0.50400001928E-02 0. -1.
       -1    1    3    3    0  502 -0.91841118756E+03  0.93543327723E+03 -0.70850404258E+03  0.14901317069E+04  0.50400001928E-02 0.  1.
</event>
<event>
 5   0  0.5546570E-06  0.2799563E+04  0.7818609E-02  0.8303404E-01
        2   -1    0    0  501    0  0.00000000000E+00  0.00000000000E+00  0.15321962567E+04  0.15321962567E+04  0.25500000920E-02 0.  1.
       -2   -1    0    0    0  501  0.00000000000E+00  0.00000000000E+00 -0.12788105941E+04  0.12788105941E+04  0.25500000920E-02 0. -1.
    10030    2    1    2    0    0  0.00000000000E+00  0.00000000000E+00  0.25338566262E+03  0.28110068509E+04  0.27995633984E+04 0.  0.
        4    1    3    3  502    0 -0.12477557379E+04 -0.67661570641E+01  0.76367307204E+03  0.14629211654E+04  0.12699999809E+01 0.  1.
       -4    1    3    3    0  502  0.12477557379E+04  0.67661570641E+01 -0.51028740942E+03  0.13480856855E+04  0.12699999809E+01 0. -1.
</event>
<event>
 5   0  0.5625245E-06  0.2795134E+04  0.7818609E-02  0.8304781E-01
        2   -1    0    0  501    0  0.00000000000E+00  0.00000000000E+00  0.22478269260E+04  0.22478269260E+04  0.25500000920E-02 0. -1.
       -2   -1    0    0    0  501  0.00000000000E+00  0.00000000000E+00 -0.86892525313E+03  0.86892525313E+03  0.25500000920E-02 0.  1.
    10030    2    1    2    0    0  0.00000000000E+00  0.00000000000E+00  0.13789016729E+04  0.31167521791E+04  0.27951340438E+04 0.  0.
        3    1    3    3  502    0  0.10365159978E+04 -0.16948425562E+03 -0.33864942291E+03  0.11035278739E+04  0.10100000352E+00 0.  1.
       -3    1    3    3    0  502 -0.10365159978E+04  0.16948425562E+03  0.17175510958E+04  0.20132243053E+04  0.10100000352E+00 0. -1.
</event>
<event>
 5   0  0.2267565E-06  0.2781118E+04  0.7818609E-02  0.8309155E-01
        1   -1    0    0  501    0  0.00000000000E+00  0.00000000000E+00  0.18462580930E+04  0.18462580930E+04  0.50400001928E-02 0. -1.
       -1   -1    0    0    0  501  0.00000000000E+00  0.00000000000E+00 -0.10473367772E+04  0.10473367772E+04  0.50400001928E-02 0.  1.
    10030    2    1    2    0    0  0.00000000000E+00  0.00000000000E+00  0.79892131579E+03  0.28935948703E+04  0.27811177617E+04 0.  0.
        4    1    3    3  502    0  0.53988114381E+03  0.47724881741E+03  0.16368508437E+04  0.17884407680E+04  0.12699999809E+01 0. -1.
       -4    1    3    3    0  502 -0.53988114381E+03 -0.47724881741E+03 -0.83792952790E+03  0.11051541023E+04  0.12699999809E+01 0.  1.
</event>
<event>
 5   0  0.2190865E-06  0.2806762E+04  0.7818609E-02  0.8301172E-01
        1   -1    0    0  501    0  0.00000000000E+00  0.00000000000E+00  0.19852279650E+04  0.19852279650E+04  0.50400001928E-02 0.  1.
       -1   -1    0    0    0  501  0.00000000000E+00  0.00000000000E+00 -0.99206678324E+03  0.99206678326E+03  0.50400001928E-02 0. -1.
    10030    2    1    2    0    0  0.00000000000E+00  0.00000000000E+00  0.99316118175E+03  0.29772947483E+04  0.28067623492E+04 0.  0.
        2    1    3    3  502    0 -0.97941745235E+03  0.91648968137E+03  0.93428530722E+03  0.16346562077E+04  0.25500000920E-02 0.  1.
       -2    1    3    3    0  502  0.97941745235E+03 -0.91648968137E+03  0.58875874525E+02  0.13426385406E+04  0.25500000920E-02 0. -1.
</event>
<event>
 5   0  0.5866136E-06  0.2784333E+04  0.7818609E-02  0.8308149E-01
       -2   -1    0    0    0  501  0.00000000000E+00  0.00000000000E+00  0.14764504641E+04  0.14764504641E+04  0.25500000920E-02 0.  1.
        2   -1    0    0  501    0  0.00000000000E+00  0.00000000000E+00 -0.13126939102E+04  0.13126939103E+04  0.25500000920E-02 0. -1.
    10030    2    1    2    0    0  0.00000000000E+00  0.00000000000E+00  0.16375655381E+03  0.27891443743E+04  0.27843329779E+04 0.  0.
        5    1    3    3  502    0  0.27832699768E+03 -0.30005978240E+03  0.14148179730E+04  0.14728318904E+04  0.46999998093E+01 0.  1.
       -5    1    3    3    0  502 -0.27832699768E+03  0.30005978240E+03 -0.12510614192E+04  0.13163124839E+04  0.46999998093E+01 0. -1.
</event>
<event>
 5   0  0.2277133E-06  0.2787638E+04  0.7818609E-02  0.8307117E-01
       -1   -1    0    0    0  501  0.00000000000E+00  0.00000000000E+00  0.13500499271E+04  0.13500499271E+04  0.50400001928E-02 0. -1.
        1   -1    0    0  501    0  0.00000000000E+00  0.00000000000E+00 -0.14390072537E+04  0.14390072537E+04  0.50400001928E-02 0.  1.
    10030    2    1    2    0    0  0.00000000000E+00  0.00000000000E+00 -0.88957326591E+02  0.27890571808E+04  0.27876381673E+04 0.  0.
        1    1    3    3  502    0  0.11686300860E+04  0.20705421259E+03  0.68675855595E+03  0.13712056881E+04  0.50400001928E-02 0.  1.
       -1    1    3    3    0  502 -0.11686300860E+04 -0.20705421259E+03 -0.77571588254E+03  0.14178514927E+04  0.50400001928E-02 0. -1.
</event>
<event>
 5   0  0.5625245E-06  0.2797793E+04  0.7818609E-02  0.8303954E-01
       -2   -1    0    0    0  501  0.00000000000E+00  0.00000000000E+00  0.12126869022E+04  0.12126869022E+04  0.25500000920E-02 0.  1.
        2   -1    0    0  501    0  0.00000000000E+00  0.00000000000E+00 -0.16136986025E+04  0.16136986025E+04  0.25500000920E-02 0. -1.
    10030    2    1    2    0    0  0.00000000000E+00  0.00000000000E+00 -0.40101170032E+03  0.28263855047E+04  0.27977928153E+04 0.  0.
        3    1    3    3  502    0 -0.62479904681E+03 -0.39073518326E+03  0.10007058671E+04  0.12427630808E+04  0.10100000352E+00 0.  1.
       -3    1    3    3    0  502  0.62479904681E+03  0.39073518326E+03 -0.14017175674E+04  0.15836224239E+04  0.10100000352E+00 0. -1.
</event>
<event>
 5   0  0.2190865E-06  0.2634393E+04  0.7818609E-02  0.8356612E-01
        1   -1    0    0  501    0  0.00000000000E+00  0.00000000000E+00  0.16881474775E+04  0.16881474775E+04  0.50400001928E-02 0. -1.
       -1   -1    0    0    0  501  0.00000000000E+00  0.00000000000E+00 -0.10277577106E+04  0.10277577106E+04  0.50400001928E-02 0.  1.
    10030    2    1    2    0    0  0.00000000000E+00  0.00000000000E+00  0.66038976688E+03  0.27159051880E+04  0.26343929749E+04 0.  0.
        2    1    3    3  502    0  0.75474546272E+03  0.91121832051E+03 -0.26654757807E+03  0.12128508369E+04  0.25500000920E-02 0.  1.
       -2    1    3    3    0  502 -0.75474546272E+03 -0.91121832051E+03  0.92693734494E+03  0.15030543512E+04  0.25500000920E-02 0. -1.
</event>
<event>
 5   0  0.2267565E-06  0.2785124E+04  0.7818609E-02  0.8307902E-01
        1   -1    0    0  501    0  0.00000000000E+00  0.00000000000E+00  0.16473205682E+04  0.16473205682E+04  0.50400001928E-02 0. -1.
       -1   -1    0    0    0  501  0.00000000000E+00  0.00000000000E+00 -0.11772016572E+04  0.11772016573E+04  0.50400001928E-02 0.  1.
    10030    2    1    2    0    0  0.00000000000E+00  0.00000000000E+00  0.47011891094E+03  0.28245222255E+04  0.27851236977E+04 0.  0.
        4    1    3    3  502    0 -0.97400647198E+03  0.49780070212E+03  0.11090702431E+04  0.15577331490E+04  0.12699999809E+01 0. -1.
       -4    1    3    3    0  502  0.97400647198E+03 -0.49780070212E+03 -0.63895133214E+03  0.12667890765E+04  0.12699999809E+01 0.  1.
</event>
<event>
 5   0  0.1901375E-06  0.2799551E+04  0.7818609E-02  0.8303408E-01
        3   -1    0    0  501    0  0.00000000000E+00  0.00000000000E+00  0.10531140029E+04  0.10531140077E+04  0.10100000352E+00 0. -1.
       -3   -1    0    0    0  501  0.00000000000E+00  0.00000000000E+00 -0.18605497179E+04  0.18605497206E+04  0.10100000352E+00 0.  1.
    10030    2    1    2    0    0  0.00000000000E+00  0.00000000000E+00 -0.80743571501E+03  0.29136637283E+04  0.27995506582E+04 0.  0.
        5    1    3    3  502    0 -0.14356787387E+03 -0.12945029941E+04  0.13002031703E+03  0.13089221173E+04  0.46999998093E+01 0. -1.
       -5    1    3    3    0  502  0.14356787387E+03  0.12945029941E+04 -0.93745603203E+03  0.16047416111E+04  0.46999998093E+01 0.  1.
</event>
<event>
 5   0  0.5546570E-06  0.2807757E+04  0.7818609E-02  0.8300864E-01
        2   -1    0    0  501    0  0.00000000000E+00  0.00000000000E+00  0.11051532687E+04  0.11051532687E+04  0.25500000920E-02 0.  1.
       -2   -1    0    0    0  501  0.00000000000E+00  0.00000000000E+00 -0.17833499805E+04  0.17833499805E+04  0.25500000920E-02 0. -1.
    10030    2    1    2    0    0  0.00000000000E+00  0.00000000000E+00 -0.67819671185E+03  0.28885032492E+04  0.28077571549E+04 0.  0.
        4    1    3    3  502    0 -0.20046503928E+03  0.91436872196E+03  0.73722911086E+03  0.11915388229E+04  0.12699999809E+01 0.  1.
       -4    1    3    3    0  502  0.20046503928E+03 -0.91436872196E+03 -0.14154258227E+04  0.16969644263E+04  0.12699999809E+01 0. -1.
</event>
<event>
 5   0  0.2206967E-06  0.2793929E+04  0.7818609E-02  0.8305156E-01
        1   -1    0    0  501    0  0.00000000000E+00  0.00000000000E+00  0.13607928795E+04  0.13607928795E+04  0.50400001928E-02 0. -1.
       -1   -1    0    0    0  501  0.00000000000E+00  0.00000000000E+00 -0.14340975780E+04  0.14340975780E+04  0.50400001928E-02 0.  1.
    10030    2    1    2    0    0  0.00000000000E+00  0.00000000000E+00 -0.73304698520E+02  0.27948904575E+04  0.27939289702E+04 0.  0.
        5    1    3    3  502    0 -0.13394611753E+04 -0.26031153522E+03 -0.33603672699E+03  0.14052975156E+04  0.46999998093E+01 0.  1.
       -5    1    3    3    0  502  0.13394611753E+04  0.26031153522E+03  0.26273202847E+03  0.13895929419E+04  0.46999998093E+01 0. -1.
</event>
<event>
 5   0  0.5916603E-06  0.2777099E+04  0.7818609E-02  0.8310414E-01
        2   -1    0    0  501    0  0.00000000000E+00  0.00000000000E+00  0.69741372861E+03  0.69741372862E+03  0.25500000920E-02 0.  1.
       -2   -1    0    0    0  501  0.00000000000E+00  0.00000000000E+00 -0.27645991765E+04  0.27645991765E+04  0.25500000920E-02 0. -1.
    10030    2    1    2    0    0  0.00000000000E+00  0.00000000000E+00 -0.20671854479E+04  0.34620129051E+04  0.27770987882E+04 0.  0.
        2    1    3    3  502    0  0.88195005055E+03  0.97793793682E+03 -0.48469214485E+03  0.14032551355E+04  0.25500000920E-02 0.  1.
       -2    1    3    3    0  502 -0.88195005055E+03 -0.97793793682E+03 -0.15824933031E+04  0.20587577697E+04  0.25500000920E-02 0. -1.
</event>
<event>
 5   0  0.2267565E-06  0.2808128E+04  0.7818609E-02  0.8300749E-01
        1   -1    0    0  501    0  0.00000000000E+00  0.00000000000E+00  0.14017233587E+04  0.14017233587E+04  0.50400001928E-02 0.  1.
       -1   -1    0    0    0  501  0.00000000000E+00  0.00000000000E+00 -0.14064084283E+04  0.14064084283E+04  0.50400001928E-02 0. -1.
    10030    2    1    2    0    0  0.00000000000E+00  0.00000000000E+00 -0.46850696529E+01  0.28081317870E+04  0.28081278787E+04 0.  0.
        4    1    3    3  502    0  0.62781467913E+03  0.17136598709E+03 -0.12464810595E+04  0.14061416065E+04  0.12699999809E+01 0. -1.
       -4    1    3    3    0  502 -0.62781467913E+03 -0.17136598709E+03  0.12417959899E+04  0.14019901805E+04  0.12699999809E+01 0.  1.
</event>
<event>
 5   0  0.2277133E-06  0.2817637E+04  0.7818609E-02  0.8297814E-01
       -1   -1    0    0    0  501  0.00000000000E+00  0.00000000000E+00  0.90120716826E+03  0.90120716828E+03  0.50400001928E-02 0. -1.
        1   -1    0    0  501    0  0.00000000000E+00  0.00000000000E+00 -0.22023453477E+04  0.22023453477E+04  0.50400001928E-02 0.  1.
    10030    2    1    2    0    0  0.00000000000E+00  0.00000000000E+00 -0.13011381795E+04  0.31035525160E+04  0.28176368924E+04 0.  0.
        1    1    3    3  502    0 -0.52395711714E+03 -0.82385067453E+03  0.46812272955E+03  0.10827741613E+04  0.50400001928E-02 0. -1.
       -1    1    3    3    0  502  0.52395711714E+03  0.82385067453E+03 -0.17692609090E+04  0.20207783547E+04  0.50400001928E-02 0.  1.
</event>
<event>
 5   0  0.5916603E-06  0.2784513E+04  0.7818609E-02  0.8308093E-01
       -2   -1    0    0    0  501  0.00000000000E+00  0.00000000000E+00  0.97010054205E+03  0.97010054205E+03  0.25500000920E-02 0.  1.
        2   -1    0    0  501    0  0.00000000000E+00  0.00000000000E+00 -0.19981207047E+04  0.19981207047E+04  0.25500000920E-02 0. -1.
    10030    2    1    2    0    0  0.00000000000E+00  0.00000000000E+00 -0.10280201627E+04  0.29682212468E+04  0.27845128685E+04 0.  0.
        2    1    3    3  502    0  0.92255026151E+03  0.84015115629E+03 -0.11723521893E+04  0.17121222521E+04  0.25500000920E-02 0. -1.
       -2    1    3    3    0  502 -0.92255026151E+03 -0.84015115629E+03  0.14433202665E+03  0.12560989946E+04  0.25500000920E-02 0.  1.
</event>
<event>
 5   0  0.5584205E-06  0.2820888E+04  0.7818609E-02  0.8296813E-01
       -2   -1    0    0    0  501  0.00000000000E+00  0.00000000000E+00  0.93184844874E+03  0.93184844874E+03  0.25500000920E-02 0.  1.
        2   -1    0    0  501    0  0.00000000000E+00  0.00000000000E+00 -0.21348452187E+04  0.21348452187E+04  0.25500000920E-02 0. -1.
    10030    2    1    2    0    0  0.00000000000E+00  0.00000000000E+00 -0.12029967700E+04  0.30666936675E+04  0.28208879491E+04 0.  0.
        1    1    3    3  502    0  0.21192471826E+03 -0.92260087225E+03 -0.17381931423E+04  0.19792472952E+04  0.50400001928E-02 0. -1.
       -1    1    3    3    0  502 -0.21192471826E+03  0.92260087225E+03  0.53519637226E+03  0.10874463723E+04  0.50400001928E-02 0.  1.
</event>
<event>
 5   0  0.2190865E-06  0.2707910E+04  0.7818609E-02  0.8332443E-01
        1   -1    0    0  501    0  0.00000000000E+00  0.00000000000E+00  0.16877357978E+04  0.16877357978E+04  0.50400001928E-02 0. -1.
       -1   -1    0    0    0  501  0.00000000000E+00  0.00000000000E+00 -0.10861851641E+04  0.10861851641E+04  0.50400001928E-02 0.  1.
    10030    2    1    2    0    0  0.00000000000E+00  0.00000000000E+00  0.60155063368E+03  0.27739209619E+04  0.27079095882E+04 0.  0.
        2    1    3    3  502    0  0.12585223693E+04  0.48509620360E+03  0.17958363646E+03  0.13606789347E+04  0.25500000920E-02 0.  1.
       -2    1    3    3    0  502 -0.12585223693E+04 -0.48509620360E+03  0.42196699722E+03  0.14132420272E+04  0.25500000920E-02 0. -1.
</event>
<event>
 5   0  0.2277133E-06  0.2803227E+04  0.7818609E-02  0.8302267E-01
       -1   -1    0    0    0  501  0.00000000000E+00  0.00000000000E+00  0.12714504600E+04  0.12714504600E+04  0.50400001928E-02 0.  1.
        1   -1    0    0  501    0  0.00000000000E+00  0.00000000000E+00 -0.15451016381E+04  0.15451016381E+04  0.50400001928E-02 0. -1.
    10030    2    1    2    0    0  0.00000000000E+00  0.00000000000E+00 -0.27365117806E+03  0.28165520981E+04  0.28032268467E+04 0.  0.
        1    1    3    3  502    0  0.86321559878E+03 -0.11041040999E+04 -0.11848628851E+03  0.14064942353E+04  0.50400001928E-02 0. -1.
       -1    1    3    3    0  502 -0.86321559878E+03  0.11041040999E+04 -0.15516488955E+03  0.14100578628E+04  0.50400001928E-02 0.  1.
</event>
<event>
 5   0  0.2277133E-06  0.2812069E+04  0.7818609E-02  0.8299531E-01
       -1   -1    0    0    0  501  0.00000000000E+00  0.00000000000E+00  0.15284147705E+04  0.15284147705E+04  0.50400001928E-02 0.  1.
        1   -1    0    0  501    0  0.00000000000E+00  0.00000000000E+00 -0.12934534821E+04  0.12934534821E+04  0.50400001928E-02 0. -1.
    10030    2    1    2    0    0  0.00000000000E+00  0.00000000000E+00  0.23496128842E+03  0.28218682526E+04  0.28120692787E+04 0.  0.
        1    1    3    3  502    0 -0.19938489727E+03  0.16960841193E+03 -0.12687860636E+04  0.12955074010E+04  0.50400001928E-02 0. -1.
       -1    1    3    3    0  502  0.19938489727E+03 -0.16960841193E+03  0.15037473520E+04  0.15263608517E+04  0.50400001928E-02 0.  1.
</event>
<event>
 5   0  0.5546570E-06  0.2805160E+04  0.7818609E-02  0.8301668E-01
        2   -1    0    0  501    0  0.00000000000E+00  0.00000000000E+00  0.16728040705E+04  0.16728040705E+04  0.25500000920E-02 0.  1.
       -2   -1    0    0    0  501  0.00000000000E+00  0.00000000000E+00 -0.11760080922E+04  0.11760080922E+04  0.25500000920E-02 0. -1.
    10030    2    1    2    0    0  0.00000000000E+00  0.00000000000E+00  0.49679597837E+03  0.28488121627E+04  0.28051603331E+04 0.  0.
        4    1    3    3  502    0 -0.53371639150E+03  0.11755813599E+04 -0.30820443716E+03  0.13273418205E+04  0.12699999809E+01 0. -1.
       -4    1    3    3    0  502  0.53371639150E+03 -0.11755813599E+04  0.80500041552E+03  0.15214703422E+04  0.12699999809E+01 0.  1.
</event>
<event>
 5   0  0.2234068E-06  0.2816721E+04  0.7818609E-02  0.8298096E-01
        1   -1    0    0  501    0  0.00000000000E+00  0.00000000000E+00  0.20765764787E+04  0.20765764787E+04  0.50400001928E-02 0. -1.
       -1   -1    0    0    0  501  0.00000000000E+00  0.00000000000E+00 -0.95516828844E+03  0.95516828846E+03  0.50400001928E-02 0.  1.
    10030    2    1    2    0    0  0.00000000000E+00  0.00000000000E+00  0.11214081903E+04  0.30317447672E+04  0.28167214992E+04 0.  0.
        3    1    3    3  502    0 -0.86870875056E+03 -0.48782275138E+03  0.16321088632E+04  0.19121729215E+04  0.10100000352E+00 0. -1.
       -3    1    3    3    0  502  0.86870875056E+03  0.48782275138E+03 -0.51070067297E+03  0.11195718457E+04  0.10100000352E+00 0.  1.
</event>
<event>
 5   0  0.2277133E-06  0.2806185E+04  0.7818609E-02  0.8301351E-01
        1   -1    0    0  501    0  0.00000000000E+00  0.00000000000E+00  0.24162224533E+04  0.24162224533E+04  0.50400001928E-02 0.  1.
       -1   -1    0    0    0  501  0.00000000000E+00  0.00000000000E+00 -0.81477108969E+03  0.81477108971E+03  0.50400001928E-02 0. -1.
    10030    2    1    2    0    0  0.00000000000E+00  0.00000000000E+00  0.16014513636E+04  0.32309935430E+04  0.28061847418E+04 0.  0.
        1    1    3    3  502    0  0.30210476347E+03  0.98922486269E+03  0.18923164124E+04  0.21565468976E+04  0.50400001928E-02 0.  1.
       -1    1    3    3    0  502 -0.30210476347E+03 -0.98922486269E+03 -0.29086504879E+03  0.10744466454E+04  0.50400001928E-02 0. -1.
</event>
<event>
 5   0  0.2277133E-06  0.2792801E+04  0.7818609E-02  0.8305507E-01
        1   -1    0    0  501    0  0.00000000000E+00  0.00000000000E+00  0.10207665340E+04  0.10207665340E+04  0.50400001928E-02 0.  1.
       -1   -1    0    0    0  501  0.00000000000E+00  0.00000000000E+00 -0.19102650333E+04  0.19102650334E+04  0.50400001928E-02 0. -1.
    10030    2    1    2    0    0  0.00000000000E+00  0.00000000000E+00 -0.88949849932E+03  0.29310315674E+04  0.27928011868E+04 0.  0.
        1    1    3    3  502    0 -0.20356908765E+03  0.12914136703E+04  0.70193670728E+02  0.13092428319E+04  0.50400001928E-02 0.  1.
       -1    1    3    3    0  502  0.20356908765E+03 -0.12914136703E+04 -0.95969217005E+03  0.16217887355E+04  0.50400001928E-02 0. -1.
</event>
<event>
 5   0  0.5546570E-06  0.2771595E+04  0.7818609E-02  0.8312142E-01
       -2   -1    0    0    0  501  0.00000000000E+00  0.00000000000E+00  0.11208144542E+04  0.11208144542E+04  0.25500000920E-02 0.  1.
        2   -1    0    0  501    0  0.00000000000E+00  0.00000000000E+00 -0.17134274635E+04  0.17134274635E+04  0.25500000920E-02 0. -1.
    10030    2    1    2    0    0  0.00000000000E+00  0.00000000000E+00 -0.59261300926E+03  0.28342419177E+04  0.27715946799E+04 0.  0.
        4    1    3    3  502    0  0.82982255991E+03 -0.92158947980E+03  0.33613872330E+03  0.12848826812E+04  0.12699999809E+01 0.  1.
       -4    1    3    3    0  502 -0.82982255991E+03  0.92158947980E+03 -0.92875173256E+03  0.15493592365E+04  0.12699999809E+01 0. -1.
</event>
<event>
 5   0  0.5625245E-06  0.2809183E+04  0.7818609E-02  0.8300423E-01
       -2   -1    0    0    0  501  0.00000000000E+00  0.00000000000E+00  0.15123750306E+04  0.15123750306E+04  0.25500000920E-02 0. -1.
        2   -1    0    0  501    0  0.00000000000E+00  0.00000000000E+00 -0.13044892306E+04  0.13044892306E+04  0.25500000920E-02 0.  1.
    10030    2    1    2    0    0  0.00000000000E+00  0.00000000000E+00  0.20788580005E+03  0.28168642612E+04  0.28091827567E+04 0.  0.
        3    1    3    3  502    0  0.65105357885E+03  0.11932811927E+04  0.45858522089E+03  0.14346048872E+04  0.10100000352E+00 0. -1.
       -3    1    3    3    0  502 -0.65105357885E+03 -0.11932811927E+04 -0.25069942084E+03  0.13822593740E+04  0.10100000352E+00 0.  1.
</event>
<event>
 5   0  0.5866136E-06  0.2777407E+04  0.7818609E-02  0.8310317E-01
       -2   -1    0    0    0  501  0.00000000000E+00  0.00000000000E+00  0.19866240862E+04  0.19866240862E+04  0.25500000920E-02 0.  1.
        2   -1    0    0  501    0  0.00000000000E+00  0.00000000000E+00 -0.97074081413E+03  0.97074081414E+03  0.25500000920E-02 0. -1.
    10030    2    1    2    0    0  0.00000000000E+00  0.00000000000E+00  0.10158832721E+04  0.29573649004E+04  0.27774067638E+04 0.  0.
        5    1    3    3  502    0  0.85253420587E+03  0.58024116781E+03 -0.48236254093E+03  0.11385034457E+04  0.46999998093E+01 0. -1.
       -5    1    3    3    0  502 -0.85253420587E+03 -0.58024116781E+03  0.14982458130E+04  0.18188614547E+04  0.46999998093E+01 0.  1.
</event>
<event>
 5   0  0.5625245E-06  0.2806376E+04  0.7818609E-02  0.8301292E-01
       -2   -1    0    0    0  501  0.00000000000E+00  0.00000000000E+00  0.88433713266E+03  0.88433713266E+03  0.25500000920E-02 0.  1.
        2   -1    0    0  501    0  0.00000000000E+00  0.00000000000E+00 -0.22264539128E+04  0.22264539128E+04  0.25500000920E-02 0. -1.
    10030    2    1    2    0    0  0.00000000000E+00  0.00000000000E+00 -0.13421167801E+04  0.31107910454E+04  0.28063755053E+04 0.  0.
        3    1    3    3  502    0  0.11997122810E+04  0.58696017379E+03 -0.19415212601E+03  0.13496395301E+04  0.10100000352E+00 0. -1.
       -3    1    3    3    0  502 -0.11997122810E+04 -0.58696017379E+03 -0.11479646541E+04  0.17611515154E+04  0.10100000352E+00 0.  1.
</event>
<event>
 5   0  0.2206967E-06  0.2793722E+04  0.7818609E-02  0.8305220E-01
        1   -1    0    0  501    0  0.00000000000E+00  0.00000000000E+00  0.14073277104E+04  0.14073277104E+04  0.50400001928E-02 0. -1.
       -1   -1    0    0    0  501  0.00000000000E+00  0.00000000000E+00 -0.13864716401E+04  0.13864716401E+04  0.50400001928E-02 0.  1.
    10030    2    1    2    0    0  0.00000000000E+00  0.00000000000E+00  0.20856070279E+02  0.27937993505E+04  0.27937215028E+04 0.  0.
        5    1    3    3  502    0  0.45439083049E+02 -0.99351790128E+03 -0.97044349312E+03  0.13895773436E+04  0.46999998093E+01 0.  1.
       -5    1    3    3    0  502 -0.45439083049E+02  0.99351790128E+03  0.99129956339E+03  0.14042220070E+04  0.46999998093E+01 0. -1.
</event>
<event>
 5   0  0.5866136E-06  0.2802247E+04  0.7818609E-02  0.8302571E-01
       -2   -1    0    0    0  501  0.00000000000E+00  0.00000000000E+00  0.87414927975E+03  0.87414927975E+03  0.25500000920E-02 0.  1.
        2   -1    0    0  501    0  0.00000000000E+00  0.00000000000E+00 -0.22457793485E+04  0.22457793485E+04  0.25500000920E-02 0. -1.
    10030    2    1    2    0    0  0.00000000000E+00  0.00000000000E+00 -0.13716300687E+04  0.31199286282E+04  0.28022465273E+04 0.  0.
        5    1    3    3  502    0 -0.10349108809E+04 -0.89763984947E+03 -0.35869259688E+03  0.14161498155E+04  0.46999998093E+01 0.  1.
       -5    1    3    3    0  502  0.10349108809E+04  0.89763984947E+03 -0.10129374718E+04  0.17037788127E+04  0.46999998093E+01 0. -1.
</event>
<event>
 5   0  0.5916603E-06  0.2791539E+04  0.7818609E-02  0.8305900E-01
       -2   -1    0    0    0  501  0.00000000000E+00  0.00000000000E+00  0.10771929774E+04  0.10771929774E+04  0.25500000920E-02 0.  1.
        2   -1    0    0  501    0  0.00000000000E+00  0.00000000000E+00 -0.18085642475E+04  0.18085642475E+04  0.25500000920E-02 0. -1.
    10030    2    1    2    0    0  0.00000000000E+00  0.00000000000E+00 -0.73137127001E+03  0.28857572249E+04  0.27915391501E+04 0.  0.
        2    1    3    3  502    0 -0.23184079121E+03  0.95661395463E+03 -0.13886880815E+04  0.17021501104E+04  0.25500000920E-02 0. -1.
       -2    1    3    3    0  502  0.23184079121E+03 -0.95661395463E+03  0.65731681153E+03  0.11836071145E+04  0.25500000920E-02 0.  1.
</event>
<event>
 5   0  0.5866136E-06  0.2804333E+04  0.7818609E-02  0.8301924E-01
        2   -1    0    0  501    0  0.00000000000E+00  0.00000000000E+00  0.13708637730E+04  0.13708637730E+04  0.25500000920E-02 0.  1.
       -2   -1    0    0    0  501  0.00000000000E+00  0.00000000000E+00 -0.14341841925E+04  0.14341841925E+04  0.25500000920E-02 0. -1.
    10030    2    1    2    0    0  0.00000000000E+00  0.00000000000E+00 -0.63320419424E+02  0.28050479655E+04  0.28043331851E+04 0.  0.
        5    1    3    3  502    0  0.34249628541E+03 -0.93558460952E+03  0.95521520378E+03  0.13802465152E+04  0.46999998093E+01 0.  1.
       -5    1    3    3    0  502 -0.34249628541E+03  0.93558460952E+03 -0.10185356232E+04  0.14248014503E+04  0.46999998093E+01 0. -1.
</event>
<event>
 5   0  0.2277133E-06  0.2778237E+04  0.7818609E-02  0.8310057E-01
        1   -1    0    0  501    0  0.00000000000E+00  0.00000000000E+00  0.78640345374E+03  0.78640345376E+03  0.50400001928E-02 0.  1.
       -1   -1    0    0    0  501  0.00000000000E+00  0.00000000000E+00 -0.24537665092E+04  0.24537665092E+04  0.50400001928E-02 0. -1.
    10030    2    1    2    0    0  0.00000000000E+00  0.00000000000E+00 -0.16673630554E+04  0.32401699629E+04  0.27782371803E+04 0.  0.
        1    1    3    3  502    0 -0.77960113252E+02 -0.53021428401E+03 -0.23283468387E+04  0.23892266464E+04  0.50400001928E-02 0. -1.
       -1    1    3    3    0  502  0.77960113252E+02  0.53021428401E+03  0.66098378329E+03  0.85094331658E+03  0.50400001928E-02 0.  1.
</event>
<event>
 5   0  0.5916603E-06  0.2792224E+04  0.7818609E-02  0.8305687E-01
       -2   -1    0    0    0  501  0.00000000000E+00  0.00000000000E+00  0.11379639797E+04  0.11379639797E+04  0.25500000920E-02 0.  1.
        2   -1    0    0  501    0  0.00000000000E+00  0.00000000000E+00 -0.17128208087E+04  0.17128208087E+04  0.25500000920E-02 0. -1.
    10030    2    1    2    0    0  0.00000000000E+00  0.00000000000E+00 -0.57485682893E+03  0.28507847884E+04  0.27922237618E+04 0.  0.
        2    1    3    3  502    0  0.10822679450E+03 -0.48215654040E+02 -0.17076786347E+04  0.17117838964E+04  0.25500000920E-02 0. -1.
       -2    1    3    3    0  502 -0.10822679450E+03  0.48215654040E+02  0.11328218058E+04  0.11390008920E+04  0.25500000920E-02 0.  1.
</event>
<event>
 5   0  0.2206967E-06  0.2852305E+04  0.7818609E-02  0.8287211E-01
       -1   -1    0    0    0  501  0.00000000000E+00  0.00000000000E+00  0.74318579959E+03  0.74318579961E+03  0.50400001928E-02 0. -1.
        1   -1    0    0  501    0  0.00000000000E+00  0.00000000000E+00 -0.27367457489E+04  0.27367457489E+04  0.50400001928E-02 0.  1.
    10030    2    1    2    0    0  0.00000000000E+00  0.00000000000E+00 -0.19935599493E+04  0.34799315485E+04  0.28523047367E+04 0.  0.
        5    1    3    3  502    0  0.46329466228E+03  0.47040167149E+02 -0.26413647941E+04  0.26821045444E+04  0.46999998093E+01 0.  1.
       -5    1    3    3    0  502 -0.46329466228E+03 -0.47040167149E+02  0.64780484486E+03  0.79782700408E+03  0.46999998093E+01 0. -1.
</event>
<event>
 5   0  0.2234068E-06  0.2851586E+04  0.7818609E-02  0.8287429E-01
        1   -1    0    0  501    0  0.00000000000E+00  0.00000000000E+00  0.16158994152E+04  0.16158994152E+04  0.50400001928E-02 0.  1.
       -1   -1    0    0    0  501  0.00000000000E+00  0.00000000000E+00 -0.12580524639E+04  0.12580524639E+04  0.50400001928E-02 0. -1.
    10030    2    1    2    0    0  0.00000000000E+00  0.00000000000E+00  0.35784695130E+03  0.28739518791E+04  0.28515863941E+04 0.  0.
        3    1    3    3  502    0 -0.48704592001E+02  0.47050974713E+03 -0.11766666809E+04  0.12681861250E+04  0.10100000352E+00 0. -1.
       -3    1    3    3    0  502  0.48704592001E+02 -0.47050974713E+03  0.15345136322E+04  0.16057657541E+04  0.10100000352E+00 0.  1.
</event>
<event>
 5   0  0.5546570E-06  0.2814356E+04  0.7818609E-02  0.8298825E-01
       -2   -1    0    0    0  501  0.00000000000E+00  0.00000000000E+00  0.12180862673E+04  0.12180862673E+04  0.25500000920E-02 0. -1.
        2   -1    0    0  501    0  0.00000000000E+00  0.00000000000E+00 -0.16256242931E+04  0.16256242931E+04  0.25500000920E-02 0.  1.
    10030    2    1    2    0    0  0.00000000000E+00  0.00000000000E+00 -0.40753802578E+03  0.28437105604E+04  0.28143564999E+04 0.  0.
        4    1    3    3  502    0  0.10468018335E+04  0.21626732881E+03 -0.11285104241E+04  0.15543818792E+04  0.12699999809E+01 0.  1.
       -4    1    3    3    0  502 -0.10468018335E+04 -0.21626732881E+03  0.72097239833E+03  0.12893286812E+04  0.12699999809E+01 0. -1.
</event>
<event>
 5   0  0.2206967E-06  0.2802291E+04  0.7818609E-02  0.8302558E-01
        1   -1    0    0  501    0  0.00000000000E+00  0.00000000000E+00  0.14593929337E+04  0.14593929337E+04  0.50400001928E-02 0.  1.
       -1   -1    0    0    0  501  0.00000000000E+00  0.00000000000E+00 -0.13452224868E+04  0.13452224869E+04  0.50400001928E-02 0. -1.
    10030    2    1    2    0    0  0.00000000000E+00  0.00000000000E+00  0.11417044683E+03  0.28046154205E+04  0.28022906284E+04 0.  0.
        5    1    3    3  502    0 -0.23904394976E+03 -0.14946413836E+03 -0.13165345631E+04  0.13463903165E+04  0.46999998093E+01 0. -1.
       -5    1    3    3    0  502  0.23904394976E+03  0.14946413836E+03  0.14307050099E+04  0.14582251040E+04  0.46999998093E+01 0.  1.
</event>
<event>
 5   0  0.2277133E-06  0.2794659E+04  0.7818609E-02  0.8304928E-01
       -1   -1    0    0    0  501  0.00000000000E+00  0.00000000000E+00  0.11772193953E+04  0.11772193953E+04  0.50400001928E-02 0.  1.
        1   -1    0    0  501    0  0.00000000000E+00  0.00000000000E+00 -0.16585946027E+04  0.16585946027E+04  0.50400001928E-02 0. -1.
    10030    2    1    2    0    0  0.00000000000E+00  0.00000000000E+00 -0.48137520735E+03  0.28358139980E+04  0.27946590026E+04 0.  0.
        1    1    3    3  502    0 -0.17045112445E+03  0.40239817547E+02  0.11660381629E+04  0.11791173929E+04  0.50400001928E-02 0.  1.
       -1    1    3    3    0  502  0.17045112445E+03 -0.40239817547E+02 -0.16474133703E+04  0.16566966051E+04  0.50400001928E-02 0. -1.
</event>
<event>
 5   0  0.2206967E-06  0.2839130E+04  0.7818609E-02  0.8291222E-01
        1   -1    0    0  501    0  0.00000000000E+00  0.00000000000E+00  0.22439713162E+04  0.22439713162E+04  0.50400001928E-02 0. -1.
       -1   -1    0    0    0  501  0.00000000000E+00  0.00000000000E+00 -0.89803523620E+03  0.89803523622E+03  0.50400001928E-02 0.  1.
    10030    2    1    2    0    0  0.00000000000E+00  0.00000000000E+00  0.13459360800E+04  0.31420065524E+04  0.28391303676E+04 0.  0.
        5    1    3    3  502    0 -0.59927156584E+01 -0.63208155284E+03 -0.73368184470E+03  0.96843902303E+03  0.46999998093E+01 0.  1.
       -5    1    3    3    0  502  0.59927156584E+01  0.63208155284E+03  0.20796179247E+04  0.21735675294E+04  0.46999998093E+01 0. -1.
</event>
<event>
 5   0  0.5866136E-06  0.2812190E+04  0.7818609E-02  0.8299494E-01
        2   -1    0    0  501    0  0.00000000000E+00  0.00000000000E+00  0.14285321779E+04  0.14285321779E+04  0.25500000920E-02 0.  1.
       -2   -1    0    0    0  501  0.00000000000E+00  0.00000000000E+00 -0.13840098521E+04  0.13840098521E+04  0.25500000920E-02 0. -1.
    10030    2    1    2    0    0  0.00000000000E+00  0.00000000000E+00  0.44522325811E+02  0.28125420301E+04  0.28121896155E+04 0.  0.
        5    1    3    3  502    0  0.42756820558E+03  0.13110409066E+04 -0.25243248024E+03  0.14019226356E+04  0.46999998093E+01 0.  1.
       -5    1    3    3    0  502 -0.42756820558E+03 -0.13110409066E+04  0.29695480605E+03  0.14106193945E+04  0.46999998093E+01 0. -1.
</event>
<event>
 5   0  0.2277133E-06  0.2790557E+04  0.7818609E-02  0.8306206E-01
        1   -1    0    0  501    0  0.00000000000E+00  0.00000000000E+00  0.15481823433E+04  0.15481823433E+04  0.50400001928E-02 0.  1.
       -1   -1    0    0    0  501  0.00000000000E+00  0.00000000000E+00 -0.12574758047E+04  0.12574758047E+04  0.50400001928E-02 0. -1.
    10030    2    1    2    0    0  0.00000000000E+00  0.00000000000E+00  0.29070653864E+03  0.28056581480E+04  0.27905568175E+04 0.  0.
        1    1    3    3  502    0 -0.11232885928E+04  0.96123281109E+02  0.97186328914E+03  0.14884674000E+04  0.50400001928E-02 0.  1.
       -1    1    3    3    0  502  0.11232885928E+04 -0.96123281109E+02 -0.68115675050E+03  0.13171907480E+04  0.50400001928E-02 0. -1.
</event>
<event>
 5   0  0.1901375E-06  0.2793936E+04  0.7818609E-02  0.8305153E-01
       -3   -1    0    0    0  501  0.00000000000E+00  0.00000000000E+00  0.10314240873E+04  0.10314240923E+04  0.10100000352E+00 0.  1.
        3   -1    0    0  501    0  0.00000000000E+00  0.00000000000E+00 -0.18920638129E+04  0.18920638156E+04  0.10100000352E+00 0. -1.
    10030    2    1    2    0    0  0.00000000000E+00  0.00000000000E+00 -0.86063972560E+03  0.29234879079E+04  0.27939364363E+04 0.  0.
        1    1    3    3  502    0  0.10187681127E+04  0.91620180276E+03 -0.14528087499E+03  0.13778318996E+04  0.50400001928E-02 0. -1.
       -1    1    3    3    0  502 -0.10187681127E+04 -0.91620180276E+03 -0.71535885061E+03  0.15456560083E+04  0.50400001928E-02 0.  1.
</event>
<event>
 5   0  0.5866136E-06  0.2798069E+04  0.7818609E-02  0.8303868E-01
        2   -1    0    0  501    0  0.00000000000E+00  0.00000000000E+00  0.21600301785E+04  0.21600301785E+04  0.25500000920E-02 0.  1.
       -2   -1    0    0    0  501  0.00000000000E+00  0.00000000000E+00 -0.90614350706E+03  0.90614350706E+03  0.25500000920E-02 0. -1.
    10030    2    1    2    0    0  0.00000000000E+00  0.00000000000E+00  0.12538866714E+04  0.30661736855E+04  0.27980688492E+04 0.  0.
        5    1    3    3  502    0 -0.11206266923E+04  0.55323849847E+03  0.13160012193E+04  0.18148714332E+04  0.46999998093E+01 0.  1.
       -5    1    3    3    0  502  0.11206266923E+04 -0.55323849847E+03 -0.62114547897E+02  0.12513022524E+04  0.46999998093E+01 0. -1.
</event>
<event>
 5   0  0.2206967E-06  0.2722286E+04  0.7818609E-02  0.8327810E-01
        1   -1    0    0  501    0  0.00000000000E+00  0.00000000000E+00  0.25714932241E+04  0.25714932241E+04  0.50400001928E-02 0.  1.
       -1   -1    0    0    0  501  0.00000000000E+00  0.00000000000E+00 -0.72048027217E+03  0.72048027218E+03  0.50400001928E-02 0. -1.
    10030    2    1    2    0    0  0.00000000000E+00  0.00000000000E+00  0.18510129519E+04  0.32919734963E+04  0.27222859056E+04 0.  0.
        5    1    3    3  502    0  0.12219918227E+03  0.83824189959E+03 -0.36286407938E+03  0.92156093259E+03  0.46999998093E+01 0. -1.
       -5    1    3    3    0  502 -0.12219918227E+03 -0.83824189959E+03  0.22138770313E+04  0.23704125637E+04  0.46999998093E+01 0.  1.
</event>
<event>
 5   0  0.5546570E-06  0.2818637E+04  0.7818609E-02  0.8297505E-01
       -2   -1    0    0    0  501  0.00000000000E+00  0.00000000000E+00  0.11026368534E+04  0.11026368534E+04  0.25500000920E-02 0. -1.
        2   -1    0    0  501    0  0.00000000000E+00  0.00000000000E+00 -0.18012995017E+04  0.18012995017E+04  0.25500000920E-02 0.  1.
    10030    2    1    2    0    0  0.00000000000E+00  0.00000000000E+00 -0.69866264831E+03  0.29039363550E+04  0.28186374116E+04 0.  0.
        4    1    3    3  502    0  0.11380893492E+04  0.35006725036E+03  0.42739581709E+03  0.12650941641E+04  0.12699999809E+01 0. -1.
       -4    1    3    3    0  502 -0.11380893492E+04 -0.35006725036E+03 -0.11260584654E+04  0.16388421910E+04  0.12699999809E+01 0.  1.
</event>
<event>
 5   0  0.2267565E-06  0.2794885E+04  0.7818609E-02  0.8304858E-01
        1   -1    0    0  501    0  0.00000000000E+00  0.00000000000E+00  0.11806578579E+04  0.11806578579E+04  0.50400001928E-02 0.  1.
       -1   -1    0    0    0  501  0.00000000000E+00  0.00000000000E+00 -0.16540316022E+04  0.16540316022E+04  0.50400001928E-02 0. -1.
    10030    2    1    2    0    0  0.00000000000E+00  0.00000000000E+00 -0.47337374436E+03  0.28346894601E+04  0.27948849052E+04 0.  0.
        4    1    3    3  502    0 -0.62385704450E+03 -0.12476816779E+04 -0.15221437530E+03  0.14032384011E+04  0.12699999809E+01 0.  1.
       -4    1    3    3    0  502  0.62385704450E+03  0.12476816779E+04 -0.32115936906E+03  0.14314510591E+04  0.12699999809E+01 0. -1.
</event>
<event>
 5   0  0.2190865E-06  0.2743335E+04  0.7818609E-02  0.8321080E-01
       -1   -1    0    0    0  501  0.00000000000E+00  0.00000000000E+00  0.89209704703E+03  0.89209704705E+03  0.50400001928E-02 0. -1.
        1   -1    0    0  501    0  0.00000000000E+00  0.00000000000E+00 -0.21090445244E+04  0.21090445244E+04  0.50400001928E-02 0.  1.
    10030    2    1    2    0    0  0.00000000000E+00  0.00000000000E+00 -0.12169474774E+04  0.30011415715E+04  0.27433354825E+04 0.  0.
        2    1    3    3  502    0 -0.21973894118E+03 -0.11567490664E+04 -0.13782460138E+04  0.18127094856E+04  0.25500000920E-02 0.  1.
       -2    1    3    3    0  502  0.21973894118E+03  0.11567490664E+04  0.16129853640E+03  0.11884320858E+04  0.25500000920E-02 0. -1.
</event>
<event>
 5   0  0.2234068E-06  0.2800019E+04  0.7818609E-02  0.8303262E-01
        1   -1    0    0  501    0  0.00000000000E+00  0.00000000000E+00  0.14185404179E+04  0.14185404179E+04  0.50400001928E-02 0.  1.
       -1   -1    0    0    0  501  0.00000000000E+00  0.00000000000E+00 -0.13817209983E+04  0.13817209984E+04  0.50400001928E-02 0. -1.
    10030    2    1    2    0    0  0.00000000000E+00  0.00000000000E+00  0.36819419571E+02  0.28002614163E+04  0.28000193445E+04 0.  0.
        3    1    3    3  502    0  0.19614447392E+03  0.82833914458E+03 -0.10931757793E+04  0.13855149540E+04  0.10100000352E+00 0. -1.
       -3    1    3    3    0  502 -0.19614447392E+03 -0.82833914458E+03  0.11299951988E+04  0.14147464623E+04  0.10100000352E+00 0.  1.
</event>
<event>
 5   0  0.5625245E-06  0.2829567E+04  0.7818609E-02  0.8294147E-01
        2   -1    0    0  501    0  0.00000000000E+00  0.00000000000E+00  0.19004319977E+04  0.19004319977E+04  0.25500000920E-02 0. -1.
       -2   -1    0    0    0  501  0.00000000000E+00  0.00000000000E+00 -0.10532407223E+04  0.10532407223E+04  0.25500000920E-02 0.  1.
    10030    2    1    2    0    0  0.00000000000E+00  0.00000000000E+00  0.84719127534E+03  0.29536727200E+04  0.28295670128E+04 0.  0.
        3    1    3    3  502    0 -0.14959811175E+03  0.28000404893E+03  0.18627722199E+04  0.18896301797E+04  0.10100000352E+00 0. -1.
       -3    1    3    3    0  502  0.14959811175E+03 -0.28000404893E+03 -0.10155809446E+04  0.10640425403E+04  0.10100000352E+00 0.  1.
</event>
<event>
 5   0  0.2190865E-06  0.2793328E+04  0.7818609E-02  0.8305343E-01
       -1   -1    0    0    0  501  0.00000000000E+00  0.00000000000E+00  0.87417677213E+03  0.87417677214E+03  0.50400001928E-02 0. -1.
        1   -1    0    0  501    0  0.00000000000E+00  0.00000000000E+00 -0.22314373321E+04  0.22314373321E+04  0.50400001928E-02 0.  1.
    10030    2    1    2    0    0  0.00000000000E+00  0.00000000000E+00 -0.13572605599E+04  0.31056141042E+04  0.27933282544E+04 0.  0.
        2    1    3    3  502    0  0.63801405913E+03  0.86187999932E+02  0.69936148504E+03  0.95057708669E+03  0.25500000920E-02 0. -1.
       -2    1    3    3    0  502 -0.63801405913E+03 -0.86187999932E+02 -0.20566220450E+04  0.21550370175E+04  0.25500000920E-02 0.  1.
</event>
<event>
 5   0  0.2190865E-06  0.2818724E+04  0.7818609E-02  0.8297479E-01
       -1   -1    0    0    0  501  0.00000000000E+00  0.00000000000E+00  0.10608586366E+04  0.10608586366E+04  0.50400001928E-02 0.  1.
        1   -1    0    0  501    0  0.00000000000E+00  0.00000000000E+00 -0.18723525913E+04  0.18723525913E+04  0.50400001928E-02 0. -1.
    10030    2    1    2    0    0  0.00000000000E+00  0.00000000000E+00 -0.81149395469E+03  0.29332112279E+04  0.28187241208E+04 0.  0.
        2    1    3    3  502    0  0.65589790577E+03 -0.32116534546E+03  0.84859635790E+03  0.11195825207E+04  0.25500000920E-02 0.  1.
       -2    1    3    3    0  502 -0.65589790577E+03  0.32116534546E+03 -0.16600903126E+04  0.18136287073E+04  0.25500000920E-02 0. -1.
</event>
<event>
 5   0  0.5866136E-06  0.2760770E+04  0.7818609E-02  0.8315552E-01
        2   -1    0    0  501    0  0.00000000000E+00  0.00000000000E+00  0.23592824023E+04  0.23592824023E+04  0.25500000920E-02 0.  1.
       -2   -1    0    0    0  501  0.00000000000E+00  0.00000000000E+00 -0.80764529394E+03  0.80764529395E+03  0.25500000920E-02 0. -1.
    10030    2    1    2    0    0  0.00000000000E+00  0.00000000000E+00  0.15516371083E+04  0.31669276962E+04  0.27607704209E+04 0.  0.
        5    1    3    3  502    0 -0.84157441858E+03  0.72005183242E+03 -0.16922731705E+03  0.11204383598E+04  0.46999998093E+01 0. -1.
       -5    1    3    3    0  502  0.84157441858E+03 -0.72005183242E+03  0.17208644254E+04  0.20464893364E+04  0.46999998093E+01 0.  1.
</event>
<event>
 5   0  0.5546570E-06  0.2805284E+04  0.7818609E-02  0.8301630E-01
        2   -1    0    0  501    0  0.00000000000E+00  0.00000000000E+00  0.14641544097E+04  0.14641544097E+04  0.25500000920E-02 0. -1.
       -2   -1    0    0    0  501  0.00000000000E+00  0.00000000000E+00 -0.13437143098E+04  0.13437143098E+04  0.25500000920E-02 0.  1.
    10030    2    1    2    0    0  0.00000000000E+00  0.00000000000E+00  0.12044009989E+03  0.28078687194E+04  0.28052844647E+04 0.  0.
        4    1    3    3  502    0 -0.10410115364E+04 -0.60145638928E+03  0.78334583659E+03  0.14349519573E+04  0.12699999809E+01 0. -1.
       -4    1    3    3    0  502  0.10410115364E+04  0.60145638928E+03 -0.66290573669E+03  0.13729167622E+04  0.12699999809E+01 0.  1.
</event>
<event>
 5   0  0.2190865E-06  0.2789349E+04  0.7818609E-02  0.8306583E-01
       -1   -1    0    0    0  501  0.00000000000E+00  0.00000000000E+00  0.14260404057E+04  0.14260404057E+04  0.50400001928E-02 0.  1.
        1   -1    0    0  501    0  0.00000000000E+00  0.00000000000E+00 -0.13639983602E+04  0.13639983602E+04  0.50400001928E-02 0. -1.
    10030    2    1    2    0    0  0.00000000000E+00  0.00000000000E+00  0.62042045479E+02  0.27900387660E+04  0.27893488667E+04 0.  0.
        2    1    3    3  502    0 -0.38257668274E+03  0.47127379778E+03  0.12869799706E+04  0.14229481211E+04  0.25500000920E-02 0.  1.
       -2    1    3    3    0  502  0.38257668274E+03 -0.47127379778E+03 -0.12249379252E+04  0.13670906448E+04  0.25500000920E-02 0. -1.
</event>
<event>
 5   0  0.2234068E-06  0.2780891E+04  0.7818609E-02  0.8309226E-01
       -1   -1    0    0    0  501  0.00000000000E+00  0.00000000000E+00  0.11858344500E+04  0.11858344500E+04  0.50400001928E-02 0. -1.
        1   -1    0    0  501    0  0.00000000000E+00  0.00000000000E+00 -0.16303612733E+04  0.16303612733E+04  0.50400001928E-02 0.  1.
    10030    2    1    2    0    0  0.00000000000E+00  0.00000000000E+00 -0.44452682330E+03  0.28161957233E+04  0.27808909104E+04 0.  0.
        3    1    3    3  502    0  0.11437169556E+04  0.45745640932E+03  0.43089277592E+03  0.13049994006E+04  0.10100000352E+00 0. -1.
       -3    1    3    3    0  502 -0.11437169556E+04 -0.45745640932E+03 -0.87541959923E+03  0.15111963227E+04  0.10100000352E+00 0.  1.
</event>
<event>
 5   0  0.2206967E-06  0.2785226E+04  0.7818609E-02  0.8307870E-01
        1   -1    0    0  501    0  0.00000000000E+00  0.00000000000E+00  0.10649051133E+04  0.10649051133E+04  0.50400001928E-02 0. -1.
       -1   -1    0    0    0  501  0.00000000000E+00  0.00000000000E+00 -0.18211681062E+04  0.18211681062E+04  0.50400001928E-02 0.  1.
    10030    2    1    2    0    0  0.00000000000E+00  0.00000000000E+00 -0.75626299294E+03  0.28860732195E+04  0.27852261872E+04 0.  0.
        5    1    3    3  502    0  0.11612744813E+04  0.41432753148E+03  0.29270678348E+03  0.12672509914E+04  0.46999998093E+01 0. -1.
       -5    1    3    3    0  502 -0.11612744813E+04 -0.41432753148E+03 -0.10489697764E+04  0.16188222280E+04  0.46999998093E+01 0.  1.
</event>
<event>
 5   0  0.5916603E-06  0.2809300E+04  0.7818609E-02  0.8300387E-01
        2   -1    0    0  501    0  0.00000000000E+00  0.00000000000E+00  0.10028700473E+04  0.10028700473E+04  0.25500000920E-02 0.  1.
       -2   -1    0    0    0  501  0.00000000000E+00  0.00000000000E+00 -0.19673954198E+04  0.19673954198E+04  0.25500000920E-02 0. -1.
    10030    2    1    2    0    0  0.00000000000E+00  0.00000000000E+00 -0.96452537255E+03  0.29702654671E+04  0.28093002243E+04 0.  0.
        2    1    3    3  502    0 -0.69296587095E+03  0.12212756248E+04 -0.44376069165E+03  0.14726300966E+04  0.25500000920E-02 0. -1.
       -2    1    3    3    0  502  0.69296587095E+03 -0.12212756248E+04 -0.52076468090E+03  0.14976353705E+04  0.25500000920E-02 0.  1.
</event>
<event>
 5   0  0.2277133E-06  0.2816451E+04  0.7818609E-02  0.8298179E-01
       -1   -1    0    0    0  501  0.00000000000E+00  0.00000000000E+00  0.17608154293E+04  0.17608154293E+04  0.50400001928E-02 0. -1.
        1   -1    0    0  501    0  0.00000000000E+00  0.00000000000E+00 -0.11262391607E+04  0.11262391607E+04  0.50400001928E-02 0.  1.
    10030    2    1    2    0    0  0.00000000000E+00  0.00000000000E+00  0.63457626856E+03  0.28870545900E+04  0.28164511650E+04 0.  0.
        1    1    3    3  502    0 -0.10011449745E+04  0.17461197655E+03  0.13165686180E+04  0.16631697232E+04  0.50400001928E-02 0. -1.
       -1    1    3    3    0  502  0.10011449745E+04 -0.17461197655E+03 -0.68199234944E+03  0.12238848668E+04  0.50400001928E-02 0.  1.
</event>
<event>
 5   0  0.5866136E-06  0.2798238E+04  0.7818609E-02  0.8303816E-01
        2   -1    0    0  501    0  0.00000000000E+00  0.00000000000E+00  0.15383742305E+04  0.15383742305E+04  0.25500000920E-02 0. -1.
       -2   -1    0    0    0  501  0.00000000000E+00  0.00000000000E+00 -0.12724691956E+04  0.12724691956E+04  0.25500000920E-02 0.  1.
    10030    2    1    2    0    0  0.00000000000E+00  0.00000000000E+00  0.26590503489E+03  0.28108434261E+04  0.27982378881E+04 0.  0.
        5    1    3    3  502    0  0.60542636361E+03  0.17928849422E+03  0.13871065586E+04  0.15240643493E+04  0.46999998093E+01 0. -1.
       -5    1    3    3    0  502 -0.60542636361E+03 -0.17928849422E+03 -0.11212015237E+04  0.12867790769E+04  0.46999998093E+01 0.  1.
</event>
<event>
 5   0  0.2234068E-06  0.2815267E+04  0.7818609E-02  0.8298544E-01
        1   -1    0    0  501    0  0.00000000000E+00  0.00000000000E+00  0.28178551225E+04  0.28178551225E+04  0.50400001928E-02 0. -1.
       -1   -1    0    0    0  501  0.00000000000E+00  0.00000000000E+00 -0.70317052503E+03  0.70317052505E+03  0.50400001928E-02 0.  1.
    10030    2    1    2    0    0  0.00000000000E+00  0.00000000000E+00  0.21146845975E+04  0.35210256475E+04  0.28152674232E+04 0.  0.
        3    1    3    3  502    0 -0.11738357020E+04 -0.51083238260E+03  0.17893886354E+04  0.22001708290E+04  0.10100000352E+00 0.  1.
       -3    1    3    3    0  502  0.11738357020E+04  0.51083238260E+03  0.32529596210E+03  0.13208548185E+04  0.10100000352E+00 0. -1.
</event>
<event>
 5   0  0.5916603E-06  0.2667862E+04  0.7818609E-02  0.8345509E-01
        2   -1    0    0  501    0  0.00000000000E+00  0.00000000000E+00  0.19240580529E+04  0.19240580529E+04  0.25500000920E-02 0. -1.
       -2   -1    0    0    0  501  0.00000000000E+00  0.00000000000E+00 -0.92480123811E+03  0.92480123812E+03  0.25500000920E-02 0.  1.
    10030    2    1    2    0    0  0.00000000000E+00  0.00000000000E+00  0.99925681475E+03  0.28488592910E+04  0.26678615178E+04 0.  0.
        2    1    3    3  502    0  0.68328948159E+03 -0.25429276804E+03  0.16924734384E+04  0.18428281708E+04  0.25500000920E-02 0. -1.
       -2    1    3    3    0  502 -0.68328948159E+03  0.25429276804E+03 -0.69321662361E+03  0.10060311202E+04  0.25500000920E-02 0.  1.
</event>
<event>
 5   0  0.5866136E-06  0.2823235E+04  0.7818609E-02  0.8296091E-01
       -2   -1    0    0    0  501  0.00000000000E+00  0.00000000000E+00  0.17169430801E+04  0.17169430801E+04  0.25500000920E-02 0. -1.
        2   -1    0    0  501    0  0.00000000000E+00  0.00000000000E+00 -0.11605883094E+04  0.11605883094E+04  0.25500000920E-02 0.  1.
    10030    2    1    2    0    0  0.00000000000E+00  0.00000000000E+00  0.55635477065E+03  0.28775313895E+04  0.28232350711E+04 0.  0.
        5    1    3    3  502    0  0.93269394198E+01  0.13070209988E+04 -0.26522820450E+03  0.13337012310E+04  0.46999998093E+01 0.  1.
       -5    1    3    3    0  502 -0.93269394198E+01 -0.13070209988E+04  0.82158297515E+03  0.15438301585E+04  0.46999998093E+01 0. -1.
</event>
<event>
 5   0  0.2277133E-06  0.2746359E+04  0.7818609E-02  0.8320118E-01
       -1   -1    0    0    0  501  0.00000000000E+00  0.00000000000E+00  0.16629380656E+04  0.16629380656E+04  0.50400001928E-02 0. -1.
        1   -1    0    0  501    0  0.00000000000E+00  0.00000000000E+00 -0.11339101106E+04  0.11339101106E+04  0.50400001928E-02 0.  1.
    10030    2    1    2    0    0  0.00000000000E+00  0.00000000000E+00  0.52902795501E+03  0.27968481762E+04  0.27463592524E+04 0.  0.
        1    1    3    3  502    0  0.29032530840E+03  0.50700937173E+03 -0.10010201613E+04  0.11590464404E+04  0.50400001928E-02 0.  1.
       -1    1    3    3    0  502 -0.29032530840E+03 -0.50700937173E+03  0.15300481163E+04  0.16378017358E+04  0.50400001928E-02 0. -1.
</event>
<event>
 5   0  0.2267565E-06  0.2795283E+04  0.7818609E-02  0.8304734E-01
       -1   -1    0    0    0  501  0.00000000000E+00  0.00000000000E+00  0.10500067358E+04  0.10500067358E+04  0.50400001928E-02 0.  1.
        1   -1    0    0  501    0  0.00000000000E+00  0.00000000000E+00 -0.18603704061E+04  0.18603704061E+04  0.50400001928E-02 0. -1.
    10030    2    1    2    0    0  0.00000000000E+00  0.00000000000E+00 -0.81036367035E+03  0.29103771419E+04  0.27952827817E+04 0.  0.
        4    1    3    3  502    0  0.10500268376E+03 -0.40860339148E+03  0.98212899171E+03  0.10689065742E+04  0.12699999809E+01 0.  1.
       -4    1    3    3    0  502 -0.10500268376E+03  0.40860339148E+03 -0.17924926621E+04  0.18414705677E+04  0.12699999809E+01 0. -1.
</event>
<event>
 5   0  0.5625245E-06  0.2784122E+04  0.7818609E-02  0.8308215E-01
       -2   -1    0    0    0  501  0.00000000000E+00  0.00000000000E+00  0.18432267598E+04  0.18432267598E+04  0.25500000920E-02 0.  1.
        2   -1    0    0  501    0  0.00000000000E+00  0.00000000000E+00 -0.10513270255E+04  0.10513270255E+04  0.25500000920E-02 0. -1.
    10030    2    1    2    0    0  0.00000000000E+00  0.00000000000E+00  0.79189973433E+03  0.28945537853E+04  0.27841222004E+04 0.  0.
        3    1    3    3  502    0  0.11087754088E+04 -0.30052686628E+03 -0.42145068144E+03  0.12236502734E+04  0.10100000352E+00 0. -1.
       -3    1    3    3    0  502 -0.11087754088E+04  0.30052686628E+03  0.12133504158E+04  0.16709035119E+04  0.10100000352E+00 0.  1.
</event>
<event>
 5   0  0.2206967E-06  0.2784331E+04  0.7818609E-02  0.8308150E-01
        1   -1    0    0  501    0  0.00000000000E+00  0.00000000000E+00  0.15142829950E+04  0.15142829950E+04  0.50400001928E-02 0. -1.
       -1   -1    0    0    0  501  0.00000000000E+00  0.00000000000E+00 -0.12798959349E+04  0.12798959349E+04  0.50400001928E-02 0.  1.
    10030    2    1    2    0    0  0.00000000000E+00  0.00000000000E+00  0.23438706012E+03  0.27941789299E+04  0.27843309067E+04 0.  0.
        5    1    3    3  502    0 -0.87284635908E+03 -0.22488858701E+03  0.11819206504E+04  0.14864030937E+04  0.46999998093E+01 0. -1.
       -5    1    3    3    0  502  0.87284635908E+03  0.22488858701E+03 -0.94753359023E+03  0.13077758362E+04  0.46999998093E+01 0.  1.
</event>
<event>
 5   0  0.5584205E-06  0.2488346E+04  0.7818609E-02  0.8407149E-01
        2   -1    0    0  501    0  0.00000000000E+00  0.00000000000E+00  0.16482614747E+04  0.16482614747E+04  0.25500000920E-02 0.  1.
       -2   -1    0    0    0  501  0.00000000000E+00  0.00000000000E+00 -0.93915085187E+03  0.93915085188E+03  0.25500000920E-02 0. -1.
    10030    2    1    2    0    0  0.00000000000E+00  0.00000000000E+00  0.70911062286E+03  0.25874123266E+04  0.24883457703E+04 0.  0.
        1    1    3    3  502    0 -0.64539856184E+03 -0.77736476808E+03 -0.40038765770E+03  0.10868052092E+04  0.50400001928E-02 0. -1.
       -1    1    3    3    0  502  0.64539856184E+03  0.77736476808E+03  0.11094982806E+04  0.15006071174E+04  0.50400001928E-02 0.  1.
</event>
<event>
 5   0  0.2277133E-06  0.2797170E+04  0.7818609E-02  0.8304148E-01
       -1   -1    0    0    0  501  0.00000000000E+00  0.00000000000E+00  0.18348959218E+04  0.18348959218E+04  0.50400001928E-02 0.  1.
        1   -1    0    0  501    0  0.00000000000E+00  0.00000000000E+00 -0.10660221232E+04  0.10660221232E+04  0.50400001928E-02 0. -1.
    10030    2    1    2    0    0  0.00000000000E+00  0.00000000000E+00  0.76887379863E+03  0.29009180450E+04  0.27971697456E+04 0.  0.
        1    1    3    3  502    0 -0.33856530197E+03 -0.47507569620E+03 -0.93381736802E+03  0.11010623314E+04  0.50400001928E-02 0. -1.
       -1    1    3    3    0  502  0.33856530197E+03  0.47507569620E+03  0.17026911667E+04  0.17998557136E+04  0.50400001928E-02 0.  1.
</event>
<event>
 5   0  0.5916603E-06  0.2650696E+04  0.7818609E-02  0.8351182E-01
       -2   -1    0    0    0  501  0.00000000000E+00  0.00000000000E+00  0.13374830223E+04  0.13374830223E+04  0.25500000920E-02 0.  1.
        2   -1    0    0  501    0  0.00000000000E+00  0.00000000000E+00 -0.13133230285E+04  0.13133230285E+04  0.25500000920E-02 0. -1.
    10030    2    1    2    0    0  0.00000000000E+00  0.00000000000E+00  0.24159993729E+02  0.26508060508E+04  0.26506959489E+04 0.  0.
        2    1    3    3  502    0 -0.99263270708E+03  0.83670710574E+03 -0.25466837177E+03  0.13229718257E+04  0.25500000920E-02 0.  1.
       -2    1    3    3    0  502  0.99263270708E+03 -0.83670710574E+03  0.27882836550E+03  0.13278342251E+04  0.25500000920E-02 0. -1.
</event>
<event>
 5   0  0.2234068E-06  0.2804027E+04  0.7818609E-02  0.8302019E-01
        1   -1    0    0  501    0  0.00000000000E+00  0.00000000000E+00  0.13293151373E+04  0.13293151373E+04  0.50400001928E-02 0. -1.
       -1   -1    0    0    0  501  0.00000000000E+00  0.00000000000E+00 -0.14786872270E+04  0.14786872270E+04  0.50400001928E-02 0.  1.
    10030    2    1    2    0    0  0.00000000000E+00  0.00000000000E+00 -0.14937208969E+03  0.28080023642E+04  0.28040266148E+04 0.  0.
        3    1    3    3  502    0  0.12185486309E+04  0.64019642225E+03 -0.34138879736E+03  0.14181884734E+04  0.10100000352E+00 0.  1.
       -3    1    3    3    0  502 -0.12185486309E+04 -0.64019642225E+03  0.19201670767E+03  0.13898138908E+04  0.10100000352E+00 0. -1.
</event>
<event>
 5   0  0.5546570E-06  0.2694149E+04  0.7818609E-02  0.8336906E-01
        2   -1    0    0  501    0  0.00000000000E+00  0.00000000000E+00  0.13469579331E+04  0.13469579331E+04  0.25500000920E-02 0.  1.
       -2   -1    0    0    0  501  0.00000000000E+00  0.00000000000E+00 -0.13471915010E+04  0.13471915010E+04  0.25500000920E-02 0. -1.
    10030    2    1    2    0    0  0.00000000000E+00  0.00000000000E+00 -0.23356795355E+00  0.26941494341E+04  0.26941494240E+04 0.  0.
        4    1    3    3  502    0 -0.11652360384E+04 -0.41074746443E+03  0.53665147536E+03  0.13470281822E+04  0.12699999809E+01 0.  1.
       -4    1    3    3    0  502  0.11652360384E+04  0.41074746443E+03 -0.53688504331E+03  0.13471212519E+04  0.12699999809E+01 0. -1.
</event>
<event>
 5   0  0.5584205E-06  0.2841207E+04  0.7818609E-02  0.8290588E-01
        2   -1    0    0  501    0  0.00000000000E+00  0.00000000000E+00  0.26710015215E+04  0.26710015215E+04  0.25500000920E-02 0.  1.
       -2   -1    0    0    0  501  0.00000000000E+00  0.00000000000E+00 -0.75556471641E+03  0.75556471641E+03  0.25500000920E-02 0. -1.
    10030    2    1    2    0    0  0.00000000000E+00  0.00000000000E+00  0.19154368051E+04  0.34265662379E+04  0.28412071428E+04 0.  0.
        1    1    3    3  502    0 -0.17977788633E+03 -0.20873898964E+03 -0.72304165548E+03  0.77374497723E+03  0.50400001928E-02 0. -1.
       -1    1    3    3    0  502  0.17977788633E+03  0.20873898964E+03  0.26384784606E+04  0.26528212607E+04  0.50400001928E-02 0.  1.
</event>
<event>
 5   0  0.2234068E-06  0.2813135E+04  0.7818609E-02  0.8299202E-01
        1   -1    0    0  501    0  0.00000000000E+00  0.00000000000E+00  0.67395816215E+03  0.67395816217E+03  0.50400001928E-02 0.  1.
       -1   -1    0    0    0  501  0.00000000000E+00  0.00000000000E+00 -0.29355408469E+04  0.29355408469E+04  0.50400001928E-02 0. -1.
    10030    2    1    2    0    0  0.00000000000E+00  0.00000000000E+00 -0.22615826847E+04  0.36094990090E+04  0.28131347029E+04 0.  0.
        3    1    3    3  502    0  0.11952579448E+04  0.34657614019E+03 -0.19718504273E+04  0.23317269766E+04  0.10100000352E+00 0. -1.
       -3    1    3    3    0  502 -0.11952579448E+04 -0.34657614019E+03 -0.28973225739E+03  0.12777720324E+04  0.10100000352E+00 0.  1.
</event>
<event>
 5   0  0.2206967E-06  0.2789311E+04  0.7818609E-02  0.8306595E-01
       -1   -1    0    0    0  501  0.00000000000E+00  0.00000000000E+00  0.13466296313E+04  0.13466296313E+04  0.50400001928E-02 0.  1.
        1   -1    0    0  501    0  0.00000000000E+00  0.00000000000E+00 -0.14443936438E+04  0.14443936438E+04  0.50400001928E-02 0. -1.
    10030    2    1    2    0    0  0.00000000000E+00  0.00000000000E+00 -0.97764012471E+02  0.27910232752E+04  0.27893105099E+04 0.  0.
        5    1    3    3  502    0  0.63295192979E+03  0.11085554813E+04 -0.61093662413E+03  0.14151992966E+04  0.46999998093E+01 0. -1.
       -5    1    3    3    0  502 -0.63295192979E+03 -0.11085554813E+04  0.51317261166E+03  0.13758239785E+04  0.46999998093E+01 0.  1.
</event>
<event>
 5   0  0.2234068E-06  0.2764307E+04  0.7818609E-02  0.8314436E-01
        1   -1    0    0  501    0  0.00000000000E+00  0.00000000000E+00  0.11891315753E+04  0.11891315753E+04  0.50400001928E-02 0. -1.
       -1   -1    0    0    0  501  0.00000000000E+00  0.00000000000E+00 -0.16065067699E+04  0.16065067699E+04  0.50400001928E-02 0.  1.
    10030    2    1    2    0    0  0.00000000000E+00  0.00000000000E+00 -0.41737519459E+03  0.27956383452E+04  0.27643067312E+04 0.  0.
        3    1    3    3  502    0 -0.12327676676E+04 -0.53666289582E+03 -0.53266951441E+03  0.14461880956E+04  0.10100000352E+00 0. -1.
       -3    1    3    3    0  502  0.12327676676E+04  0.53666289582E+03  0.11529431982E+03  0.13494502497E+04  0.10100000352E+00 0.  1.
</event>
<event>
 5   0  0.1901375E-06  0.2813057E+04  0.7818609E-02  0.8299226E-01
        3   -1    0    0  501    0  0.00000000000E+00  0.00000000000E+00  0.15013921500E+04  0.15013921534E+04  0.10100000352E+00 0. -1.
       -3   -1    0    0    0  501  0.00000000000E+00  0.00000000000E+00 -0.13176584088E+04  0.13176584126E+04  0.10100000352E+00 0.  1.
    10030    2    1    2    0    0  0.00000000000E+00  0.00000000000E+00  0.18373374125E+03  0.28190505661E+04  0.28130567016E+04 0.  0.
        1    1    3    3  502    0  0.12859429770E+04 -0.10143909389E+03 -0.47002629417E+03  0.13729034733E+04  0.50400001928E-02 0.  1.
       -1    1    3    3    0  502 -0.12859429770E+04  0.10143909389E+03  0.65376003543E+03  0.14461470927E+04  0.50400001928E-02 0. -1.
</event>
<event>
 5   0  0.5916603E-06  0.2799816E+04  0.7818609E-02  0.8303326E-01
       -2   -1    0    0    0  501  0.00000000000E+00  0.00000000000E+00  0.10290077510E+04  0.10290077510E+04  0.25500000920E-02 0. -1.
        2   -1    0    0  501    0  0.00000000000E+00  0.00000000000E+00 -0.19044966629E+04  0.19044966629E+04  0.25500000920E-02 0.  1.
    10030    2    1    2    0    0  0.00000000000E+00  0.00000000000E+00 -0.87548891197E+03  0.29335044139E+04  0.27998155853E+04 0.  0.
        2    1    3    3  502    0 -0.15745165074E+03 -0.76225327287E+03  0.78139655815E+03  0.11029060048E+04  0.25500000920E-02 0. -1.
       -2    1    3    3    0  502  0.15745165074E+03  0.76225327287E+03 -0.16568854701E+04  0.18305984091E+04  0.25500000920E-02 0.  1.
</event>
<event>
 5   0  0.2234068E-06  0.2792445E+04  0.7818609E-02  0.8305618E-01
       -1   -1    0    0    0  501  0.00000000000E+00  0.00000000000E+00  0.79541642814E+03  0.79541642815E+03  0.50400001928E-02 0.  1.
        1   -1    0    0  501    0  0.00000000000E+00  0.00000000000E+00 -0.24508382837E+04  0.24508382837E+04  0.50400001928E-02 0. -1.
    10030    2    1    2    0    0  0.00000000000E+00  0.00000000000E+00 -0.16554218556E+04  0.32462547118E+04  0.27924448310E+04 0.  0.
        3    1    3    3  502    0 -0.10592159396E+04 -0.14494081419E+03  0.21628232976E+03  0.10907448385E+04  0.10100000352E+00 0.  1.
       -3    1    3    3    0  502  0.10592159396E+04  0.14494081419E+03 -0.18717041853E+04  0.21555098733E+04  0.10100000352E+00 0. -1.
</event>
<event>
 5   0  0.5584205E-06  0.2801320E+04  0.7818609E-02  0.8302859E-01
        2   -1    0    0  501    0  0.00000000000E+00  0.00000000000E+00  0.24678809003E+04  0.24678809003E+04  0.25500000920E-02 0. -1.
       -2   -1    0    0    0  501  0.00000000000E+00  0.00000000000E+00 -0.79495251245E+03  0.79495251245E+03  0.25500000920E-02 0.  1.
    10030    2    1    2    0    0  0.00000000000E+00  0.00000000000E+00  0.16729283878E+04  0.32628334127E+04  0.28013197762E+04 0.  0.
        1    1    3    3  502    0 -0.39707128607E+02 -0.13841260858E+04  0.10820755354E+04  0.17573471887E+04  0.50400001928E-02 0. -1.
       -1    1    3    3    0  502  0.39707128607E+02  0.13841260858E+04  0.59085285248E+03  0.15054862240E+04  0.50400001928E-02 0.  1.
</event>
<event>
 5   0  0.5546570E-06  0.2802151E+04  0.7818609E-02  0.8302601E-01
       -2   -1    0    0    0  501  0.00000000000E+00  0.00000000000E+00  0.11055214971E+04  0.11055214971E+04  0.25500000920E-02 0.  1.
        2   -1    0    0  501    0  0.00000000000E+00  0.00000000000E+00 -0.17756443655E+04  0.17756443655E+04  0.25500000920E-02 0. -1.
    10030    2    1    2    0    0  0.00000000000E+00  0.00000000000E+00 -0.67012286840E+03  0.28811658626E+04  0.28021513287E+04 0.  0.
        4    1    3    3  502    0  0.10029430266E+04  0.16044536787E+03 -0.13273516838E+04  0.16713771376E+04  0.12699999809E+01 0. -1.
       -4    1    3    3    0  502 -0.10029430266E+04 -0.16044536787E+03  0.65722881537E+03  0.12097887251E+04  0.12699999809E+01 0.  1.
</event>
<event>
 5   0  0.2206967E-06  0.2800780E+04  0.7818609E-02  0.8303026E-01
        1   -1    0    0  501    0  0.00000000000E+00  0.00000000000E+00  0.16790501600E+04  0.16790501600E+04  0.50400001928E-02 0.  1.
       -1   -1    0    0    0  501  0.00000000000E+00  0.00000000000E+00 -0.11679770492E+04  0.11679770492E+04  0.50400001928E-02 0. -1.
    10030    2    1    2    0    0  0.00000000000E+00  0.00000000000E+00  0.51107311076E+03  0.28470272092E+04  0.28007799280E+04 0.  0.
        5    1    3    3  502    0  0.57285217756E+02 -0.23972776767E+03  0.16568196525E+04  0.16750595361E+04  0.46999998093E+01 0.  1.
       -5    1    3    3    0  502 -0.57285217756E+02  0.23972776767E+03 -0.11457465417E+04  0.11719676730E+04  0.46999998093E+01 0. -1.
</event>
<event>
 5   0  0.5625245E-06  0.2803349E+04  0.7818609E-02  0.8302229E-01
       -2   -1    0    0    0  501  0.00000000000E+00  0.00000000000E+00  0.10060262002E+04  0.10060262002E+04  0.25500000920E-02 0.  1.
        2   -1    0    0  501    0  0.00000000000E+00  0.00000000000E+00 -0.19529229747E+04  0.19529229747E+04  0.25500000920E-02 0. -1.
    10030    2    1    2    0    0  0.00000000000E+00  0.00000000000E+00 -0.94689677447E+03  0.29589491749E+04  0.28033491966E+04 0.  0.
        3    1    3    3  502    0 -0.49624845131E+03 -0.27280533331E+02  0.90990155992E+03  0.10367871584E+04  0.10100000352E+00 0.  1.
       -3    1    3    3    0  502  0.49624845131E+03  0.27280533331E+02 -0.18567983344E+04  0.19221620165E+04  0.10100000352E+00 0. -1.
</event>
<event>
 5   0  0.5625245E-06  0.2808717E+04  0.7818609E-02  0.8300567E-01
        2   -1    0    0  501    0  0.00000000000E+00  0.00000000000E+00  0.19386089760E+04  0.19386089760E+04  0.25500000920E-02 0. -1.
       -2   -1    0    0    0  501  0.00000000000E+00  0.00000000000E+00 -0.10173392234E+04  0.10173392234E+04  0.25500000920E-02 0.  1.
    10030    2    1    2    0    0  0.00000000000E+00  0.00000000000E+00  0.92126975262E+03  0.29559481994E+04  0.28087171094E+04 0.  0.
        3    1    3    3  502    0  0.53057391484E+03  0.12876955423E+04  0.65052134036E+03  0.15371553316E+04  0.10100000352E+00 0. -1.
       -3    1    3    3    0  502 -0.53057391484E+03 -0.12876955423E+04  0.27074841226E+03  0.14187928678E+04  0.10100000352E+00 0.  1.
</event>
<event>
 5   0  0.2190865E-06  0.2774961E+04  0.7818609E-02  0.8311084E-01
       -1   -1    0    0    0  501  0.00000000000E+00  0.00000000000E+00  0.12208109272E+04  0.12208109272E+04  0.50400001928E-02 0.  1.
        1   -1    0    0  501    0  0.00000000000E+00  0.00000000000E+00 -0.15769040874E+04  0.15769040874E+04  0.50400001928E-02 0. -1.
    10030    2    1    2    0    0  0.00000000000E+00  0.00000000000E+00 -0.35609316017E+03  0.27977150146E+04  0.27749607140E+04 0.  0.
        2    1    3    3  502    0 -0.12886879483E+04  0.51397019766E+03 -0.16310109898E+03  0.13969552465E+04  0.25500000920E-02 0.  1.
       -2    1    3    3    0  502  0.12886879483E+04 -0.51397019766E+03 -0.19299206120E+03  0.14007597681E+04  0.25500000920E-02 0. -1.
</event>
<event>
 5   0  0.2206967E-06  0.2801218E+04  0.7818609E-02  0.8302890E-01
       -1   -1    0    0    0  501  0.00000000000E+00  0.00000000000E+00  0.87809762227E+03  0.87809762228E+03  0.50400001928E-02 0.  1.
        1   -1    0    0  501    0  0.00000000000E+00  0.00000000000E+00 -0.22340410358E+04  0.22340410358E+04  0.50400001928E-02 0. -1.
    10030    2    1    2    0    0  0.00000000000E+00  0.00000000000E+00 -0.13559434135E+04  0.31121386580E+04  0.28012183932E+04 0.  0.
        5    1    3    3  502    0  0.53385129434E+03  0.13993756906E+03  0.75219575029E+03  0.93295244491E+03  0.46999998093E+01 0.  1.
       -5    1    3    3    0  502 -0.53385129434E+03 -0.13993756906E+03 -0.21081391638E+04  0.21791862131E+04  0.46999998093E+01 0. -1.
</event>
<event>
 5   0  0.2277133E-06  0.2809413E+04  0.7818609E-02  0.8300352E-01
        1   -1    0    0  501    0  0.00000000000E+00  0.00000000000E+00  0.21268030809E+04  0.21268030809E+04  0.50400001928E-02 0.  1.
       -1   -1    0    0    0  501  0.00000000000E+00  0.00000000000E+00 -0.92777782913E+03  0.92777782914E+03  0.50400001928E-02 0. -1.
    10030    2    1    2    0    0  0.00000000000E+00  0.00000000000E+00  0.11990252518E+04  0.30545809101E+04  0.28094132807E+04 0.  0.
        1    1    3    3  502    0  0.56392893688E+02 -0.12922686955E+04  0.39305065759E+01  0.12935045376E+04  0.50400001928E-02 0.  1.
       -1    1    3    3    0  502 -0.56392893688E+02  0.12922686955E+04  0.11950947452E+04  0.17610763725E+04  0.50400001928E-02 0. -1.
</event>
<event>
 5   0  0.5866136E-06  0.2817830E+04  0.7818609E-02  0.8297754E-01
        2   -1    0    0  501    0  0.00000000000E+00  0.00000000000E+00  0.15376886621E+04  0.15376886621E+04  0.25500000920E-02 0.  1.
       -2   -1    0    0    0  501  0.00000000000E+00  0.00000000000E+00 -0.12909256325E+04  0.12909256325E+04  0.25500000920E-02 0. -1.
    10030    2    1    2    0    0  0.00000000000E+00  0.00000000000E+00  0.24676302955E+03  0.28286142946E+04  0.28178301643E+04 0.  0.
        5    1    3    3  502    0  0.94506750117E+02 -0.40981501768E+03 -0.12264355494E+04  0.12965516270E+04  0.46999998093E+01 0. -1.
       -5    1    3    3    0  502 -0.94506750117E+02  0.40981501768E+03  0.14731985789E+04  0.15320626676E+04  0.46999998093E+01 0.  1.
</event>
<event>
 5   0  0.5625245E-06  0.2775697E+04  0.7818609E-02  0.8310853E-01
        2   -1    0    0  501    0  0.00000000000E+00  0.00000000000E+00  0.19381385818E+04  0.19381385818E+04  0.25500000920E-02 0.  1.
       -2   -1    0    0    0  501  0.00000000000E+00  0.00000000000E+00 -0.99380072993E+03  0.99380072994E+03  0.25500000920E-02 0. -1.
    10030    2    1    2    0    0  0.00000000000E+00  0.00000000000E+00  0.94433785188E+03  0.29319393118E+04  0.27756970565E+04 0.  0.
        3    1    3    3  502    0  0.12189086160E+03 -0.70789438934E+03  0.17265105268E+04  0.18699760581E+04  0.10100000352E+00 0.  1.
       -3    1    3    3    0  502 -0.12189086160E+03  0.70789438934E+03 -0.78217267488E+03  0.10619632537E+04  0.10100000352E+00 0. -1.
</event>
<event>
 5   0  0.5546570E-06  0.2840892E+04  0.7818609E-02  0.8290684E-01
       -2   -1    0    0    0  501  0.00000000000E+00  0.00000000000E+00  0.11171778488E+04  0.11171778488E+04  0.25500000920E-02 0.  1.
        2   -1    0    0  501    0  0.00000000000E+00  0.00000000000E+00 -0.18060390224E+04  0.18060390224E+04  0.25500000920E-02 0. -1.
    10030    2    1    2    0    0  0.00000000000E+00  0.00000000000E+00 -0.68886117360E+03  0.29232168712E+04  0.28408919655E+04 0.  0.
        4    1    3    3  502    0  0.31054221254E+03 -0.11794519832E+04  0.40476312151E+03  0.12850596266E+04  0.12699999809E+01 0.  1.
       -4    1    3    3    0  502 -0.31054221254E+03  0.11794519832E+04 -0.10936242951E+04  0.16381572446E+04  0.12699999809E+01 0. -1.
</event>
<event>
 5   0  0.5625245E-06  0.2755679E+04  0.7818609E-02  0.8317162E-01
        2   -1    0    0  501    0  0.00000000000E+00  0.00000000000E+00  0.92117009759E+03  0.92117009760E+03  0.25500000920E-02 0.  1.
       -2   -1    0    0    0  501  0.00000000000E+00  0.00000000000E+00 -0.20609022778E+04  0.20609022778E+04  0.25500000920E-02 0. -1.
    10030    2    1    2    0    0  0.00000000000E+00  0.00000000000E+00 -0.11397321802E+04  0.29820723754E+04  0.27556789017E+04 0.  0.
        3    1    3    3  502    0  0.80882171005E+03  0.98060422180E+03  0.54745904586E+01  0.12711440437E+04  0.10100000352E+00 0.  1.
       -3    1    3    3    0  502 -0.80882171005E+03 -0.98060422180E+03 -0.11452067707E+04  0.17109283317E+04  0.10100000352E+00 0. -1.
</event>
<event>
 5   0  0.2206967E-06  0.2796841E+04  0.7818609E-02  0.8304250E-01
        1   -1    0    0  501    0  0.00000000000E+00  0.00000000000E+00  0.16162447012E+04  0.16162447012E+04  0.50400001928E-02 0. -1.
       -1   -1    0    0    0  501  0.00000000000E+00  0.00000000000E+00 -0.12099529781E+04  0.12099529781E+04  0.50400001928E-02 0.  1.
    10030    2    1    2    0    0  0.00000000000E+00  0.00000000000E+00  0.40629172312E+03  0.28261976793E+04  0.27968411393E+04 0.  0.
        5    1    3    3  502    0 -0.45474711178E+03  0.15238242993E+03  0.15305329427E+04  0.16039228533E+04  0.46999998093E+01 0. -1.
       -5    1    3    3    0  502  0.45474711178E+03 -0.15238242993E+03 -0.11242412196E+04  0.12222748260E+04  0.46999998093E+01 0.  1.
</event>
<event>
 5   0  0.2267565E-06  0.2893720E+04  0.7818609E-02  0.8274749E-01
        1   -1    0    0  501    0  0.00000000000E+00  0.00000000000E+00  0.15894101752E+04  0.15894101752E+04  0.50400001928E-02 0.  1.
       -1   -1    0    0    0  501  0.00000000000E+00  0.00000000000E+00 -0.13170944200E+04  0.13170944200E+04  0.50400001928E-02 0. -1.
    10030    2    1    2    0    0  0.00000000000E+00  0.00000000000E+00  0.27231575518E+03  0.29065045952E+04  0.28937195944E+04 0.  0.
        4    1    3    3  502    0  0.29422956340E+03 -0.11302132841E+04  0.99400895966E+03  0.15336259415E+04  0.12699999809E+01 0.  1.
       -4    1    3    3    0  502 -0.29422956340E+03  0.11302132841E+04 -0.72169320449E+03  0.13728786537E+04  0.12699999809E+01 0. -1.
</event>
<event>
 5   0  0.2206967E-06  0.2724939E+04  0.7818609E-02  0.8326958E-01
       -1   -1    0    0    0  501  0.00000000000E+00  0.00000000000E+00  0.11726090114E+04  0.11726090114E+04  0.50400001928E-02 0. -1.
        1   -1    0    0  501    0  0.00000000000E+00  0.00000000000E+00 -0.15830704717E+04  0.15830704717E+04  0.50400001928E-02 0.  1.
    10030    2    1    2    0    0  0.00000000000E+00  0.00000000000E+00 -0.41046146029E+03  0.27556794832E+04  0.27249386789E+04 0.  0.
        5    1    3    3  502    0 -0.89689420778E+03  0.10195462903E+04 -0.31787290679E+03  0.13946179165E+04  0.46999998093E+01 0.  1.
       -5    1    3    3    0  502  0.89689420778E+03 -0.10195462903E+04 -0.92588553501E+02  0.13610615667E+04  0.46999998093E+01 0. -1.
</event>
<event>
 5   0  0.2267565E-06  0.2987298E+04  0.7818609E-02  0.8247367E-01
        1   -1    0    0  501    0  0.00000000000E+00  0.00000000000E+00  0.12342389652E+04  0.12342389652E+04  0.50400001928E-02 0. -1.
       -1   -1    0    0    0  501  0.00000000000E+00  0.00000000000E+00 -0.18075814565E+04  0.18075814565E+04  0.50400001928E-02 0.  1.
    10030    2    1    2    0    0  0.00000000000E+00  0.00000000000E+00 -0.57334249127E+03  0.30418204217E+04  0.29872980878E+04 0.  0.
        4    1    3    3  502    0  0.66391871325E+03 -0.52469605148E+03 -0.15399446535E+04  0.17571354964E+04  0.12699999809E+01 0.  1.
       -4    1    3    3    0  502 -0.66391871325E+03  0.52469605148E+03  0.96660216219E+03  0.12846849252E+04  0.12699999809E+01 0. -1.
</event>
<event>
 5   0  0.5625245E-06  0.2625899E+04  0.7818609E-02  0.8359457E-01
       -2   -1    0    0    0  501  0.00000000000E+00  0.00000000000E+00  0.11843733353E+04  0.11843733353E+04  0.25500000920E-02 0. -1.
        2   -1    0    0  501    0  0.00000000000E+00  0.00000000000E+00 -0.14554836467E+04  0.14554836467E+04  0.25500000920E-02 0.  1.
    10030    2    1    2    0    0  0.00000000000E+00  0.00000000000E+00 -0.27111031143E+03  0.26398569820E+04  0.26258987194E+04 0.  0.
        3    1    3    3  502    0 -0.12182066561E+04  0.36354603629E+03  0.19427851496E+03  0.12860549479E+04  0.10100000352E+00 0.  1.
       -3    1    3    3    0  502  0.12182066561E+04 -0.36354603629E+03 -0.46538882639E+03  0.13538020341E+04  0.10100000352E+00 0. -1.
</event>
<event>
 5   0  0.2234068E-06  0.2801449E+04  0.7818609E-02  0.8302819E-01
        1   -1    0    0  501    0  0.00000000000E+00  0.00000000000E+00  0.21880745799E+04  0.21880745799E+04  0.50400001928E-02 0. -1.
       -1   -1    0    0    0  501  0.00000000000E+00  0.00000000000E+00 -0.89669189603E+03  0.89669189604E+03  0.50400001928E-02 0.  1.
    10030    2    1    2    0    0  0.00000000000E+00  0.00000000000E+00  0.12913826839E+04  0.30847664760E+04  0.28014487279E+04 0.  0.
        3    1    3    3  502    0 -0.48192561323E+03 -0.11590859865E+04 -0.38692556175E+02  0.12558780772E+04  0.10100000352E+00 0.  1.
       -3    1    3    3    0  502  0.48192561323E+03  0.11590859865E+04  0.13300752401E+04  0.18288883988E+04  0.10100000352E+00 0. -1.
</event>
<event>
 5   0  0.5866136E-06  0.2805187E+04  0.7818609E-02  0.8301660E-01
        2   -1    0    0  501    0  0.00000000000E+00  0.00000000000E+00  0.24327225678E+04  0.24327225679E+04  0.25500000920E-02 0. -1.
       -2   -1    0    0    0  501  0.00000000000E+00  0.00000000000E+00 -0.80866947511E+03  0.80866947511E+03  0.25500000920E-02 0.  1.
    10030    2    1    2    0    0  0.00000000000E+00  0.00000000000E+00  0.16240530927E+04  0.32413920430E+04  0.28051869685E+04 0.  0.
        5    1    3    3  502    0 -0.79776680503E+03  0.93101845768E+03  0.24912431815E+02  0.12263237595E+04  0.46999998093E+01 0.  1.
       -5    1    3    3    0  502  0.79776680503E+03 -0.93101845768E+03  0.15991406609E+04  0.20150682835E+04  0.46999998093E+01 0. -1.
</event>
<event>
 5   0  0.5625245E-06  0.2756864E+04  0.7818609E-02  0.8316787E-01
       -2   -1    0    0    0  501  0.00000000000E+00  0.00000000000E+00  0.11919687641E+04  0.11919687641E+04  0.25500000920E-02 0.  1.
        2   -1    0    0  501    0  0.00000000000E+00  0.00000000000E+00 -0.15940640891E+04  0.15940640891E+04  0.25500000920E-02 0. -1.
    10030    2    1    2    0    0  0.00000000000E+00  0.00000000000E+00 -0.40209532504E+03  0.27860328532E+04  0.27568638720E+04 0.  0.
        3    1    3    3  502    0 -0.39389406369E+03  0.10058627241E+04 -0.10663561342E+04  0.15179024238E+04  0.10100000352E+00 0. -1.
       -3    1    3    3    0  502  0.39389406369E+03 -0.10058627241E+04  0.66426080918E+03  0.12681304294E+04  0.10100000352E+00 0.  1.
</event>
<event>
 5   0  0.2234068E-06  0.2788833E+04  0.7818609E-02  0.8306744E-01
        1   -1    0    0  501    0  0.00000000000E+00  0.00000000000E+00  0.24149795889E+04  0.24149795889E+04  0.50400001928E-02 0. -1.
       -1   -1    0    0    0  501  0.00000000000E+00  0.00000000000E+00 -0.80514039832E+03  0.80514039834E+03  0.50400001928E-02 0.  1.
    10030    2    1    2    0    0  0.00000000000E+00  0.00000000000E+00  0.16098391906E+04  0.32201199873E+04  0.27888331812E+04 0.  0.
        3    1    3    3  502    0  0.11620013388E+04  0.77080655767E+03  0.80170367158E+03  0.16084522523E+04  0.10100000352E+00 0.  1.
       -3    1    3    3    0  502 -0.11620013388E+04 -0.77080655767E+03  0.80813551903E+03  0.16116677350E+04  0.10100000352E+00 0. -1.
</event>
<event>
 5   0  0.5546570E-06  0.2799874E+04  0.7818609E-02  0.8303307E-01
       -2   -1    0    0    0  501  0.00000000000E+00  0.00000000000E+00  0.19299756178E+04  0.19299756178E+04  0.25500000920E-02 0. -1.
        2   -1    0    0  501    0  0.00000000000E+00  0.00000000000E+00 -0.10154655308E+04  0.10154655308E+04  0.25500000920E-02 0.  1.
    10030    2    1    2    0    0  0.00000000000E+00  0.00000000000E+00  0.91451008701E+03  0.29454411486E+04  0.27998740794E+04 0.  0.
        4    1    3    3  502    0  0.32849876114E+03 -0.38701530999E+01  0.18888498362E+04  0.19172067522E+04  0.12699999809E+01 0. -1.
       -4    1    3    3    0  502 -0.32849876114E+03  0.38701530999E+01 -0.97433974917E+03  0.10282343964E+04  0.12699999809E+01 0.  1.
</event>
<event>
 5   0  0.1901375E-06  0.2788147E+04  0.7818609E-02  0.8306958E-01
       -4   -1    0    0    0  501  0.00000000000E+00  0.00000000000E+00  0.12742469956E+04  0.12742476284E+04  0.12699999809E+01 0. -1.
        4   -1    0    0  501    0  0.00000000000E+00  0.00000000000E+00 -0.15251664560E+04  0.15251669848E+04  0.12699999809E+01 0.  1.
    10030    2    1    2    0    0  0.00000000000E+00  0.00000000000E+00 -0.25091946047E+03  0.27994146132E+04  0.27881466248E+04 0.  0.
        4    1    3    3  502    0 -0.12580232472E+04  0.16337346996E+03 -0.70583161601E+03  0.14517276825E+04  0.12699999809E+01 0.  1.
       -4    1    3    3    0  502  0.12580232472E+04 -0.16337346996E+03  0.45491215554E+03  0.13476869307E+04  0.12699999809E+01 0. -1.
</event>
<event>
 5   0  0.2190865E-06  0.2798443E+04  0.7818609E-02  0.8303752E-01
       -1   -1    0    0    0  501  0.00000000000E+00  0.00000000000E+00  0.12121002540E+04  0.12121002540E+04  0.50400001928E-02 0.  1.
        1   -1    0    0  501    0  0.00000000000E+00  0.00000000000E+00 -0.16152303149E+04  0.16152303149E+04  0.50400001928E-02 0. -1.
    10030    2    1    2    0    0  0.00000000000E+00  0.00000000000E+00 -0.40313006086E+03  0.28273305689E+04  0.27984431921E+04 0.  0.
        2    1    3    3  502    0 -0.15362974642E+03 -0.55428663508E+03  0.10871352064E+04  0.12299181801E+04  0.25500000920E-02 0.  1.
       -2    1    3    3    0  502  0.15362974642E+03  0.55428663508E+03 -0.14902652673E+04  0.15974123887E+04  0.25500000920E-02 0. -1.
</event>
<event>
 5   0  0.2267565E-06  0.2821772E+04  0.7818609E-02  0.8296541E-01
       -1   -1    0    0    0  501  0.00000000000E+00  0.00000000000E+00  0.13059466498E+04  0.13059466498E+04  0.50400001928E-02 0.  1.
        1   -1    0    0  501    0  0.00000000000E+00  0.00000000000E+00 -0.15242580266E+04  0.15242580266E+04  0.50400001928E-02 0. -1.
    10030    2    1    2    0    0  0.00000000000E+00  0.00000000000E+00 -0.21831137686E+03  0.28302046764E+04  0.28217722539E+04 0.  0.
        4    1    3    3  502    0 -0.79052050853E+03  0.96634407586E+03  0.54996449637E+03  0.13642602785E+04  0.12699999809E+01 0.  1.
       -4    1    3    3    0  502  0.79052050853E+03 -0.96634407586E+03 -0.76827587323E+03  0.14659443979E+04  0.12699999809E+01 0. -1.
</event>
<event>
 5   0  0.2234068E-06  0.2784722E+04  0.7818609E-02  0.8308027E-01
       -1   -1    0    0    0  501  0.00000000000E+00  0.00000000000E+00  0.11731707174E+04  0.11731707174E+04  0.50400001928E-02 0.  1.
        1   -1    0    0  501    0  0.00000000000E+00  0.00000000000E+00 -0.16525039915E+04  0.16525039916E+04  0.50400001928E-02 0. -1.
    10030    2    1    2    0    0  0.00000000000E+00  0.00000000000E+00 -0.47933327415E+03  0.28256747090E+04  0.27847220998E+04 0.  0.
        3    1    3    3  502    0  0.48114640648E+03 -0.10602966106E+04 -0.10143989652E+04  0.15442590579E+04  0.10100000352E+00 0. -1.
       -3    1    3    3    0  502 -0.48114640648E+03  0.10602966106E+04  0.53506569104E+03  0.12814156511E+04  0.10100000352E+00 0.  1.
</event>
<event>
 5   0  0.2206967E-06  0.2800139E+04  0.7818609E-02  0.8303225E-01
        1   -1    0    0  501    0  0.00000000000E+00  0.00000000000E+00  0.11220274521E+04  0.11220274521E+04  0.50400001928E-02 0.  1.
       -1   -1    0    0    0  501  0.00000000000E+00  0.00000000000E+00 -0.17470109441E+04  0.17470109441E+04  0.50400001928E-02 0. -1.
    10030    2    1    2    0    0  0.00000000000E+00  0.00000000000E+00 -0.62498349197E+03  0.28690383962E+04  0.28001387383E+04 0.  0.
        5    1    3    3  502    0 -0.14023369672E+03  0.11273216291E+04 -0.11509502837E+04  0.16171667170E+04  0.46999998093E+01 0. -1.
       -5    1    3    3    0  502  0.14023369672E+03 -0.11273216291E+04  0.52596679170E+03  0.12518716792E+04  0.46999998093E+01 0.  1.
</event>
<event>
 5   0  0.5625245E-06  0.2793010E+04  0.7818609E-02  0.8305442E-01
        2   -1    0    0  501    0  0.00000000000E+00  0.00000000000E+00  0.13009626715E+04  0.13009626715E+04  0.25500000920E-02 0.  1.
       -2   -1    0    0    0  501  0.00000000000E+00  0.00000000000E+00 -0.14990643197E+04  0.14990643197E+04  0.25500000920E-02 0. -1.
    10030    2    1    2    0    0  0.00000000000E+00  0.00000000000E+00 -0.19810164815E+03  0.28000269912E+04  0.27930103631E+04 0.  0.
        3    1    3    3  502    0  0.54631313690E+03  0.11300220518E+04 -0.71281335427E+03  0.14434371373E+04  0.10100000352E+00 0. -1.
       -3    1    3    3    0  502 -0.54631313690E+03 -0.11300220518E+04  0.51471170612E+03  0.13565898539E+04  0.10100000352E+00 0.  1.
</event>
<event>
 5   0  0.2277133E-06  0.2795849E+04  0.7818609E-02  0.8304558E-01
       -1   -1    0    0    0  501  0.00000000000E+00  0.00000000000E+00  0.14608678424E+04  0.14608678424E+04  0.50400001928E-02 0.  1.
        1   -1    0    0  501    0  0.00000000000E+00  0.00000000000E+00 -0.13376929282E+04  0.13376929282E+04  0.50400001928E-02 0. -1.
    10030    2    1    2    0    0  0.00000000000E+00  0.00000000000E+00  0.12317491418E+03  0.27985607706E+04  0.27958487669E+04 0.  0.
        1    1    3    3  502    0  0.43822212287E+03 -0.43935790504E+03  0.13154471720E+04  0.14544673458E+04  0.50400001928E-02 0.  1.
       -1    1    3    3    0  502 -0.43822212287E+03  0.43935790504E+03 -0.11922722578E+04  0.13440934248E+04  0.50400001928E-02 0. -1.
</event>
<event>
 5   0  0.5584205E-06  0.2809083E+04  0.7818609E-02  0.8300454E-01
        2   -1    0    0  501    0  0.00000000000E+00  0.00000000000E+00  0.16284800070E+04  0.16284800070E+04  0.25500000920E-02 0.  1.
       -2   -1    0    0    0  501  0.00000000000E+00  0.00000000000E+00 -0.12113972799E+04  0.12113972799E+04  0.25500000920E-02 0. -1.
    10030    2    1    2    0    0  0.00000000000E+00  0.00000000000E+00  0.41708272714E+03  0.28398772869E+04  0.28090825911E+04 0.  0.
        1    1    3    3  502    0 -0.68045490264E+03  0.77688501033E+03 -0.75382226473E+03  0.12785997031E+04  0.50400001928E-02 0. -1.
       -1    1    3    3    0  502  0.68045490264E+03 -0.77688501033E+03  0.11709049919E+04  0.15612775838E+04  0.50400001928E-02 0.  1.
</event>
<event>
 5   0  0.2234068E-06  0.2794139E+04  0.7818609E-02  0.8305090E-01
       -1   -1    0    0    0  501  0.00000000000E+00  0.00000000000E+00  0.10812548832E+04  0.10812548832E+04  0.50400001928E-02 0. -1.
        1   -1    0    0  501    0  0.00000000000E+00  0.00000000000E+00 -0.18051277015E+04  0.18051277015E+04  0.50400001928E-02 0.  1.
    10030    2    1    2    0    0  0.00000000000E+00  0.00000000000E+00 -0.72387281826E+03  0.28863825847E+04  0.27941389673E+04 0.  0.
        3    1    3    3  502    0 -0.98975121199E+03  0.90526636157E+03 -0.76559020071E+03  0.15444231974E+04  0.10100000352E+00 0.  1.
       -3    1    3    3    0  502  0.98975121199E+03 -0.90526636157E+03  0.41717382455E+02  0.13419593873E+04  0.10100000352E+00 0. -1.
</event>
<event>
 5   0  0.2190865E-06  0.2797084E+04  0.7818609E-02  0.8304174E-01
       -1   -1    0    0    0  501  0.00000000000E+00  0.00000000000E+00  0.17345289604E+04  0.17345289604E+04  0.50400001928E-02 0.  1.
        1   -1    0    0  501    0  0.00000000000E+00  0.00000000000E+00 -0.11276371339E+04  0.11276371339E+04  0.50400001928E-02 0. -1.
    10030    2    1    2    0    0  0.00000000000E+00  0.00000000000E+00  0.60689182651E+03  0.28621660943E+04  0.27970836709E+04 0.  0.
        2    1    3    3  502    0 -0.66846646662E+03 -0.81746359806E+03 -0.63485515834E+03  0.12321263017E+04  0.25500000920E-02 0. -1.
       -2    1    3    3    0  502  0.66846646662E+03  0.81746359806E+03  0.12417469849E+04  0.16300397926E+04  0.25500000920E-02 0.  1.
</event>
<event>
 5   0  0.2206967E-06  0.2755263E+04  0.7818609E-02  0.8317293E-01
       -1   -1    0    0    0  501  0.00000000000E+00  0.00000000000E+00  0.14320493019E+04  0.14320493019E+04  0.50400001928E-02 0.  1.
        1   -1    0    0  501    0  0.00000000000E+00  0.00000000000E+00 -0.13252819531E+04  0.13252819531E+04  0.50400001928E-02 0. -1.
    10030    2    1    2    0    0  0.00000000000E+00  0.00000000000E+00  0.10676734878E+03  0.27573312550E+04  0.27552633963E+04 0.  0.
        5    1    3    3  502    0 -0.48855785698E+03  0.10790694724E+04 -0.65054120534E+03  0.13514087671E+04  0.46999998093E+01 0. -1.
       -5    1    3    3    0  502  0.48855785698E+03 -0.10790694724E+04  0.75730855411E+03  0.14059224879E+04  0.46999998093E+01 0.  1.
</event>
<event>
 5   0  0.5866136E-06  0.2789105E+04  0.7818609E-02  0.8306659E-01
       -2   -1    0    0    0  501  0.00000000000E+00  0.00000000000E+00  0.80445565315E+03  0.80445565315E+03  0.25500000920E-02 0. -1.
        2   -1    0    0  501    0  0.00000000000E+00  0.00000000000E+00 -0.24175069396E+04  0.24175069396E+04  0.25500000920E-02 0.  1.
    10030    2    1    2    0    0  0.00000000000E+00  0.00000000000E+00 -0.16130512864E+04  0.32219625927E+04  0.27891053218E+04 0.  0.
        5    1    3    3  502    0 -0.11991312114E+04 -0.52380118037E+02 -0.16267111181E+04  0.20216009722E+04  0.46999998093E+01 0.  1.
       -5    1    3    3    0  502  0.11991312114E+04  0.52380118037E+02  0.13659831682E+02  0.12003616205E+04  0.46999998093E+01 0. -1.
</event>
<event>
 5   0  0.5866136E-06  0.2812193E+04  0.7818609E-02  0.8299493E-01
        2   -1    0    0  501    0  0.00000000000E+00  0.00000000000E+00  0.20928723614E+04  0.20928723614E+04  0.25500000920E-02 0. -1.
       -2   -1    0    0    0  501  0.00000000000E+00  0.00000000000E+00 -0.94468634565E+03  0.94468634566E+03  0.25500000920E-02 0.  1.
    10030    2    1    2    0    0  0.00000000000E+00  0.00000000000E+00  0.11481860158E+04  0.30375587071E+04  0.28121934094E+04 0.  0.
        5    1    3    3  502    0 -0.38120748566E+03  0.11930417170E+04 -0.11619768888E+03  0.12578520098E+04  0.46999998093E+01 0.  1.
       -5    1    3    3    0  502  0.38120748566E+03 -0.11930417170E+04  0.12643837046E+04  0.17797066973E+04  0.46999998093E+01 0. -1.
</event>
<event>
 5   0  0.5866136E-06  0.2804728E+04  0.7818609E-02  0.8301802E-01
       -2   -1    0    0    0  501  0.00000000000E+00  0.00000000000E+00  0.12089142017E+04  0.12089142017E+04  0.25500000920E-02 0.  1.
        2   -1    0    0  501    0  0.00000000000E+00  0.00000000000E+00 -0.16267695572E+04  0.16267695572E+04  0.25500000920E-02 0. -1.
    10030    2    1    2    0    0  0.00000000000E+00  0.00000000000E+00 -0.41785535553E+03  0.28356837589E+04  0.28047280229E+04 0.  0.
        5    1    3    3  502    0  0.13114798707E+04 -0.15158292595E+03 -0.68705934508E+03  0.14882975067E+04  0.46999998093E+01 0. -1.
       -5    1    3    3    0  502 -0.13114798707E+04  0.15158292595E+03  0.26920398955E+03  0.13473862522E+04  0.46999998093E+01 0.  1.
</event>
<event>
 5   0  0.2267565E-06  0.2838341E+04  0.7818609E-02  0.8291463E-01
        1   -1    0    0  501    0  0.00000000000E+00  0.00000000000E+00  0.17835875095E+04  0.17835875095E+04  0.50400001928E-02 0.  1.
       -1   -1    0    0    0  501  0.00000000000E+00  0.00000000000E+00 -0.11292098458E+04  0.11292098458E+04  0.50400001928E-02 0. -1.
    10030    2    1    2    0    0  0.00000000000E+00  0.00000000000E+00  0.65437766370E+03  0.29127973552E+04  0.28383407664E+04 0.  0.
        4    1    3    3  502    0  0.51405356194E+03 -0.38313282099E+02  0.16841164918E+04  0.17612407396E+04  0.12699999809E+01 0.  1.
       -4    1    3    3    0  502 -0.51405356194E+03  0.38313282099E+02 -0.10297388280E+04  0.11515566156E+04  0.12699999809E+01 0. -1.
</event>
<event>
 5   0  0.5916603E-06  0.2801525E+04  0.7818609E-02  0.8302795E-01
       -2   -1    0    0    0  501  0.00000000000E+00  0.00000000000E+00  0.92761785918E+03  0.92761785918E+03  0.25500000920E-02 0.  1.
        2   -1    0    0  501    0  0.00000000000E+00  0.00000000000E+00 -0.21152413331E+04  0.21152413331E+04  0.25500000920E-02 0. -1.
    10030    2    1    2    0    0  0.00000000000E+00  0.00000000000E+00 -0.11876234739E+04  0.30428591923E+04  0.28015250397E+04 0.  0.
        2    1    3    3  502    0 -0.11430076334E+04  0.52322916382E+03 -0.12650279228E+04  0.17834042877E+04  0.25500000920E-02 0. -1.
       -2    1    3    3    0  502  0.11430076334E+04 -0.52322916382E+03  0.77404448910E+02  0.12594549046E+04  0.25500000920E-02 0.  1.
</event>
<event>
 5   0  0.5625245E-06  0.2827517E+04  0.7818609E-02  0.8294776E-01
        2   -1    0    0  501    0  0.00000000000E+00  0.00000000000E+00  0.16539569758E+04  0.16539569758E+04  0.25500000920E-02 0. -1.
       -2   -1    0    0    0  501  0.00000000000E+00  0.00000000000E+00 -0.12084433721E+04  0.12084433721E+04  0.25500000920E-02 0.  1.
    10030    2    1    2    0    0  0.00000000000E+00  0.00000000000E+00  0.44551360366E+03  0.28624003479E+04  0.28275171760E+04 0.  0.
        3    1    3    3  502    0 -0.29062630100E+03  0.11879307980E+03 -0.11727041344E+04  0.12140059471E+04  0.10100000352E+00 0.  1.
       -3    1    3    3    0  502  0.29062630100E+03 -0.11879307980E+03  0.16182177381E+04  0.16483944008E+04  0.10100000352E+00 0. -1.
</event>
<event>
 5   0  0.2234068E-06  0.2790138E+04  0.7818609E-02  0.8306337E-01
       -1   -1    0    0    0  501  0.00000000000E+00  0.00000000000E+00  0.12613980502E+04  0.12613980502E+04  0.50400001928E-02 0. -1.
        1   -1    0    0  501    0  0.00000000000E+00  0.00000000000E+00 -0.15429056433E+04  0.15429056433E+04  0.50400001928E-02 0.  1.
    10030    2    1    2    0    0  0.00000000000E+00  0.00000000000E+00 -0.28150759309E+03  0.28043036936E+04  0.27901384698E+04 0.  0.
        3    1    3    3  502    0  0.11954130640E+04  0.48867721262E+03  0.38956152418E+03  0.13489166034E+04  0.10100000352E+00 0. -1.
       -3    1    3    3    0  502 -0.11954130640E+04 -0.48867721262E+03 -0.67106911727E+03  0.14553870901E+04  0.10100000352E+00 0.  1.
</event>
<event>
 5   0  0.5625245E-06  0.2800255E+04  0.7818609E-02  0.8303189E-01
       -2   -1    0    0    0  501  0.00000000000E+00  0.00000000000E+00  0.16452589584E+04  0.16452589584E+04  0.25500000920E-02 0. -1.
        2   -1    0    0  501    0  0.00000000000E+00  0.00000000000E+00 -0.11915189508E+04  0.11915189508E+04  0.25500000920E-02 0.  1.
    10030    2    1    2    0    0  0.00000000000E+00  0.00000000000E+00  0.45374000757E+03  0.28367779092E+04  0.28002551512E+04 0.  0.
        3    1    3    3  502    0 -0.44599644779E+02 -0.57706348297E+03 -0.10646564130E+04  0.12118104966E+04  0.10100000352E+00 0.  1.
       -3    1    3    3    0  502  0.44599644779E+02  0.57706348297E+03  0.15183964206E+04  0.16249674126E+04  0.10100000352E+00 0. -1.
</event>
<event>
 5   0  0.2267565E-06  0.2796276E+04  0.7818609E-02  0.8304425E-01
        1   -1    0    0  501    0  0.00000000000E+00  0.00000000000E+00  0.17403423388E+04  0.17403423388E+04  0.50400001928E-02 0.  1.
       -1   -1    0    0    0  501  0.00000000000E+00  0.00000000000E+00 -0.11232216477E+04  0.11232216477E+04  0.50400001928E-02 0. -1.
    10030    2    1    2    0    0  0.00000000000E+00  0.00000000000E+00  0.61712069110E+03  0.28635639866E+04  0.27962762306E+04 0.  0.
        4    1    3    3  502    0  0.72645709156E+03 -0.78060369525E+03 -0.61747072155E+03  0.12322149730E+04  0.12699999809E+01 0. -1.
       -4    1    3    3    0  502 -0.72645709156E+03  0.78060369525E+03  0.12345914127E+04  0.16313490136E+04  0.12699999809E+01 0.  1.
</event>
<event>
 5   0  0.5866136E-06  0.2802687E+04  0.7818609E-02  0.8302435E-01
        2   -1    0    0  501    0  0.00000000000E+00  0.00000000000E+00  0.14737028658E+04  0.14737028658E+04  0.25500000920E-02 0. -1.
       -2   -1    0    0    0  501  0.00000000000E+00  0.00000000000E+00 -0.13325366953E+04  0.13325366953E+04  0.25500000920E-02 0.  1.
    10030    2    1    2    0    0  0.00000000000E+00  0.00000000000E+00  0.14116617051E+03  0.28062395610E+04  0.28026866728E+04 0.  0.
        5    1    3    3  502    0 -0.87181965045E+03 -0.78190822980E+03  0.84116318333E+03  0.14418833426E+04  0.46999998093E+01 0. -1.
       -5    1    3    3    0  502  0.87181965045E+03  0.78190822980E+03 -0.69999701282E+03  0.13643562184E+04  0.46999998093E+01 0.  1.
</event>
<event>
 5   0  0.2234068E-06  0.2792431E+04  0.7818609E-02  0.8305622E-01
       -1   -1    0    0    0  501  0.00000000000E+00  0.00000000000E+00  0.14045638497E+04  0.14045638497E+04  0.50400001928E-02 0.  1.
        1   -1    0    0  501    0  0.00000000000E+00  0.00000000000E+00 -0.13879172421E+04  0.13879172421E+04  0.50400001928E-02 0. -1.
    10030    2    1    2    0    0  0.00000000000E+00  0.00000000000E+00  0.16646607595E+02  0.27924810918E+04  0.27924314743E+04 0.  0.
        3    1    3    3  502    0  0.24410047088E+03  0.10916216602E+04  0.84391907787E+03  0.14012217202E+04  0.10100000352E+00 0.  1.
       -3    1    3    3    0  502 -0.24410047088E+03 -0.10916216602E+04 -0.82727247027E+03  0.13912593716E+04  0.10100000352E+00 0. -1.
</event>
<event>
 5   0  0.5916603E-06  0.2801437E+04  0.7818609E-02  0.8302822E-01
       -2   -1    0    0    0  501  0.00000000000E+00  0.00000000000E+00  0.87947099513E+03  0.87947099513E+03  0.25500000920E-02 0. -1.
        2   -1    0    0  501    0  0.00000000000E+00  0.00000000000E+00 -0.22309007641E+04  0.22309007641E+04  0.25500000920E-02 0.  1.
    10030    2    1    2    0    0  0.00000000000E+00  0.00000000000E+00 -0.13514297690E+04  0.31103717593E+04  0.28014371419E+04 0.  0.
        2    1    3    3  502    0  0.10223280921E+04 -0.22990908357E+03 -0.17077350623E+04  0.20035897678E+04  0.25500000920E-02 0.  1.
       -2    1    3    3    0  502 -0.10223280921E+04  0.22990908357E+03  0.35630529333E+03  0.11067819915E+04  0.25500000920E-02 0. -1.
</event>
<event>
 5   0  0.2206967E-06  0.2808841E+04  0.7818609E-02  0.8300529E-01
       -1   -1    0    0    0  501  0.00000000000E+00  0.00000000000E+00  0.10707706511E+04  0.10707706511E+04  0.50400001928E-02 0.  1.
        1   -1    0    0  501    0  0.00000000000E+00  0.00000000000E+00 -0.18420348312E+04  0.18420348312E+04  0.50400001928E-02 0. -1.
    10030    2    1    2    0    0  0.00000000000E+00  0.00000000000E+00 -0.77126418011E+03  0.29128054823E+04  0.28088409250E+04 0.  0.
        5    1    3    3  502    0 -0.77163536330E+03  0.11306156466E+04 -0.59901149360E+02  0.13701544117E+04  0.46999998093E+01 0.  1.
       -5    1    3    3    0  502  0.77163536330E+03 -0.11306156466E+04 -0.71136303075E+03  0.15426510706E+04  0.46999998093E+01 0. -1.
</event>
<event>
 5   0  0.2190865E-06  0.2798933E+04  0.7818609E-02  0.8303600E-01
        1   -1    0    0  501    0  0.00000000000E+00  0.00000000000E+00  0.16356336024E+04  0.16356336024E+04  0.50400001928E-02 0. -1.
       -1   -1    0    0    0  501  0.00000000000E+00  0.00000000000E+00 -0.11973992620E+04  0.11973992620E+04  0.50400001928E-02 0.  1.
    10030    2    1    2    0    0  0.00000000000E+00  0.00000000000E+00  0.43823434043E+03  0.28330328644E+04  0.27989329884E+04 0.  0.
        2    1    3    3  502    0  0.69198317884E+03 -0.33851197325E+03  0.14017159614E+04  0.15994495029E+04  0.25500000920E-02 0. -1.
       -2    1    3    3    0  502 -0.69198317884E+03  0.33851197325E+03 -0.96348162099E+03  0.12335833615E+04  0.25500000920E-02 0.  1.
</event>
<event>
 5   0  0.1901375E-06  0.2811551E+04  0.7818609E-02  0.8299691E-01
       -3   -1    0    0    0  501  0.00000000000E+00  0.00000000000E+00  0.13843139303E+04  0.13843139340E+04  0.10100000352E+00 0. -1.
        3   -1    0    0  501    0  0.00000000000E+00  0.00000000000E+00 -0.14275695029E+04  0.14275695065E+04  0.10100000352E+00 0.  1.
    10030    2    1    2    0    0  0.00000000000E+00  0.00000000000E+00 -0.43255572590E+02  0.28118834405E+04  0.28115507177E+04 0.  0.
        2    1    3    3  502    0  0.12996867960E+04  0.95919491803E+02  0.50551906391E+03  0.13978325510E+04  0.25500000920E-02 0. -1.
       -2    1    3    3    0  502 -0.12996867960E+04 -0.95919491803E+02 -0.54877463650E+03  0.14140508895E+04  0.25500000920E-02 0.  1.
</event>
<event>
 5   0  0.5866136E-06  0.2796688E+04  0.7818609E-02  0.8304297E-01
       -2   -1    0    0    0  501  0.00000000000E+00  0.00000000000E+00  0.11526995800E+04  0.11526995800E+04  0.25500000920E-02 0.  1.
        2   -1    0    0  501    0  0.00000000000E+00  0.00000000000E+00 -0.16963360096E+04  0.16963360096E+04  0.25500000920E-02 0. -1.
    10030    2    1    2    0    0  0.00000000000E+00  0.00000000000E+00 -0.54363642958E+03  0.28490355896E+04  0.27966879024E+04 0.  0.
        5    1    3    3  502    0  0.55819933276E+03  0.12820437176E+04 -0.26060643959E+03  0.14223784290E+04  0.46999998093E+01 0. -1.
       -5    1    3    3    0  502 -0.55819933276E+03 -0.12820437176E+04 -0.28302998998E+03  0.14266571607E+04  0.46999998093E+01 0.  1.
</event>
<event>
 5   0  0.2206967E-06  0.2830318E+04  0.7818609E-02  0.8293917E-01
       -1   -1    0    0    0  501  0.00000000000E+00  0.00000000000E+00  0.12030100191E+04  0.12030100191E+04  0.50400001928E-02 0.  1.
        1   -1    0    0  501    0  0.00000000000E+00  0.00000000000E+00 -0.16647197945E+04  0.16647197945E+04  0.50400001928E-02 0. -1.
    10030    2    1    2    0    0  0.00000000000E+00  0.00000000000E+00 -0.46170977534E+03  0.28677298136E+04  0.28303177149E+04 0.  0.
        5    1    3    3  502    0  0.10813064767E+04 -0.33147501600E+03 -0.10927179175E+04  0.15726264401E+04  0.46999998093E+01 0. -1.
       -5    1    3    3    0  502 -0.10813064767E+04  0.33147501600E+03  0.63100814215E+03  0.12951033736E+04  0.46999998093E+01 0.  1.
</event>
<event>
 5   0  0.5584205E-06  0.2914753E+04  0.7818609E-02  0.8268501E-01
       -2   -1    0    0    0  501  0.00000000000E+00  0.00000000000E+00  0.11368065602E+04  0.11368065602E+04  0.25500000920E-02 0.  1.
        2   -1    0    0  501    0  0.00000000000E+00  0.00000000000E+00 -0.18683447175E+04  0.18683447175E+04  0.25500000920E-02 0. -1.
    10030    2    1    2    0    0  0.00000000000E+00  0.00000000000E+00 -0.73153815727E+03  0.30051512777E+04  0.29147531845E+04 0.  0.
        1    1    3    3  502    0  0.83136202676E+03  0.57673892177E+02 -0.15984485613E+04  0.18026444187E+04  0.50400001928E-02 0. -1.
       -1    1    3    3    0  502 -0.83136202676E+03 -0.57673892177E+02  0.86691040399E+03  0.12025068590E+04  0.50400001928E-02 0.  1.
</event>
<event>
 5   0  0.5866136E-06  0.2779407E+04  0.7818609E-02  0.8309690E-01
        2   -1    0    0  501    0  0.00000000000E+00  0.00000000000E+00  0.28648864945E+04  0.28648864945E+04  0.25500000920E-02 0.  1.
       -2   -1    0    0    0  501  0.00000000000E+00  0.00000000000E+00 -0.67411952698E+03  0.67411952698E+03  0.25500000920E-02 0. -1.
    10030    2    1    2    0    0  0.00000000000E+00  0.00000000000E+00  0.21907669675E+04  0.35390060215E+04  0.27794070796E+04 0.  0.
        5    1    3    3  502    0  0.65116423532E+03 -0.92047898857E+03  0.60986854861E+02  0.11291757685E+04  0.46999998093E+01 0. -1.
       -5    1    3    3    0  502 -0.65116423532E+03  0.92047898857E+03  0.21297801127E+04  0.24098302530E+04  0.46999998093E+01 0.  1.
</event>
<event>
 5   0  0.5866136E-06  0.2793164E+04  0.7818609E-02  0.8305394E-01
       -2   -1    0    0    0  501  0.00000000000E+00  0.00000000000E+00  0.19394746950E+04  0.19394746950E+04  0.25500000920E-02 0. -1.
        2   -1    0    0  501    0  0.00000000000E+00  0.00000000000E+00 -0.10056543803E+04  0.10056543803E+04  0.25500000920E-02 0.  1.
    10030    2    1    2    0    0  0.00000000000E+00  0.00000000000E+00  0.93382031466E+03  0.29451290753E+04  0.27931639569E+04 0.  0.
        5    1    3    3  502    0  0.24509959104E+03  0.58672034650E+03 -0.84416423297E+03  0.10568585131E+04  0.46999998093E+01 0.  1.
       -5    1    3    3    0  502 -0.24509959104E+03 -0.58672034650E+03  0.17779845476E+04  0.18882705622E+04  0.46999998093E+01 0. -1.
</event>
<event>
 5   0  0.2206967E-06  0.2804189E+04  0.7818609E-02  0.8301969E-01
       -1   -1    0    0    0  501  0.00000000000E+00  0.00000000000E+00  0.13434257069E+04  0.13434257069E+04  0.50400001928E-02 0.  1.
        1   -1    0    0  501    0  0.00000000000E+00  0.00000000000E+00 -0.14633253293E+04  0.14633253293E+04  0.50400001928E-02 0. -1.
    10030    2    1    2    0    0  0.00000000000E+00  0.00000000000E+00 -0.11989962242E+03  0.28067510362E+04  0.28041889130E+04 0.  0.
        5    1    3    3  502    0  0.20813472096E+03 -0.10490891200E+04 -0.96738652560E+03  0.14421396686E+04  0.46999998093E+01 0. -1.
       -5    1    3    3    0  502 -0.20813472096E+03  0.10490891200E+04  0.84748690318E+03  0.13646113677E+04  0.46999998093E+01 0.  1.
</event>
<event>
 5   0  0.2206967E-06  0.2806906E+04  0.7818609E-02  0.8301128E-01
       -1   -1    0    0    0  501  0.00000000000E+00  0.00000000000E+00  0.84281296490E+03  0.84281296491E+03  0.50400001928E-02 0. -1.
        1   -1    0    0  501    0  0.00000000000E+00  0.00000000000E+00 -0.23370312966E+04  0.23370312966E+04  0.50400001928E-02 0.  1.
    10030    2    1    2    0    0  0.00000000000E+00  0.00000000000E+00 -0.14942183317E+04  0.31798442615E+04  0.28069059665E+04 0.  0.
        5    1    3    3  502    0  0.40592493744E+03 -0.11055943384E+04  0.11754504625E+03  0.11836185297E+04  0.46999998093E+01 0. -1.
       -5    1    3    3    0  502 -0.40592493744E+03  0.11055943384E+04 -0.16117633779E+04  0.19962257318E+04  0.46999998093E+01 0.  1.
</event>
<event>
 5   0  0.5866136E-06  0.2801423E+04  0.7818609E-02  0.8302827E-01
        2   -1    0    0  501    0  0.00000000000E+00  0.00000000000E+00  0.22237644414E+04  0.22237644414E+04  0.25500000920E-02 0.  1.
       -2   -1    0    0    0  501  0.00000000000E+00  0.00000000000E+00 -0.88228447529E+03  0.88228447529E+03  0.25500000920E-02 0. -1.
    10030    2    1    2    0    0  0.00000000000E+00  0.00000000000E+00  0.13414799661E+04  0.31060489167E+04  0.28014230979E+04 0.  0.
        5    1    3    3  502    0 -0.35832249338E+03 -0.12473721237E+04  0.86529355121E+02  0.13007081316E+04  0.46999998093E+01 0. -1.
       -5    1    3    3    0  502  0.35832249338E+03  0.12473721237E+04  0.12549506110E+04  0.18053407851E+04  0.46999998093E+01 0.  1.
</event>
<event>
 5   0  0.2267565E-06  0.2752042E+04  0.7818609E-02  0.8318314E-01
       -1   -1    0    0    0  501  0.00000000000E+00  0.00000000000E+00  0.12665564222E+04  0.12665564222E+04  0.50400001928E-02 0. -1.
        1   -1    0    0  501    0  0.00000000000E+00  0.00000000000E+00 -0.14949465654E+04  0.14949465654E+04  0.50400001928E-02 0.  1.
    10030    2    1    2    0    0  0.00000000000E+00  0.00000000000E+00 -0.22839014321E+03  0.27615029877E+04  0.27520422768E+04 0.  0.
        4    1    3    3  502    0  0.49326557801E+03 -0.11627722717E+04 -0.66204106732E+03  0.14260611046E+04  0.12699999809E+01 0.  1.
       -4    1    3    3    0  502 -0.49326557801E+03  0.11627722717E+04  0.43365092411E+03  0.13354418831E+04  0.12699999809E+01 0. -1.
</event>
<event>
 5   0  0.5584205E-06  0.2789331E+04  0.7818609E-02  0.8306588E-01
        2   -1    0    0  501    0  0.00000000000E+00  0.00000000000E+00  0.13570596042E+04  0.13570596042E+04  0.25500000920E-02 0.  1.
       -2   -1    0    0    0  501  0.00000000000E+00  0.00000000000E+00 -0.14333136488E+04  0.14333136488E+04  0.25500000920E-02 0. -1.
    10030    2    1    2    0    0  0.00000000000E+00  0.00000000000E+00 -0.76254044663E+02  0.27903732530E+04  0.27893311406E+04 0.  0.
        1    1    3    3  502    0  0.64532543990E+03 -0.73269072615E+03  0.95814235004E+03  0.13679610325E+04  0.50400001928E-02 0.  1.
       -1    1    3    3    0  502 -0.64532543990E+03  0.73269072615E+03 -0.10343963947E+04  0.14224122205E+04  0.50400001928E-02 0. -1.
</event>
<event>
 5   0  0.2206967E-06  0.2743041E+04  0.7818609E-02  0.8321173E-01
        1   -1    0    0  501    0  0.00000000000E+00  0.00000000000E+00  0.17963958159E+04  0.17963958159E+04  0.50400001928E-02 0. -1.
       -1   -1    0    0    0  501  0.00000000000E+00  0.00000000000E+00 -0.10471347172E+04  0.10471347172E+04  0.50400001928E-02 0.  1.
    10030    2    1    2    0    0  0.00000000000E+00  0.00000000000E+00  0.74926109868E+03  0.28435305331E+04  0.27430409583E+04 0.  0.
        5    1    3    3  502    0  0.11080681570E+04 -0.65363172497E+03 -0.11817638279E+03  0.12919122338E+04  0.46999998093E+01 0.  1.
       -5    1    3    3    0  502 -0.11080681570E+04  0.65363172497E+03  0.86743748147E+03  0.15516182993E+04  0.46999998093E+01 0. -1.
</event>
<event>
 5   0  0.2277133E-06  0.2778331E+04  0.7818609E-02  0.8310027E-01
        1   -1    0    0  501    0  0.00000000000E+00  0.00000000000E+00  0.16720353034E+04  0.16720353035E+04  0.50400001928E-02 0. -1.
       -1   -1    0    0    0  501  0.00000000000E+00  0.00000000000E+00 -0.11541506977E+04  0.11541506977E+04  0.50400001928E-02 0.  1.
    10030    2    1    2    0    0  0.00000000000E+00  0.00000000000E+00  0.51788460576E+03  0.28261860011E+04  0.27783309465E+04 0.  0.
        1    1    3    3  502    0 -0.81503399459E+02  0.34264027201E+03 -0.11079800293E+04  0.11626112443E+04  0.50400001928E-02 0.  1.
       -1    1    3    3    0  502  0.81503399459E+02 -0.34264027201E+03  0.16258646350E+04  0.16635747568E+04  0.50400001928E-02 0. -1.
</event>
<event>
 5   0  0.2277133E-06  0.2798619E+04  0.7818609E-02  0.8303697E-01
       -1   -1    0    0    0  501  0.00000000000E+00  0.00000000000E+00  0.70052001433E+03  0.70052001435E+03  0.50400001928E-02 0.  1.
        1   -1    0    0  501    0  0.00000000000E+00  0.00000000000E+00 -0.27951618557E+04  0.27951618557E+04  0.50400001928E-02 0. -1.
    10030    2    1    2    0    0  0.00000000000E+00  0.00000000000E+00 -0.20946418414E+04  0.34956818701E+04  0.27986188188E+04 0.  0.
        1    1    3    3  502    0  0.67816432327E+02 -0.28938784207E+03 -0.27552770894E+04  0.27712625699E+04  0.50400001928E-02 0. -1.
       -1    1    3    3    0  502 -0.67816432327E+02  0.28938784207E+03  0.66063524800E+03  0.72441930024E+03  0.50400001928E-02 0.  1.
</event>
<event>
 5   0  0.2267565E-06  0.2773815E+04  0.7818609E-02  0.8311444E-01
        1   -1    0    0  501    0  0.00000000000E+00  0.00000000000E+00  0.21016007013E+04  0.21016007013E+04  0.50400001928E-02 0. -1.
       -1   -1    0    0    0  501  0.00000000000E+00  0.00000000000E+00 -0.91526058740E+03  0.91526058741E+03  0.50400001928E-02 0.  1.
    10030    2    1    2    0    0  0.00000000000E+00  0.00000000000E+00  0.11863401139E+04  0.30168612887E+04  0.27738149126E+04 0.  0.
        4    1    3    3  502    0  0.51457873614E+03 -0.10245044143E+04 -0.25566980730E+03  0.11746357878E+04  0.12699999809E+01 0.  1.
       -4    1    3    3    0  502 -0.51457873614E+03  0.10245044143E+04  0.14420099212E+04  0.18422255010E+04  0.12699999809E+01 0. -1.
</event>
<event>
 5   0  0.5546570E-06  0.2794159E+04  0.7818609E-02  0.8305084E-01
        2   -1    0    0  501    0  0.00000000000E+00  0.00000000000E+00  0.17683557014E+04  0.17683557014E+04  0.25500000920E-02 0. -1.
       -2   -1    0    0    0  501  0.00000000000E+00  0.00000000000E+00 -0.11037549569E+04  0.11037549569E+04  0.25500000920E-02 0.  1.
    10030    2    1    2    0    0  0.00000000000E+00  0.00000000000E+00  0.66460074443E+03  0.28721106583E+04  0.27941591730E+04 0.  0.
        4    1    3    3  502    0 -0.11781648041E+03 -0.85686083754E+03 -0.79545812697E+03  0.11750942356E+04  0.12699999809E+01 0.  1.
       -4    1    3    3    0  502  0.11781648041E+03  0.85686083754E+03  0.14600588714E+04  0.16970164227E+04  0.12699999809E+01 0. -1.
</event>
<event>
 5   0  0.5584205E-06  0.2778488E+04  0.7818609E-02  0.8309978E-01
       -2   -1    0    0    0  501  0.00000000000E+00  0.00000000000E+00  0.14871249055E+04  0.14871249055E+04  0.25500000920E-02 0. -1.
        2   -1    0    0  501    0  0.00000000000E+00  0.00000000000E+00 -0.12978051004E+04  0.12978051004E+04  0.25500000920E-02 0.  1.
    10030    2    1    2    0    0  0.00000000000E+00  0.00000000000E+00  0.18931980503E+03  0.27849300059E+04  0.27784875651E+04 0.  0.
        1    1    3    3  502    0 -0.12568005901E+04  0.45808405324E+03 -0.28118897532E+03  0.13669147607E+04  0.50400001928E-02 0.  1.
       -1    1    3    3    0  502  0.12568005901E+04 -0.45808405324E+03  0.47050878035E+03  0.14180152452E+04  0.50400001928E-02 0. -1.
</event>
<event>
 5   0  0.2267565E-06  0.2787064E+04  0.7818609E-02  0.8307296E-01
        1   -1    0    0  501    0  0.00000000000E+00  0.00000000000E+00  0.19156920797E+04  0.19156920798E+04  0.50400001928E-02 0. -1.
       -1   -1    0    0    0  501  0.00000000000E+00  0.00000000000E+00 -0.10136970331E+04  0.10136970331E+04  0.50400001928E-02 0.  1.
    10030    2    1    2    0    0  0.00000000000E+00  0.00000000000E+00  0.90199504663E+03  0.29293891129E+04  0.27870639588E+04 0.  0.
        4    1    3    3  502    0  0.90901515890E+03 -0.99002265885E+02 -0.65428244834E+03  0.11243652177E+04  0.12699999809E+01 0.  1.
       -4    1    3    3    0  502 -0.90901515890E+03  0.99002265885E+02  0.15562774950E+04  0.18050238951E+04  0.12699999809E+01 0. -1.
</event>
<event>
 5   0  0.5866136E-06  0.2815300E+04  0.7818609E-02  0.8298534E-01
       -2   -1    0    0    0  501  0.00000000000E+00  0.00000000000E+00  0.12216136132E+04  0.12216136132E+04  0.25500000920E-02 0. -1.
        2   -1    0    0  501    0  0.00000000000E+00  0.00000000000E+00 -0.16220169316E+04  0.16220169316E+04  0.25500000920E-02 0.  1.
    10030    2    1    2    0    0  0.00000000000E+00  0.00000000000E+00 -0.40040331836E+03  0.28436305448E+04  0.28152996036E+04 0.  0.
        5    1    3    3  502    0  0.30703281460E+03  0.11708236111E+04 -0.92601398888E+03  0.15240147884E+04  0.46999998093E+01 0.  1.
       -5    1    3    3    0  502 -0.30703281460E+03 -0.11708236111E+04  0.52561067052E+03  0.13196157564E+04  0.46999998093E+01 0. -1.
</event>
<event>
 5   0  0.5625245E-06  0.2800936E+04  0.7818609E-02  0.8302978E-01
       -2   -1    0    0    0  501  0.00000000000E+00  0.00000000000E+00  0.10757181739E+04  0.10757181739E+04  0.25500000920E-02 0.  1.
        2   -1    0    0  501    0  0.00000000000E+00  0.00000000000E+00 -0.18232568156E+04  0.18232568156E+04  0.25500000920E-02 0. -1.
    10030    2    1    2    0    0  0.00000000000E+00  0.00000000000E+00 -0.74753864164E+03  0.28989749895E+04  0.28009359095E+04 0.  0.
        3    1    3    3  502    0  0.30750063451E+03 -0.13434658866E+04 -0.63117763552E+03  0.15158635976E+04  0.10100000352E+00 0. -1.
       -3    1    3    3    0  502 -0.30750063451E+03  0.13434658866E+04 -0.11636100612E+03  0.13831113920E+04  0.10100000352E+00 0.  1.
</event>
<event>
 5   0  0.5546570E-06  0.2831611E+04  0.7818609E-02  0.8293521E-01
       -2   -1    0    0    0  501  0.00000000000E+00  0.00000000000E+00  0.13390257820E+04  0.13390257820E+04  0.25500000920E-02 0. -1.
        2   -1    0    0  501    0  0.00000000000E+00  0.00000000000E+00 -0.14969879249E+04  0.14969879249E+04  0.25500000920E-02 0.  1.
    10030    2    1    2    0    0  0.00000000000E+00  0.00000000000E+00 -0.15796214290E+03  0.28360137068E+04  0.28316111503E+04 0.  0.
        4    1    3    3  502    0  0.13144763943E+04  0.33468842460E+03 -0.48536960179E+03  0.14406421471E+04  0.12699999809E+01 0.  1.
       -4    1    3    3    0  502 -0.13144763943E+04 -0.33468842460E+03  0.32740745890E+03  0.13953715597E+04  0.12699999809E+01 0. -1.
</event>
<event>
 5   0  0.5916603E-06  0.2752843E+04  0.7818609E-02  0.8318060E-01
       -2   -1    0    0    0  501  0.00000000000E+00  0.00000000000E+00  0.16061833500E+04  0.16061833500E+04  0.25500000920E-02 0.  1.
        2   -1    0    0  501    0  0.00000000000E+00  0.00000000000E+00 -0.11795265269E+04  0.11795265269E+04  0.25500000920E-02 0. -1.
    10030    2    1    2    0    0  0.00000000000E+00  0.00000000000E+00  0.42665682305E+03  0.27857098769E+04  0.27528427986E+04 0.  0.
        2    1    3    3  502    0 -0.60821483002E+03 -0.80010764878E+03 -0.73834569397E+03  0.12470973871E+04  0.25500000920E-02 0. -1.
       -2    1    3    3    0  502  0.60821483002E+03  0.80010764878E+03  0.11650025170E+04  0.15386124898E+04  0.25500000920E-02 0.  1.
</event>
<event>
 5   0  0.5916603E-06  0.2762239E+04  0.7818609E-02  0.8315089E-01
        2   -1    0    0  501    0  0.00000000000E+00  0.00000000000E+00  0.23353907137E+04  0.23353907137E+04  0.25500000920E-02 0.  1.
       -2   -1    0    0    0  501  0.00000000000E+00  0.00000000000E+00 -0.81677581806E+03  0.81677581806E+03  0.25500000920E-02 0. -1.
    10030    2    1    2    0    0  0.00000000000E+00  0.00000000000E+00  0.15186148957E+04  0.31521665318E+04  0.27622387013E+04 0.  0.
        2    1    3    3  502    0 -0.45499874381E+03 -0.50273507759E+03 -0.61375683994E+03  0.91458398941E+03  0.25500000920E-02 0. -1.
       -2    1    3    3    0  502  0.45499874381E+03  0.50273507759E+03  0.21323717356E+04  0.22375825424E+04  0.25500000920E-02 0.  1.
</event>
<event>
 5   0  0.5916603E-06  0.2797090E+04  0.7818609E-02  0.8304172E-01
       -2   -1    0    0    0  501  0.00000000000E+00  0.00000000000E+00  0.13866346104E+04  0.13866346104E+04  0.25500000920E-02 0. -1.
        2   -1    0    0  501    0  0.00000000000E+00  0.00000000000E+00 -0.14105575128E+04  0.14105575128E+04  0.25500000920E-02 0.  1.
    10030    2    1    2    0    0  0.00000000000E+00  0.00000000000E+00 -0.23922902443E+02  0.27971921232E+04  0.27970898214E+04 0.  0.
        2    1    3    3  502    0 -0.81441338272E+03 -0.14602979550E+03 -0.11395371721E+04  0.14082396194E+04  0.25500000920E-02 0.  1.
       -2    1    3    3    0  502  0.81441338272E+03  0.14602979550E+03  0.11156142696E+04  0.13889525038E+04  0.25500000920E-02 0. -1.
</event>
<event>
 5   0  0.5625245E-06  0.2834967E+04  0.7818609E-02  0.8292494E-01
       -2   -1    0    0    0  501  0.00000000000E+00  0.00000000000E+00  0.92823843465E+03  0.92823843465E+03  0.25500000920E-02 0.  1.
        2   -1    0    0  501    0  0.00000000000E+00  0.00000000000E+00 -0.21645944427E+04  0.21645944427E+04  0.25500000920E-02 0. -1.
    10030    2    1    2    0    0  0.00000000000E+00  0.00000000000E+00 -0.12363560080E+04  0.30928328773E+04  0.28349672006E+04 0.  0.
        3    1    3    3  502    0 -0.10260685641E+04 -0.46133511067E+03  0.32258859774E+03  0.11703461865E+04  0.10100000352E+00 0.  1.
       -3    1    3    3    0  502  0.10260685641E+04  0.46133511067E+03 -0.15589446058E+04  0.19224866909E+04  0.10100000352E+00 0. -1.
</event>
<event>
 5   0  0.5546570E-06  0.2783623E+04  0.7818609E-02  0.8308371E-01
        2   -1    0    0  501    0  0.00000000000E+00  0.00000000000E+00  0.16037767983E+04  0.16037767983E+04  0.25500000920E-02 0.  1.
       -2   -1    0    0    0  501  0.00000000000E+00  0.00000000000E+00 -0.12078606482E+04  0.12078606482E+04  0.25500000920E-02 0. -1.
    10030    2    1    2    0    0  0.00000000000E+00  0.00000000000E+00  0.39591615010E+03  0.28116374465E+04  0.27836227353E+04 0.  0.
        4    1    3    3  502    0  0.10641079191E+04  0.63501462996E+03  0.83802959988E+03  0.14959493531E+04  0.12699999809E+01 0.  1.
       -4    1    3    3    0  502 -0.10641079191E+04 -0.63501462996E+03 -0.44211344978E+03  0.13156880934E+04  0.12699999809E+01 0. -1.
</event>
<event>
 5   0  0.5584205E-06  0.2804904E+04  0.7818609E-02  0.8301747E-01
       -2   -1    0    0    0  501  0.00000000000E+00  0.00000000000E+00  0.14742117624E+04  0.14742117624E+04  0.25500000920E-02 0.  1.
        2   -1    0    0  501    0  0.00000000000E+00  0.00000000000E+00 -0.13341853423E+04  0.13341853423E+04  0.25500000920E-02 0. -1.
    10030    2    1    2    0    0  0.00000000000E+00  0.00000000000E+00  0.14002642015E+03  0.28083971047E+04  0.28049040803E+04 0.  0.
        1    1    3    3  502    0  0.27518386829E+03 -0.11248378500E+04  0.86212760204E+03  0.14436933028E+04  0.50400001928E-02 0.  1.
       -1    1    3    3    0  502 -0.27518386829E+03  0.11248378500E+04 -0.72210118189E+03  0.13647038020E+04  0.50400001928E-02 0. -1.
</event>
<event>
 5   0  0.2277133E-06  0.2793295E+04  0.7818609E-02  0.8305353E-01
        1   -1    0    0  501    0  0.00000000000E+00  0.00000000000E+00  0.16679988703E+04  0.16679988703E+04  0.50400001928E-02 0. -1.
       -1   -1    0    0    0  501  0.00000000000E+00  0.00000000000E+00 -0.11694395218E+04  0.11694395218E+04  0.50400001928E-02 0.  1.
    10030    2    1    2    0    0  0.00000000000E+00  0.00000000000E+00  0.49855934849E+03  0.28374383921E+04  0.27932946864E+04 0.  0.
        1    1    3    3  502    0 -0.45787602384E+02 -0.41683750692E+03  0.16025394984E+04  0.16564971644E+04  0.50400001928E-02 0. -1.
       -1    1    3    3    0  502  0.45787602384E+02  0.41683750692E+03 -0.11039801500E+04  0.11809412277E+04  0.50400001928E-02 0.  1.
</event>
<event>
 5   0  0.2234068E-06  0.2793223E+04  0.7818609E-02  0.8305375E-01
        1   -1    0    0  501    0  0.00000000000E+00  0.00000000000E+00  0.16103231106E+04  0.16103231106E+04  0.50400001928E-02 0. -1.
       -1   -1    0    0    0  501  0.00000000000E+00  0.00000000000E+00 -0.12112625457E+04  0.12112625457E+04  0.50400001928E-02 0.  1.
    10030    2    1    2    0    0  0.00000000000E+00  0.00000000000E+00  0.39906056491E+03  0.28215856564E+04  0.27932232782E+04 0.  0.
        3    1    3    3  502    0  0.15866352698E+03  0.15053746830E+03  0.15929162202E+04  0.16078612313E+04  0.10100000352E+00 0. -1.
       -3    1    3    3    0  502 -0.15866352698E+03 -0.15053746830E+03 -0.11938556553E+04  0.12137244251E+04  0.10100000352E+00 0.  1.
</event>
<event>
 5   0  0.2277133E-06  0.2805455E+04  0.7818609E-02  0.8301577E-01
       -1   -1    0    0    0  501  0.00000000000E+00  0.00000000000E+00  0.13904042657E+04  0.13904042657E+04  0.50400001928E-02 0. -1.
        1   -1    0    0  501    0  0.00000000000E+00  0.00000000000E+00 -0.14151595659E+04  0.14151595659E+04  0.50400001928E-02 0.  1.
    10030    2    1    2    0    0  0.00000000000E+00  0.00000000000E+00 -0.24755300225E+02  0.28055638316E+04  0.28054546135E+04 0.  0.
        1    1    3    3  502    0 -0.96180435070E+03  0.10295822819E+03 -0.10282793401E+04  0.14117458720E+04  0.50400001928E-02 0.  1.
       -1    1    3    3    0  502  0.96180435070E+03 -0.10295822819E+03  0.10035240399E+04  0.13938179596E+04  0.50400001928E-02 0. -1.
</event>
<event>
 5   0  0.5546570E-06  0.2856960E+04  0.7818609E-02  0.8285799E-01
       -2   -1    0    0    0  501  0.00000000000E+00  0.00000000000E+00  0.12709259161E+04  0.12709259161E+04  0.25500000920E-02 0. -1.
        2   -1    0    0  501    0  0.00000000000E+00  0.00000000000E+00 -0.16055659396E+04  0.16055659396E+04  0.25500000920E-02 0.  1.
    10030    2    1    2    0    0  0.00000000000E+00  0.00000000000E+00 -0.33464002350E+03  0.28764918556E+04  0.28569601765E+04 0.  0.
        4    1    3    3  502    0  0.36226117632E+03 -0.72560603498E+03 -0.13512914726E+04  0.15759846239E+04  0.12699999809E+01 0.  1.
       -4    1    3    3    0  502 -0.36226117632E+03  0.72560603498E+03  0.10166514491E+04  0.13005072317E+04  0.12699999809E+01 0. -1.
</event>
<event>
 5   0  0.5916603E-06  0.2789359E+04  0.7818609E-02  0.8306580E-01
        2   -1    0    0  501    0  0.00000000000E+00  0.00000000000E+00  0.99816911224E+03  0.99816911224E+03  0.25500000920E-02 0. -1.
       -2   -1    0    0    0  501  0.00000000000E+00  0.00000000000E+00 -0.19486982422E+04  0.19486982422E+04  0.25500000920E-02 0.  1.
    10030    2    1    2    0    0  0.00000000000E+00  0.00000000000E+00 -0.95052912995E+03  0.29468673544E+04  0.27893586320E+04 0.  0.
        2    1    3    3  502    0  0.79404375037E+02 -0.13315985216E+04 -0.45254018040E+02  0.13347312852E+04  0.25500000920E-02 0. -1.
       -2    1    3    3    0  502 -0.79404375037E+02  0.13315985216E+04 -0.90527511191E+03  0.16121360692E+04  0.25500000920E-02 0.  1.
</event>
<event>
 5   0  0.5916603E-06  0.2506478E+04  0.7818609E-02  0.8400681E-01
        2   -1    0    0  501    0  0.00000000000E+00  0.00000000000E+00  0.49877959727E+03  0.49877959727E+03  0.25500000920E-02 0.  1.
       -2   -1    0    0    0  501  0.00000000000E+00  0.00000000000E+00 -0.31489021342E+04  0.31489021342E+04  0.25500000920E-02 0. -1.
    10030    2    1    2    0    0  0.00000000000E+00  0.00000000000E+00 -0.26501225369E+04  0.36476817314E+04  0.25064781175E+04 0.  0.
        2    1    3    3  502    0 -0.11057463000E+04 -0.58290482231E+03 -0.14564841656E+04  0.19193225462E+04  0.25500000920E-02 0. -1.
       -2    1    3    3    0  502  0.11057463000E+04  0.58290482231E+03 -0.11936383713E+04  0.17283591852E+04  0.25500000920E-02 0.  1.
</event>
<event>
 5   0  0.5584205E-06  0.2799080E+04  0.7818609E-02  0.8303554E-01
       -2   -1    0    0    0  501  0.00000000000E+00  0.00000000000E+00  0.20170583363E+04  0.20170583363E+04  0.25500000920E-02 0.  1.
        2   -1    0    0  501    0  0.00000000000E+00  0.00000000000E+00 -0.97107333539E+03  0.97107333539E+03  0.25500000920E-02 0. -1.
    10030    2    1    2    0    0  0.00000000000E+00  0.00000000000E+00  0.10459850009E+04  0.29881316717E+04  0.27990795389E+04 0.  0.
        1    1    3    3  502    0  0.13645241226E+04  0.25494318156E+03  0.71333074548E+03  0.15606930703E+04  0.50400001928E-02 0. -1.
       -1    1    3    3    0  502 -0.13645241226E+04 -0.25494318156E+03  0.33265425540E+03  0.14274386014E+04  0.50400001928E-02 0.  1.
</event>
<event>
 5   0  0.5866136E-06  0.2775285E+04  0.7818609E-02  0.8310983E-01
        2   -1    0    0  501    0  0.00000000000E+00  0.00000000000E+00  0.18092746929E+04  0.18092746929E+04  0.25500000920E-02 0.  1.
       -2   -1    0    0    0  501  0.00000000000E+00  0.00000000000E+00 -0.10642670873E+04  0.10642670873E+04  0.25500000920E-02 0. -1.
    10030    2    1    2    0    0  0.00000000000E+00  0.00000000000E+00  0.74500760560E+03  0.28735417803E+04  0.27752848558E+04 0.  0.
        5    1    3    3  502    0 -0.75877053031E+03  0.46582654604E+02 -0.82946933702E+03  0.11251418277E+04  0.46999998093E+01 0. -1.
       -5    1    3    3    0  502  0.75877053031E+03 -0.46582654604E+02  0.15744769426E+04  0.17483999526E+04  0.46999998093E+01 0.  1.
</event>
<event>
 5   0  0.2190865E-06  0.2724289E+04  0.7818609E-02  0.8327167E-01
       -1   -1    0    0    0  501  0.00000000000E+00  0.00000000000E+00  0.72104067173E+03  0.72104067174E+03  0.50400001928E-02 0. -1.
        1   -1    0    0  501    0  0.00000000000E+00  0.00000000000E+00 -0.25732764989E+04  0.25732764989E+04  0.50400001928E-02 0.  1.
    10030    2    1    2    0    0  0.00000000000E+00  0.00000000000E+00 -0.18522358272E+04  0.32943171707E+04  0.27242885422E+04 0.  0.
        2    1    3    3  502    0  0.42220194448E+03 -0.11797506060E+04 -0.15720952120E+04  0.20103604975E+04  0.25500000920E-02 0.  1.
       -2    1    3    3    0  502 -0.42220194448E+03  0.11797506060E+04 -0.28014061516E+03  0.12839566732E+04  0.25500000920E-02 0. -1.
</event>
<event>
 5   0  0.2234068E-06  0.2791742E+04  0.7818609E-02  0.8305837E-01
       -1   -1    0    0    0  501  0.00000000000E+00  0.00000000000E+00  0.71532209328E+03  0.71532209330E+03  0.50400001928E-02 0. -1.
        1   -1    0    0  501    0  0.00000000000E+00  0.00000000000E+00 -0.27238865987E+04  0.27238865987E+04  0.50400001928E-02 0.  1.
    10030    2    1    2    0    0  0.00000000000E+00  0.00000000000E+00 -0.20085645054E+04  0.34392086920E+04  0.27917422973E+04 0.  0.
        3    1    3    3  502    0  0.85816435888E+03  0.48025900494E+03 -0.22246696261E+04  0.24323342151E+04  0.10100000352E+00 0.  1.
       -3    1    3    3    0  502 -0.85816435888E+03 -0.48025900494E+03  0.21610512071E+03  0.10068744768E+04  0.10100000352E+00 0. -1.
</event>
<event>
 5   0  0.2277133E-06  0.2855080E+04  0.7818609E-02  0.8286369E-01
        1   -1    0    0  501    0  0.00000000000E+00  0.00000000000E+00  0.18340862712E+04  0.18340862712E+04  0.50400001928E-02 0.  1.
       -1   -1    0    0    0  501  0.00000000000E+00  0.00000000000E+00 -0.11111096760E+04  0.11111096760E+04  0.50400001928E-02 0. -1.
    10030    2    1    2    0    0  0.00000000000E+00  0.00000000000E+00  0.72297659520E+03  0.29451959472E+04  0.28550803859E+04 0.  0.
        1    1    3    3  502    0 -0.72519093988E+03 -0.86872986220E+03  0.12591720999E+04  0.16929583131E+04  0.50400001928E-02 0.  1.
       -1    1    3    3    0  502  0.72519093988E+03  0.86872986220E+03 -0.53619550474E+03  0.12522376340E+04  0.50400001928E-02 0. -1.
</event>
<event>
 5   0  0.2190865E-06  0.2803516E+04  0.7818609E-02  0.8302178E-01
       -1   -1    0    0    0  501  0.00000000000E+00  0.00000000000E+00  0.10836781573E+04  0.10836781573E+04  0.50400001928E-02 0.  1.
        1   -1    0    0  501    0  0.00000000000E+00  0.00000000000E+00 -0.18132002552E+04  0.18132002552E+04  0.50400001928E-02 0. -1.
    10030    2    1    2    0    0  0.00000000000E+00  0.00000000000E+00 -0.72952209794E+03  0.28968784126E+04  0.28035160149E+04 0.  0.
        2    1    3    3  502    0 -0.12666480235E+04 -0.91489807054E+02 -0.97795230138E+03  0.16028594149E+04  0.25500000920E-02 0. -1.
       -2    1    3    3    0  502  0.12666480235E+04  0.91489807054E+02  0.24843020343E+03  0.12940189976E+04  0.25500000920E-02 0.  1.
</event>
<event>
 5   0  0.5625245E-06  0.2795281E+04  0.7818609E-02  0.8304735E-01
       -2   -1    0    0    0  501  0.00000000000E+00  0.00000000000E+00  0.93323977865E+03  0.93323977865E+03  0.25500000920E-02 0.  1.
        2   -1    0    0  501    0  0.00000000000E+00  0.00000000000E+00 -0.20931373735E+04  0.20931373735E+04  0.25500000920E-02 0. -1.
    10030    2    1    2    0    0  0.00000000000E+00  0.00000000000E+00 -0.11598975949E+04  0.30263771522E+04  0.27952810658E+04 0.  0.
        3    1    3    3  502    0 -0.44049742936E+03 -0.34053185486E+03 -0.19678836828E+04  0.20451323010E+04  0.10100000352E+00 0. -1.
       -3    1    3    3    0  502  0.44049742936E+03  0.34053185486E+03  0.80798608793E+03  0.98124485116E+03  0.10100000352E+00 0.  1.
</event>
<event>
 5   0  0.2190865E-06  0.2851970E+04  0.7818609E-02  0.8287313E-01
        1   -1    0    0  501    0  0.00000000000E+00  0.00000000000E+00  0.13026006710E+04  0.13026006710E+04  0.50400001928E-02 0.  1.
       -1   -1    0    0    0  501  0.00000000000E+00  0.00000000000E+00 -0.15610559875E+04  0.15610559876E+04  0.50400001928E-02 0. -1.
    10030    2    1    2    0    0  0.00000000000E+00  0.00000000000E+00 -0.25845531658E+03  0.28636566585E+04  0.28519695488E+04 0.  0.
        2    1    3    3  502    0 -0.21619434043E+03 -0.13556110746E+04 -0.51682921813E+03  0.14668107646E+04  0.25500000920E-02 0. -1.
       -2    1    3    3    0  502  0.21619434043E+03  0.13556110746E+04  0.25837390155E+03  0.13968458939E+04  0.25500000920E-02 0.  1.
</event>
<event>
 5   0  0.5866136E-06  0.2803790E+04  0.7818609E-02  0.8302093E-01
       -2   -1    0    0    0  501  0.00000000000E+00  0.00000000000E+00  0.12387783355E+04  0.12387783355E+04  0.25500000920E-02 0. -1.
        2   -1    0    0  501    0  0.00000000000E+00  0.00000000000E+00 -0.15864905628E+04  0.15864905628E+04  0.25500000920E-02 0.  1.
    10030    2    1    2    0    0  0.00000000000E+00  0.00000000000E+00 -0.34771222724E+03  0.28252688983E+04  0.28037903906E+04 0.  0.
        5    1    3    3  502    0  0.10586092437E+04 -0.73210032054E+03 -0.73368716257E+03  0.14815341213E+04  0.46999998093E+01 0. -1.
       -5    1    3    3    0  502 -0.10586092437E+04  0.73210032054E+03  0.38597493533E+03  0.13437347770E+04  0.46999998093E+01 0.  1.
</event>
<event>
 5   0  0.5584205E-06  0.2806939E+04  0.7818609E-02  0.8301117E-01
       -2   -1    0    0    0  501  0.00000000000E+00  0.00000000000E+00  0.15278661525E+04  0.15278661525E+04  0.25500000920E-02 0.  1.
        2   -1    0    0  501    0  0.00000000000E+00  0.00000000000E+00 -0.12892011372E+04  0.12892011372E+04  0.25500000920E-02 0. -1.
    10030    2    1    2    0    0  0.00000000000E+00  0.00000000000E+00  0.23866501532E+03  0.28170672897E+04  0.28069391025E+04 0.  0.
        1    1    3    3  502    0 -0.11511487012E+04  0.54208314470E+03 -0.47502843477E+03  0.13581787371E+04  0.50400001928E-02 0. -1.
       -1    1    3    3    0  502  0.11511487012E+04 -0.54208314470E+03  0.71369345009E+03  0.14588885526E+04  0.50400001928E-02 0.  1.
</event>
<event>
 5   0  0.2206967E-06  0.2803582E+04  0.7818609E-02  0.8302157E-01
        1   -1    0    0  501    0  0.00000000000E+00  0.00000000000E+00  0.17148394062E+04  0.17148394062E+04  0.50400001928E-02 0.  1.
       -1   -1    0    0    0  501  0.00000000000E+00  0.00000000000E+00 -0.11458905885E+04  0.11458905886E+04  0.50400001928E-02 0. -1.
    10030    2    1    2    0    0  0.00000000000E+00  0.00000000000E+00  0.56894881764E+03  0.28607299947E+04  0.28035822345E+04 0.  0.
        5    1    3    3  502    0 -0.39361727110E+03 -0.13186088502E+04  0.55699979250E+03  0.14845654969E+04  0.46999998093E+01 0. -1.
       -5    1    3    3    0  502  0.39361727110E+03  0.13186088502E+04  0.11949025137E+02  0.13761644978E+04  0.46999998093E+01 0.  1.
</event>
<event>
 5   0  0.2234068E-06  0.2799040E+04  0.7818609E-02  0.8303567E-01
       -1   -1    0    0    0  501  0.00000000000E+00  0.00000000000E+00  0.81108378853E+03  0.81108378855E+03  0.50400001928E-02 0. -1.
        1   -1    0    0  501    0  0.00000000000E+00  0.00000000000E+00 -0.24148625166E+04  0.24148625166E+04  0.50400001928E-02 0.  1.
    10030    2    1    2    0    0  0.00000000000E+00  0.00000000000E+00 -0.16037787281E+04  0.32259463052E+04  0.27990397202E+04 0.  0.
        3    1    3    3  502    0 -0.63856336819E+03 -0.31691910972E+03 -0.21899236457E+04  0.23030341902E+04  0.10100000352E+00 0.  1.
       -3    1    3    3    0  502  0.63856336819E+03  0.31691910972E+03  0.58614491759E+03  0.92291211494E+03  0.10100000352E+00 0. -1.
</event>
<event>
 5   0  0.2277133E-06  0.2793325E+04  0.7818609E-02  0.8305344E-01
        1   -1    0    0  501    0  0.00000000000E+00  0.00000000000E+00  0.17046237535E+04  0.17046237535E+04  0.50400001928E-02 0.  1.
       -1   -1    0    0    0  501  0.00000000000E+00  0.00000000000E+00 -0.11443382488E+04  0.11443382488E+04  0.50400001928E-02 0. -1.
    10030    2    1    2    0    0  0.00000000000E+00  0.00000000000E+00  0.56028550475E+03  0.28489620023E+04  0.27933250158E+04 0.  0.
        1    1    3    3  502    0 -0.33079749325E+02 -0.12852960255E+04 -0.27623716703E+03  0.13150616394E+04  0.50400001928E-02 0. -1.
       -1    1    3    3    0  502  0.33079749325E+02  0.12852960255E+04  0.83652267178E+03  0.15339003629E+04  0.50400001928E-02 0.  1.
</event>
<event>
 5   0  0.2206967E-06  0.2757209E+04  0.7818609E-02  0.8316678E-01
        1   -1    0    0  501    0  0.00000000000E+00  0.00000000000E+00  0.17023986734E+04  0.17023986734E+04  0.50400001928E-02 0. -1.
       -1   -1    0    0    0  501  0.00000000000E+00  0.00000000000E+00 -0.11163957106E+04  0.11163957106E+04  0.50400001928E-02 0.  1.
    10030    2    1    2    0    0  0.00000000000E+00  0.00000000000E+00  0.58600296275E+03  0.28187943840E+04  0.27572091518E+04 0.  0.
        5    1    3    3  502    0  0.79061206761E+03  0.53222720963E+03 -0.72533723685E+03  0.11976933837E+04  0.46999998093E+01 0.  1.
       -5    1    3    3    0  502 -0.79061206761E+03 -0.53222720963E+03  0.13113401996E+04  0.16211010003E+04  0.46999998093E+01 0. -1.
</event>
<event>
 5   0  0.5916603E-06  0.2843634E+04  0.7818609E-02  0.8289848E-01
        2   -1    0    0  501    0  0.00000000000E+00  0.00000000000E+00  0.17447134583E+04  0.17447134583E+04  0.25500000920E-02 0.  1.
       -2   -1    0    0    0  501  0.00000000000E+00  0.00000000000E+00 -0.11586790545E+04  0.11586790546E+04  0.25500000920E-02 0. -1.
    10030    2    1    2    0    0  0.00000000000E+00  0.00000000000E+00  0.58603440379E+03  0.29033925129E+04  0.28436335491E+04 0.  0.
        2    1    3    3  502    0 -0.49281479000E+03  0.13168559563E+04  0.50861078371E+03  0.14952126793E+04  0.25500000920E-02 0. -1.
       -2    1    3    3    0  502  0.49281479000E+03 -0.13168559563E+04  0.77423620083E+02  0.14081798336E+04  0.25500000920E-02 0.  1.
</event>
<event>
 5   0  0.2190865E-06  0.2814285E+04  0.7818609E-02  0.8298847E-01
        1   -1    0    0  501    0  0.00000000000E+00  0.00000000000E+00  0.17574583256E+04  0.17574583256E+04  0.50400001928E-02 0.  1.
       -1   -1    0    0    0  501  0.00000000000E+00  0.00000000000E+00 -0.11266550941E+04  0.11266550941E+04  0.50400001928E-02 0. -1.
    10030    2    1    2    0    0  0.00000000000E+00  0.00000000000E+00  0.63080323150E+03  0.28841134196E+04  0.28142845450E+04 0.  0.
        2    1    3    3  502    0 -0.36125923946E+03  0.12325023827E+04 -0.27373534837E+03  0.13132027271E+04  0.25500000920E-02 0. -1.
       -2    1    3    3    0  502  0.36125923946E+03 -0.12325023827E+04  0.90453857987E+03  0.15709106925E+04  0.25500000920E-02 0.  1.
</event>
<event>
 5   0  0.5866136E-06  0.2776053E+04  0.7818609E-02  0.8310742E-01
        2   -1    0    0  501    0  0.00000000000E+00  0.00000000000E+00  0.13061331116E+04  0.13061331116E+04  0.25500000920E-02 0.  1.
       -2   -1    0    0    0  501  0.00000000000E+00  0.00000000000E+00 -0.14750542494E+04  0.14750542494E+04  0.25500000920E-02 0. -1.
    10030    2    1    2    0    0  0.00000000000E+00  0.00000000000E+00 -0.16892113776E+03  0.27811873611E+04  0.27760527348E+04 0.  0.
        5    1    3    3  502    0 -0.49094107748E+03  0.25640715304E+03  0.11906178559E+04  0.13131491684E+04  0.46999998093E+01 0.  1.
       -5    1    3    3    0  502  0.49094107748E+03 -0.25640715304E+03 -0.13595389937E+04  0.14680381926E+04  0.46999998093E+01 0. -1.
</event>
<event>
 5   0  0.2277133E-06  0.3049281E+04  0.7818609E-02  0.8229797E-01
       -1   -1    0    0    0  501  0.00000000000E+00  0.00000000000E+00  0.12078140359E+04  0.12078140359E+04  0.50400001928E-02 0. -1.
        1   -1    0    0  501    0  0.00000000000E+00  0.00000000000E+00 -0.19245753266E+04  0.19245753266E+04  0.50400001928E-02 0.  1.
    10030    2    1    2    0    0  0.00000000000E+00  0.00000000000E+00 -0.71676129070E+03  0.31323893626E+04  0.30492812876E+04 0.  0.
        1    1    3    3  502    0  0.11476815731E+03  0.14034702437E+04  0.24203968139E+03  0.14288049770E+04  0.50400001928E-02 0. -1.
       -1    1    3    3    0  502 -0.11476815731E+03 -0.14034702437E+04 -0.95880097210E+03  0.17035843856E+04  0.50400001928E-02 0.  1.
</event>
<event>
 5   0  0.5625245E-06  0.2844751E+04  0.7818609E-02  0.8289508E-01
       -2   -1    0    0    0  501  0.00000000000E+00  0.00000000000E+00  0.11267111471E+04  0.11267111471E+04  0.25500000920E-02 0. -1.
        2   -1    0    0  501    0  0.00000000000E+00  0.00000000000E+00 -0.17956257584E+04  0.17956257584E+04  0.25500000920E-02 0.  1.
    10030    2    1    2    0    0  0.00000000000E+00  0.00000000000E+00 -0.66891461127E+03  0.29223369055E+04  0.28447506450E+04 0.  0.
        3    1    3    3  502    0 -0.40624036778E+03 -0.34463183149E+03  0.10203560541E+04  0.11510555256E+04  0.10100000352E+00 0. -1.
       -3    1    3    3    0  502  0.40624036778E+03  0.34463183149E+03 -0.16892706654E+04  0.17712813799E+04  0.10100000352E+00 0.  1.
</event>
<event>
 5   0  0.5866136E-06  0.2767503E+04  0.7818609E-02  0.8313429E-01
        2   -1    0    0  501    0  0.00000000000E+00  0.00000000000E+00  0.19213978730E+04  0.19213978730E+04  0.25500000920E-02 0.  1.
       -2   -1    0    0    0  501  0.00000000000E+00  0.00000000000E+00 -0.99654956035E+03  0.99654956035E+03  0.25500000920E-02 0. -1.
    10030    2    1    2    0    0  0.00000000000E+00  0.00000000000E+00  0.92484831264E+03  0.29179474333E+04  0.27675029941E+04 0.  0.
        5    1    3    3  502    0 -0.72575426554E+03  0.48858613730E+03  0.15927614113E+04  0.18172359976E+04  0.46999998093E+01 0.  1.
       -5    1    3    3    0  502  0.72575426554E+03 -0.48858613730E+03 -0.66791309865E+03  0.11007114358E+04  0.46999998093E+01 0. -1.
</event>
<event>
 5   0  0.5866136E-06  0.2788828E+04  0.7818609E-02  0.8306745E-01
       -2   -1    0    0    0  501  0.00000000000E+00  0.00000000000E+00  0.72237780531E+03  0.72237780532E+03  0.25500000920E-02 0.  1.
        2   -1    0    0  501    0  0.00000000000E+00  0.00000000000E+00 -0.26916535868E+04  0.26916535868E+04  0.25500000920E-02 0. -1.
    10030    2    1    2    0    0  0.00000000000E+00  0.00000000000E+00 -0.19692757815E+04  0.34140313921E+04  0.27888282921E+04 0.  0.
        5    1    3    3  502    0  0.14016061903E+03  0.84574953248E+03  0.36164511412E+03  0.93045502276E+03  0.46999998093E+01 0.  1.
       -5    1    3    3    0  502 -0.14016061903E+03 -0.84574953248E+03 -0.23309208956E+04  0.24835763693E+04  0.46999998093E+01 0. -1.
</event>
<event>
 5   0  0.5625245E-06  0.2465717E+04  0.7818609E-02  0.8415302E-01
       -2   -1    0    0    0  501  0.00000000000E+00  0.00000000000E+00  0.10830962392E+04  0.10830962392E+04  0.25500000920E-02 0.  1.
        2   -1    0    0  501    0  0.00000000000E+00  0.00000000000E+00 -0.14033283748E+04  0.14033283748E+04  0.25500000920E-02 0. -1.
    10030    2    1    2    0    0  0.00000000000E+00  0.00000000000E+00 -0.32023213559E+03  0.24864246140E+04  0.24657166788E+04 0.  0.
        3    1    3    3  502    0  0.64060820274E+03 -0.58250258845E+03  0.72489440735E+03  0.11292298468E+04  0.10100000352E+00 0.  1.
       -3    1    3    3    0  502 -0.64060820274E+03  0.58250258845E+03 -0.10451265429E+04  0.13571947671E+04  0.10100000352E+00 0. -1.
</event>
<event>
 5   0  0.2277133E-06  0.2794321E+04  0.7818609E-02  0.8305034E-01
        1   -1    0    0  501    0  0.00000000000E+00  0.00000000000E+00  0.13256772772E+04  0.13256772772E+04  0.50400001928E-02 0. -1.
       -1   -1    0    0    0  501  0.00000000000E+00  0.00000000000E+00 -0.14724977897E+04  0.14724977897E+04  0.50400001928E-02 0.  1.
    10030    2    1    2    0    0  0.00000000000E+00  0.00000000000E+00 -0.14682051256E+03  0.27981750669E+04  0.27943205690E+04 0.  0.
        1    1    3    3  502    0  0.89531652016E+03  0.10420234479E+04  0.18120869357E+03  0.13857276529E+04  0.50400001928E-02 0. -1.
       -1    1    3    3    0  502 -0.89531652016E+03 -0.10420234479E+04 -0.32802920613E+03  0.14124474140E+04  0.50400001928E-02 0.  1.
</event>
<event>
 5   0  0.2267565E-06  0.2794681E+04  0.7818609E-02  0.8304922E-01
       -1   -1    0    0    0  501  0.00000000000E+00  0.00000000000E+00  0.74004388463E+03  0.74004388465E+03  0.50400001928E-02 0.  1.
        1   -1    0    0  501    0  0.00000000000E+00  0.00000000000E+00 -0.26384390352E+04  0.26384390352E+04  0.50400001928E-02 0. -1.
    10030    2    1    2    0    0  0.00000000000E+00  0.00000000000E+00 -0.18983951506E+04  0.33784829198E+04  0.27946811432E+04 0.  0.
        4    1    3    3  502    0 -0.67575337615E+03 -0.12153321607E+04 -0.78307125053E+03  0.15958938193E+04  0.12699999809E+01 0. -1.
       -4    1    3    3    0  502  0.67575337615E+03  0.12153321607E+04 -0.11153239000E+04  0.17825891005E+04  0.12699999809E+01 0.  1.
</event>
<event>
 5   0  0.2206967E-06  0.2754024E+04  0.7818609E-02  0.8317686E-01
        1   -1    0    0  501    0  0.00000000000E+00  0.00000000000E+00  0.21319349439E+04  0.21319349439E+04  0.50400001928E-02 0.  1.
       -1   -1    0    0    0  501  0.00000000000E+00  0.00000000000E+00 -0.88940923124E+03  0.88940923126E+03  0.50400001928E-02 0. -1.
    10030    2    1    2    0    0  0.00000000000E+00  0.00000000000E+00  0.12425257127E+04  0.30213441752E+04  0.27540244150E+04 0.  0.
        5    1    3    3  502    0  0.74389986744E+03 -0.52330953157E+03  0.17554927395E+04  0.19771233464E+04  0.46999998093E+01 0.  1.
       -5    1    3    3    0  502 -0.74389986744E+03  0.52330953157E+03 -0.51296702681E+03  0.10442208288E+04  0.46999998093E+01 0. -1.
</event>
<event>
 5   0  0.5916603E-06  0.2761927E+04  0.7818609E-02  0.8315187E-01
       -2   -1    0    0    0  501  0.00000000000E+00  0.00000000000E+00  0.99181702709E+03  0.99181702709E+03  0.25500000920E-02 0.  1.
        2   -1    0    0  501    0  0.00000000000E+00  0.00000000000E+00 -0.19227938846E+04  0.19227938846E+04  0.25500000920E-02 0. -1.
    10030    2    1    2    0    0  0.00000000000E+00  0.00000000000E+00 -0.93097685756E+03  0.29146109117E+04  0.27619266568E+04 0.  0.
        2    1    3    3  502    0  0.70836528765E+03  0.44810749322E+03  0.69266976012E+03  0.10873698096E+04  0.25500000920E-02 0.  1.
       -2    1    3    3    0  502 -0.70836528765E+03 -0.44810749322E+03 -0.16236466177E+04  0.18272411021E+04  0.25500000920E-02 0. -1.
</event>
<event>
 5   0  0.2234068E-06  0.2794189E+04  0.7818609E-02  0.8305075E-01
        1   -1    0    0  501    0  0.00000000000E+00  0.00000000000E+00  0.14842892556E+04  0.14842892556E+04  0.50400001928E-02 0. -1.
       -1   -1    0    0    0  501  0.00000000000E+00  0.00000000000E+00 -0.13150222115E+04  0.13150222115E+04  0.50400001928E-02 0.  1.
    10030    2    1    2    0    0  0.00000000000E+00  0.00000000000E+00  0.16926704409E+03  0.27993114671E+04  0.27941892129E+04 0.  0.
        3    1    3    3  502    0 -0.41734493134E+03  0.50102389646E+03  0.13224841000E+04  0.14745053210E+04  0.10100000352E+00 0. -1.
       -3    1    3    3    0  502  0.41734493134E+03 -0.50102389646E+03 -0.11532170559E+04  0.13248061461E+04  0.10100000352E+00 0.  1.
</event>
<event>
 5   0  0.2267565E-06  0.2801250E+04  0.7818609E-02  0.8302880E-01
        1   -1    0    0  501    0  0.00000000000E+00  0.00000000000E+00  0.10891072525E+04  0.10891072525E+04  0.50400001928E-02 0. -1.
       -1   -1    0    0    0  501  0.00000000000E+00  0.00000000000E+00 -0.18012463817E+04  0.18012463817E+04  0.50400001928E-02 0.  1.
    10030    2    1    2    0    0  0.00000000000E+00  0.00000000000E+00 -0.71213912919E+03  0.28903536343E+04  0.28012500766E+04 0.  0.
        4    1    3    3  502    0  0.13094268602E+04 -0.31476782977E+03 -0.75310995220E+03  0.15430015236E+04  0.12699999809E+01 0.  1.
       -4    1    3    3    0  502 -0.13094268602E+04  0.31476782977E+03  0.40970823012E+02  0.13473521107E+04  0.12699999809E+01 0. -1.
</event>
<event>
 5   0  0.5546570E-06  0.2601357E+04  0.7818609E-02  0.8367740E-01
        2   -1    0    0  501    0  0.00000000000E+00  0.00000000000E+00  0.14835271002E+04  0.14835271002E+04  0.25500000920E-02 0. -1.
       -2   -1    0    0    0  501  0.00000000000E+00  0.00000000000E+00 -0.11403667492E+04  0.11403667492E+04  0.25500000920E-02 0.  1.
    10030    2    1    2    0    0  0.00000000000E+00  0.00000000000E+00  0.34316035099E+03  0.26238938493E+04  0.26013573199E+04 0.  0.
        4    1    3    3  502    0  0.10929032199E+04 -0.19234596859E+03 -0.51277316627E+03  0.12224452350E+04  0.12699999809E+01 0.  1.
       -4    1    3    3    0  502 -0.10929032199E+04  0.19234596859E+03  0.85593351726E+03  0.14014486143E+04  0.12699999809E+01 0. -1.
</event>
<event>
 5   0  0.2267565E-06  0.2800265E+04  0.7818609E-02  0.8303186E-01
        1   -1    0    0  501    0  0.00000000000E+00  0.00000000000E+00  0.17290113251E+04  0.17290113251E+04  0.50400001928E-02 0. -1.
       -1   -1    0    0    0  501  0.00000000000E+00  0.00000000000E+00 -0.11338108001E+04  0.11338108002E+04  0.50400001928E-02 0.  1.
    10030    2    1    2    0    0  0.00000000000E+00  0.00000000000E+00  0.59520052495E+03  0.28628221253E+04  0.28002654974E+04 0.  0.
        4    1    3    3  502    0  0.82700299022E+03 -0.10087605865E+04  0.81772722796E+03  0.15395490570E+04  0.12699999809E+01 0. -1.
       -4    1    3    3    0  502 -0.82700299022E+03  0.10087605865E+04 -0.22252670301E+03  0.13232730682E+04  0.12699999809E+01 0.  1.
</event>
<event>
 5   0  0.2267565E-06  0.2797962E+04  0.7818609E-02  0.8303901E-01
       -1   -1    0    0    0  501  0.00000000000E+00  0.00000000000E+00  0.16999242259E+04  0.16999242259E+04  0.50400001928E-02 0.  1.
        1   -1    0    0  501    0  0.00000000000E+00  0.00000000000E+00 -0.11513143740E+04  0.11513143740E+04  0.50400001928E-02 0. -1.
    10030    2    1    2    0    0  0.00000000000E+00  0.00000000000E+00  0.54860985188E+03  0.28512385999E+04  0.27979615408E+04 0.  0.
        4    1    3    3  502    0 -0.12830993978E+04  0.21861769556E+02 -0.29336934466E+03  0.13163924897E+04  0.12699999809E+01 0.  1.
       -4    1    3    3    0  502  0.12830993978E+04 -0.21861769556E+02  0.84197919655E+03  0.15348461102E+04  0.12699999809E+01 0. -1.
</event>
<event>
 5   0  0.2277133E-06  0.2791259E+04  0.7818609E-02  0.8305987E-01
        1   -1    0    0  501    0  0.00000000000E+00  0.00000000000E+00  0.17348663021E+04  0.17348663021E+04  0.50400001928E-02 0. -1.
       -1   -1    0    0    0  501  0.00000000000E+00  0.00000000000E+00 -0.11227272017E+04  0.11227272017E+04  0.50400001928E-02 0.  1.
    10030    2    1    2    0    0  0.00000000000E+00  0.00000000000E+00  0.61213910044E+03  0.28575935038E+04  0.27912589193E+04 0.  0.
        1    1    3    3  502    0 -0.52858193040E+03  0.12578746542E+04  0.56087287139E+01  0.13644335677E+04  0.50400001928E-02 0.  1.
       -1    1    3    3    0  502  0.52858193040E+03 -0.12578746542E+04  0.60653037173E+03  0.14931599361E+04  0.50400001928E-02 0. -1.
</event>
<event>
 5   0  0.5584205E-06  0.2569046E+04  0.7818609E-02  0.8378792E-01
        2   -1    0    0  501    0  0.00000000000E+00  0.00000000000E+00  0.96509277839E+03  0.96509277839E+03  0.25500000920E-02 0.  1.
       -2   -1    0    0    0  501  0.00000000000E+00  0.00000000000E+00 -0.17096793561E+04  0.17096793561E+04  0.25500000920E-02 0. -1.
    10030    2    1    2    0    0  0.00000000000E+00  0.00000000000E+00 -0.74458657771E+03  0.26747721345E+04  0.25690458929E+04 0.  0.
        1    1    3    3  502    0 -0.39537529361E+03 -0.11046919444E+04 -0.91662193220E+03  0.14889129194E+04  0.50400001928E-02 0. -1.
       -1    1    3    3    0  502  0.39537529361E+03  0.11046919444E+04  0.17203535449E+03  0.11858592151E+04  0.50400001928E-02 0.  1.
</event>
<event>
 5   0  0.2234068E-06  0.2801923E+04  0.7818609E-02  0.8302672E-01
       -1   -1    0    0    0  501  0.00000000000E+00  0.00000000000E+00  0.14810451885E+04  0.14810451885E+04  0.50400001928E-02 0.  1.
        1   -1    0    0  501    0  0.00000000000E+00  0.00000000000E+00 -0.13252081662E+04  0.13252081662E+04  0.50400001928E-02 0. -1.
    10030    2    1    2    0    0  0.00000000000E+00  0.00000000000E+00  0.15583702229E+03  0.28062533548E+04  0.28019230385E+04 0.  0.
        3    1    3    3  502    0 -0.86270808080E+03 -0.10551567056E+04 -0.24673097259E+03  0.13850982236E+04  0.10100000352E+00 0.  1.
       -3    1    3    3    0  502  0.86270808080E+03  0.10551567056E+04  0.40256799488E+03  0.14211551311E+04  0.10100000352E+00 0. -1.
</event>
<event>
 5   0  0.5916603E-06  0.2809604E+04  0.7818609E-02  0.8300293E-01
       -2   -1    0    0    0  501  0.00000000000E+00  0.00000000000E+00  0.11257725606E+04  0.11257725606E+04  0.25500000920E-02 0.  1.
        2   -1    0    0  501    0  0.00000000000E+00  0.00000000000E+00 -0.17529899436E+04  0.17529899436E+04  0.25500000920E-02 0. -1.
    10030    2    1    2    0    0  0.00000000000E+00  0.00000000000E+00 -0.62721738297E+03  0.28787625042E+04  0.28096035148E+04 0.  0.
        2    1    3    3  502    0 -0.11772590913E+04  0.44370615373E+03  0.32679947149E+03  0.12998507659E+04  0.25500000920E-02 0.  1.
       -2    1    3    3    0  502  0.11772590913E+04 -0.44370615373E+03 -0.95401685446E+03  0.15789117384E+04  0.25500000920E-02 0. -1.
</event>
<event>
 5   0  0.5625245E-06  0.2790152E+04  0.7818609E-02  0.8306332E-01
       -2   -1    0    0    0  501  0.00000000000E+00  0.00000000000E+00  0.18963049201E+04  0.18963049201E+04  0.25500000920E-02 0. -1.
        2   -1    0    0  501    0  0.00000000000E+00  0.00000000000E+00 -0.10263313938E+04  0.10263313938E+04  0.25500000920E-02 0.  1.
    10030    2    1    2    0    0  0.00000000000E+00  0.00000000000E+00  0.86997352622E+03  0.29226363139E+04  0.27901521620E+04 0.  0.
        3    1    3    3  502    0 -0.64054464261E+03  0.10934958154E+04  0.10459545802E+04  0.16431833530E+04  0.10100000352E+00 0. -1.
       -3    1    3    3    0  502  0.64054464261E+03 -0.10934958154E+04 -0.17598105397E+03  0.12794529609E+04  0.10100000352E+00 0.  1.
</event>
<event>
 5   0  0.2206967E-06  0.2829994E+04  0.7818609E-02  0.8294017E-01
        1   -1    0    0  501    0  0.00000000000E+00  0.00000000000E+00  0.17787396049E+04  0.17787396049E+04  0.50400001928E-02 0. -1.
       -1   -1    0    0    0  501  0.00000000000E+00  0.00000000000E+00 -0.11256375552E+04  0.11256375552E+04  0.50400001928E-02 0.  1.
    10030    2    1    2    0    0  0.00000000000E+00  0.00000000000E+00  0.65310204970E+03  0.29043771600E+04  0.28299937103E+04 0.  0.
        5    1    3    3  502    0 -0.54961641615E+03  0.34151732282E+03 -0.96488848838E+03  0.11617849077E+04  0.46999998093E+01 0.  1.
       -5    1    3    3    0  502  0.54961641615E+03 -0.34151732282E+03  0.16179905381E+04  0.17425922524E+04  0.46999998093E+01 0. -1.
</event>
<event>
 5   0  0.5546570E-06  0.2781562E+04  0.7818609E-02  0.8309016E-01
        2   -1    0    0  501    0  0.00000000000E+00  0.00000000000E+00  0.14967268400E+04  0.14967268400E+04  0.25500000920E-02 0. -1.
       -2   -1    0    0    0  501  0.00000000000E+00  0.00000000000E+00 -0.12923342780E+04  0.12923342780E+04  0.25500000920E-02 0.  1.
    10030    2    1    2    0    0  0.00000000000E+00  0.00000000000E+00  0.20439256197E+03  0.27890611181E+04  0.27815617198E+04 0.  0.
        4    1    3    3  502    0  0.10875566786E+04 -0.15971089489E+03  0.95653966908E+03  0.14571399557E+04  0.12699999809E+01 0. -1.
       -4    1    3    3    0  502 -0.10875566786E+04  0.15971089489E+03 -0.75214710711E+03  0.13319211624E+04  0.12699999809E+01 0.  1.
</event>
<event>
 5   0  0.5546570E-06  0.2792046E+04  0.7818609E-02  0.8305742E-01
       -2   -1    0    0    0  501  0.00000000000E+00  0.00000000000E+00  0.19545543492E+04  0.19545543492E+04  0.25500000920E-02 0. -1.
        2   -1    0    0  501    0  0.00000000000E+00  0.00000000000E+00 -0.99709731260E+03  0.99709731261E+03  0.25500000920E-02 0.  1.
    10030    2    1    2    0    0  0.00000000000E+00  0.00000000000E+00  0.95745703661E+03  0.29516516618E+04  0.27920464817E+04 0.  0.
        4    1    3    3  502    0 -0.62900250107E+02 -0.12773207463E+04 -0.11307060520E+03  0.12838579770E+04  0.12699999809E+01 0.  1.
       -4    1    3    3    0  502  0.62900250107E+02  0.12773207463E+04  0.10705276418E+04  0.16677936848E+04  0.12699999809E+01 0. -1.
</event>
<event>
 5   0  0.5916603E-06  0.2793312E+04  0.7818609E-02  0.8305348E-01
        2   -1    0    0  501    0  0.00000000000E+00  0.00000000000E+00  0.18463078581E+04  0.18463078581E+04  0.25500000920E-02 0.  1.
       -2   -1    0    0    0  501  0.00000000000E+00  0.00000000000E+00 -0.10565130366E+04  0.10565130366E+04  0.25500000920E-02 0. -1.
    10030    2    1    2    0    0  0.00000000000E+00  0.00000000000E+00  0.78979482142E+03  0.29028208947E+04  0.27933122430E+04 0.  0.
        2    1    3    3  502    0 -0.15968193002E+03  0.10189952377E+04  0.13735155954E+04  0.17176713027E+04  0.25500000920E-02 0.  1.
       -2    1    3    3    0  502  0.15968193002E+03 -0.10189952377E+04 -0.58372077403E+03  0.11851495920E+04  0.25500000920E-02 0. -1.
</event>
<event>
 5   0  0.2206967E-06  0.2761187E+04  0.7818609E-02  0.8315420E-01
       -1   -1    0    0    0  501  0.00000000000E+00  0.00000000000E+00  0.16626506731E+04  0.16626506731E+04  0.50400001928E-02 0. -1.
        1   -1    0    0  501    0  0.00000000000E+00  0.00000000000E+00 -0.11463856542E+04  0.11463856542E+04  0.50400001928E-02 0.  1.
    10030    2    1    2    0    0  0.00000000000E+00  0.00000000000E+00  0.51626501892E+03  0.28090363274E+04  0.27611873386E+04 0.  0.
        5    1    3    3  502    0  0.73795019416E+03 -0.10288380191E+04  0.81806905248E+03  0.15074273526E+04  0.46999998093E+01 0. -1.
       -5    1    3    3    0  502 -0.73795019416E+03  0.10288380191E+04 -0.30180403356E+03  0.13016089748E+04  0.46999998093E+01 0.  1.
</event>
<event>
 5   0  0.5625245E-06  0.2804586E+04  0.7818609E-02  0.8301846E-01
       -2   -1    0    0    0  501  0.00000000000E+00  0.00000000000E+00  0.11740012167E+04  0.11740012167E+04  0.25500000920E-02 0.  1.
        2   -1    0    0  501    0  0.00000000000E+00  0.00000000000E+00 -0.16749773389E+04  0.16749773389E+04  0.25500000920E-02 0. -1.
    10030    2    1    2    0    0  0.00000000000E+00  0.00000000000E+00 -0.50097612213E+03  0.28489785556E+04  0.28045858402E+04 0.  0.
        3    1    3    3  502    0 -0.20213419162E+03  0.11185344006E+04  0.58375897933E+03  0.12777918425E+04  0.10100000352E+00 0.  1.
       -3    1    3    3    0  502  0.20213419162E+03 -0.11185344006E+04 -0.10847351015E+04  0.15711867130E+04  0.10100000352E+00 0. -1.
</event>
<event>
 5   0  0.2234068E-06  0.2792349E+04  0.7818609E-02  0.8305648E-01
        1   -1    0    0  501    0  0.00000000000E+00  0.00000000000E+00  0.11283836270E+04  0.11283836270E+04  0.50400001928E-02 0. -1.
       -1   -1    0    0    0  501  0.00000000000E+00  0.00000000000E+00 -0.17275178434E+04  0.17275178434E+04  0.50400001928E-02 0.  1.
    10030    2    1    2    0    0  0.00000000000E+00  0.00000000000E+00 -0.59913421644E+03  0.28559014704E+04  0.27923487246E+04 0.  0.
        3    1    3    3  502    0  0.72679794221E+03  0.82073657805E+03 -0.11838012318E+04  0.16134525546E+04  0.10100000352E+00 0.  1.
       -3    1    3    3    0  502 -0.72679794221E+03 -0.82073657805E+03  0.58466701538E+03  0.12424489158E+04  0.10100000352E+00 0. -1.
</event>
<event>
 5   0  0.5546570E-06  0.2790849E+04  0.7818609E-02  0.8306115E-01
       -2   -1    0    0    0  501  0.00000000000E+00  0.00000000000E+00  0.94328978538E+03  0.94328978538E+03  0.25500000920E-02 0. -1.
        2   -1    0    0  501    0  0.00000000000E+00  0.00000000000E+00 -0.20642747458E+04  0.20642747458E+04  0.25500000920E-02 0.  1.
    10030    2    1    2    0    0  0.00000000000E+00  0.00000000000E+00 -0.11209849604E+04  0.30075645312E+04  0.27908488185E+04 0.  0.
        4    1    3    3  502    0 -0.74689481054E+03 -0.65278264997E+02  0.70779689686E+03  0.10310631261E+04  0.12699999809E+01 0. -1.
       -4    1    3    3    0  502  0.74689481054E+03  0.65278264997E+02 -0.18287818573E+04  0.19765014051E+04  0.12699999809E+01 0.  1.
</event>
<event>
 5   0  0.2267565E-06  0.2816850E+04  0.7818609E-02  0.8298056E-01
       -1   -1    0    0    0  501  0.00000000000E+00  0.00000000000E+00  0.17122325880E+04  0.17122325880E+04  0.50400001928E-02 0.  1.
        1   -1    0    0  501    0  0.00000000000E+00  0.00000000000E+00 -0.11585232997E+04  0.11585232997E+04  0.50400001928E-02 0. -1.
    10030    2    1    2    0    0  0.00000000000E+00  0.00000000000E+00  0.55370928822E+03  0.28707558877E+04  0.28168502607E+04 0.  0.
        4    1    3    3  502    0 -0.13149479556E+04 -0.72762092215E+02  0.78568599002E+03  0.15335209603E+04  0.12699999809E+01 0.  1.
       -4    1    3    3    0  502  0.13149479556E+04  0.72762092215E+02 -0.23197670180E+03  0.13372349274E+04  0.12699999809E+01 0. -1.
</event>
<event>
 5   0  0.2234068E-06  0.2786675E+04  0.7818609E-02  0.8307417E-01
        1   -1    0    0  501    0  0.00000000000E+00  0.00000000000E+00  0.16870387704E+04  0.16870387704E+04  0.50400001928E-02 0.  1.
       -1   -1    0    0    0  501  0.00000000000E+00  0.00000000000E+00 -0.11507671906E+04  0.11507671906E+04  0.50400001928E-02 0. -1.
    10030    2    1    2    0    0  0.00000000000E+00  0.00000000000E+00  0.53627157975E+03  0.28378059610E+04  0.27866746249E+04 0.  0.
        3    1    3    3  502    0  0.10125789660E+04 -0.69862278705E+03  0.93435593021E+03  0.15448012738E+04  0.10100000352E+00 0.  1.
       -3    1    3    3    0  502 -0.10125789660E+04  0.69862278705E+03 -0.39808435047E+03  0.12930046872E+04  0.10100000352E+00 0. -1.
</event>
<event>
 5   0  0.5916603E-06  0.2810411E+04  0.7818609E-02  0.8300043E-01
       -2   -1    0    0    0  501  0.00000000000E+00  0.00000000000E+00  0.93081120136E+03  0.93081120136E+03  0.25500000920E-02 0. -1.
        2   -1    0    0  501    0  0.00000000000E+00  0.00000000000E+00 -0.21213785301E+04  0.21213785301E+04  0.25500000920E-02 0.  1.
    10030    2    1    2    0    0  0.00000000000E+00  0.00000000000E+00 -0.11905673288E+04  0.30521897315E+04  0.28104112853E+04 0.  0.
        2    1    3    3  502    0  0.43116998157E+03 -0.13283142283E+04 -0.42606974690E+03  0.14600896107E+04  0.25500000920E-02 0. -1.
       -2    1    3    3    0  502 -0.43116998157E+03  0.13283142283E+04 -0.76449758186E+03  0.15921001208E+04  0.25500000920E-02 0.  1.
</event>
<event>
 5   0  0.2234068E-06  0.2801248E+04  0.7818609E-02  0.8302881E-01
        1   -1    0    0  501    0  0.00000000000E+00  0.00000000000E+00  0.83316446085E+03  0.83316446087E+03  0.50400001928E-02 0. -1.
       -1   -1    0    0    0  501  0.00000000000E+00  0.00000000000E+00 -0.23545738690E+04  0.23545738690E+04  0.50400001928E-02 0.  1.
    10030    2    1    2    0    0  0.00000000000E+00  0.00000000000E+00 -0.15214094082E+04  0.31877383299E+04  0.28012477706E+04 0.  0.
        3    1    3    3  502    0  0.93497361107E+03 -0.40266137926E+03 -0.18554275939E+04  0.21163467122E+04  0.10100000352E+00 0.  1.
       -3    1    3    3    0  502 -0.93497361107E+03  0.40266137926E+03  0.33401818579E+03  0.10713916177E+04  0.10100000352E+00 0. -1.
</event>
<event>
 5   0  0.5546570E-06  0.2796578E+04  0.7818609E-02  0.8304332E-01
        2   -1    0    0  501    0  0.00000000000E+00  0.00000000000E+00  0.18914621508E+04  0.18914621508E+04  0.25500000920E-02 0. -1.
       -2   -1    0    0    0  501  0.00000000000E+00  0.00000000000E+00 -0.10337038202E+04  0.10337038202E+04  0.25500000920E-02 0.  1.
    10030    2    1    2    0    0  0.00000000000E+00  0.00000000000E+00  0.85775833063E+03  0.29251659709E+04  0.27965776592E+04 0.  0.
        4    1    3    3  502    0  0.44374930698E+03  0.54170437187E+03  0.16948410952E+04  0.18338061579E+04  0.12699999809E+01 0. -1.
       -4    1    3    3    0  502 -0.44374930698E+03 -0.54170437187E+03 -0.83708276454E+03  0.10913598131E+04  0.12699999809E+01 0.  1.
</event>
<event>
 5   0  0.5584205E-06  0.2802361E+04  0.7818609E-02  0.8302536E-01
        2   -1    0    0  501    0  0.00000000000E+00  0.00000000000E+00  0.19867085567E+04  0.19867085567E+04  0.25500000920E-02 0. -1.
       -2   -1    0    0    0  501  0.00000000000E+00  0.00000000000E+00 -0.98822051744E+03  0.98822051744E+03  0.25500000920E-02 0.  1.
    10030    2    1    2    0    0  0.00000000000E+00  0.00000000000E+00  0.99848803928E+03  0.29749290742E+04  0.28023605463E+04 0.  0.
        1    1    3    3  502    0  0.47006053863E+03 -0.55869810972E+03 -0.77031195543E+03  0.10613580906E+04  0.50400001928E-02 0.  1.
       -1    1    3    3    0  502 -0.47006053863E+03  0.55869810972E+03  0.17687999947E+04  0.19135709836E+04  0.50400001928E-02 0. -1.
</event>
<event>
 5   0  0.5584205E-06  0.2800251E+04  0.7818609E-02  0.8303191E-01
        2   -1    0    0  501    0  0.00000000000E+00  0.00000000000E+00  0.20219563993E+04  0.20219563993E+04  0.25500000920E-02 0. -1.
       -2   -1    0    0    0  501  0.00000000000E+00  0.00000000000E+00 -0.96953167088E+03  0.96953167089E+03  0.25500000920E-02 0.  1.
    10030    2    1    2    0    0  0.00000000000E+00  0.00000000000E+00  0.10524247285E+04  0.29914880702E+04  0.28002505362E+04 0.  0.
        1    1    3    3  502    0 -0.43391897595E+03  0.90824702196E+03 -0.51346916013E+03  0.11299773931E+04  0.50400001928E-02 0.  1.
       -1    1    3    3    0  502  0.43391897595E+03 -0.90824702196E+03  0.15658938886E+04  0.18615106771E+04  0.50400001928E-02 0. -1.
</event>
<event>
 5   0  0.5625245E-06  0.2811508E+04  0.7818609E-02  0.8299705E-01
        2   -1    0    0  501    0  0.00000000000E+00  0.00000000000E+00  0.22221055263E+04  0.22221055263E+04  0.25500000920E-02 0.  1.
       -2   -1    0    0    0  501  0.00000000000E+00  0.00000000000E+00 -0.88931132567E+03  0.88931132568E+03  0.25500000920E-02 0. -1.
    10030    2    1    2    0    0  0.00000000000E+00  0.00000000000E+00  0.13327942006E+04  0.31114168520E+04  0.28115075041E+04 0.  0.
        3    1    3    3  502    0  0.50045718475E+03 -0.20250281153E+03 -0.77000989135E+03  0.94041481561E+03  0.10100000352E+00 0. -1.
       -3    1    3    3    0  502 -0.50045718475E+03  0.20250281153E+03  0.21028040920E+04  0.21710020364E+04  0.10100000352E+00 0.  1.
</event>
<event>
 5   0  0.5866136E-06  0.2968951E+04  0.7818609E-02  0.8252653E-01
       -2   -1    0    0    0  501  0.00000000000E+00  0.00000000000E+00  0.17472298026E+04  0.17472298026E+04  0.25500000920E-02 0. -1.
        2   -1    0    0  501    0  0.00000000000E+00  0.00000000000E+00 -0.12612353970E+04  0.12612353970E+04  0.25500000920E-02 0.  1.
    10030    2    1    2    0    0  0.00000000000E+00  0.00000000000E+00  0.48599440559E+03  0.30084651996E+04  0.29689513797E+04 0.  0.
        5    1    3    3  502    0  0.91505834505E+03  0.68622425690E+03 -0.71585791973E+03  0.13493369323E+04  0.46999998093E+01 0.  1.
       -5    1    3    3    0  502 -0.91505834505E+03 -0.68622425690E+03  0.12018523253E+04  0.16591282673E+04  0.46999998093E+01 0. -1.
</event>
<event>
 5   0  0.2234068E-06  0.2795559E+04  0.7818609E-02  0.8304648E-01
        1   -1    0    0  501    0  0.00000000000E+00  0.00000000000E+00  0.31317563820E+04  0.31317563820E+04  0.50400001928E-02 0.  1.
       -1   -1    0    0    0  501  0.00000000000E+00  0.00000000000E+00 -0.62386312506E+03  0.62386312508E+03  0.50400001928E-02 0. -1.
    10030    2    1    2    0    0  0.00000000000E+00  0.00000000000E+00  0.25078932570E+04  0.37556195071E+04  0.27955588518E+04 0.  0.
        3    1    3    3  502    0  0.64730035334E+02  0.99588766114E+03 -0.60828620723E+02  0.99984115858E+03  0.10100000352E+00 0. -1.
       -3    1    3    3    0  502 -0.64730035334E+02 -0.99588766114E+03  0.25687218777E+04  0.27557783485E+04  0.10100000352E+00 0.  1.
</event>
<event>
 5   0  0.2267565E-06  0.2772342E+04  0.7818609E-02  0.8311907E-01
        1   -1    0    0  501    0  0.00000000000E+00  0.00000000000E+00  0.13610961743E+04  0.13610961743E+04  0.50400001928E-02 0. -1.
       -1   -1    0    0    0  501  0.00000000000E+00  0.00000000000E+00 -0.14117073715E+04  0.14117073715E+04  0.50400001928E-02 0.  1.
    10030    2    1    2    0    0  0.00000000000E+00  0.00000000000E+00 -0.50611197231E+02  0.27728035458E+04  0.27723416114E+04 0.  0.
        4    1    3    3  502    0 -0.12116132050E+04 -0.66174306661E+03  0.99444671381E+02  0.13841247416E+04  0.12699999809E+01 0. -1.
       -4    1    3    3    0  502  0.12116132050E+04  0.66174306661E+03 -0.15005586861E+03  0.13886788042E+04  0.12699999809E+01 0.  1.
</event>
<event>
 5   0  0.5546570E-06  0.3005383E+04  0.7818609E-02  0.8242195E-01
        2   -1    0    0  501    0  0.00000000000E+00  0.00000000000E+00  0.13328763910E+04  0.13328763910E+04  0.25500000920E-02 0. -1.
       -2   -1    0    0    0  501  0.00000000000E+00  0.00000000000E+00 -0.16941420601E+04  0.16941420601E+04  0.25500000920E-02 0.  1.
    10030    2    1    2    0    0  0.00000000000E+00  0.00000000000E+00 -0.36126566908E+03  0.30270184511E+04  0.30053831402E+04 0.  0.
        4    1    3    3  502    0 -0.12358433764E+03  0.14323584684E+04 -0.62099472257E+03  0.15660651101E+04  0.12699999809E+01 0.  1.
       -4    1    3    3    0  502  0.12358433764E+03 -0.14323584684E+04  0.25972905348E+03  0.14609533410E+04  0.12699999809E+01 0. -1.
</event>
<event>
 5   0  0.2234068E-06  0.2849895E+04  0.7818609E-02  0.8287943E-01
       -1   -1    0    0    0  501  0.00000000000E+00  0.00000000000E+00  0.10277769435E+04  0.10277769435E+04  0.50400001928E-02 0.  1.
        1   -1    0    0  501    0  0.00000000000E+00  0.00000000000E+00 -0.19755986145E+04  0.19755986145E+04  0.50400001928E-02 0. -1.
    10030    2    1    2    0    0  0.00000000000E+00  0.00000000000E+00 -0.94782167093E+03  0.30033755580E+04  0.28498945283E+04 0.  0.
        3    1    3    3  502    0 -0.12014375466E+04 -0.27986712331E+03 -0.12255517365E+04  0.17388947220E+04  0.10100000352E+00 0. -1.
       -3    1    3    3    0  502  0.12014375466E+04  0.27986712331E+03  0.27773006559E+03  0.12644808360E+04  0.10100000352E+00 0.  1.
</event>
<event>
 5   0  0.2190865E-06  0.2804831E+04  0.7818609E-02  0.8301770E-01
        1   -1    0    0  501    0  0.00000000000E+00  0.00000000000E+00  0.91213910304E+03  0.91213910305E+03  0.50400001928E-02 0.  1.
       -1   -1    0    0    0  501  0.00000000000E+00  0.00000000000E+00 -0.21562165641E+04  0.21562165641E+04  0.50400001928E-02 0. -1.
    10030    2    1    2    0    0  0.00000000000E+00  0.00000000000E+00 -0.12440774611E+04  0.30683556672E+04  0.28048311484E+04 0.  0.
        2    1    3    3  502    0 -0.14881820343E+03 -0.12188584050E+04  0.11911538553E+03  0.12336738402E+04  0.25500000920E-02 0.  1.
       -2    1    3    3    0  502  0.14881820343E+03  0.12188584050E+04 -0.13631928466E+04  0.18346818269E+04  0.25500000920E-02 0. -1.
</event>
<event>
 5   0  0.2206967E-06  0.2814668E+04  0.7818609E-02  0.8298729E-01
       -1   -1    0    0    0  501  0.00000000000E+00  0.00000000000E+00  0.18777446795E+04  0.18777446795E+04  0.50400001928E-02 0. -1.
        1   -1    0    0  501    0  0.00000000000E+00  0.00000000000E+00 -0.10547701108E+04  0.10547701108E+04  0.50400001928E-02 0.  1.
    10030    2    1    2    0    0  0.00000000000E+00  0.00000000000E+00  0.82297456868E+03  0.29325147904E+04  0.28146679831E+04 0.  0.
        5    1    3    3  502    0 -0.34066258774E+03  0.97417686348E+03  0.14083631938E+04  0.17460184809E+04  0.46999998093E+01 0. -1.
       -5    1    3    3    0  502  0.34066258774E+03 -0.97417686348E+03 -0.58538862510E+03  0.11864963095E+04  0.46999998093E+01 0.  1.
</event>
<event>
 5   0  0.2234068E-06  0.2680499E+04  0.7818609E-02  0.8341360E-01
       -1   -1    0    0    0  501  0.00000000000E+00  0.00000000000E+00  0.11238783664E+04  0.11238783664E+04  0.50400001928E-02 0. -1.
        1   -1    0    0  501    0  0.00000000000E+00  0.00000000000E+00 -0.15982772331E+04  0.15982772331E+04  0.50400001928E-02 0.  1.
    10030    2    1    2    0    0  0.00000000000E+00  0.00000000000E+00 -0.47439886673E+03  0.27221555996E+04  0.26804993608E+04 0.  0.
        3    1    3    3  502    0 -0.60585235684E+03  0.21784119421E+03  0.95654985810E+03  0.11530392471E+04  0.10100000352E+00 0. -1.
       -3    1    3    3    0  502  0.60585235684E+03 -0.21784119421E+03 -0.14309487248E+04  0.15691163524E+04  0.10100000352E+00 0.  1.
</event>
<event>
 5   0  0.2206967E-06  0.2550441E+04  0.7818609E-02  0.8385233E-01
        1   -1    0    0  501    0  0.00000000000E+00  0.00000000000E+00  0.16497418612E+04  0.16497418612E+04  0.50400001928E-02 0.  1.
       -1   -1    0    0    0  501  0.00000000000E+00  0.00000000000E+00 -0.98572218493E+03  0.98572218494E+03  0.50400001928E-02 0. -1.
    10030    2    1    2    0    0  0.00000000000E+00  0.00000000000E+00  0.66401967625E+03  0.26354640461E+04  0.25504408654E+04 0.  0.
        5    1    3    3  502    0 -0.12157296623E+04 -0.34629718110E+03  0.50567408476E+03  0.13614876861E+04  0.46999998093E+01 0. -1.
       -5    1    3    3    0  502  0.12157296623E+04  0.34629718110E+03  0.15834559149E+03  0.12739763600E+04  0.46999998093E+01 0.  1.
</event>
<event>
 5   0  0.2190865E-06  0.2764602E+04  0.7818609E-02  0.8314343E-01
        1   -1    0    0  501    0  0.00000000000E+00  0.00000000000E+00  0.60602243832E+03  0.60602243834E+03  0.50400001928E-02 0. -1.
       -1   -1    0    0    0  501  0.00000000000E+00  0.00000000000E+00 -0.31529468982E+04  0.31529468982E+04  0.50400001928E-02 0.  1.
    10030    2    1    2    0    0  0.00000000000E+00  0.00000000000E+00 -0.25469244599E+04  0.37589693366E+04  0.27646023708E+04 0.  0.
        2    1    3    3  502    0 -0.42685596638E+03  0.11227937155E+03 -0.30545595440E+04  0.30862836359E+04  0.25500000920E-02 0.  1.
       -2    1    3    3    0  502  0.42685596638E+03 -0.11227937155E+03  0.50763508409E+03  0.67268570069E+03  0.25500000920E-02 0. -1.
</event>
<event>
 5   0  0.2190865E-06  0.2749414E+04  0.7818609E-02  0.8319148E-01
        1   -1    0    0  501    0  0.00000000000E+00  0.00000000000E+00  0.12342179612E+04  0.12342179612E+04  0.50400001928E-02 0.  1.
       -1   -1    0    0    0  501  0.00000000000E+00  0.00000000000E+00 -0.15311879203E+04  0.15311879203E+04  0.50400001928E-02 0. -1.
    10030    2    1    2    0    0  0.00000000000E+00  0.00000000000E+00 -0.29696995906E+03  0.27654058815E+04  0.27494142163E+04 0.  0.
        2    1    3    3  502    0  0.58335398233E+03 -0.64114830226E+03  0.92470113296E+03  0.12674561923E+04  0.25500000920E-02 0.  1.
       -2    1    3    3    0  502 -0.58335398233E+03  0.64114830226E+03 -0.12216710920E+04  0.14979496892E+04  0.25500000920E-02 0. -1.
</event>
<event>
 5   0  0.5866136E-06  0.2790090E+04  0.7818609E-02  0.8306352E-01
       -2   -1    0    0    0  501  0.00000000000E+00  0.00000000000E+00  0.10546078045E+04  0.10546078045E+04  0.25500000920E-02 0.  1.
        2   -1    0    0  501    0  0.00000000000E+00  0.00000000000E+00 -0.18453783921E+04  0.18453783921E+04  0.25500000920E-02 0. -1.
    10030    2    1    2    0    0  0.00000000000E+00  0.00000000000E+00 -0.79077058763E+03  0.28999861966E+04  0.27900899301E+04 0.  0.
        5    1    3    3  502    0  0.55902886624E+03  0.70432174154E+03 -0.15039529624E+04  0.17522782291E+04  0.46999998093E+01 0. -1.
       -5    1    3    3    0  502 -0.55902886624E+03 -0.70432174154E+03  0.71318237482E+03  0.11477079675E+04  0.46999998093E+01 0.  1.
</event>
<event>
 5   0  0.2234068E-06  0.2832492E+04  0.7818609E-02  0.8293251E-01
        1   -1    0    0  501    0  0.00000000000E+00  0.00000000000E+00  0.17290055967E+04  0.17290055967E+04  0.50400001928E-02 0. -1.
       -1   -1    0    0    0  501  0.00000000000E+00  0.00000000000E+00 -0.11600615179E+04  0.11600615179E+04  0.50400001928E-02 0.  1.
    10030    2    1    2    0    0  0.00000000000E+00  0.00000000000E+00  0.56894407881E+03  0.28890671146E+04  0.28324920878E+04 0.  0.
        3    1    3    3  502    0 -0.21952643791E+03 -0.91954768512E+03 -0.79110113200E+03  0.12327208984E+04  0.10100000352E+00 0.  1.
       -3    1    3    3    0  502  0.21952643791E+03  0.91954768512E+03  0.13600452108E+04  0.16563462162E+04  0.10100000352E+00 0. -1.
</event>
<event>
 5   0  0.5866136E-06  0.2805349E+04  0.7818609E-02  0.8301610E-01
       -2   -1    0    0    0  501  0.00000000000E+00  0.00000000000E+00  0.10421326504E+04  0.10421326504E+04  0.25500000920E-02 0.  1.
        2   -1    0    0  501    0  0.00000000000E+00  0.00000000000E+00 -0.18879516810E+04  0.18879516810E+04  0.25500000920E-02 0. -1.
    10030    2    1    2    0    0  0.00000000000E+00  0.00000000000E+00 -0.84581903060E+03  0.29300843315E+04  0.28053492397E+04 0.  0.
        5    1    3    3  502    0  0.11535570795E+03 -0.10873746430E+04 -0.13404831263E+04  0.17299155053E+04  0.46999998093E+01 0. -1.
       -5    1    3    3    0  502 -0.11535570795E+03  0.10873746430E+04  0.49466409572E+03  0.12001688261E+04  0.46999998093E+01 0.  1.
</event>
<event>
 5   0  0.2234068E-06  0.2772198E+04  0.7818609E-02  0.8311952E-01
        1   -1    0    0  501    0  0.00000000000E+00  0.00000000000E+00  0.10172641315E+04  0.10172641315E+04  0.50400001928E-02 0. -1.
       -1   -1    0    0    0  501  0.00000000000E+00  0.00000000000E+00 -0.18886638097E+04  0.18886638097E+04  0.50400001928E-02 0.  1.
    10030    2    1    2    0    0  0.00000000000E+00  0.00000000000E+00 -0.87139967824E+03  0.29059279412E+04  0.27721976481E+04 0.  0.
        3    1    3    3  502    0 -0.69823369701E+03  0.11120891617E+04  0.29554928064E+02  0.13134481730E+04  0.10100000352E+00 0. -1.
       -3    1    3    3    0  502  0.69823369701E+03 -0.11120891617E+04 -0.90095460630E+03  0.15924797682E+04  0.10100000352E+00 0.  1.
</event>
<event>
 5   0  0.5546570E-06  0.2810552E+04  0.7818609E-02  0.8300000E-01
       -2   -1    0    0    0  501  0.00000000000E+00  0.00000000000E+00  0.14716611410E+04  0.14716611410E+04  0.25500000920E-02 0.  1.
        2   -1    0    0  501    0  0.00000000000E+00  0.00000000000E+00 -0.13418855787E+04  0.13418855787E+04  0.25500000920E-02 0. -1.
    10030    2    1    2    0    0  0.00000000000E+00  0.00000000000E+00  0.12977556234E+03  0.28135467197E+04  0.28105521606E+04 0.  0.
        4    1    3    3  502    0 -0.19937790111E+03 -0.12435167242E+04 -0.55924571852E+03  0.13779850425E+04  0.12699999809E+01 0.  1.
       -4    1    3    3    0  502  0.19937790111E+03  0.12435167242E+04  0.68902128086E+03  0.14355616772E+04  0.12699999809E+01 0. -1.
</event>
<event>
 5   0  0.2267565E-06  0.2786582E+04  0.7818609E-02  0.8307446E-01
        1   -1    0    0  501    0  0.00000000000E+00  0.00000000000E+00  0.16998832200E+04  0.16998832200E+04  0.50400001928E-02 0.  1.
       -1   -1    0    0    0  501  0.00000000000E+00  0.00000000000E+00 -0.11419957499E+04  0.11419957499E+04  0.50400001928E-02 0. -1.
    10030    2    1    2    0    0  0.00000000000E+00  0.00000000000E+00  0.55788747016E+03  0.28418789699E+04  0.27865817143E+04 0.  0.
        4    1    3    3  502    0 -0.44283748298E+03  0.10136509147E+04 -0.58501809048E+03  0.12513356833E+04  0.12699999809E+01 0. -1.
       -4    1    3    3    0  502  0.44283748298E+03 -0.10136509147E+04  0.11429055606E+04  0.15905432866E+04  0.12699999809E+01 0.  1.
</event>
<event>
 5   0  0.5546570E-06  0.2811117E+04  0.7818609E-02  0.8299825E-01
       -2   -1    0    0    0  501  0.00000000000E+00  0.00000000000E+00  0.16354348937E+04  0.16354348937E+04  0.25500000920E-02 0. -1.
        2   -1    0    0  501    0  0.00000000000E+00  0.00000000000E+00 -0.12079930582E+04  0.12079930582E+04  0.25500000920E-02 0.  1.
    10030    2    1    2    0    0  0.00000000000E+00  0.00000000000E+00  0.42744183550E+03  0.28434279520E+04  0.28111165033E+04 0.  0.
        4    1    3    3  502    0  0.10073659001E+03 -0.28836852155E+03  0.16014555745E+04  0.16303269104E+04  0.12699999809E+01 0. -1.
       -4    1    3    3    0  502 -0.10073659001E+03  0.28836852155E+03 -0.11740137390E+04  0.12131010416E+04  0.12699999809E+01 0.  1.
</event>
<event>
 5   0  0.5916603E-06  0.2823665E+04  0.7818609E-02  0.8295959E-01
       -2   -1    0    0    0  501  0.00000000000E+00  0.00000000000E+00  0.15689589410E+04  0.15689589411E+04  0.25500000920E-02 0.  1.
        2   -1    0    0  501    0  0.00000000000E+00  0.00000000000E+00 -0.12704420132E+04  0.12704420133E+04  0.25500000920E-02 0. -1.
    10030    2    1    2    0    0  0.00000000000E+00  0.00000000000E+00  0.29851692780E+03  0.28394009543E+04  0.28236652463E+04 0.  0.
        2    1    3    3  502    0  0.17376462878E+02 -0.14013072801E+04 -0.22889375560E+02  0.14016019257E+04  0.25500000920E-02 0.  1.
       -2    1    3    3    0  502 -0.17376462878E+02  0.14013072801E+04  0.32140630336E+03  0.14377990286E+04  0.25500000920E-02 0. -1.
</event>
<event>
 5   0  0.2277133E-06  0.2793360E+04  0.7818609E-02  0.8305333E-01
       -1   -1    0    0    0  501  0.00000000000E+00  0.00000000000E+00  0.12453297221E+04  0.12453297221E+04  0.50400001928E-02 0. -1.
        1   -1    0    0  501    0  0.00000000000E+00  0.00000000000E+00 -0.15664250776E+04  0.15664250777E+04  0.50400001928E-02 0.  1.
    10030    2    1    2    0    0  0.00000000000E+00  0.00000000000E+00 -0.32109535553E+03  0.28117547998E+04  0.27933604899E+04 0.  0.
        1    1    3    3  502    0 -0.65821072287E+03  0.11999675844E+04 -0.44086334560E+03  0.14378887470E+04  0.50400001928E-02 0.  1.
       -1    1    3    3    0  502  0.65821072287E+03 -0.11999675844E+04  0.11976799007E+03  0.13738660527E+04  0.50400001928E-02 0. -1.
</event>
<event>
 5   0  0.2277133E-06  0.2801943E+04  0.7818609E-02  0.8302665E-01
       -1   -1    0    0    0  501  0.00000000000E+00  0.00000000000E+00  0.94898711703E+03  0.94898711704E+03  0.50400001928E-02 0.  1.
        1   -1    0    0  501    0  0.00000000000E+00  0.00000000000E+00 -0.20682271030E+04  0.20682271030E+04  0.50400001928E-02 0. -1.
    10030    2    1    2    0    0  0.00000000000E+00  0.00000000000E+00 -0.11192399860E+04  0.30172142201E+04  0.28019428087E+04 0.  0.
        1    1    3    3  502    0 -0.12807328558E+04 -0.35375522536E+03 -0.10379328317E+04  0.16860379505E+04  0.50400001928E-02 0. -1.
       -1    1    3    3    0  502  0.12807328558E+04  0.35375522536E+03 -0.81307154274E+02  0.13311762696E+04  0.50400001928E-02 0.  1.
</event>
<event>
 5   0  0.5866136E-06  0.2798090E+04  0.7818609E-02  0.8303862E-01
        2   -1    0    0  501    0  0.00000000000E+00  0.00000000000E+00  0.12079515003E+04  0.12079515003E+04  0.25500000920E-02 0.  1.
       -2   -1    0    0    0  501  0.00000000000E+00  0.00000000000E+00 -0.16203686284E+04  0.16203686284E+04  0.25500000920E-02 0. -1.
    10030    2    1    2    0    0  0.00000000000E+00  0.00000000000E+00 -0.41241712814E+03  0.28283201287E+04  0.27980898597E+04 0.  0.
        5    1    3    3  502    0  0.52971570213E+03  0.72375287440E+03 -0.12915350597E+04  0.15724191072E+04  0.46999998093E+01 0. -1.
       -5    1    3    3    0  502 -0.52971570213E+03 -0.72375287440E+03  0.87911793156E+03  0.12559010215E+04  0.46999998093E+01 0.  1.
</event>
<event>
 5   0  0.5625245E-06  0.2796635E+04  0.7818609E-02  0.8304314E-01
        2   -1    0    0  501    0  0.00000000000E+00  0.00000000000E+00  0.26510407221E+04  0.26510407221E+04  0.25500000920E-02 0. -1.
       -2   -1    0    0    0  501  0.00000000000E+00  0.00000000000E+00 -0.73755647824E+03  0.73755647825E+03  0.25500000920E-02 0.  1.
    10030    2    1    2    0    0  0.00000000000E+00  0.00000000000E+00  0.19134842439E+04  0.33885972004E+04  0.27966353060E+04 0.  0.
        3    1    3    3  502    0 -0.73654353137E+02  0.10616564791E+04  0.20557955304E+04  0.23149157039E+04  0.10100000352E+00 0. -1.
       -3    1    3    3    0  502  0.73654353137E+02 -0.10616564791E+04 -0.14231128649E+03  0.10736814964E+04  0.10100000352E+00 0.  1.
</event>
<event>
 5   0  0.5866136E-06  0.2798856E+04  0.7818609E-02  0.8303624E-01
        2   -1    0    0  501    0  0.00000000000E+00  0.00000000000E+00  0.14224256412E+04  0.14224256412E+04  0.25500000920E-02 0. -1.
       -2   -1    0    0    0  501  0.00000000000E+00  0.00000000000E+00 -0.13768021577E+04  0.13768021577E+04  0.25500000920E-02 0.  1.
    10030    2    1    2    0    0  0.00000000000E+00  0.00000000000E+00  0.45623483523E+02  0.27992277988E+04  0.27988559748E+04 0.  0.
        5    1    3    3  502    0  0.10449897203E+04  0.87861314075E+03  0.33011797660E+03  0.14046225597E+04  0.46999998093E+01 0.  1.
       -5    1    3    3    0  502 -0.10449897203E+04 -0.87861314075E+03 -0.28449449308E+03  0.13946052392E+04  0.46999998093E+01 0. -1.
</event>
<event>
 5   0  0.2190865E-06  0.2776218E+04  0.7818609E-02  0.8310690E-01
        1   -1    0    0  501    0  0.00000000000E+00  0.00000000000E+00  0.13719300885E+04  0.13719300885E+04  0.50400001928E-02 0.  1.
       -1   -1    0    0    0  501  0.00000000000E+00  0.00000000000E+00 -0.14044790697E+04  0.14044790697E+04  0.50400001928E-02 0. -1.
    10030    2    1    2    0    0  0.00000000000E+00  0.00000000000E+00 -0.32548981248E+02  0.27764091582E+04  0.27762183592E+04 0.  0.
        2    1    3    3  502    0 -0.69807559831E+03  0.11996792869E+04  0.12527555108E+01  0.13879991000E+04  0.25500000920E-02 0. -1.
       -2    1    3    3    0  502  0.69807559831E+03 -0.11996792869E+04 -0.33801736759E+02  0.13884100582E+04  0.25500000920E-02 0.  1.
</event>
<event>
 5   0  0.5546570E-06  0.2799114E+04  0.7818609E-02  0.8303543E-01
       -2   -1    0    0    0  501  0.00000000000E+00  0.00000000000E+00  0.24382041425E+04  0.24382041425E+04  0.25500000920E-02 0. -1.
        2   -1    0    0  501    0  0.00000000000E+00  0.00000000000E+00 -0.80336187733E+03  0.80336187734E+03  0.25500000920E-02 0.  1.
    10030    2    1    2    0    0  0.00000000000E+00  0.00000000000E+00  0.16348422652E+04  0.32415660199E+04  0.27991143294E+04 0.  0.
        4    1    3    3  502    0  0.89275578163E+03 -0.92762285230E+02 -0.42616372407E+03  0.99359693025E+03  0.12699999809E+01 0.  1.
       -4    1    3    3    0  502 -0.89275578163E+03  0.92762285230E+02  0.20610059893E+04  0.22479690896E+04  0.12699999809E+01 0. -1.
</event>
<event>
 5   0  0.2234068E-06  0.2788722E+04  0.7818609E-02  0.8306778E-01
        1   -1    0    0  501    0  0.00000000000E+00  0.00000000000E+00  0.23362050394E+04  0.23362050394E+04  0.50400001928E-02 0.  1.
       -1   -1    0    0    0  501  0.00000000000E+00  0.00000000000E+00 -0.83222262114E+03  0.83222262115E+03  0.50400001928E-02 0. -1.
    10030    2    1    2    0    0  0.00000000000E+00  0.00000000000E+00  0.15039824183E+04  0.31684276606E+04  0.27887220596E+04 0.  0.
        3    1    3    3  502    0  0.13025145960E+04  0.19050928726E+03  0.12743823348E+04  0.18321813248E+04  0.10100000352E+00 0.  1.
       -3    1    3    3    0  502 -0.13025145960E+04 -0.19050928726E+03  0.22960008345E+03  0.13362463358E+04  0.10100000352E+00 0. -1.
</event>
<event>
 5   0  0.5625245E-06  0.2773745E+04  0.7818609E-02  0.8311466E-01
       -2   -1    0    0    0  501  0.00000000000E+00  0.00000000000E+00  0.94328473027E+03  0.94328473027E+03  0.25500000920E-02 0. -1.
        2   -1    0    0  501    0  0.00000000000E+00  0.00000000000E+00 -0.20390616631E+04  0.20390616631E+04  0.25500000920E-02 0.  1.
    10030    2    1    2    0    0  0.00000000000E+00  0.00000000000E+00 -0.10957769328E+04  0.29823463933E+04  0.27737452881E+04 0.  0.
        3    1    3    3  502    0  0.75028990506E+03 -0.24186878277E+03  0.67896786540E+03  0.10404003182E+04  0.10100000352E+00 0. -1.
       -3    1    3    3    0  502 -0.75028990506E+03  0.24186878277E+03 -0.17747447982E+04  0.19419460751E+04  0.10100000352E+00 0.  1.
</event>
<event>
 5   0  0.2277133E-06  0.2772997E+04  0.7818609E-02  0.8311701E-01
        1   -1    0    0  501    0  0.00000000000E+00  0.00000000000E+00  0.90400553174E+03  0.90400553176E+03  0.50400001928E-02 0.  1.
       -1   -1    0    0    0  501  0.00000000000E+00  0.00000000000E+00 -0.21265117825E+04  0.21265117825E+04  0.50400001928E-02 0. -1.
    10030    2    1    2    0    0  0.00000000000E+00  0.00000000000E+00 -0.12225062507E+04  0.30305173142E+04  0.27729972338E+04 0.  0.
        1    1    3    3  502    0  0.71672554095E+03 -0.82870903253E+03 -0.15398199200E+04  0.18898411435E+04  0.50400001928E-02 0. -1.
       -1    1    3    3    0  502 -0.71672554095E+03  0.82870903253E+03  0.31731366931E+03  0.11406761707E+04  0.50400001928E-02 0.  1.
</event>
<event>
 5   0  0.5866136E-06  0.2796953E+04  0.7818609E-02  0.8304215E-01
       -2   -1    0    0    0  501  0.00000000000E+00  0.00000000000E+00  0.11809560560E+04  0.11809560560E+04  0.25500000920E-02 0.  1.
        2   -1    0    0  501    0  0.00000000000E+00  0.00000000000E+00 -0.16560619660E+04  0.16560619660E+04  0.25500000920E-02 0. -1.
    10030    2    1    2    0    0  0.00000000000E+00  0.00000000000E+00 -0.47510591004E+03  0.28370180220E+04  0.27969529191E+04 0.  0.
        5    1    3    3  502    0 -0.64216677231E+03 -0.27105948230E+03  0.99219286342E+03  0.12125675959E+04  0.46999998093E+01 0.  1.
       -5    1    3    3    0  502  0.64216677231E+03  0.27105948230E+03 -0.14672987735E+04  0.16244504261E+04  0.46999998093E+01 0. -1.
</event>
<event>
 5   0  0.2267565E-06  0.2753377E+04  0.7818609E-02  0.8317891E-01
       -1   -1    0    0    0  501  0.00000000000E+00  0.00000000000E+00  0.10465984406E+04  0.10465984406E+04  0.50400001928E-02 0. -1.
        1   -1    0    0  501    0  0.00000000000E+00  0.00000000000E+00 -0.18108869878E+04  0.18108869878E+04  0.50400001928E-02 0.  1.
    10030    2    1    2    0    0  0.00000000000E+00  0.00000000000E+00 -0.76428854722E+03  0.28574854284E+04  0.27533771972E+04 0.  0.
        4    1    3    3  502    0 -0.13747019590E+04 -0.63403694161E+02 -0.34270226063E+03  0.14181932015E+04  0.12699999809E+01 0. -1.
       -4    1    3    3    0  502  0.13747019590E+04  0.63403694161E+02 -0.42158628659E+03  0.14392922269E+04  0.12699999809E+01 0.  1.
</event>
<event>
 5   0  0.5916603E-06  0.2786368E+04  0.7818609E-02  0.8307513E-01
       -2   -1    0    0    0  501  0.00000000000E+00  0.00000000000E+00  0.11457474225E+04  0.11457474225E+04  0.25500000920E-02 0.  1.
        2   -1    0    0  501    0  0.00000000000E+00  0.00000000000E+00 -0.16940571482E+04  0.16940571482E+04  0.25500000920E-02 0. -1.
    10030    2    1    2    0    0  0.00000000000E+00  0.00000000000E+00 -0.54830972569E+03  0.28398045708E+04  0.27863679665E+04 0.  0.
        2    1    3    3  502    0  0.13179391981E+04 -0.44981222947E+03 -0.23254494209E+03  0.14118682381E+04  0.25500000920E-02 0.  1.
       -2    1    3    3    0  502 -0.13179391981E+04  0.44981222947E+03 -0.31576478360E+03  0.14279363327E+04  0.25500000920E-02 0. -1.
</event>
<event>
 5   0  0.5625245E-06  0.2805932E+04  0.7818609E-02  0.8301429E-01
       -2   -1    0    0    0  501  0.00000000000E+00  0.00000000000E+00  0.20426724375E+04  0.20426724375E+04  0.25500000920E-02 0.  1.
        2   -1    0    0  501    0  0.00000000000E+00  0.00000000000E+00 -0.96359705587E+03  0.96359705587E+03  0.25500000920E-02 0. -1.
    10030    2    1    2    0    0  0.00000000000E+00  0.00000000000E+00  0.10790753816E+04  0.30062694933E+04  0.28059316790E+04 0.  0.
        3    1    3    3  502    0 -0.61839708994E+03  0.12586789938E+04  0.58273199358E+03  0.15186389817E+04  0.10100000352E+00 0.  1.
       -3    1    3    3    0  502  0.61839708994E+03 -0.12586789938E+04  0.49634338803E+03  0.14876305117E+04  0.10100000352E+00 0. -1.
</event>
<event>
 5   0  0.2206967E-06  0.2753874E+04  0.7818609E-02  0.8317733E-01
        1   -1    0    0  501    0  0.00000000000E+00  0.00000000000E+00  0.13845905052E+04  0.13845905052E+04  0.50400001928E-02 0.  1.
       -1   -1    0    0    0  501  0.00000000000E+00  0.00000000000E+00 -0.13693257888E+04  0.13693257888E+04  0.50400001928E-02 0. -1.
    10030    2    1    2    0    0  0.00000000000E+00  0.00000000000E+00  0.15264716480E+02  0.27539162940E+04  0.27538739882E+04 0.  0.
        5    1    3    3  502    0 -0.15979561047E+03  0.57190784660E+03 -0.12346911068E+04  0.13700720570E+04  0.46999998093E+01 0. -1.
       -5    1    3    3    0  502  0.15979561047E+03 -0.57190784660E+03  0.12499558233E+04  0.13838442370E+04  0.46999998093E+01 0.  1.
</event>
<event>
 5   0  0.1901375E-06  0.2794457E+04  0.7818609E-02  0.8304991E-01
        4   -1    0    0  501    0  0.00000000000E+00  0.00000000000E+00  0.10430948269E+04  0.10430956000E+04  0.12699999809E+01 0.  1.
       -4   -1    0    0    0  501  0.00000000000E+00  0.00000000000E+00 -0.18715896591E+04  0.18715900900E+04  0.12699999809E+01 0. -1.
    10030    2    1    2    0    0  0.00000000000E+00  0.00000000000E+00 -0.82849483223E+03  0.29146856900E+04  0.27944568317E+04 0.  0.
        3    1    3    3  502    0  0.23893411159E+03  0.40093373067E+03  0.95938392671E+03  0.10668902920E+04  0.10100000352E+00 0.  1.
       -3    1    3    3    0  502 -0.23893411159E+03 -0.40093373067E+03 -0.17878787589E+04  0.18477953980E+04  0.10100000352E+00 0. -1.
</event>
<event>
 5   0  0.5546570E-06  0.2800566E+04  0.7818609E-02  0.8303093E-01
       -2   -1    0    0    0  501  0.00000000000E+00  0.00000000000E+00  0.26392916461E+04  0.26392916461E+04  0.25500000920E-02 0. -1.
        2   -1    0    0  501    0  0.00000000000E+00  0.00000000000E+00 -0.74292387419E+03  0.74292387419E+03  0.25500000920E-02 0.  1.
    10030    2    1    2    0    0  0.00000000000E+00  0.00000000000E+00  0.18963677719E+04  0.33822155203E+04  0.28005662105E+04 0.  0.
        4    1    3    3  502    0  0.18648680266E+03 -0.43884486471E+03  0.25382254054E+04  0.25826250142E+04  0.12699999809E+01 0. -1.
       -4    1    3    3    0  502 -0.18648680266E+03  0.43884486471E+03 -0.64185763345E+03  0.79959050605E+03  0.12699999809E+01 0.  1.
</event>
<event>
 5   0  0.5916603E-06  0.2812485E+04  0.7818609E-02  0.8299403E-01
        2   -1    0    0  501    0  0.00000000000E+00  0.00000000000E+00  0.98239835181E+03  0.98239835182E+03  0.25500000920E-02 0.  1.
       -2   -1    0    0    0  501  0.00000000000E+00  0.00000000000E+00 -0.20129485813E+04  0.20129485813E+04  0.25500000920E-02 0. -1.
    10030    2    1    2    0    0  0.00000000000E+00  0.00000000000E+00 -0.10305502295E+04  0.29953469331E+04  0.28124845732E+04 0.  0.
        2    1    3    3  502    0  0.11339766504E+03  0.30253650237E+03  0.94233355410E+03  0.99618266041E+03  0.25500000920E-02 0.  1.
       -2    1    3    3    0  502 -0.11339766504E+03 -0.30253650237E+03 -0.19728837836E+04  0.19991642727E+04  0.25500000920E-02 0. -1.
</event>
<event>
 5   0  0.2190865E-06  0.2802906E+04  0.7818609E-02  0.8302367E-01
        1   -1    0    0  501    0  0.00000000000E+00  0.00000000000E+00  0.24692766515E+04  0.24692766515E+04  0.50400001928E-02 0. -1.
       -1   -1    0    0    0  501  0.00000000000E+00  0.00000000000E+00 -0.79540327486E+03  0.79540327487E+03  0.50400001928E-02 0.  1.
    10030    2    1    2    0    0  0.00000000000E+00  0.00000000000E+00  0.16738733767E+04  0.32646799264E+04  0.28029061598E+04 0.  0.
        2    1    3    3  502    0 -0.13677134743E+04  0.28011500878E+03  0.69444570781E+03  0.15592816959E+04  0.25500000920E-02 0. -1.
       -2    1    3    3    0  502  0.13677134743E+04 -0.28011500878E+03  0.97942766885E+03  0.17053982305E+04  0.25500000920E-02 0.  1.
</event>
<event>
 5   0  0.5546570E-06  0.2797703E+04  0.7818609E-02  0.8303982E-01
        2   -1    0    0  501    0  0.00000000000E+00  0.00000000000E+00  0.84547898699E+03  0.84547898699E+03  0.25500000920E-02 0.  1.
       -2   -1    0    0    0  501  0.00000000000E+00  0.00000000000E+00 -0.23144106489E+04  0.23144106489E+04  0.25500000920E-02 0. -1.
    10030    2    1    2    0    0  0.00000000000E+00  0.00000000000E+00 -0.14689316620E+04  0.31598896359E+04  0.27977030371E+04 0.  0.
        4    1    3    3  502    0  0.10046774171E+04 -0.26656777632E+02  0.36447857595E+03  0.10690806993E+04  0.12699999809E+01 0.  1.
       -4    1    3    3    0  502 -0.10046774171E+04  0.26656777632E+02 -0.18334102379E+04  0.20908089367E+04  0.12699999809E+01 0. -1.
</event>
<event>
 5   0  0.5866136E-06  0.2810942E+04  0.7818609E-02  0.8299879E-01
        2   -1    0    0  501    0  0.00000000000E+00  0.00000000000E+00  0.18633174237E+04  0.18633174237E+04  0.25500000920E-02 0. -1.
       -2   -1    0    0    0  501  0.00000000000E+00  0.00000000000E+00 -0.10601245145E+04  0.10601245145E+04  0.25500000920E-02 0.  1.
    10030    2    1    2    0    0  0.00000000000E+00  0.00000000000E+00  0.80319290912E+03  0.29234419382E+04  0.28109418203E+04 0.  0.
        5    1    3    3  502    0 -0.28906887760E+03 -0.54093728556E+02 -0.10277586515E+04  0.10690167834E+04  0.46999998093E+01 0.  1.
       -5    1    3    3    0  502  0.28906887760E+03  0.54093728556E+02  0.18309515606E+04  0.18544251548E+04  0.46999998093E+01 0. -1.
</event>
<event>
 5   0  0.5546570E-06  0.2810409E+04  0.7818609E-02  0.8300044E-01
       -2   -1    0    0    0  501  0.00000000000E+00  0.00000000000E+00  0.13954666304E+04  0.13954666304E+04  0.25500000920E-02 0.  1.
        2   -1    0    0  501    0  0.00000000000E+00  0.00000000000E+00 -0.14150098962E+04  0.14150098962E+04  0.25500000920E-02 0. -1.
    10030    2    1    2    0    0  0.00000000000E+00  0.00000000000E+00 -0.19543265810E+02  0.28104765267E+04  0.28104085766E+04 0.  0.
        4    1    3    3  502    0 -0.48789565945E+03 -0.90423989480E+03  0.94884714027E+03  0.13985722971E+04  0.12699999809E+01 0.  1.
       -4    1    3    3    0  502  0.48789565945E+03  0.90423989480E+03 -0.96839040608E+03  0.14119042295E+04  0.12699999809E+01 0. -1.
</event>
<event>
 5   0  0.5916603E-06  0.2789423E+04  0.7818609E-02  0.8306560E-01
        2   -1    0    0  501    0  0.00000000000E+00  0.00000000000E+00  0.17217359838E+04  0.17217359838E+04  0.25500000920E-02 0.  1.
       -2   -1    0    0    0  501  0.00000000000E+00  0.00000000000E+00 -0.11298013940E+04  0.11298013940E+04  0.25500000920E-02 0. -1.
    10030    2    1    2    0    0  0.00000000000E+00  0.00000000000E+00  0.59193458982E+03  0.28515373778E+04  0.27894226747E+04 0.  0.
        2    1    3    3  502    0  0.34278440882E+03  0.42801742394E+02 -0.10853760493E+04  0.11390234012E+04  0.25500000920E-02 0. -1.
       -2    1    3    3    0  502 -0.34278440882E+03 -0.42801742394E+02  0.16773106391E+04  0.17125139766E+04  0.25500000920E-02 0.  1.
</event>
<event>
 5   0  0.5866136E-06  0.2783736E+04  0.7818609E-02  0.8308336E-01
        2   -1    0    0  501    0  0.00000000000E+00  0.00000000000E+00  0.19599594004E+04  0.19599594004E+04  0.25500000920E-02 0. -1.
       -2   -1    0    0    0  501  0.00000000000E+00  0.00000000000E+00 -0.98843698438E+03  0.98843698439E+03  0.25500000920E-02 0.  1.
    10030    2    1    2    0    0  0.00000000000E+00  0.00000000000E+00  0.97152241603E+03  0.29483963848E+04  0.27837358777E+04 0.  0.
        5    1    3    3  502    0  0.11268199279E+04  0.76457513399E+03  0.18066693987E+03  0.13736669606E+04  0.46999998093E+01 0.  1.
       -5    1    3    3    0  502 -0.11268199279E+04 -0.76457513399E+03  0.79085547616E+03  0.15747294242E+04  0.46999998093E+01 0. -1.
</event>
<event>
 5   0  0.2277133E-06  0.2800452E+04  0.7818609E-02  0.8303128E-01
        1   -1    0    0  501    0  0.00000000000E+00  0.00000000000E+00  0.90069000732E+03  0.90069000733E+03  0.50400001928E-02 0.  1.
       -1   -1    0    0    0  501  0.00000000000E+00  0.00000000000E+00 -0.21768124570E+04  0.21768124570E+04  0.50400001928E-02 0. -1.
    10030    2    1    2    0    0  0.00000000000E+00  0.00000000000E+00 -0.12761224496E+04  0.30775024643E+04  0.28004522691E+04 0.  0.
        1    1    3    3  502    0 -0.69607169412E+03  0.78416018775E+03 -0.16578842733E+04  0.19616328064E+04  0.50400001928E-02 0. -1.
       -1    1    3    3    0  502  0.69607169412E+03 -0.78416018775E+03  0.38176182366E+03  0.11158696579E+04  0.50400001928E-02 0.  1.
</event>
<event>
 5   0  0.5625245E-06  0.2800427E+04  0.7818609E-02  0.8303136E-01
       -2   -1    0    0    0  501  0.00000000000E+00  0.00000000000E+00  0.12019984524E+04  0.12019984524E+04  0.25500000920E-02 0. -1.
        2   -1    0    0  501    0  0.00000000000E+00  0.00000000000E+00 -0.16311149901E+04  0.16311149902E+04  0.25500000920E-02 0.  1.
    10030    2    1    2    0    0  0.00000000000E+00  0.00000000000E+00 -0.42911653773E+03  0.28331134426E+04  0.28004268917E+04 0.  0.
        3    1    3    3  502    0  0.55343199270E+03 -0.12178882424E+04 -0.63297844340E+03  0.14799325868E+04  0.10100000352E+00 0.  1.
       -3    1    3    3    0  502 -0.55343199270E+03  0.12178882424E+04  0.20386190567E+03  0.13531808557E+04  0.10100000352E+00 0. -1.
</event>
<event>
 5   0  0.2277133E-06  0.3027022E+04  0.7818609E-02  0.8236056E-01
       -1   -1    0    0    0  501  0.00000000000E+00  0.00000000000E+00  0.12292392737E+04  0.12292392737E+04  0.50400001928E-02 0. -1.
        1   -1    0    0  501    0  0.00000000000E+00  0.00000000000E+00 -0.18635231308E+04  0.18635231308E+04  0.50400001928E-02 0.  1.
    10030    2    1    2    0    0  0.00000000000E+00  0.00000000000E+00 -0.63428385710E+03  0.30927624045E+04  0.30270221802E+04 0.  0.
        1    1    3    3  502    0 -0.46226574628E+03  0.93992123676E+03  0.79909317966E+03  0.13174564362E+04  0.50400001928E-02 0. -1.
       -1    1    3    3    0  502  0.46226574628E+03 -0.93992123676E+03 -0.14333770368E+04  0.17753059683E+04  0.50400001928E-02 0.  1.
</event>
<event>
 5   0  0.5916603E-06  0.2740686E+04  0.7818609E-02  0.8321923E-01
        2   -1    0    0  501    0  0.00000000000E+00  0.00000000000E+00  0.14886263757E+04  0.14886263757E+04  0.25500000920E-02 0. -1.
       -2   -1    0    0    0  501  0.00000000000E+00  0.00000000000E+00 -0.12614578282E+04  0.12614578282E+04  0.25500000920E-02 0.  1.
    10030    2    1    2    0    0  0.00000000000E+00  0.00000000000E+00  0.22716854746E+03  0.27500842039E+04  0.27406856040E+04 0.  0.
        2    1    3    3  502    0 -0.68915856570E+03 -0.79350394680E+03  0.99594692544E+03  0.14479289764E+04  0.25500000920E-02 0. -1.
       -2    1    3    3    0  502  0.68915856570E+03  0.79350394680E+03 -0.76877837798E+03  0.13021552276E+04  0.25500000920E-02 0.  1.
</event>
<event>
 5   0  0.5866136E-06  0.2825540E+04  0.7818609E-02  0.8295383E-01
        2   -1    0    0  501    0  0.00000000000E+00  0.00000000000E+00  0.14488874460E+04  0.14488874460E+04  0.25500000920E-02 0. -1.
       -2   -1    0    0    0  501  0.00000000000E+00  0.00000000000E+00 -0.13775531192E+04  0.13775531192E+04  0.25500000920E-02 0.  1.
    10030    2    1    2    0    0  0.00000000000E+00  0.00000000000E+00  0.71334326780E+02  0.28264405653E+04  0.28255402462E+04 0.  0.
        5    1    3    3  502    0 -0.10710953043E+04  0.48450587573E+03 -0.74810418324E+03  0.13934392895E+04  0.46999998093E+01 0.  1.
       -5    1    3    3    0  502  0.10710953043E+04 -0.48450587573E+03  0.81943851002E+03  0.14330012757E+04  0.46999998093E+01 0. -1.
</event>
<event>
 5   0  0.2234068E-06  0.2786594E+04  0.7818609E-02  0.8307442E-01
        1   -1    0    0  501    0  0.00000000000E+00  0.00000000000E+00  0.16178331257E+04  0.16178331257E+04  0.50400001928E-02 0. -1.
       -1   -1    0    0    0  501  0.00000000000E+00  0.00000000000E+00 -0.11999241352E+04  0.11999241352E+04  0.50400001928E-02 0.  1.
    10030    2    1    2    0    0  0.00000000000E+00  0.00000000000E+00  0.41790899055E+03  0.28177572609E+04  0.27865943474E+04 0.  0.
        3    1    3    3  502    0 -0.10445448437E+04  0.35485088268E+03 -0.65161163407E+03  0.12812458044E+04  0.10100000352E+00 0.  1.
       -3    1    3    3    0  502  0.10445448437E+04 -0.35485088268E+03  0.10695206246E+04  0.15365114565E+04  0.10100000352E+00 0. -1.
</event>
<event>
 5   0  0.2277133E-06  0.2809436E+04  0.7818609E-02  0.8300345E-01
       -1   -1    0    0    0  501  0.00000000000E+00  0.00000000000E+00  0.11324148781E+04  0.11324148781E+04  0.50400001928E-02 0.  1.
        1   -1    0    0  501    0  0.00000000000E+00  0.00000000000E+00 -0.17425003271E+04  0.17425003271E+04  0.50400001928E-02 0. -1.
    10030    2    1    2    0    0  0.00000000000E+00  0.00000000000E+00 -0.61008544898E+03  0.28749152052E+04  0.28094364527E+04 0.  0.
        1    1    3    3  502    0 -0.52596103102E+03 -0.11797421137E+03  0.10223720326E+04  0.11557670586E+04  0.50400001928E-02 0.  1.
       -1    1    3    3    0  502  0.52596103102E+03  0.11797421137E+03 -0.16324574816E+04  0.17191481466E+04  0.50400001928E-02 0. -1.
</event>
<event>
 5   0  0.2206967E-06  0.2797024E+04  0.7818609E-02  0.8304193E-01
       -1   -1    0    0    0  501  0.00000000000E+00  0.00000000000E+00  0.74070378484E+03  0.74070378485E+03  0.50400001928E-02 0.  1.
        1   -1    0    0  501    0  0.00000000000E+00  0.00000000000E+00 -0.26405092227E+04  0.26405092227E+04  0.50400001928E-02 0. -1.
    10030    2    1    2    0    0  0.00000000000E+00  0.00000000000E+00 -0.18998054379E+04  0.33812130076E+04  0.27970235431E+04 0.  0.
        5    1    3    3  502    0  0.56481710666E+03 -0.67290619785E+03 -0.22652813662E+04  0.24296795824E+04  0.46999998093E+01 0. -1.
       -5    1    3    3    0  502 -0.56481710666E+03  0.67290619785E+03  0.36547592831E+03  0.95153342519E+03  0.46999998093E+01 0.  1.
</event>
<event>
 5   0  0.2234068E-06  0.2782185E+04  0.7818609E-02  0.8308821E-01
       -1   -1    0    0    0  501  0.00000000000E+00  0.00000000000E+00  0.95117144218E+03  0.95117144219E+03  0.50400001928E-02 0. -1.
        1   -1    0    0  501    0  0.00000000000E+00  0.00000000000E+00 -0.20344793279E+04  0.20344793279E+04  0.50400001928E-02 0.  1.
    10030    2    1    2    0    0  0.00000000000E+00  0.00000000000E+00 -0.10833078857E+04  0.29856507701E+04  0.27821852105E+04 0.  0.
        3    1    3    3  502    0 -0.10122421621E+04  0.95256534316E+03 -0.60163132729E+03  0.15145874659E+04  0.10100000352E+00 0.  1.
       -3    1    3    3    0  502  0.10122421621E+04 -0.95256534316E+03 -0.48167655839E+03  0.14710633041E+04  0.10100000352E+00 0. -1.
</event>
<event>
 5   0  0.5866136E-06  0.2794627E+04  0.7818609E-02  0.8304939E-01
       -2   -1    0    0    0  501  0.00000000000E+00  0.00000000000E+00  0.89747887219E+03  0.89747887220E+03  0.25500000920E-02 0. -1.
        2   -1    0    0  501    0  0.00000000000E+00  0.00000000000E+00 -0.21755212889E+04  0.21755212889E+04  0.25500000920E-02 0.  1.
    10030    2    1    2    0    0  0.00000000000E+00  0.00000000000E+00 -0.12780424167E+04  0.30730001611E+04  0.27946265531E+04 0.  0.
        5    1    3    3  502    0  0.32996023502E+03 -0.90939514310E+03  0.46967231146E+03  0.10754010662E+04  0.46999998093E+01 0. -1.
       -5    1    3    3    0  502 -0.32996023502E+03  0.90939514310E+03 -0.17477147282E+04  0.19975990949E+04  0.46999998093E+01 0.  1.
</event>
<event>
 5   0  0.5866136E-06  0.2806740E+04  0.7818609E-02  0.8301179E-01
       -2   -1    0    0    0  501  0.00000000000E+00  0.00000000000E+00  0.19704948150E+04  0.19704948150E+04  0.25500000920E-02 0. -1.
        2   -1    0    0  501    0  0.00000000000E+00  0.00000000000E+00 -0.99946866798E+03  0.99946866798E+03  0.25500000920E-02 0.  1.
    10030    2    1    2    0    0  0.00000000000E+00  0.00000000000E+00  0.97102614702E+03  0.29699634830E+04  0.28067403357E+04 0.  0.
        5    1    3    3  502    0  0.13004005004E+04 -0.82855198975E+02  0.10368908024E+04  0.16652540562E+04  0.46999998093E+01 0. -1.
       -5    1    3    3    0  502 -0.13004005004E+04  0.82855198975E+02 -0.65864655393E+02  0.13047094268E+04  0.46999998093E+01 0.  1.
</event>
<event>
 5   0  0.2277133E-06  0.2790092E+04  0.7818609E-02  0.8306351E-01
       -1   -1    0    0    0  501  0.00000000000E+00  0.00000000000E+00  0.15750824525E+04  0.15750824525E+04  0.50400001928E-02 0.  1.
        1   -1    0    0  501    0  0.00000000000E+00  0.00000000000E+00 -0.12355879291E+04  0.12355879291E+04  0.50400001928E-02 0. -1.
    10030    2    1    2    0    0  0.00000000000E+00  0.00000000000E+00  0.33949452348E+03  0.28106703816E+04  0.27900916585E+04 0.  0.
        1    1    3    3  502    0  0.52458882677E+03  0.12829280947E+04  0.32920223307E+03  0.14245953964E+04  0.50400001928E-02 0. -1.
       -1    1    3    3    0  502 -0.52458882677E+03 -0.12829280947E+04  0.10292290409E+02  0.13860749852E+04  0.50400001928E-02 0.  1.
</event>
<event>
 5   0  0.1901375E-06  0.2812886E+04  0.7818609E-02  0.8299279E-01
        3   -1    0    0  501    0  0.00000000000E+00  0.00000000000E+00  0.21599355065E+04  0.21599355088E+04  0.10100000352E+00 0.  1.
       -3   -1    0    0    0  501  0.00000000000E+00  0.00000000000E+00 -0.91580619667E+03  0.91580620224E+03  0.10100000352E+00 0. -1.
    10030    2    1    2    0    0  0.00000000000E+00  0.00000000000E+00  0.12441293098E+04  0.30757417111E+04  0.28128862995E+04 0.  0.
        2    1    3    3  502    0 -0.59090019210E+03 -0.89106831932E+03 -0.37705894777E+03  0.11337280259E+04  0.25500000920E-02 0. -1.
       -2    1    3    3    0  502  0.59090019210E+03  0.89106831932E+03  0.16211882576E+04  0.19420136851E+04  0.25500000920E-02 0.  1.
</event>
<event>
 5   0  0.5625245E-06  0.2876627E+04  0.7818609E-02  0.8279866E-01
        2   -1    0    0  501    0  0.00000000000E+00  0.00000000000E+00  0.81506668175E+03  0.81506668175E+03  0.25500000920E-02 0.  1.
       -2   -1    0    0    0  501  0.00000000000E+00  0.00000000000E+00 -0.25381300712E+04  0.25381300712E+04  0.25500000920E-02 0. -1.
    10030    2    1    2    0    0  0.00000000000E+00  0.00000000000E+00 -0.17230633895E+04  0.33531967529E+04  0.28766266737E+04 0.  0.
        3    1    3    3  502    0  0.14301520079E+04 -0.12672303893E+03 -0.96147895984E+03  0.17279569713E+04  0.10100000352E+00 0. -1.
       -3    1    3    3    0  502 -0.14301520079E+04  0.12672303893E+03 -0.76158442961E+03  0.16252397817E+04  0.10100000352E+00 0.  1.
</event>
<event>
 5   0  0.5866136E-06  0.2805951E+04  0.7818609E-02  0.8301423E-01
        2   -1    0    0  501    0  0.00000000000E+00  0.00000000000E+00  0.86522482777E+03  0.86522482777E+03  0.25500000920E-02 0. -1.
       -2   -1    0    0    0  501  0.00000000000E+00  0.00000000000E+00 -0.22749462662E+04  0.22749462662E+04  0.25500000920E-02 0.  1.
    10030    2    1    2    0    0  0.00000000000E+00  0.00000000000E+00 -0.14097214384E+04  0.31401710940E+04  0.28059508131E+04 0.  0.
        5    1    3    3  502    0 -0.55703709967E+03  0.64350614891E+02  0.73435574287E+03  0.92397607064E+03  0.46999998093E+01 0. -1.
       -5    1    3    3    0  502  0.55703709967E+03 -0.64350614891E+02 -0.21440771813E+04  0.22161950233E+04  0.46999998093E+01 0.  1.
</event>
<event>
 5   0  0.5546570E-06  0.2798055E+04  0.7818609E-02  0.8303872E-01
        2   -1    0    0  501    0  0.00000000000E+00  0.00000000000E+00  0.11584482798E+04  0.11584482798E+04  0.25500000920E-02 0. -1.
       -2   -1    0    0    0  501  0.00000000000E+00  0.00000000000E+00 -0.16895692741E+04  0.16895692741E+04  0.25500000920E-02 0.  1.
    10030    2    1    2    0    0  0.00000000000E+00  0.00000000000E+00 -0.53112099428E+03  0.28480175540E+04  0.27980554814E+04 0.  0.
        4    1    3    3  502    0 -0.98900845453E+03 -0.75933593412E+03  0.38023542255E+03  0.13035756109E+04  0.12699999809E+01 0. -1.
       -4    1    3    3    0  502  0.98900845453E+03  0.75933593412E+03 -0.91135641683E+03  0.15444419430E+04  0.12699999809E+01 0.  1.
</event>
<event>
 5   0  0.2234068E-06  0.2807575E+04  0.7818609E-02  0.8300921E-01
       -1   -1    0    0    0  501  0.00000000000E+00  0.00000000000E+00  0.76741377618E+03  0.76741377619E+03  0.50400001928E-02 0.  1.
        1   -1    0    0  501    0  0.00000000000E+00  0.00000000000E+00 -0.25678706061E+04  0.25678706061E+04  0.50400001928E-02 0. -1.
    10030    2    1    2    0    0  0.00000000000E+00  0.00000000000E+00 -0.18004568300E+04  0.33352843823E+04  0.28075749526E+04 0.  0.
        3    1    3    3  502    0  0.10909878374E+04  0.21119656531E+03 -0.19192182196E+04  0.22177143718E+04  0.10100000352E+00 0. -1.
       -3    1    3    3    0  502 -0.10909878374E+04 -0.21119656531E+03  0.11876138963E+03  0.11175700105E+04  0.10100000352E+00 0.  1.
</event>
<event>
 5   0  0.2267565E-06  0.2792170E+04  0.7818609E-02  0.8305703E-01
       -1   -1    0    0    0  501  0.00000000000E+00  0.00000000000E+00  0.12224616851E+04  0.12224616851E+04  0.50400001928E-02 0.  1.
        1   -1    0    0  501    0  0.00000000000E+00  0.00000000000E+00 -0.15943673622E+04  0.15943673622E+04  0.50400001928E-02 0. -1.
    10030    2    1    2    0    0  0.00000000000E+00  0.00000000000E+00 -0.37190567713E+03  0.28168290473E+04  0.27921697744E+04 0.  0.
        4    1    3    3  502    0 -0.62327392295E+03  0.54105404449E+03  0.94997608300E+03  0.12584379338E+04  0.12699999809E+01 0.  1.
       -4    1    3    3    0  502  0.62327392295E+03 -0.54105404449E+03 -0.13218817601E+04  0.15583911135E+04  0.12699999809E+01 0. -1.
</event>
<event>
 5   0  0.2267565E-06  0.2798526E+04  0.7818609E-02  0.8303726E-01
       -1   -1    0    0    0  501  0.00000000000E+00  0.00000000000E+00  0.93588716643E+03  0.93588716644E+03  0.50400001928E-02 0.  1.
        1   -1    0    0  501    0  0.00000000000E+00  0.00000000000E+00 -0.20920646311E+04  0.20920646311E+04  0.50400001928E-02 0. -1.
    10030    2    1    2    0    0  0.00000000000E+00  0.00000000000E+00 -0.11561774647E+04  0.30279517976E+04  0.27985256401E+04 0.  0.
        4    1    3    3  502    0  0.11255195083E+03  0.82531440445E+03  0.63841749607E+03  0.10494714479E+04  0.12699999809E+01 0.  1.
       -4    1    3    3    0  502 -0.11255195083E+03 -0.82531440445E+03 -0.17945949608E+04  0.19784803496E+04  0.12699999809E+01 0. -1.
</event>
<event>
 5   0  0.2267565E-06  0.2792780E+04  0.7818609E-02  0.8305513E-01
       -1   -1    0    0    0  501  0.00000000000E+00  0.00000000000E+00  0.13559115840E+04  0.13559115840E+04  0.50400001928E-02 0. -1.
        1   -1    0    0  501    0  0.00000000000E+00  0.00000000000E+00 -0.14380768009E+04  0.14380768009E+04  0.50400001928E-02 0.  1.
    10030    2    1    2    0    0  0.00000000000E+00  0.00000000000E+00 -0.82165216955E+02  0.27939883849E+04  0.27927799720E+04 0.  0.
        4    1    3    3  502    0 -0.95616388832E+03  0.91004069950E+03  0.41461412470E+03  0.13835931271E+04  0.12699999809E+01 0.  1.
       -4    1    3    3    0  502  0.95616388832E+03 -0.91004069950E+03 -0.49677934165E+03  0.14103952578E+04  0.12699999809E+01 0. -1.
</event>
<event>
 5   0  0.2277133E-06  0.2810596E+04  0.7818609E-02  0.8299986E-01
        1   -1    0    0  501    0  0.00000000000E+00  0.00000000000E+00  0.13869733035E+04  0.13869733035E+04  0.50400001928E-02 0. -1.
       -1   -1    0    0    0  501  0.00000000000E+00  0.00000000000E+00 -0.14238644123E+04  0.14238644123E+04  0.50400001928E-02 0.  1.
    10030    2    1    2    0    0  0.00000000000E+00  0.00000000000E+00 -0.36891108819E+02  0.28108377158E+04  0.28105956149E+04 0.  0.
        1    1    3    3  502    0 -0.11524821108E+04 -0.38996874980E+03 -0.72176375643E+03  0.14146496250E+04  0.50400001928E-02 0. -1.
       -1    1    3    3    0  502  0.11524821108E+04  0.38996874980E+03  0.68487264761E+03  0.13961880908E+04  0.50400001928E-02 0.  1.
</event>
<event>
 5   0  0.2206967E-06  0.2705813E+04  0.7818609E-02  0.8333121E-01
       -1   -1    0    0    0  501  0.00000000000E+00  0.00000000000E+00  0.91938955217E+03  0.91938955219E+03  0.50400001928E-02 0.  1.
        1   -1    0    0  501    0  0.00000000000E+00  0.00000000000E+00 -0.19908385921E+04  0.19908385921E+04  0.50400001928E-02 0. -1.
    10030    2    1    2    0    0  0.00000000000E+00  0.00000000000E+00 -0.10714490399E+04  0.29102281443E+04  0.27058131507E+04 0.  0.
        5    1    3    3  502    0  0.21703087826E+03 -0.11329224614E+04 -0.12960366270E+04  0.17350356579E+04  0.46999998093E+01 0. -1.
       -5    1    3    3    0  502 -0.21703087826E+03  0.11329224614E+04  0.22458758706E+03  0.11751924864E+04  0.46999998093E+01 0.  1.
</event>
<event>
 5   0  0.5546570E-06  0.2809625E+04  0.7818609E-02  0.8300286E-01
        2   -1    0    0  501    0  0.00000000000E+00  0.00000000000E+00  0.16493181537E+04  0.16493181537E+04  0.25500000920E-02 0. -1.
       -2   -1    0    0    0  501  0.00000000000E+00  0.00000000000E+00 -0.11965542102E+04  0.11965542102E+04  0.25500000920E-02 0.  1.
    10030    2    1    2    0    0  0.00000000000E+00  0.00000000000E+00  0.45276394346E+03  0.28458723639E+04  0.28096252994E+04 0.  0.
        4    1    3    3  502    0 -0.12780636319E+04 -0.46097251262E+03 -0.13537356249E+03  0.13653827005E+04  0.12699999809E+01 0. -1.
       -4    1    3    3    0  502  0.12780636319E+04  0.46097251262E+03  0.58813750595E+03  0.14804896634E+04  0.12699999809E+01 0.  1.
</event>
<event>
 5   0  0.1901375E-06  0.2812390E+04  0.7818609E-02  0.8299432E-01
       -3   -1    0    0    0  501  0.00000000000E+00  0.00000000000E+00  0.13356089363E+04  0.13356089401E+04  0.10100000352E+00 0. -1.
        3   -1    0    0  501    0  0.00000000000E+00  0.00000000000E+00 -0.14805115239E+04  0.14805115274E+04  0.10100000352E+00 0.  1.
    10030    2    1    2    0    0  0.00000000000E+00  0.00000000000E+00 -0.14490258762E+03  0.28161204675E+04  0.28123900383E+04 0.  0.
        2    1    3    3  502    0 -0.13534185574E+04 -0.34108945960E+03 -0.24385258513E+03  0.14168796330E+04  0.25500000920E-02 0.  1.
       -2    1    3    3    0  502  0.13534185574E+04  0.34108945960E+03  0.98949997509E+02  0.13992408345E+04  0.25500000920E-02 0. -1.
</event>
<event>
 5   0  0.5546570E-06  0.2745684E+04  0.7818609E-02  0.8320332E-01
        2   -1    0    0  501    0  0.00000000000E+00  0.00000000000E+00  0.14583279971E+04  0.14583279971E+04  0.25500000920E-02 0. -1.
       -2   -1    0    0    0  501  0.00000000000E+00  0.00000000000E+00 -0.12923675235E+04  0.12923675235E+04  0.25500000920E-02 0.  1.
    10030    2    1    2    0    0  0.00000000000E+00  0.00000000000E+00  0.16596047358E+03  0.27506955206E+04  0.27456844262E+04 0.  0.
        4    1    3    3  502    0 -0.71147747345E+03 -0.44003129083E+02 -0.10924290112E+04  0.13044306145E+04  0.12699999809E+01 0.  1.
       -4    1    3    3    0  502  0.71147747345E+03  0.44003129083E+02  0.12583894847E+04  0.14462649062E+04  0.12699999809E+01 0. -1.
</event>
<event>
 5   0  0.2277133E-06  0.2794240E+04  0.7818609E-02  0.8305059E-01
       -1   -1    0    0    0  501  0.00000000000E+00  0.00000000000E+00  0.18223186672E+04  0.18223186672E+04  0.50400001928E-02 0.  1.
        1   -1    0    0  501    0  0.00000000000E+00  0.00000000000E+00 -0.10711326218E+04  0.10711326218E+04  0.50400001928E-02 0. -1.
    10030    2    1    2    0    0  0.00000000000E+00  0.00000000000E+00  0.75118604545E+03  0.28934512890E+04  0.27942404848E+04 0.  0.
        1    1    3    3  502    0 -0.65851497640E+02  0.80823429697E+03 -0.80250362913E+03  0.11408729874E+04  0.50400001928E-02 0. -1.
       -1    1    3    3    0  502  0.65851497640E+02 -0.80823429697E+03  0.15536896746E+04  0.17525783017E+04  0.50400001928E-02 0.  1.
</event>
<event>
 5   0  0.5584205E-06  0.2795182E+04  0.7818609E-02  0.8304766E-01
        2   -1    0    0  501    0  0.00000000000E+00  0.00000000000E+00  0.16007619429E+04  0.16007619429E+04  0.25500000920E-02 0. -1.
       -2   -1    0    0    0  501  0.00000000000E+00  0.00000000000E+00 -0.12202070803E+04  0.12202070803E+04  0.25500000920E-02 0.  1.
    10030    2    1    2    0    0  0.00000000000E+00  0.00000000000E+00  0.38055486261E+03  0.28209690231E+04  0.27951823243E+04 0.  0.
        1    1    3    3  502    0 -0.10496758094E+03 -0.10691453931E+04  0.10924882524E+04  0.15321947155E+04  0.50400001928E-02 0. -1.
       -1    1    3    3    0  502  0.10496758094E+03  0.10691453931E+04 -0.71193338977E+03  0.12887743076E+04  0.50400001928E-02 0.  1.
</event>
<event>
 5   0  0.2234068E-06  0.2807241E+04  0.7818609E-02  0.8301024E-01
       -1   -1    0    0    0  501  0.00000000000E+00  0.00000000000E+00  0.98104661699E+03  0.98104661700E+03  0.50400001928E-02 0. -1.
        1   -1    0    0  501    0  0.00000000000E+00  0.00000000000E+00 -0.20082135831E+04  0.20082135831E+04  0.50400001928E-02 0.  1.
    10030    2    1    2    0    0  0.00000000000E+00  0.00000000000E+00 -0.10271669661E+04  0.29892602001E+04  0.28072414516E+04 0.  0.
        3    1    3    3  502    0  0.79236122712E+03 -0.85328919659E+03  0.32094896837E+03  0.12078687916E+04  0.10100000352E+00 0. -1.
       -3    1    3    3    0  502 -0.79236122712E+03  0.85328919659E+03 -0.13481159345E+04  0.17813914085E+04  0.10100000352E+00 0.  1.
</event>
<event>
 5   0  0.5916603E-06  0.2804067E+04  0.7818609E-02  0.8302007E-01
       -2   -1    0    0    0  501  0.00000000000E+00  0.00000000000E+00  0.11003930850E+04  0.11003930850E+04  0.25500000920E-02 0. -1.
        2   -1    0    0  501    0  0.00000000000E+00  0.00000000000E+00 -0.17863597431E+04  0.17863597431E+04  0.25500000920E-02 0.  1.
    10030    2    1    2    0    0  0.00000000000E+00  0.00000000000E+00 -0.68596665811E+03  0.28867528281E+04  0.28040669811E+04 0.  0.
        2    1    3    3  502    0  0.11892107407E+04 -0.64042132795E+03 -0.73001632514E+03  0.15353454002E+04  0.25500000920E-02 0.  1.
       -2    1    3    3    0  502 -0.11892107407E+04  0.64042132795E+03  0.44049667031E+02  0.13514074279E+04  0.25500000920E-02 0. -1.
</event>
<event>
 5   0  0.2277133E-06  0.2801842E+04  0.7818609E-02  0.8302697E-01
       -1   -1    0    0    0  501  0.00000000000E+00  0.00000000000E+00  0.12429955246E+04  0.12429955246E+04  0.50400001928E-02 0.  1.
        1   -1    0    0  501    0  0.00000000000E+00  0.00000000000E+00 -0.15789113369E+04  0.15789113369E+04  0.50400001928E-02 0. -1.
    10030    2    1    2    0    0  0.00000000000E+00  0.00000000000E+00 -0.33591581228E+03  0.28219068615E+04  0.28018420552E+04 0.  0.
        1    1    3    3  502    0 -0.69260874595E+02  0.36368691991E+03  0.11928338420E+04  0.12489667006E+04  0.50400001928E-02 0.  1.
       -1    1    3    3    0  502  0.69260874595E+02 -0.36368691991E+03 -0.15287496543E+04  0.15729401610E+04  0.50400001928E-02 0. -1.
</event>
<event>
 5   0  0.2206967E-06  0.2815941E+04  0.7818609E-02  0.8298336E-01
        1   -1    0    0  501    0  0.00000000000E+00  0.00000000000E+00  0.22795570506E+04  0.22795570506E+04  0.50400001928E-02 0. -1.
       -1   -1    0    0    0  501  0.00000000000E+00  0.00000000000E+00 -0.86963446103E+03  0.86963446105E+03  0.50400001928E-02 0.  1.
    10030    2    1    2    0    0  0.00000000000E+00  0.00000000000E+00  0.14099225895E+04  0.31491915116E+04  0.28159413112E+04 0.  0.
        5    1    3    3  502    0 -0.51577864616E+03 -0.11531082706E+04  0.95409585721E+01  0.12632495460E+04  0.46999998093E+01 0. -1.
       -5    1    3    3    0  502  0.51577864616E+03  0.11531082706E+04  0.14003816310E+04  0.18859419656E+04  0.46999998093E+01 0.  1.
</event>
<event>
 5   0  0.2277133E-06  0.2805498E+04  0.7818609E-02  0.8301563E-01
        1   -1    0    0  501    0  0.00000000000E+00  0.00000000000E+00  0.17026838488E+04  0.17026838488E+04  0.50400001928E-02 0.  1.
       -1   -1    0    0    0  501  0.00000000000E+00  0.00000000000E+00 -0.11556492478E+04  0.11556492478E+04  0.50400001928E-02 0. -1.
    10030    2    1    2    0    0  0.00000000000E+00  0.00000000000E+00  0.54703460098E+03  0.28583330967E+04  0.28054983937E+04 0.  0.
        1    1    3    3  502    0  0.52606291117E+03 -0.22881085711E+00 -0.10513423548E+04  0.11756117497E+04  0.50400001928E-02 0. -1.
       -1    1    3    3    0  502 -0.52606291117E+03  0.22881085711E+00  0.15983769558E+04  0.16827213470E+04  0.50400001928E-02 0.  1.
</event>
<event>
 5   0  0.5866136E-06  0.2809887E+04  0.7818609E-02  0.8300205E-01
        2   -1    0    0  501    0  0.00000000000E+00  0.00000000000E+00  0.21568367316E+04  0.21568367316E+04  0.25500000920E-02 0. -1.
       -2   -1    0    0    0  501  0.00000000000E+00  0.00000000000E+00 -0.91516734929E+03  0.91516734929E+03  0.25500000920E-02 0.  1.
    10030    2    1    2    0    0  0.00000000000E+00  0.00000000000E+00  0.12416693823E+04  0.30720040809E+04  0.28098872251E+04 0.  0.
        5    1    3    3  502    0  0.10510596540E+04 -0.77892772956E+03  0.60811183924E+02  0.13096468586E+04  0.46999998093E+01 0. -1.
       -5    1    3    3    0  502 -0.10510596540E+04  0.77892772956E+03  0.11808581984E+04  0.17623572223E+04  0.46999998093E+01 0.  1.
</event>
<event>
 5   0  0.5625245E-06  0.2745878E+04  0.7818609E-02  0.8320271E-01
       -2   -1    0    0    0  501  0.00000000000E+00  0.00000000000E+00  0.10769594467E+04  0.10769594467E+04  0.25500000920E-02 0. -1.
        2   -1    0    0  501    0  0.00000000000E+00  0.00000000000E+00 -0.17502625733E+04  0.17502625733E+04  0.25500000920E-02 0.  1.
    10030    2    1    2    0    0  0.00000000000E+00  0.00000000000E+00 -0.67330312657E+03  0.28272220200E+04  0.27458782293E+04 0.  0.
        3    1    3    3  502    0 -0.10932876708E+04  0.32113270284E+03 -0.11252102054E+04  0.16014063071E+04  0.10100000352E+00 0. -1.
       -3    1    3    3    0  502  0.10932876708E+04 -0.32113270284E+03  0.45190707886E+03  0.12258157129E+04  0.10100000352E+00 0.  1.
</event>
<event>
 5   0  0.5584205E-06  0.2802488E+04  0.7818609E-02  0.8302496E-01
        2   -1    0    0  501    0  0.00000000000E+00  0.00000000000E+00  0.15595239948E+04  0.15595239948E+04  0.25500000920E-02 0.  1.
       -2   -1    0    0    0  501  0.00000000000E+00  0.00000000000E+00 -0.12590282480E+04  0.12590282480E+04  0.25500000920E-02 0. -1.
    10030    2    1    2    0    0  0.00000000000E+00  0.00000000000E+00  0.30049574684E+03  0.28185522428E+04  0.28024880110E+04 0.  0.
        1    1    3    3  502    0 -0.85097713014E+02 -0.95849337645E+03 -0.87418476931E+03  0.13000577619E+04  0.50400001928E-02 0. -1.
       -1    1    3    3    0  502  0.85097713014E+02  0.95849337645E+03  0.11746805161E+04  0.15184944809E+04  0.50400001928E-02 0.  1.
</event>
<event>
 5   0  0.2190865E-06  0.2793505E+04  0.7818609E-02  0.8305288E-01
       -1   -1    0    0    0  501  0.00000000000E+00  0.00000000000E+00  0.13055430187E+04  0.13055430187E+04  0.50400001928E-02 0.  1.
        1   -1    0    0  501    0  0.00000000000E+00  0.00000000000E+00 -0.14943345475E+04  0.14943345475E+04  0.50400001928E-02 0. -1.
    10030    2    1    2    0    0  0.00000000000E+00  0.00000000000E+00 -0.18879152882E+03  0.27998775662E+04  0.27935053507E+04 0.  0.
        2    1    3    3  502    0  0.99842044674E+03  0.92897717427E+03 -0.39687226798E+03  0.14203343184E+04  0.25500000920E-02 0. -1.
       -2    1    3    3    0  502 -0.99842044674E+03 -0.92897717427E+03  0.20808073916E+03  0.13795432479E+04  0.25500000920E-02 0.  1.
</event>
<event>
 5   0  0.2277133E-06  0.2805384E+04  0.7818609E-02  0.8301599E-01
        1   -1    0    0  501    0  0.00000000000E+00  0.00000000000E+00  0.13724141720E+04  0.13724141720E+04  0.50400001928E-02 0. -1.
       -1   -1    0    0    0  501  0.00000000000E+00  0.00000000000E+00 -0.14336379627E+04  0.14336379627E+04  0.50400001928E-02 0.  1.
    10030    2    1    2    0    0  0.00000000000E+00  0.00000000000E+00 -0.61223790675E+02  0.28060521347E+04  0.28053841502E+04 0.  0.
        1    1    3    3  502    0 -0.80064950438E+03 -0.40906754677E+03  0.10462916526E+04  0.13795296695E+04  0.50400001928E-02 0. -1.
       -1    1    3    3    0  502  0.80064950438E+03  0.40906754677E+03 -0.11075154433E+04  0.14265224652E+04  0.50400001928E-02 0.  1.
</event>
<event>
 5   0  0.5866136E-06  0.2851774E+04  0.7818609E-02  0.8287372E-01
        2   -1    0    0  501    0  0.00000000000E+00  0.00000000000E+00  0.20291942996E+04  0.20291942996E+04  0.25500000920E-02 0.  1.
       -2   -1    0    0    0  501  0.00000000000E+00  0.00000000000E+00 -0.10019514029E+04  0.10019514029E+04  0.25500000920E-02 0. -1.
    10030    2    1    2    0    0  0.00000000000E+00  0.00000000000E+00  0.10272428966E+04  0.30311457025E+04  0.28517742374E+04 0.  0.
        5    1    3    3  502    0  0.23989438212E+03 -0.73525284354E+03  0.17868767475E+04  0.19470738710E+04  0.46999998093E+01 0.  1.
       -5    1    3    3    0  502 -0.23989438212E+03  0.73525284354E+03 -0.75963385084E+03  0.10840718315E+04  0.46999998093E+01 0. -1.
</event>
<event>
 5   0  0.2206967E-06  0.2810069E+04  0.7818609E-02  0.8300149E-01
        1   -1    0    0  501    0  0.00000000000E+00  0.00000000000E+00  0.65861702774E+03  0.65861702776E+03  0.50400001928E-02 0. -1.
       -1   -1    0    0    0  501  0.00000000000E+00  0.00000000000E+00 -0.29973740241E+04  0.29973740241E+04  0.50400001928E-02 0.  1.
    10030    2    1    2    0    0  0.00000000000E+00  0.00000000000E+00 -0.23387569964E+04  0.36559910519E+04  0.28100687329E+04 0.  0.
        5    1    3    3  502    0  0.65049450892E+03 -0.69007411000E+03  0.17940652898E+03  0.96517054248E+03  0.46999998093E+01 0. -1.
       -5    1    3    3    0  502 -0.65049450892E+03  0.69007411000E+03 -0.25181635254E+04  0.26908205094E+04  0.46999998093E+01 0.  1.
</event>
<event>
 5   0  0.2267565E-06  0.2778735E+04  0.7818609E-02  0.8309901E-01
       -1   -1    0    0    0  501  0.00000000000E+00  0.00000000000E+00  0.13109497839E+04  0.13109497839E+04  0.50400001928E-02 0.  1.
        1   -1    0    0  501    0  0.00000000000E+00  0.00000000000E+00 -0.14724763996E+04  0.14724763996E+04  0.50400001928E-02 0. -1.
    10030    2    1    2    0    0  0.00000000000E+00  0.00000000000E+00 -0.16152661574E+03  0.27834261835E+04  0.27787354087E+04 0.  0.
        4    1    3    3  502    0  0.88480631375E+03 -0.33708837244E+03  0.93772752600E+03  0.13326084607E+04  0.12699999809E+01 0.  1.
       -4    1    3    3    0  502 -0.88480631375E+03  0.33708837244E+03 -0.10992541417E+04  0.14508177228E+04  0.12699999809E+01 0. -1.
</event>
<event>
 5   0  0.5866136E-06  0.2807761E+04  0.7818609E-02  0.8300863E-01
       -2   -1    0    0    0  501  0.00000000000E+00  0.00000000000E+00  0.11418377149E+04  0.11418377149E+04  0.25500000920E-02 0. -1.
        2   -1    0    0  501    0  0.00000000000E+00  0.00000000000E+00 -0.17260603997E+04  0.17260603997E+04  0.25500000920E-02 0.  1.
    10030    2    1    2    0    0  0.00000000000E+00  0.00000000000E+00 -0.58422268477E+03  0.28678981147E+04  0.28077612880E+04 0.  0.
        5    1    3    3  502    0 -0.81648960787E+03 -0.11411312620E+04 -0.33805172168E+03  0.14433076226E+04  0.46999998093E+01 0. -1.
       -5    1    3    3    0  502  0.81648960787E+03  0.11411312620E+04 -0.24617096309E+03  0.14245904920E+04  0.46999998093E+01 0.  1.
</event>
<event>
 5   0  0.1901375E-06  0.2787219E+04  0.7818609E-02  0.8307247E-01
        3   -1    0    0  501    0  0.00000000000E+00  0.00000000000E+00  0.12246691198E+04  0.12246691240E+04  0.10100000352E+00 0. -1.
       -3   -1    0    0    0  501  0.00000000000E+00  0.00000000000E+00 -0.15858544584E+04  0.15858544617E+04  0.10100000352E+00 0.  1.
    10030    2    1    2    0    0  0.00000000000E+00  0.00000000000E+00 -0.36118533863E+03  0.28105235856E+04  0.27872186812E+04 0.  0.
        3    1    3    3  502    0 -0.12462214421E+04  0.65817721244E+02  0.44487358577E+03  0.13248820222E+04  0.10100000352E+00 0. -1.
       -3    1    3    3    0  502  0.12462214421E+04 -0.65817721244E+02 -0.80605892440E+03  0.14856415634E+04  0.10100000352E+00 0.  1.
</event>
<event>
 5   0  0.5866136E-06  0.2779333E+04  0.7818609E-02  0.8309713E-01
        2   -1    0    0  501    0  0.00000000000E+00  0.00000000000E+00  0.12524789424E+04  0.12524789424E+04  0.25500000920E-02 0.  1.
       -2   -1    0    0    0  501  0.00000000000E+00  0.00000000000E+00 -0.15418806886E+04  0.15418806886E+04  0.25500000920E-02 0. -1.
    10030    2    1    2    0    0  0.00000000000E+00  0.00000000000E+00 -0.28940174613E+03  0.27943596310E+04  0.27793330813E+04 0.  0.
        5    1    3    3  502    0 -0.45957622913E+03 -0.32757309950E+03  0.11320611388E+04  0.12649501800E+04  0.46999998093E+01 0.  1.
       -5    1    3    3    0  502  0.45957622913E+03  0.32757309950E+03 -0.14214628849E+04  0.15294094511E+04  0.46999998093E+01 0. -1.
</event>
<event>
 5   0  0.5546570E-06  0.2781448E+04  0.7818609E-02  0.8309051E-01
        2   -1    0    0  501    0  0.00000000000E+00  0.00000000000E+00  0.20647937167E+04  0.20647937167E+04  0.25500000920E-02 0.  1.
       -2   -1    0    0    0  501  0.00000000000E+00  0.00000000000E+00 -0.93671033556E+03  0.93671033557E+03  0.25500000920E-02 0. -1.
    10030    2    1    2    0    0  0.00000000000E+00  0.00000000000E+00  0.11280833812E+04  0.30015040523E+04  0.27814482668E+04 0.  0.
        4    1    3    3  502    0 -0.11269059658E+04  0.81485339611E+03  0.54844522655E+03  0.14948902610E+04  0.12699999809E+01 0. -1.
       -4    1    3    3    0  502  0.11269059658E+04 -0.81485339611E+03  0.57963815462E+03  0.15066137913E+04  0.12699999809E+01 0.  1.
</event>
<event>
 5   0  0.5584205E-06  0.2813456E+04  0.7818609E-02  0.8299103E-01
        2   -1    0    0  501    0  0.00000000000E+00  0.00000000000E+00  0.95408385470E+03  0.95408385471E+03  0.25500000920E-02 0.  1.
       -2   -1    0    0    0  501  0.00000000000E+00  0.00000000000E+00 -0.20741184930E+04  0.20741184930E+04  0.25500000920E-02 0. -1.
    10030    2    1    2    0    0  0.00000000000E+00  0.00000000000E+00 -0.11200346383E+04  0.30282023477E+04  0.28134555031E+04 0.  0.
        1    1    3    3  502    0  0.97384028958E+03 -0.77725710161E+03  0.14280908502E+03  0.12541482952E+04  0.50400001928E-02 0.  1.
       -1    1    3    3    0  502 -0.97384028958E+03  0.77725710161E+03 -0.12628437233E+04  0.17740540525E+04  0.50400001928E-02 0. -1.
</event>
<event>
 5   0  0.5584205E-06  0.2786634E+04  0.7818609E-02  0.8307430E-01
       -2   -1    0    0    0  501  0.00000000000E+00  0.00000000000E+00  0.71886138304E+03  0.71886138304E+03  0.25500000920E-02 0. -1.
        2   -1    0    0  501    0  0.00000000000E+00  0.00000000000E+00 -0.27005661494E+04  0.27005661494E+04  0.25500000920E-02 0.  1.
    10030    2    1    2    0    0  0.00000000000E+00  0.00000000000E+00 -0.19817047664E+04  0.34194275325E+04  0.27866343263E+04 0.  0.
        1    1    3    3  502    0  0.28888035492E+03 -0.91837145100E+03 -0.22267828543E+04  0.24259884298E+04  0.50400001928E-02 0.  1.
       -1    1    3    3    0  502 -0.28888035492E+03  0.91837145100E+03  0.24507808790E+03  0.99343910264E+03  0.50400001928E-02 0. -1.
</event>
<event>
 5   0  0.2190865E-06  0.2787632E+04  0.7818609E-02  0.8307118E-01
       -1   -1    0    0    0  501  0.00000000000E+00  0.00000000000E+00  0.11093753606E+04  0.11093753606E+04  0.50400001928E-02 0.  1.
        1   -1    0    0  501    0  0.00000000000E+00  0.00000000000E+00 -0.17511867111E+04  0.17511867111E+04  0.50400001928E-02 0. -1.
    10030    2    1    2    0    0  0.00000000000E+00  0.00000000000E+00 -0.64181135051E+03  0.28605620718E+04  0.27876322492E+04 0.  0.
        2    1    3    3  502    0 -0.35924253865E+03 -0.11084573333E+04  0.46395092158E+03  0.12541863175E+04  0.25500000920E-02 0.  1.
       -2    1    3    3    0  502  0.35924253865E+03  0.11084573333E+04 -0.11057622721E+04  0.16063757542E+04  0.25500000920E-02 0. -1.
</event>
<event>
 5   0  0.5584205E-06  0.2827149E+04  0.7818609E-02  0.8294889E-01
        2   -1    0    0  501    0  0.00000000000E+00  0.00000000000E+00  0.13321158138E+04  0.13321158138E+04  0.25500000920E-02 0.  1.
       -2   -1    0    0    0  501  0.00000000000E+00  0.00000000000E+00 -0.15000148570E+04  0.15000148571E+04  0.25500000920E-02 0. -1.
    10030    2    1    2    0    0  0.00000000000E+00  0.00000000000E+00 -0.16789904327E+03  0.28321306708E+04  0.28271494562E+04 0.  0.
        1    1    3    3  502    0 -0.10424707521E+04 -0.63241548986E+03 -0.80040113939E+03  0.14585392023E+04  0.50400001928E-02 0. -1.
       -1    1    3    3    0  502  0.10424707521E+04  0.63241548986E+03  0.63250209612E+03  0.13735914685E+04  0.50400001928E-02 0.  1.
</event>
<event>
 5   0  0.2206967E-06  0.2783062E+04  0.7818609E-02  0.8308546E-01
        1   -1    0    0  501    0  0.00000000000E+00  0.00000000000E+00  0.13060857621E+04  0.13060857621E+04  0.50400001928E-02 0.  1.
       -1   -1    0    0    0  501  0.00000000000E+00  0.00000000000E+00 -0.14825663411E+04  0.14825663412E+04  0.50400001928E-02 0. -1.
    10030    2    1    2    0    0  0.00000000000E+00  0.00000000000E+00 -0.17648057901E+03  0.27886521033E+04  0.27830621909E+04 0.  0.
        5    1    3    3  502    0 -0.81572574032E+03 -0.71328456835E+03 -0.96300772016E+03  0.14496859377E+04  0.46999998093E+01 0. -1.
       -5    1    3    3    0  502  0.81572574032E+03  0.71328456835E+03  0.78652714115E+03  0.13389661656E+04  0.46999998093E+01 0.  1.
</event>
<event>
 5   0  0.2234068E-06  0.2774993E+04  0.7818609E-02  0.8311074E-01
        1   -1    0    0  501    0  0.00000000000E+00  0.00000000000E+00  0.94174933580E+03  0.94174933582E+03  0.50400001928E-02 0.  1.
       -1   -1    0    0    0  501  0.00000000000E+00  0.00000000000E+00 -0.20442241957E+04  0.20442241957E+04  0.50400001928E-02 0. -1.
    10030    2    1    2    0    0  0.00000000000E+00  0.00000000000E+00 -0.11024748599E+04  0.29859735315E+04  0.27749931737E+04 0.  0.
        3    1    3    3  502    0 -0.10681106357E+04  0.40125382955E+03  0.29826819370E+03  0.11793340882E+04  0.10100000352E+00 0.  1.
       -3    1    3    3    0  502  0.10681106357E+04 -0.40125382955E+03 -0.14007430536E+04  0.18066394433E+04  0.10100000352E+00 0. -1.
</event>
<event>
 5   0  0.5546570E-06  0.2818520E+04  0.7818609E-02  0.8297542E-01
       -2   -1    0    0    0  501  0.00000000000E+00  0.00000000000E+00  0.10491835955E+04  0.10491835955E+04  0.25500000920E-02 0.  1.
        2   -1    0    0  501    0  0.00000000000E+00  0.00000000000E+00 -0.18929135151E+04  0.18929135151E+04  0.25500000920E-02 0. -1.
    10030    2    1    2    0    0  0.00000000000E+00  0.00000000000E+00 -0.84372991954E+03  0.29420971106E+04  0.28185200427E+04 0.  0.
        4    1    3    3  502    0  0.88018014199E+03 -0.10790109600E+04 -0.19549150850E+03  0.14061295378E+04  0.12699999809E+01 0. -1.
       -4    1    3    3    0  502 -0.88018014199E+03  0.10790109600E+04 -0.64823841104E+03  0.15359675728E+04  0.12699999809E+01 0.  1.
</event>
<event>
 5   0  0.2277133E-06  0.2542918E+04  0.7818609E-02  0.8387853E-01
        1   -1    0    0  501    0  0.00000000000E+00  0.00000000000E+00  0.22359099319E+04  0.22359099319E+04  0.50400001928E-02 0. -1.
       -1   -1    0    0    0  501  0.00000000000E+00  0.00000000000E+00 -0.72302015050E+03  0.72302015052E+03  0.50400001928E-02 0.  1.
    10030    2    1    2    0    0  0.00000000000E+00  0.00000000000E+00  0.15128897814E+04  0.29589300824E+04  0.25429179582E+04 0.  0.
        1    1    3    3  502    0 -0.15615977949E+03 -0.20256967795E+03  0.22056655430E+04  0.22204460900E+04  0.50400001928E-02 0. -1.
       -1    1    3    3    0  502  0.15615977949E+03  0.20256967795E+03 -0.69277576160E+03  0.73848399240E+03  0.50400001928E-02 0.  1.
</event>
<event>
 5   0  0.5625245E-06  0.2780786E+04  0.7818609E-02  0.8309258E-01
       -2   -1    0    0    0  501  0.00000000000E+00  0.00000000000E+00  0.11331552042E+04  0.11331552042E+04  0.25500000920E-02 0.  1.
        2   -1    0    0  501    0  0.00000000000E+00  0.00000000000E+00 -0.17060262639E+04  0.17060262639E+04  0.25500000920E-02 0. -1.
    10030    2    1    2    0    0  0.00000000000E+00  0.00000000000E+00 -0.57287105968E+03  0.28391814680E+04  0.27807858884E+04 0.  0.
        3    1    3    3  502    0 -0.70100355458E+02 -0.17624027082E+03  0.11198846226E+04  0.11358328534E+04  0.10100000352E+00 0.  1.
       -3    1    3    3    0  502  0.70100355458E+02  0.17624027082E+03 -0.16927556822E+04  0.17033486146E+04  0.10100000352E+00 0. -1.
</event>
<event>
 5   0  0.5625245E-06  0.2713002E+04  0.7818609E-02  0.8330799E-01
       -2   -1    0    0    0  501  0.00000000000E+00  0.00000000000E+00  0.10171722958E+04  0.10171722958E+04  0.25500000920E-02 0. -1.
        2   -1    0    0  501    0  0.00000000000E+00  0.00000000000E+00 -0.18090295268E+04  0.18090295268E+04  0.25500000920E-02 0.  1.
    10030    2    1    2    0    0  0.00000000000E+00  0.00000000000E+00 -0.79185723107E+03  0.28262018226E+04  0.27130018186E+04 0.  0.
        3    1    3    3  502    0  0.11216771397E+04 -0.46055348940E+03 -0.10294358275E+04  0.15905996528E+04  0.10100000352E+00 0.  1.
       -3    1    3    3    0  502 -0.11216771397E+04  0.46055348940E+03  0.23757859643E+03  0.12356021698E+04  0.10100000352E+00 0. -1.
</event>
<event>
 5   0  0.5625245E-06  0.2799060E+04  0.7818609E-02  0.8303560E-01
       -2   -1    0    0    0  501  0.00000000000E+00  0.00000000000E+00  0.16597923544E+04  0.16597923544E+04  0.25500000920E-02 0.  1.
        2   -1    0    0  501    0  0.00000000000E+00  0.00000000000E+00 -0.11800774953E+04  0.11800774953E+04  0.25500000920E-02 0. -1.
    10030    2    1    2    0    0  0.00000000000E+00  0.00000000000E+00  0.47971485903E+03  0.28398698497E+04  0.27990595594E+04 0.  0.
        3    1    3    3  502    0  0.67668394149E+03  0.27250639553E+03  0.14516426212E+04  0.16246314050E+04  0.10100000352E+00 0.  1.
       -3    1    3    3    0  502 -0.67668394149E+03 -0.27250639553E+03 -0.97192776220E+03  0.12152384447E+04  0.10100000352E+00 0. -1.
</event>
<event>
 5   0  0.2190865E-06  0.2796075E+04  0.7818609E-02  0.8304488E-01
        1   -1    0    0  501    0  0.00000000000E+00  0.00000000000E+00  0.15890918310E+04  0.15890918310E+04  0.50400001928E-02 0.  1.
       -1   -1    0    0    0  501  0.00000000000E+00  0.00000000000E+00 -0.12299534704E+04  0.12299534704E+04  0.50400001928E-02 0. -1.
    10030    2    1    2    0    0  0.00000000000E+00  0.00000000000E+00  0.35913836057E+03  0.28190453014E+04  0.27960751151E+04 0.  0.
        2    1    3    3  502    0 -0.13533462159E+04 -0.34775474607E+03  0.22499113454E+03  0.14153092786E+04  0.25500000920E-02 0. -1.
       -2    1    3    3    0  502  0.13533462159E+04  0.34775474607E+03  0.13414722603E+03  0.14037360228E+04  0.25500000920E-02 0.  1.
</event>
<event>
 5   0  0.5866136E-06  0.2798558E+04  0.7818609E-02  0.8303716E-01
        2   -1    0    0  501    0  0.00000000000E+00  0.00000000000E+00  0.13126558387E+04  0.13126558387E+04  0.25500000920E-02 0.  1.
       -2   -1    0    0    0  501  0.00000000000E+00  0.00000000000E+00 -0.14916185438E+04  0.14916185438E+04  0.25500000920E-02 0. -1.
    10030    2    1    2    0    0  0.00000000000E+00  0.00000000000E+00 -0.17896270507E+03  0.28042743825E+04  0.27985580506E+04 0.  0.
        5    1    3    3  502    0  0.28565003636E+03  0.92432802769E+03 -0.11024772633E+04  0.14667843918E+04  0.46999998093E+01 0. -1.
       -5    1    3    3    0  502 -0.28565003636E+03 -0.92432802769E+03  0.92351455822E+03  0.13374899907E+04  0.46999998093E+01 0.  1.
</event>
<event>
 5   0  0.5866136E-06  0.2796243E+04  0.7818609E-02  0.8304436E-01
        2   -1    0    0  501    0  0.00000000000E+00  0.00000000000E+00  0.15029539992E+04  0.15029539992E+04  0.25500000920E-02 0.  1.
       -2   -1    0    0    0  501  0.00000000000E+00  0.00000000000E+00 -0.13006010777E+04  0.13006010777E+04  0.25500000920E-02 0. -1.
    10030    2    1    2    0    0  0.00000000000E+00  0.00000000000E+00  0.20235292149E+03  0.28035550769E+04  0.27962429015E+04 0.  0.
        5    1    3    3  502    0  0.88033339203E+03 -0.65051240091E+03  0.97326032243E+03  0.14647221614E+04  0.46999998093E+01 0.  1.
       -5    1    3    3    0  502 -0.88033339203E+03  0.65051240091E+03 -0.77090740094E+03  0.13388329155E+04  0.46999998093E+01 0. -1.
</event>
<event>
 5   0  0.5546570E-06  0.2804121E+04  0.7818609E-02  0.8301990E-01
        2   -1    0    0  501    0  0.00000000000E+00  0.00000000000E+00  0.73626220573E+03  0.73626220573E+03  0.25500000920E-02 0. -1.
       -2   -1    0    0    0  501  0.00000000000E+00  0.00000000000E+00 -0.26699376206E+04  0.26699376206E+04  0.25500000920E-02 0.  1.
    10030    2    1    2    0    0  0.00000000000E+00  0.00000000000E+00 -0.19336754149E+04  0.34061998264E+04  0.28041213681E+04 0.  0.
        4    1    3    3  502    0 -0.82903957724E+03 -0.31193807842E+03 -0.22870014008E+04  0.24525474523E+04  0.12699999809E+01 0.  1.
       -4    1    3    3    0  502  0.82903957724E+03  0.31193807842E+03  0.35332598591E+03  0.95365237409E+03  0.12699999809E+01 0. -1.
</event>
<event>
 5   0  0.5546570E-06  0.2810502E+04  0.7818609E-02  0.8300015E-01
       -2   -1    0    0    0  501  0.00000000000E+00  0.00000000000E+00  0.83591912094E+03  0.83591912094E+03  0.25500000920E-02 0. -1.
        2   -1    0    0  501    0  0.00000000000E+00  0.00000000000E+00 -0.23623465039E+04  0.23623465039E+04  0.25500000920E-02 0.  1.
    10030    2    1    2    0    0  0.00000000000E+00  0.00000000000E+00 -0.15264273830E+04  0.31982656249E+04  0.28105021707E+04 0.  0.
        4    1    3    3  502    0  0.27929724897E+03  0.33122990630E+02 -0.23299893266E+04  0.23469034835E+04  0.12699999809E+01 0.  1.
       -4    1    3    3    0  502 -0.27929724897E+03 -0.33122990630E+02  0.80356194358E+03  0.85136214143E+03  0.12699999809E+01 0. -1.
</event>
<event>
 5   0  0.2267565E-06  0.2813938E+04  0.7818609E-02  0.8298954E-01
       -1   -1    0    0    0  501  0.00000000000E+00  0.00000000000E+00  0.11294319379E+04  0.11294319379E+04  0.50400001928E-02 0.  1.
        1   -1    0    0  501    0  0.00000000000E+00  0.00000000000E+00 -0.17527061494E+04  0.17527061494E+04  0.50400001928E-02 0. -1.
    10030    2    1    2    0    0  0.00000000000E+00  0.00000000000E+00 -0.62327421150E+03  0.28821380872E+04  0.28139383808E+04 0.  0.
        4    1    3    3  502    0 -0.38004564477E+03  0.73466894285E+03 -0.14773727061E+04  0.16931641602E+04  0.12699999809E+01 0. -1.
       -4    1    3    3    0  502  0.38004564477E+03 -0.73466894285E+03  0.85409849463E+03  0.11889739270E+04  0.12699999809E+01 0.  1.
</event>
<event>
 5   0  0.5625245E-06  0.2779729E+04  0.7818609E-02  0.8309589E-01
        2   -1    0    0  501    0  0.00000000000E+00  0.00000000000E+00  0.22933652575E+04  0.22933652575E+04  0.25500000920E-02 0. -1.
       -2   -1    0    0    0  501  0.00000000000E+00  0.00000000000E+00 -0.84230977038E+03  0.84230977039E+03  0.25500000920E-02 0.  1.
    10030    2    1    2    0    0  0.00000000000E+00  0.00000000000E+00  0.14510554872E+04  0.31356750279E+04  0.27797294570E+04 0.  0.
        3    1    3    3  502    0  0.92995736290E+03 -0.10327194919E+04  0.70314489155E+03  0.15574796931E+04  0.10100000352E+00 0.  1.
       -3    1    3    3    0  502 -0.92995736290E+03  0.10327194919E+04  0.74791059561E+03  0.15781953348E+04  0.10100000352E+00 0. -1.
</event>
<event>
 5   0  0.2267565E-06  0.2793906E+04  0.7818609E-02  0.8305163E-01
       -1   -1    0    0    0  501  0.00000000000E+00  0.00000000000E+00  0.98839165506E+03  0.98839165508E+03  0.50400001928E-02 0.  1.
        1   -1    0    0  501    0  0.00000000000E+00  0.00000000000E+00 -0.19743967303E+04  0.19743967303E+04  0.50400001928E-02 0. -1.
    10030    2    1    2    0    0  0.00000000000E+00  0.00000000000E+00 -0.98600507520E+03  0.29627883853E+04  0.27939056906E+04 0.  0.
        4    1    3    3  502    0 -0.60347688872E+03  0.29535796237E+03  0.80579805045E+03  0.10491581350E+04  0.12699999809E+01 0.  1.
       -4    1    3    3    0  502  0.60347688872E+03 -0.29535796237E+03 -0.17918031257E+04  0.19136302504E+04  0.12699999809E+01 0. -1.
</event>
<event>
 5   0  0.5584205E-06  0.2793692E+04  0.7818609E-02  0.8305229E-01
       -2   -1    0    0    0  501  0.00000000000E+00  0.00000000000E+00  0.13510556907E+04  0.13510556907E+04  0.25500000920E-02 0.  1.
        2   -1    0    0  501    0  0.00000000000E+00  0.00000000000E+00 -0.14441886606E+04  0.14441886606E+04  0.25500000920E-02 0. -1.
    10030    2    1    2    0    0  0.00000000000E+00  0.00000000000E+00 -0.93132969957E+02  0.27952443513E+04  0.27936924014E+04 0.  0.
        1    1    3    3  502    0 -0.18821908412E+03 -0.13512656247E+04 -0.34645635338E+03  0.14076140156E+04  0.50400001928E-02 0.  1.
       -1    1    3    3    0  502  0.18821908412E+03  0.13512656247E+04  0.25332338342E+03  0.13876303357E+04  0.50400001928E-02 0. -1.
</event>
<event>
 5   0  0.5916603E-06  0.2769251E+04  0.7818609E-02  0.8312879E-01
        2   -1    0    0  501    0  0.00000000000E+00  0.00000000000E+00  0.21601379108E+04  0.21601379108E+04  0.25500000920E-02 0.  1.
       -2   -1    0    0    0  501  0.00000000000E+00  0.00000000000E+00 -0.88753049457E+03  0.88753049457E+03  0.25500000920E-02 0. -1.
    10030    2    1    2    0    0  0.00000000000E+00  0.00000000000E+00  0.12726074162E+04  0.30476684054E+04  0.27692513561E+04 0.  0.
        2    1    3    3  502    0 -0.76323587641E+03 -0.10430205858E+04  0.11830038172E+04  0.17521184255E+04  0.25500000920E-02 0. -1.
       -2    1    3    3    0  502  0.76323587641E+03  0.10430205858E+04  0.89603599044E+02  0.12955499799E+04  0.25500000920E-02 0.  1.
</event>
<event>
 5   0  0.2277133E-06  0.2793100E+04  0.7818609E-02  0.8305414E-01
       -1   -1    0    0    0  501  0.00000000000E+00  0.00000000000E+00  0.18095067066E+04  0.18095067066E+04  0.50400001928E-02 0. -1.
        1   -1    0    0  501    0  0.00000000000E+00  0.00000000000E+00 -0.10778361610E+04  0.10778361610E+04  0.50400001928E-02 0.  1.
    10030    2    1    2    0    0  0.00000000000E+00  0.00000000000E+00  0.73167054556E+03  0.28873428676E+04  0.27930998994E+04 0.  0.
        1    1    3    3  502    0  0.41966367370E+03  0.81852792997E+03 -0.72045238324E+03  0.11683994213E+04  0.50400001928E-02 0.  1.
       -1    1    3    3    0  502 -0.41966367370E+03 -0.81852792997E+03  0.14521229288E+04  0.17189434463E+04  0.50400001928E-02 0. -1.
</event>
<event>
 5   0  0.2190865E-06  0.2839280E+04  0.7818609E-02  0.8291176E-01
       -1   -1    0    0    0  501  0.00000000000E+00  0.00000000000E+00  0.15857308480E+04  0.15857308481E+04  0.50400001928E-02 0. -1.
        1   -1    0    0  501    0  0.00000000000E+00  0.00000000000E+00 -0.12709456863E+04  0.12709456863E+04  0.50400001928E-02 0.  1.
    10030    2    1    2    0    0  0.00000000000E+00  0.00000000000E+00  0.31478516174E+03  0.28566765344E+04  0.28392800362E+04 0.  0.
        2    1    3    3  502    0  0.33766433506E+03 -0.11115160408E+03  0.15402248186E+04  0.15807164116E+04  0.25500000920E-02 0. -1.
       -2    1    3    3    0  502 -0.33766433506E+03  0.11115160408E+03 -0.12254396568E+04  0.12759601227E+04  0.25500000920E-02 0.  1.
</event>
<event>
 5   0  0.5546570E-06  0.2822716E+04  0.7818609E-02  0.8296251E-01
        2   -1    0    0  501    0  0.00000000000E+00  0.00000000000E+00  0.15365934856E+04  0.15365934856E+04  0.25500000920E-02 0.  1.
       -2   -1    0    0    0  501  0.00000000000E+00  0.00000000000E+00 -0.12963292839E+04  0.12963292839E+04  0.25500000920E-02 0. -1.
    10030    2    1    2    0    0  0.00000000000E+00  0.00000000000E+00  0.24026420168E+03  0.28329227695E+04  0.28227158078E+04 0.  0.
        4    1    3    3  502    0 -0.97506239450E+03  0.10077208197E+04 -0.40702167488E+02  0.14028208021E+04  0.12699999809E+01 0. -1.
       -4    1    3    3    0  502  0.97506239450E+03 -0.10077208197E+04  0.28096636917E+03  0.14301019674E+04  0.12699999809E+01 0.  1.
</event>
<event>
 5   0  0.5546570E-06  0.2833991E+04  0.7818609E-02  0.8292793E-01
       -2   -1    0    0    0  501  0.00000000000E+00  0.00000000000E+00  0.13116578972E+04  0.13116578972E+04  0.25500000920E-02 0.  1.
        2   -1    0    0  501    0  0.00000000000E+00  0.00000000000E+00 -0.15307925135E+04  0.15307925135E+04  0.25500000920E-02 0. -1.
    10030    2    1    2    0    0  0.00000000000E+00  0.00000000000E+00 -0.21913461627E+03  0.28424504107E+04  0.28339908887E+04 0.  0.
        4    1    3    3  502    0  0.97298303257E+03 -0.10140326290E+04 -0.29153743516E+03  0.14352539300E+04  0.12699999809E+01 0. -1.
       -4    1    3    3    0  502 -0.97298303257E+03  0.10140326290E+04  0.72402818892E+02  0.14071964808E+04  0.12699999809E+01 0.  1.
</event>
<event>
 5   0  0.2267565E-06  0.2796160E+04  0.7818609E-02  0.8304461E-01
        1   -1    0    0  501    0  0.00000000000E+00  0.00000000000E+00  0.15439996262E+04  0.15439996262E+04  0.50400001928E-02 0.  1.
       -1   -1    0    0    0  501  0.00000000000E+00  0.00000000000E+00 -0.12659511087E+04  0.12659511087E+04  0.50400001928E-02 0. -1.
    10030    2    1    2    0    0  0.00000000000E+00  0.00000000000E+00  0.27804851750E+03  0.28099507349E+04  0.27961602519E+04 0.  0.
        4    1    3    3  502    0  0.16770138852E+02 -0.99602100056E+03  0.11248247661E+04  0.15025216932E+04  0.12699999809E+01 0.  1.
       -4    1    3    3    0  502 -0.16770138852E+02  0.99602100056E+03 -0.84677624858E+03  0.13074290417E+04  0.12699999809E+01 0. -1.
</event>
<event>
 5   0  0.2190865E-06  0.2826451E+04  0.7818609E-02  0.8295103E-01
       -1   -1    0    0    0  501  0.00000000000E+00  0.00000000000E+00  0.10456600458E+04  0.10456600458E+04  0.50400001928E-02 0. -1.
        1   -1    0    0  501    0  0.00000000000E+00  0.00000000000E+00 -0.19099951706E+04  0.19099951706E+04  0.50400001928E-02 0.  1.
    10030    2    1    2    0    0  0.00000000000E+00  0.00000000000E+00 -0.86433512479E+03  0.29556552164E+04  0.28264505215E+04 0.  0.
        2    1    3    3  502    0 -0.56555080926E+03  0.59729548099E+03 -0.16338712043E+04  0.18292470368E+04  0.25500000920E-02 0.  1.
       -2    1    3    3    0  502  0.56555080926E+03 -0.59729548099E+03  0.76953607949E+03  0.11264081796E+04  0.25500000920E-02 0. -1.
</event>
<event>
 5   0  0.5866136E-06  0.2824548E+04  0.7818609E-02  0.8295688E-01
       -2   -1    0    0    0  501  0.00000000000E+00  0.00000000000E+00  0.85246954415E+03  0.85246954415E+03  0.25500000920E-02 0.  1.
        2   -1    0    0  501    0  0.00000000000E+00  0.00000000000E+00 -0.23396936775E+04  0.23396936775E+04  0.25500000920E-02 0. -1.
    10030    2    1    2    0    0  0.00000000000E+00  0.00000000000E+00 -0.14872241334E+04  0.31921632217E+04  0.28245478242E+04 0.  0.
        5    1    3    3  502    0 -0.29950160388E+03 -0.18420311004E+03 -0.22894259736E+04  0.23162740285E+04  0.46999998093E+01 0. -1.
       -5    1    3    3    0  502  0.29950160388E+03  0.18420311004E+03  0.80220184017E+03  0.87588919324E+03  0.46999998093E+01 0.  1.
</event>
<event>
 5   0  0.5866136E-06  0.2815945E+04  0.7818609E-02  0.8298335E-01
       -2   -1    0    0    0  501  0.00000000000E+00  0.00000000000E+00  0.63794336339E+03  0.63794336340E+03  0.25500000920E-02 0.  1.
        2   -1    0    0  501    0  0.00000000000E+00  0.00000000000E+00 -0.31074656873E+04  0.31074656873E+04  0.25500000920E-02 0. -1.
    10030    2    1    2    0    0  0.00000000000E+00  0.00000000000E+00 -0.24695223239E+04  0.37454090507E+04  0.28159453917E+04 0.  0.
        5    1    3    3  502    0  0.88615750422E+03  0.10363803065E+04 -0.17012462354E+04  0.21802798228E+04  0.46999998093E+01 0. -1.
       -5    1    3    3    0  502 -0.88615750422E+03 -0.10363803065E+04 -0.76827608853E+03  0.15651292280E+04  0.46999998093E+01 0.  1.
</event>
<event>
 5   0  0.2206967E-06  0.2806637E+04  0.7818609E-02  0.8301211E-01
        1   -1    0    0  501    0  0.00000000000E+00  0.00000000000E+00  0.27667289267E+04  0.27667289267E+04  0.50400001928E-02 0.  1.
       -1   -1    0    0    0  501  0.00000000000E+00  0.00000000000E+00 -0.71178021659E+03  0.71178021660E+03  0.50400001928E-02 0. -1.
    10030    2    1    2    0    0  0.00000000000E+00  0.00000000000E+00  0.20549487101E+04  0.34785091433E+04  0.28066370729E+04 0.  0.
        5    1    3    3  502    0 -0.16918271008E+03 -0.70166025797E+03  0.25190345765E+04  0.26204021055E+04  0.46999998093E+01 0.  1.
       -5    1    3    3    0  502  0.16918271008E+03  0.70166025797E+03 -0.46408586635E+03  0.85810703782E+03  0.46999998093E+01 0. -1.
</event>
<event>
 5   0  0.5916603E-06  0.2802943E+04  0.7818609E-02  0.8302355E-01
       -2   -1    0    0    0  501  0.00000000000E+00  0.00000000000E+00  0.10242633233E+04  0.10242633233E+04  0.25500000920E-02 0. -1.
        2   -1    0    0  501    0  0.00000000000E+00  0.00000000000E+00 -0.19175952384E+04  0.19175952384E+04  0.25500000920E-02 0.  1.
    10030    2    1    2    0    0  0.00000000000E+00  0.00000000000E+00 -0.89333191511E+03  0.29418585618E+04  0.28029430759E+04 0.  0.
        2    1    3    3  502    0  0.37352831356E+02  0.13997274533E+04 -0.38465927002E+03  0.14521001796E+04  0.25500000920E-02 0.  1.
       -2    1    3    3    0  502 -0.37352831356E+02 -0.13997274533E+04 -0.50867264509E+03  0.14897583822E+04  0.25500000920E-02 0. -1.
</event>
<event>
 5   0  0.2267565E-06  0.2790833E+04  0.7818609E-02  0.8306120E-01
        1   -1    0    0  501    0  0.00000000000E+00  0.00000000000E+00  0.17268386599E+04  0.17268386599E+04  0.50400001928E-02 0.  1.
       -1   -1    0    0    0  501  0.00000000000E+00  0.00000000000E+00 -0.11276021700E+04  0.11276021700E+04  0.50400001928E-02 0. -1.
    10030    2    1    2    0    0  0.00000000000E+00  0.00000000000E+00  0.59923648995E+03  0.28544408299E+04  0.27908328650E+04 0.  0.
        4    1    3    3  502    0 -0.10808242788E+04  0.69034249892E+02  0.11995811610E+04  0.16161508048E+04  0.12699999809E+01 0.  1.
       -4    1    3    3    0  502  0.10808242788E+04 -0.69034249892E+02 -0.60034467101E+03  0.12382900251E+04  0.12699999809E+01 0. -1.
</event>
<event>
 5   0  0.5625245E-06  0.2816609E+04  0.7818609E-02  0.8298131E-01
        2   -1    0    0  501    0  0.00000000000E+00  0.00000000000E+00  0.18160348407E+04  0.18160348407E+04  0.25500000920E-02 0.  1.
       -2   -1    0    0    0  501  0.00000000000E+00  0.00000000000E+00 -0.10921162215E+04  0.10921162215E+04  0.25500000920E-02 0. -1.
    10030    2    1    2    0    0  0.00000000000E+00  0.00000000000E+00  0.72391861920E+03  0.29081510622E+04  0.28166086759E+04 0.  0.
        3    1    3    3  502    0 -0.52339799792E+03  0.75374033236E+01 -0.98794190032E+03  0.11180480693E+04  0.10100000352E+00 0. -1.
       -3    1    3    3    0  502  0.52339799792E+03 -0.75374033236E+01  0.17118605195E+04  0.17901029929E+04  0.10100000352E+00 0.  1.
</event>
<event>
 5   0  0.1901375E-06  0.2717038E+04  0.7818609E-02  0.8329498E-01
        4   -1    0    0  501    0  0.00000000000E+00  0.00000000000E+00  0.13458965932E+04  0.13458971923E+04  0.12699999809E+01 0. -1.
       -4   -1    0    0    0  501  0.00000000000E+00  0.00000000000E+00 -0.13712582968E+04  0.13712588849E+04  0.12699999809E+01 0.  1.
    10030    2    1    2    0    0  0.00000000000E+00  0.00000000000E+00 -0.25361703621E+02  0.27171560772E+04  0.27170377127E+04 0.  0.
        4    1    3    3  502    0  0.64119790111E+03  0.17430357564E+02  0.11849243668E+04  0.13473996934E+04  0.12699999809E+01 0. -1.
       -4    1    3    3    0  502 -0.64119790111E+03 -0.17430357564E+02 -0.12102860705E+04  0.13697563838E+04  0.12699999809E+01 0.  1.
</event>
<event>
 5   0  0.5916603E-06  0.2769442E+04  0.7818609E-02  0.8312819E-01
        2   -1    0    0  501    0  0.00000000000E+00  0.00000000000E+00  0.13433551048E+04  0.13433551048E+04  0.25500000920E-02 0.  1.
       -2   -1    0    0    0  501  0.00000000000E+00  0.00000000000E+00 -0.14273608530E+04  0.14273608530E+04  0.25500000920E-02 0. -1.
    10030    2    1    2    0    0  0.00000000000E+00  0.00000000000E+00 -0.84005748240E+02  0.27707159578E+04  0.27694421736E+04 0.  0.
        2    1    3    3  502    0  0.96889034402E+03 -0.64087444517E+02 -0.10296736250E+04  0.14153033149E+04  0.25500000920E-02 0. -1.
       -2    1    3    3    0  502 -0.96889034402E+03  0.64087444517E+02  0.94566787676E+03  0.13554126429E+04  0.25500000920E-02 0.  1.
</event>
<event>
 5   0  0.2234068E-06  0.2794358E+04  0.7818609E-02  0.8305022E-01
       -1   -1    0    0    0  501  0.00000000000E+00  0.00000000000E+00  0.94409590482E+03  0.94409590483E+03  0.50400001928E-02 0. -1.
        1   -1    0    0  501    0  0.00000000000E+00  0.00000000000E+00 -0.20677018254E+04  0.20677018254E+04  0.50400001928E-02 0.  1.
    10030    2    1    2    0    0  0.00000000000E+00  0.00000000000E+00 -0.11236059206E+04  0.30117977302E+04  0.27943577622E+04 0.  0.
        3    1    3    3  502    0  0.98324972813E+03 -0.96333283648E+03 -0.30376018218E+03  0.14096313136E+04  0.10100000352E+00 0. -1.
       -3    1    3    3    0  502 -0.98324972813E+03  0.96333283648E+03 -0.81984573839E+03  0.16021664167E+04  0.10100000352E+00 0.  1.
</event>
<event>
 5   0  0.5916603E-06  0.2805641E+04  0.7818609E-02  0.8301519E-01
       -2   -1    0    0    0  501  0.00000000000E+00  0.00000000000E+00  0.24547319169E+04  0.24547319169E+04  0.25500000920E-02 0. -1.
        2   -1    0    0  501    0  0.00000000000E+00  0.00000000000E+00 -0.80167803332E+03  0.80167803332E+03  0.25500000920E-02 0.  1.
    10030    2    1    2    0    0  0.00000000000E+00  0.00000000000E+00  0.16530538836E+04  0.32564099503E+04  0.28056405012E+04 0.  0.
        2    1    3    3  502    0 -0.10335073307E+04 -0.48092434157E+03 -0.12243969742E+03  0.11464803114E+04  0.25500000920E-02 0.  1.
       -2    1    3    3    0  502  0.10335073307E+04  0.48092434157E+03  0.17754935810E+04  0.21099296389E+04  0.25500000920E-02 0. -1.
</event>
<event>
 5   0  0.2206967E-06  0.2799292E+04  0.7818609E-02  0.8303488E-01
        1   -1    0    0  501    0  0.00000000000E+00  0.00000000000E+00  0.17855694418E+04  0.17855694418E+04  0.50400001928E-02 0.  1.
       -1   -1    0    0    0  501  0.00000000000E+00  0.00000000000E+00 -0.10971339187E+04  0.10971339187E+04  0.50400001928E-02 0. -1.
    10030    2    1    2    0    0  0.00000000000E+00  0.00000000000E+00  0.68843552312E+03  0.28827033605E+04  0.27992919096E+04 0.  0.
        5    1    3    3  502    0  0.40337169318E+03  0.12407706135E+04 -0.17760227651E+03  0.13167327355E+04  0.46999998093E+01 0. -1.
       -5    1    3    3    0  502 -0.40337169318E+03 -0.12407706135E+04  0.86603779963E+03  0.15659706250E+04  0.46999998093E+01 0.  1.
</event>
<event>
 5   0  0.2267565E-06  0.2802768E+04  0.7818609E-02  0.8302409E-01
        1   -1    0    0  501    0  0.00000000000E+00  0.00000000000E+00  0.72612240711E+03  0.72612240713E+03  0.50400001928E-02 0.  1.
       -1   -1    0    0    0  501  0.00000000000E+00  0.00000000000E+00 -0.27046094683E+04  0.27046094683E+04  0.50400001928E-02 0. -1.
    10030    2    1    2    0    0  0.00000000000E+00  0.00000000000E+00 -0.19784870611E+04  0.34307318754E+04  0.28027683011E+04 0.  0.
        4    1    3    3  502    0  0.86682293857E+03  0.57298337830E+03  0.16174474057E+03  0.10515963734E+04  0.12699999809E+01 0.  1.
       -4    1    3    3    0  502 -0.86682293857E+03 -0.57298337830E+03 -0.21402318017E+04  0.23791355019E+04  0.12699999809E+01 0. -1.
</event>
<event>
 5   0  0.5625245E-06  0.2838681E+04  0.7818609E-02  0.8291359E-01
       -2   -1    0    0    0  501  0.00000000000E+00  0.00000000000E+00  0.11061073937E+04  0.11061073937E+04  0.25500000920E-02 0.  1.
        2   -1    0    0  501    0  0.00000000000E+00  0.00000000000E+00 -0.18212768001E+04  0.18212768001E+04  0.25500000920E-02 0. -1.
    10030    2    1    2    0    0  0.00000000000E+00  0.00000000000E+00 -0.71516940639E+03  0.29273841938E+04  0.28386811970E+04 0.  0.
        3    1    3    3  502    0 -0.12964805560E+03 -0.13247720698E+04  0.15045337323E+03  0.13395767552E+04  0.10100000352E+00 0.  1.
       -3    1    3    3    0  502  0.12964805560E+03  0.13247720698E+04 -0.86562277962E+03  0.15878074386E+04  0.10100000352E+00 0. -1.
</event>
<event>
 5   0  0.2234068E-06  0.2824723E+04  0.7818609E-02  0.8295634E-01
       -1   -1    0    0    0  501  0.00000000000E+00  0.00000000000E+00  0.12524296461E+04  0.12524296461E+04  0.50400001928E-02 0.  1.
        1   -1    0    0  501    0  0.00000000000E+00  0.00000000000E+00 -0.15927160327E+04  0.15927160327E+04  0.50400001928E-02 0. -1.
    10030    2    1    2    0    0  0.00000000000E+00  0.00000000000E+00 -0.34028638660E+03  0.28451456788E+04  0.28247228375E+04 0.  0.
        3    1    3    3  502    0  0.74554748965E+03 -0.90371994892E+03 -0.96465168452E+03  0.15175979995E+04  0.10100000352E+00 0. -1.
       -3    1    3    3    0  502 -0.74554748965E+03  0.90371994892E+03  0.62436529792E+03  0.13275476793E+04  0.10100000352E+00 0.  1.
</event>
<event>
 5   0  0.2190865E-06  0.2816956E+04  0.7818609E-02  0.8298024E-01
       -1   -1    0    0    0  501  0.00000000000E+00  0.00000000000E+00  0.99526005163E+03  0.99526005165E+03  0.50400001928E-02 0. -1.
        1   -1    0    0  501    0  0.00000000000E+00  0.00000000000E+00 -0.19932577798E+04  0.19932577798E+04  0.50400001928E-02 0.  1.
    10030    2    1    2    0    0  0.00000000000E+00  0.00000000000E+00 -0.99799772814E+03  0.29885178314E+04  0.28169556907E+04 0.  0.
        2    1    3    3  502    0  0.93877113901E+02  0.61577334621E+03 -0.18391932769E+04  0.19418088568E+04  0.25500000920E-02 0.  1.
       -2    1    3    3    0  502 -0.93877113901E+02 -0.61577334621E+03  0.84119554875E+03  0.10467089747E+04  0.25500000920E-02 0. -1.
</event>
<event>
 5   0  0.2190865E-06  0.2790276E+04  0.7818609E-02  0.8306294E-01
        1   -1    0    0  501    0  0.00000000000E+00  0.00000000000E+00  0.15892947316E+04  0.15892947316E+04  0.50400001928E-02 0. -1.
       -1   -1    0    0    0  501  0.00000000000E+00  0.00000000000E+00 -0.12247005071E+04  0.12247005071E+04  0.50400001928E-02 0.  1.
    10030    2    1    2    0    0  0.00000000000E+00  0.00000000000E+00  0.36459422446E+03  0.28139952387E+04  0.27902760177E+04 0.  0.
        2    1    3    3  502    0  0.78688025299E+03 -0.11484689569E+04  0.27389088523E+03  0.14188649318E+04  0.25500000920E-02 0.  1.
       -2    1    3    3    0  502 -0.78688025299E+03  0.11484689569E+04  0.90703339227E+02  0.13951303069E+04  0.25500000920E-02 0. -1.
</event>
<event>
 5   0  0.5546570E-06  0.2805969E+04  0.7818609E-02  0.8301418E-01
       -2   -1    0    0    0  501  0.00000000000E+00  0.00000000000E+00  0.11978818068E+04  0.11978818068E+04  0.25500000920E-02 0. -1.
        2   -1    0    0  501    0  0.00000000000E+00  0.00000000000E+00 -0.16432047812E+04  0.16432047812E+04  0.25500000920E-02 0.  1.
    10030    2    1    2    0    0  0.00000000000E+00  0.00000000000E+00 -0.44532297443E+03  0.28410865880E+04  0.28059687185E+04 0.  0.
        4    1    3    3  502    0 -0.12047166776E+04  0.52163131679E+03  0.27842828618E+03  0.13420005318E+04  0.12699999809E+01 0. -1.
       -4    1    3    3    0  502  0.12047166776E+04 -0.52163131679E+03 -0.72375126061E+03  0.14990860562E+04  0.12699999809E+01 0.  1.
</event>
<event>
 5   0  0.2277133E-06  0.2812435E+04  0.7818609E-02  0.8299418E-01
        1   -1    0    0  501    0  0.00000000000E+00  0.00000000000E+00  0.16261192847E+04  0.16261192847E+04  0.50400001928E-02 0. -1.
       -1   -1    0    0    0  501  0.00000000000E+00  0.00000000000E+00 -0.12160528495E+04  0.12160528495E+04  0.50400001928E-02 0.  1.
    10030    2    1    2    0    0  0.00000000000E+00  0.00000000000E+00  0.41006643522E+03  0.28421721342E+04  0.28124345253E+04 0.  0.
        1    1    3    3  502    0 -0.20296391108E+03  0.54366866243E+03 -0.10893995698E+04  0.12343262884E+04  0.50400001928E-02 0.  1.
       -1    1    3    3    0  502  0.20296391108E+03 -0.54366866243E+03  0.14994660050E+04  0.16078458458E+04  0.50400001928E-02 0. -1.
</event>
<event>
 5   0  0.2277133E-06  0.2805842E+04  0.7818609E-02  0.8301457E-01
       -1   -1    0    0    0  501  0.00000000000E+00  0.00000000000E+00  0.86996021640E+03  0.86996021642E+03  0.50400001928E-02 0. -1.
        1   -1    0    0  501    0  0.00000000000E+00  0.00000000000E+00 -0.22623870681E+04  0.22623870681E+04  0.50400001928E-02 0.  1.
    10030    2    1    2    0    0  0.00000000000E+00  0.00000000000E+00 -0.13924268517E+04  0.31323472845E+04  0.28058415803E+04 0.  0.
        1    1    3    3  502    0 -0.59965274497E+03  0.93161696573E+03  0.26457093692E+03  0.11390747851E+04  0.50400001928E-02 0. -1.
       -1    1    3    3    0  502  0.59965274497E+03 -0.93161696573E+03 -0.16569977886E+04  0.19932724994E+04  0.50400001928E-02 0.  1.
</event>
<event>
 5   0  0.5866136E-06  0.2979132E+04  0.7818609E-02  0.8249715E-01
        2   -1    0    0  501    0  0.00000000000E+00  0.00000000000E+00  0.20054832997E+04  0.20054832997E+04  0.25500000920E-02 0.  1.
       -2   -1    0    0    0  501  0.00000000000E+00  0.00000000000E+00 -0.11063700912E+04  0.11063700912E+04  0.25500000920E-02 0. -1.
    10030    2    1    2    0    0  0.00000000000E+00  0.00000000000E+00  0.89911320844E+03  0.31118533909E+04  0.29791319146E+04 0.  0.
        5    1    3    3  502    0  0.11844553078E+04 -0.69135687158E+03 -0.15761022129E+03  0.13804969293E+04  0.46999998093E+01 0. -1.
       -5    1    3    3    0  502 -0.11844553078E+04  0.69135687158E+03  0.10567234297E+04  0.17313564616E+04  0.46999998093E+01 0.  1.
</event>
<event>
 5   0  0.5584205E-06  0.2803403E+04  0.7818609E-02  0.8302213E-01
        2   -1    0    0  501    0  0.00000000000E+00  0.00000000000E+00  0.19147644469E+04  0.19147644469E+04  0.25500000920E-02 0. -1.
       -2   -1    0    0    0  501  0.00000000000E+00  0.00000000000E+00 -0.10261142734E+04  0.10261142734E+04  0.25500000920E-02 0.  1.
    10030    2    1    2    0    0  0.00000000000E+00  0.00000000000E+00  0.88865017353E+03  0.29408787203E+04  0.28034030242E+04 0.  0.
        1    1    3    3  502    0 -0.15500148529E+03 -0.31492350694E+03  0.18679156034E+04  0.19006080546E+04  0.50400001928E-02 0. -1.
       -1    1    3    3    0  502  0.15500148529E+03  0.31492350694E+03 -0.97926542988E+03  0.10402706657E+04  0.50400001928E-02 0.  1.
</event>
<event>
 5   0  0.5584205E-06  0.2797284E+04  0.7818609E-02  0.8304112E-01
        2   -1    0    0  501    0  0.00000000000E+00  0.00000000000E+00  0.18678534301E+04  0.18678534301E+04  0.25500000920E-02 0.  1.
       -2   -1    0    0    0  501  0.00000000000E+00  0.00000000000E+00 -0.10472978570E+04  0.10472978570E+04  0.25500000920E-02 0. -1.
    10030    2    1    2    0    0  0.00000000000E+00  0.00000000000E+00  0.82055557314E+03  0.29151512871E+04  0.27972836070E+04 0.  0.
        1    1    3    3  502    0 -0.76897187361E+03 -0.60994669720E+03  0.14486799452E+04  0.17498646517E+04  0.50400001928E-02 0.  1.
       -1    1    3    3    0  502  0.76897187361E+03  0.60994669720E+03 -0.62812437203E+03  0.11652866354E+04  0.50400001928E-02 0. -1.
</event>
<event>
 5   0  0.2234068E-06  0.2799790E+04  0.7818609E-02  0.8303333E-01
       -1   -1    0    0    0  501  0.00000000000E+00  0.00000000000E+00  0.10446435422E+04  0.10446435422E+04  0.50400001928E-02 0. -1.
        1   -1    0    0  501    0  0.00000000000E+00  0.00000000000E+00 -0.18759572844E+04  0.18759572844E+04  0.50400001928E-02 0.  1.
    10030    2    1    2    0    0  0.00000000000E+00  0.00000000000E+00 -0.83131374222E+03  0.29206008267E+04  0.27997904655E+04 0.  0.
        3    1    3    3  502    0  0.14158788584E+03  0.13620138928E+04 -0.11228552763E+03  0.13739494254E+04  0.10100000352E+00 0. -1.
       -3    1    3    3    0  502 -0.14158788584E+03 -0.13620138928E+04 -0.71902821459E+03  0.15466514013E+04  0.10100000352E+00 0.  1.
</event>
<event>
 5   0  0.5866136E-06  0.2800648E+04  0.7818609E-02  0.8303067E-01
       -2   -1    0    0    0  501  0.00000000000E+00  0.00000000000E+00  0.14762698987E+04  0.14762698987E+04  0.25500000920E-02 0. -1.
        2   -1    0    0  501    0  0.00000000000E+00  0.00000000000E+00 -0.13282855533E+04  0.13282855533E+04  0.25500000920E-02 0.  1.
    10030    2    1    2    0    0  0.00000000000E+00  0.00000000000E+00  0.14798434537E+03  0.28045554520E+04  0.28006484815E+04 0.  0.
        5    1    3    3  502    0  0.58792120298E+03  0.12405696781E+04 -0.20247524280E+03  0.13876897280E+04  0.46999998093E+01 0. -1.
       -5    1    3    3    0  502 -0.58792120298E+03 -0.12405696781E+04  0.35045958817E+03  0.14168657241E+04  0.46999998093E+01 0.  1.
</event>
<event>
 5   0  0.5916603E-06  0.2796628E+04  0.7818609E-02  0.8304316E-01
       -2   -1    0    0    0  501  0.00000000000E+00  0.00000000000E+00  0.79698586697E+03  0.79698586697E+03  0.25500000920E-02 0. -1.
        2   -1    0    0  501    0  0.00000000000E+00  0.00000000000E+00 -0.24533467757E+04  0.24533467757E+04  0.25500000920E-02 0.  1.
    10030    2    1    2    0    0  0.00000000000E+00  0.00000000000E+00 -0.16563609087E+04  0.32503326427E+04  0.27966284752E+04 0.  0.
        2    1    3    3  502    0 -0.52437237234E+02 -0.88360628896E+02 -0.24489534128E+04  0.24511079296E+04  0.25500000920E-02 0.  1.
       -2    1    3    3    0  502  0.52437237234E+02  0.88360628896E+02  0.79259250402E+03  0.79922471310E+03  0.25500000920E-02 0. -1.
</event>
<event>
 5   0  0.2206967E-06  0.2843357E+04  0.7818609E-02  0.8289933E-01
       -1   -1    0    0    0  501  0.00000000000E+00  0.00000000000E+00  0.19663758805E+04  0.19663758805E+04  0.50400001928E-02 0.  1.
        1   -1    0    0  501    0  0.00000000000E+00  0.00000000000E+00 -0.10278652726E+04  0.10278652727E+04  0.50400001928E-02 0. -1.
    10030    2    1    2    0    0  0.00000000000E+00  0.00000000000E+00  0.93851060783E+03  0.29942411531E+04  0.28433568053E+04 0.  0.
        5    1    3    3  502    0  0.33505423703E+03  0.10225830366E+04 -0.50913837991E+03  0.11904542782E+04  0.46999998093E+01 0. -1.
       -5    1    3    3    0  502 -0.33505423703E+03 -0.10225830366E+04  0.14476489877E+04  0.18037868749E+04  0.46999998093E+01 0.  1.
</event>
<event>
 5   0  0.5584205E-06  0.2796215E+04  0.7818609E-02  0.8304444E-01
        2   -1    0    0  501    0  0.00000000000E+00  0.00000000000E+00  0.12366102552E+04  0.12366102552E+04  0.25500000920E-02 0. -1.
       -2   -1    0    0    0  501  0.00000000000E+00  0.00000000000E+00 -0.15806955448E+04  0.15806955448E+04  0.25500000920E-02 0.  1.
    10030    2    1    2    0    0  0.00000000000E+00  0.00000000000E+00 -0.34408528956E+03  0.28173058000E+04  0.27962148137E+04 0.  0.
        1    1    3    3  502    0 -0.17076713109E+02 -0.11493887671E+04  0.62977282476E+03  0.13107249761E+04  0.50400001928E-02 0. -1.
       -1    1    3    3    0  502  0.17076713109E+02  0.11493887671E+04 -0.97385811432E+03  0.15065808239E+04  0.50400001928E-02 0.  1.
</event>
<event>
 5   0  0.5546570E-06  0.2947165E+04  0.7818609E-02  0.8258981E-01
       -2   -1    0    0    0  501  0.00000000000E+00  0.00000000000E+00  0.82289291045E+03  0.82289291045E+03  0.25500000920E-02 0.  1.
        2   -1    0    0  501    0  0.00000000000E+00  0.00000000000E+00 -0.26387939738E+04  0.26387939738E+04  0.25500000920E-02 0. -1.
    10030    2    1    2    0    0  0.00000000000E+00  0.00000000000E+00 -0.18159010634E+04  0.34616868843E+04  0.29471646396E+04 0.  0.
        4    1    3    3  502    0  0.94491036694E+03 -0.54638216667E+03 -0.20707596387E+04  0.23408195505E+04  0.12699999809E+01 0. -1.
       -4    1    3    3    0  502 -0.94491036694E+03  0.54638216667E+03  0.25485857538E+03  0.11208673338E+04  0.12699999809E+01 0.  1.
</event>
<event>
 5   0  0.5584205E-06  0.2794062E+04  0.7818609E-02  0.8305114E-01
        2   -1    0    0  501    0  0.00000000000E+00  0.00000000000E+00  0.13329585858E+04  0.13329585858E+04  0.25500000920E-02 0. -1.
       -2   -1    0    0    0  501  0.00000000000E+00  0.00000000000E+00 -0.14641830464E+04  0.14641830464E+04  0.25500000920E-02 0.  1.
    10030    2    1    2    0    0  0.00000000000E+00  0.00000000000E+00 -0.13122446061E+03  0.27971416322E+04  0.27940618196E+04 0.  0.
        1    1    3    3  502    0 -0.11420464255E+04  0.28445143572E+03  0.68788779932E+03  0.13632212886E+04  0.50400001928E-02 0. -1.
       -1    1    3    3    0  502  0.11420464255E+04 -0.28445143572E+03 -0.81911225993E+03  0.14339203436E+04  0.50400001928E-02 0.  1.
</event>
<event>
 5   0  0.5916603E-06  0.2782487E+04  0.7818609E-02  0.8308726E-01
       -2   -1    0    0    0  501  0.00000000000E+00  0.00000000000E+00  0.74309987148E+03  0.74309987148E+03  0.25500000920E-02 0. -1.
        2   -1    0    0  501    0  0.00000000000E+00  0.00000000000E+00 -0.26047080291E+04  0.26047080291E+04  0.25500000920E-02 0.  1.
    10030    2    1    2    0    0  0.00000000000E+00  0.00000000000E+00 -0.18616081576E+04  0.33478079006E+04  0.27824868026E+04 0.  0.
        2    1    3    3  502    0 -0.21865429627E+03  0.47385673545E+03  0.62087083150E+03  0.81106750424E+03  0.25500000920E-02 0. -1.
       -2    1    3    3    0  502  0.21865429627E+03 -0.47385673545E+03 -0.24824789891E+04  0.25367403963E+04  0.25500000920E-02 0.  1.
</event>
<event>
 5   0  0.2190865E-06  0.2806501E+04  0.7818609E-02  0.8301253E-01
       -1   -1    0    0    0  501  0.00000000000E+00  0.00000000000E+00  0.88776498816E+03  0.88776498818E+03  0.50400001928E-02 0. -1.
        1   -1    0    0  501    0  0.00000000000E+00  0.00000000000E+00 -0.22180549049E+04  0.22180549049E+04  0.50400001928E-02 0.  1.
    10030    2    1    2    0    0  0.00000000000E+00  0.00000000000E+00 -0.13302899168E+04  0.31058198931E+04  0.28065006584E+04 0.  0.
        2    1    3    3  502    0  0.13501039935E+04 -0.56856362620E+02 -0.24651724794E+03  0.13736026328E+04  0.25500000920E-02 0. -1.
       -2    1    3    3    0  502 -0.13501039935E+04  0.56856362620E+02 -0.10837726688E+04  0.17322172603E+04  0.25500000920E-02 0.  1.
</event>
<event>
 5   0  0.2190865E-06  0.2797886E+04  0.7818609E-02  0.8303925E-01
        1   -1    0    0  501    0  0.00000000000E+00  0.00000000000E+00  0.19355342956E+04  0.19355342956E+04  0.50400001928E-02 0.  1.
       -1   -1    0    0    0  501  0.00000000000E+00  0.00000000000E+00 -0.10111120408E+04  0.10111120408E+04  0.50400001928E-02 0. -1.
    10030    2    1    2    0    0  0.00000000000E+00  0.00000000000E+00  0.92442225485E+03  0.29466463364E+04  0.27978863677E+04 0.  0.
        2    1    3    3  502    0 -0.61691514723E+03 -0.12489765953E+04  0.59755538161E+03  0.15157833844E+04  0.25500000920E-02 0.  1.
       -2    1    3    3    0  502  0.61691514723E+03  0.12489765953E+04  0.32686687324E+03  0.14308629519E+04  0.25500000920E-02 0. -1.
</event>
<event>
 5   0  0.5584205E-06  0.2792237E+04  0.7818609E-02  0.8305682E-01
       -2   -1    0    0    0  501  0.00000000000E+00  0.00000000000E+00  0.15156653653E+04  0.15156653653E+04  0.25500000920E-02 0. -1.
        2   -1    0    0  501    0  0.00000000000E+00  0.00000000000E+00 -0.12860010578E+04  0.12860010578E+04  0.25500000920E-02 0.  1.
    10030    2    1    2    0    0  0.00000000000E+00  0.00000000000E+00  0.22966430750E+03  0.28016664231E+04  0.27922372844E+04 0.  0.
        1    1    3    3  502    0 -0.92868733229E+03 -0.10400310312E+04  0.43722838031E+02  0.13950040837E+04  0.50400001928E-02 0.  1.
       -1    1    3    3    0  502  0.92868733229E+03  0.10400310312E+04  0.18594146947E+03  0.14066623394E+04  0.50400001928E-02 0. -1.
</event>
<event>
 5   0  0.2234068E-06  0.2771089E+04  0.7818609E-02  0.8312301E-01
       -1   -1    0    0    0  501  0.00000000000E+00  0.00000000000E+00  0.84244127278E+03  0.84244127279E+03  0.50400001928E-02 0. -1.
        1   -1    0    0  501    0  0.00000000000E+00  0.00000000000E+00 -0.22787740170E+04  0.22787740170E+04  0.50400001928E-02 0.  1.
    10030    2    1    2    0    0  0.00000000000E+00  0.00000000000E+00 -0.14363327443E+04  0.31212152898E+04  0.27710887992E+04 0.  0.
        3    1    3    3  502    0  0.67048103042E+03 -0.29749099076E+03 -0.20421365667E+04  0.21698772935E+04  0.10100000352E+00 0.  1.
       -3    1    3    3    0  502 -0.67048103042E+03  0.29749099076E+03  0.60580382244E+03  0.95133799631E+03  0.10100000352E+00 0. -1.
</event>
<event>
 5   0  0.2206967E-06  0.2797919E+04  0.7818609E-02  0.8303915E-01
        1   -1    0    0  501    0  0.00000000000E+00  0.00000000000E+00  0.15431329831E+04  0.15431329832E+04  0.50400001928E-02 0.  1.
       -1   -1    0    0    0  501  0.00000000000E+00  0.00000000000E+00 -0.12682557300E+04  0.12682557300E+04  0.50400001928E-02 0. -1.
    10030    2    1    2    0    0  0.00000000000E+00  0.00000000000E+00  0.27487725311E+03  0.28113887132E+04  0.27979186894E+04 0.  0.
        5    1    3    3  502    0 -0.10546506927E+04  0.43934449839E+03 -0.67376052763E+03  0.13263811708E+04  0.46999998093E+01 0. -1.
       -5    1    3    3    0  502  0.10546506927E+04 -0.43934449839E+03  0.94863778074E+03  0.14850075424E+04  0.46999998093E+01 0.  1.
</event>
<event>
 5   0  0.5584205E-06  0.2791311E+04  0.7818609E-02  0.8305971E-01
       -2   -1    0    0    0  501  0.00000000000E+00  0.00000000000E+00  0.12868878516E+04  0.12868878516E+04  0.25500000920E-02 0.  1.
        2   -1    0    0  501    0  0.00000000000E+00  0.00000000000E+00 -0.15136164151E+04  0.15136164151E+04  0.25500000920E-02 0. -1.
    10030    2    1    2    0    0  0.00000000000E+00  0.00000000000E+00 -0.22672856350E+03  0.28005042666E+04  0.27913112162E+04 0.  0.
        1    1    3    3  502    0  0.15564090305E+03  0.10139159264E+04 -0.10628451710E+04  0.14771220173E+04  0.50400001928E-02 0. -1.
       -1    1    3    3    0  502 -0.15564090305E+03 -0.10139159264E+04  0.83611660748E+03  0.13233822493E+04  0.50400001928E-02 0.  1.
</event>
<event>
 5   0  0.2267565E-06  0.2799088E+04  0.7818609E-02  0.8303552E-01
       -1   -1    0    0    0  501  0.00000000000E+00  0.00000000000E+00  0.15066294097E+04  0.15066294097E+04  0.50400001928E-02 0. -1.
        1   -1    0    0  501    0  0.00000000000E+00  0.00000000000E+00 -0.13000696093E+04  0.13000696093E+04  0.50400001928E-02 0.  1.
    10030    2    1    2    0    0  0.00000000000E+00  0.00000000000E+00  0.20655980046E+03  0.28066990190E+04  0.27990877857E+04 0.  0.
        4    1    3    3  502    0 -0.44626134395E+03  0.12373949611E+04 -0.37595905031E+03  0.13680797847E+04  0.12699999809E+01 0. -1.
       -4    1    3    3    0  502  0.44626134395E+03 -0.12373949611E+04  0.58251885077E+03  0.14386192343E+04  0.12699999809E+01 0.  1.
</event>
<event>
 5   0  0.5916603E-06  0.2800848E+04  0.7818609E-02  0.8303005E-01
       -2   -1    0    0    0  501  0.00000000000E+00  0.00000000000E+00  0.10527182237E+04  0.10527182237E+04  0.25500000920E-02 0.  1.
        2   -1    0    0  501    0  0.00000000000E+00  0.00000000000E+00 -0.18629746005E+04  0.18629746005E+04  0.25500000920E-02 0. -1.
    10030    2    1    2    0    0  0.00000000000E+00  0.00000000000E+00 -0.81025637674E+03  0.29156928242E+04  0.28008479518E+04 0.  0.
        2    1    3    3  502    0  0.95962382401E+03 -0.55846548993E+02  0.65505647924E+03  0.11632264232E+04  0.25500000920E-02 0.  1.
       -2    1    3    3    0  502 -0.95962382401E+03  0.55846548993E+02 -0.14653128560E+04  0.17524664010E+04  0.25500000920E-02 0. -1.
</event>
<event>
 5   0  0.2277133E-06  0.2791688E+04  0.7818609E-02  0.8305854E-01
       -1   -1    0    0    0  501  0.00000000000E+00  0.00000000000E+00  0.19241021947E+04  0.19241021947E+04  0.50400001928E-02 0. -1.
        1   -1    0    0  501    0  0.00000000000E+00  0.00000000000E+00 -0.10126177678E+04  0.10126177678E+04  0.50400001928E-02 0.  1.
    10030    2    1    2    0    0  0.00000000000E+00  0.00000000000E+00  0.91148442690E+03  0.29367199625E+04  0.27916877114E+04 0.  0.
        1    1    3    3  502    0 -0.43925343736E+03 -0.23526555303E+03  0.18273540476E+04  0.18940739896E+04  0.50400001928E-02 0. -1.
       -1    1    3    3    0  502  0.43925343736E+03  0.23526555303E+03 -0.91586962073E+03  0.10426459729E+04  0.50400001928E-02 0.  1.
</event>
<event>
 5   0  0.2277133E-06  0.2780900E+04  0.7818609E-02  0.8309223E-01
        1   -1    0    0  501    0  0.00000000000E+00  0.00000000000E+00  0.30799594337E+04  0.30799594337E+04  0.50400001928E-02 0. -1.
       -1   -1    0    0    0  501  0.00000000000E+00  0.00000000000E+00 -0.62771975869E+03  0.62771975871E+03  0.50400001928E-02 0.  1.
    10030    2    1    2    0    0  0.00000000000E+00  0.00000000000E+00  0.24522396750E+04  0.37076791924E+04  0.27809001367E+04 0.  0.
        1    1    3    3  502    0 -0.89117969968E+03  0.10221318338E+04  0.16357529418E+04  0.21247687943E+04  0.50400001928E-02 0.  1.
       -1    1    3    3    0  502  0.89117969968E+03 -0.10221318338E+04  0.81648673322E+03  0.15829103981E+04  0.50400001928E-02 0. -1.
</event>
<event>
 5   0  0.5866136E-06  0.2791946E+04  0.7818609E-02  0.8305773E-01
        2   -1    0    0  501    0  0.00000000000E+00  0.00000000000E+00  0.16423368864E+04  0.16423368864E+04  0.25500000920E-02 0.  1.
       -2   -1    0    0    0  501  0.00000000000E+00  0.00000000000E+00 -0.11865657954E+04  0.11865657954E+04  0.25500000920E-02 0. -1.
    10030    2    1    2    0    0  0.00000000000E+00  0.00000000000E+00  0.45577109097E+03  0.28289026818E+04  0.27919461126E+04 0.  0.
        5    1    3    3  502    0 -0.15553284413E+03 -0.92426108556E+03  0.12761179559E+04  0.15833345027E+04  0.46999998093E+01 0.  1.
       -5    1    3    3    0  502  0.15553284413E+03  0.92426108556E+03 -0.82034686496E+03  0.12455681791E+04  0.46999998093E+01 0. -1.
</event>
<event>
 5   0  0.2234068E-06  0.2487710E+04  0.7818609E-02  0.8407377E-01
        1   -1    0    0  501    0  0.00000000000E+00  0.00000000000E+00  0.14817987391E+04  0.14817987391E+04  0.50400001928E-02 0.  1.
       -1   -1    0    0    0  501  0.00000000000E+00  0.00000000000E+00 -0.10441196945E+04  0.10441196945E+04  0.50400001928E-02 0. -1.
    10030    2    1    2    0    0  0.00000000000E+00  0.00000000000E+00  0.43767904458E+03  0.25259184336E+04  0.24877099885E+04 0.  0.
        3    1    3    3  502    0 -0.85876524391E+03  0.42291146869E+03  0.10252949108E+04  0.14026979428E+04  0.10100000352E+00 0.  1.
       -3    1    3    3    0  502  0.85876524391E+03 -0.42291146869E+03 -0.58761586619E+03  0.11232204908E+04  0.10100000352E+00 0. -1.
</event>
<event>
 5   0  0.2206967E-06  0.2795635E+04  0.7818609E-02  0.8304625E-01
       -1   -1    0    0    0  501  0.00000000000E+00  0.00000000000E+00  0.22148787411E+04  0.22148787411E+04  0.50400001928E-02 0.  1.
        1   -1    0    0  501    0  0.00000000000E+00  0.00000000000E+00 -0.88216724216E+03  0.88216724218E+03  0.50400001928E-02 0. -1.
    10030    2    1    2    0    0  0.00000000000E+00  0.00000000000E+00  0.13327114989E+04  0.30970459833E+04  0.27956347907E+04 0.  0.
        5    1    3    3  502    0  0.36181550041E+03  0.25754938352E+03  0.21346302984E+04  0.21803464729E+04  0.46999998093E+01 0.  1.
       -5    1    3    3    0  502 -0.36181550041E+03 -0.25754938352E+03 -0.80191879947E+03  0.91669951032E+03  0.46999998093E+01 0. -1.
</event>
<event>
 5   0  0.5916603E-06  0.2825115E+04  0.7818609E-02  0.8295513E-01
       -2   -1    0    0    0  501  0.00000000000E+00  0.00000000000E+00  0.69628121141E+03  0.69628121141E+03  0.25500000920E-02 0.  1.
        2   -1    0    0  501    0  0.00000000000E+00  0.00000000000E+00 -0.28656800896E+04  0.28656800896E+04  0.25500000920E-02 0. -1.
    10030    2    1    2    0    0  0.00000000000E+00  0.00000000000E+00 -0.21693988782E+04  0.35619613010E+04  0.28251153635E+04 0.  0.
        2    1    3    3  502    0  0.68916416686E+03 -0.73212201103E+03  0.16622778372E+03  0.10191082200E+04  0.25500000920E-02 0.  1.
       -2    1    3    3    0  502 -0.68916416686E+03  0.73212201103E+03 -0.23356266619E+04  0.25428530810E+04  0.25500000920E-02 0. -1.
</event>
<event>
 5   0  0.5546570E-06  0.2793436E+04  0.7818609E-02  0.8305309E-01
       -2   -1    0    0    0  501  0.00000000000E+00  0.00000000000E+00  0.17989633101E+04  0.17989633101E+04  0.25500000920E-02 0. -1.
        2   -1    0    0  501    0  0.00000000000E+00  0.00000000000E+00 -0.10844138511E+04  0.10844138511E+04  0.25500000920E-02 0.  1.
    10030    2    1    2    0    0  0.00000000000E+00  0.00000000000E+00  0.71454945894E+03  0.28833771612E+04  0.27934356847E+04 0.  0.
        4    1    3    3  502    0  0.79996209296E+03 -0.12183782294E+03  0.15323649038E+04  0.17328957316E+04  0.12699999809E+01 0. -1.
       -4    1    3    3    0  502 -0.79996209296E+03  0.12183782294E+03 -0.81781544481E+03  0.11504814296E+04  0.12699999809E+01 0.  1.
</event>
<event>
 5   0  0.2234068E-06  0.2794915E+04  0.7818609E-02  0.8304849E-01
       -1   -1    0    0    0  501  0.00000000000E+00  0.00000000000E+00  0.10897563424E+04  0.10897563425E+04  0.50400001928E-02 0.  1.
        1   -1    0    0  501    0  0.00000000000E+00  0.00000000000E+00 -0.17920405888E+04  0.17920405888E+04  0.50400001928E-02 0. -1.
    10030    2    1    2    0    0  0.00000000000E+00  0.00000000000E+00 -0.70228424640E+03  0.28817969313E+04  0.27949150954E+04 0.  0.
        3    1    3    3  502    0 -0.13677855734E+04 -0.21637965101E+03 -0.15761072184E+03  0.13937355123E+04  0.10100000352E+00 0. -1.
       -3    1    3    3    0  502  0.13677855734E+04  0.21637965101E+03 -0.54467352455E+03  0.14880614190E+04  0.10100000352E+00 0.  1.
</event>
<event>
 5   0  0.5916603E-06  0.2824420E+04  0.7818609E-02  0.8295727E-01
       -2   -1    0    0    0  501  0.00000000000E+00  0.00000000000E+00  0.82761731409E+03  0.82761731409E+03  0.25500000920E-02 0.  1.
        2   -1    0    0  501    0  0.00000000000E+00  0.00000000000E+00 -0.24097342374E+04  0.24097342374E+04  0.25500000920E-02 0. -1.
    10030    2    1    2    0    0  0.00000000000E+00  0.00000000000E+00 -0.15821169234E+04  0.32373515515E+04  0.28244204908E+04 0.  0.
        2    1    3    3  502    0 -0.12932458887E+04  0.25456042252E+03 -0.20993171056E+03  0.13346749643E+04  0.25500000920E-02 0.  1.
       -2    1    3    3    0  502  0.12932458887E+04 -0.25456042252E+03 -0.13721852128E+04  0.19026765872E+04  0.25500000920E-02 0. -1.
</event>
<event>
 5   0  0.5546570E-06  0.2775449E+04  0.7818609E-02  0.8310931E-01
       -2   -1    0    0    0  501  0.00000000000E+00  0.00000000000E+00  0.14562738996E+04  0.14562738996E+04  0.25500000920E-02 0. -1.
        2   -1    0    0  501    0  0.00000000000E+00  0.00000000000E+00 -0.13224018853E+04  0.13224018853E+04  0.25500000920E-02 0.  1.
    10030    2    1    2    0    0  0.00000000000E+00  0.00000000000E+00  0.13387201426E+03  0.27786757849E+04  0.27754490450E+04 0.  0.
        4    1    3    3  502    0  0.87808614581E+03 -0.36094912723E+03 -0.94639594366E+03  0.13405172311E+04  0.12699999809E+01 0.  1.
       -4    1    3    3    0  502 -0.87808614581E+03  0.36094912723E+03  0.10802679579E+04  0.14381585537E+04  0.12699999809E+01 0. -1.
</event>
<event>
 5   0  0.5625245E-06  0.2811941E+04  0.7818609E-02  0.8299571E-01
       -2   -1    0    0    0  501  0.00000000000E+00  0.00000000000E+00  0.13360151924E+04  0.13360151924E+04  0.25500000920E-02 0.  1.
        2   -1    0    0  501    0  0.00000000000E+00  0.00000000000E+00 -0.14795882326E+04  0.14795882326E+04  0.25500000920E-02 0. -1.
    10030    2    1    2    0    0  0.00000000000E+00  0.00000000000E+00 -0.14357304015E+03  0.28156034250E+04  0.28119405095E+04 0.  0.
        3    1    3    3  502    0 -0.78128939037E+03  0.11684070449E+04 -0.37621509623E+02  0.14060595728E+04  0.10100000352E+00 0.  1.
       -3    1    3    3    0  502  0.78128939037E+03 -0.11684070449E+04 -0.10595153052E+03  0.14095438521E+04  0.10100000352E+00 0. -1.
</event>
<event>
 5   0  0.2206967E-06  0.2799708E+04  0.7818609E-02  0.8303359E-01
       -1   -1    0    0    0  501  0.00000000000E+00  0.00000000000E+00  0.10137903658E+04  0.10137903658E+04  0.50400001928E-02 0.  1.
        1   -1    0    0  501    0  0.00000000000E+00  0.00000000000E+00 -0.19329360077E+04  0.19329360077E+04  0.50400001928E-02 0. -1.
    10030    2    1    2    0    0  0.00000000000E+00  0.00000000000E+00 -0.91914564188E+03  0.29467263735E+04  0.27997084864E+04 0.  0.
        5    1    3    3  502    0  0.84258314203E+03 -0.84195466675E+03 -0.12335346783E+04  0.17147780920E+04  0.46999998093E+01 0. -1.
       -5    1    3    3    0  502 -0.84258314203E+03  0.84195466675E+03  0.31438903642E+03  0.12319482815E+04  0.46999998093E+01 0.  1.
</event>
<event>
 5   0  0.5916603E-06  0.2810652E+04  0.7818609E-02  0.8299969E-01
       -2   -1    0    0    0  501  0.00000000000E+00  0.00000000000E+00  0.10580516069E+04  0.10580516069E+04  0.25500000920E-02 0.  1.
        2   -1    0    0  501    0  0.00000000000E+00  0.00000000000E+00 -0.18665824898E+04  0.18665824898E+04  0.25500000920E-02 0. -1.
    10030    2    1    2    0    0  0.00000000000E+00  0.00000000000E+00 -0.80853088292E+03  0.29246340966E+04  0.28106515989E+04 0.  0.
        2    1    3    3  502    0  0.13073096622E+03 -0.88238413435E+03 -0.15342360451E+04  0.17747035212E+04  0.25500000920E-02 0. -1.
       -2    1    3    3    0  502 -0.13073096622E+03  0.88238413435E+03  0.72570516213E+03  0.11499305755E+04  0.25500000920E-02 0.  1.
</event>
<event>
 5   0  0.1901375E-06  0.2797224E+04  0.7818609E-02  0.8304131E-01
        3   -1    0    0  501    0  0.00000000000E+00  0.00000000000E+00  0.11515815779E+04  0.11515815823E+04  0.10100000352E+00 0. -1.
       -3   -1    0    0    0  501  0.00000000000E+00  0.00000000000E+00 -0.16986339096E+04  0.16986339126E+04  0.10100000352E+00 0.  1.
    10030    2    1    2    0    0  0.00000000000E+00  0.00000000000E+00 -0.54705233171E+03  0.28502154949E+04  0.27972240013E+04 0.  0.
        5    1    3    3  502    0 -0.53927450759E+02 -0.13526498549E+04 -0.63164362029E+03  0.14938425462E+04  0.46999998093E+01 0.  1.
       -5    1    3    3    0  502  0.53927450759E+02  0.13526498549E+04  0.84591288582E+02  0.13563729487E+04  0.46999998093E+01 0. -1.
</event>
<event>
 5   0  0.2267565E-06  0.2807559E+04  0.7818609E-02  0.8300926E-01
       -1   -1    0    0    0  501  0.00000000000E+00  0.00000000000E+00  0.11789858412E+04  0.11789858412E+04  0.50400001928E-02 0. -1.
        1   -1    0    0  501    0  0.00000000000E+00  0.00000000000E+00 -0.16714335580E+04  0.16714335580E+04  0.50400001928E-02 0.  1.
    10030    2    1    2    0    0  0.00000000000E+00  0.00000000000E+00 -0.49244771676E+03  0.28504193993E+04  0.28075587256E+04 0.  0.
        4    1    3    3  502    0 -0.33596633165E+03  0.13497754411E+04 -0.43839572100E+03  0.14584099350E+04  0.12699999809E+01 0.  1.
       -4    1    3    3    0  502  0.33596633165E+03 -0.13497754411E+04 -0.54051995765E+02  0.13920094643E+04  0.12699999809E+01 0. -1.
</event>
<event>
 5   0  0.5916603E-06  0.2802812E+04  0.7818609E-02  0.8302396E-01
        2   -1    0    0  501    0  0.00000000000E+00  0.00000000000E+00  0.26559076406E+04  0.26559076406E+04  0.25500000920E-02 0. -1.
       -2   -1    0    0    0  501  0.00000000000E+00  0.00000000000E+00 -0.73946061404E+03  0.73946061405E+03  0.25500000920E-02 0.  1.
    10030    2    1    2    0    0  0.00000000000E+00  0.00000000000E+00  0.19164470266E+04  0.33953682547E+04  0.28028122269E+04 0.  0.
        2    1    3    3  502    0 -0.13278987316E+04  0.44042162134E+03  0.10570325604E+04  0.17534548981E+04  0.25500000920E-02 0.  1.
       -2    1    3    3    0  502  0.13278987316E+04 -0.44042162134E+03  0.85941446619E+03  0.16419133566E+04  0.25500000920E-02 0. -1.
</event>
<event>
 5   0  0.2206967E-06  0.2802636E+04  0.7818609E-02  0.8302450E-01
       -1   -1    0    0    0  501  0.00000000000E+00  0.00000000000E+00  0.96706735684E+03  0.96706735685E+03  0.50400001928E-02 0.  1.
        1   -1    0    0  501    0  0.00000000000E+00  0.00000000000E+00 -0.20305645400E+04  0.20305645400E+04  0.50400001928E-02 0. -1.
    10030    2    1    2    0    0  0.00000000000E+00  0.00000000000E+00 -0.10634971831E+04  0.29976318968E+04  0.28026363893E+04 0.  0.
        5    1    3    3  502    0  0.84013819868E+03 -0.88335965517E+03  0.20735387817E+03  0.12365978304E+04  0.46999998093E+01 0.  1.
       -5    1    3    3    0  502 -0.84013819868E+03  0.88335965517E+03 -0.12708510613E+04  0.17610340665E+04  0.46999998093E+01 0. -1.
</event>
<event>
 5   0  0.2206967E-06  0.2843520E+04  0.7818609E-02  0.8289883E-01
        1   -1    0    0  501    0  0.00000000000E+00  0.00000000000E+00  0.22460583768E+04  0.22460583769E+04  0.50400001928E-02 0.  1.
       -1   -1    0    0    0  501  0.00000000000E+00  0.00000000000E+00 -0.89997717113E+03  0.89997717114E+03  0.50400001928E-02 0. -1.
    10030    2    1    2    0    0  0.00000000000E+00  0.00000000000E+00  0.13460812057E+04  0.31460355480E+04  0.28435198359E+04 0.  0.
        5    1    3    3  502    0 -0.12064638477E+04  0.10231116790E+03 -0.15146445786E+03  0.12202402070E+04  0.46999998093E+01 0. -1.
       -5    1    3    3    0  502  0.12064638477E+04 -0.10231116790E+03  0.14975456636E+04  0.19257953410E+04  0.46999998093E+01 0.  1.
</event>
<event>
 5   0  0.2234068E-06  0.2793215E+04  0.7818609E-02  0.8305378E-01
       -1   -1    0    0    0  501  0.00000000000E+00  0.00000000000E+00  0.12334161786E+04  0.12334161786E+04  0.50400001928E-02 0. -1.
        1   -1    0    0  501    0  0.00000000000E+00  0.00000000000E+00 -0.15813906199E+04  0.15813906199E+04  0.50400001928E-02 0.  1.
    10030    2    1    2    0    0  0.00000000000E+00  0.00000000000E+00 -0.34797444130E+03  0.28148067984E+04  0.27932151905E+04 0.  0.
        3    1    3    3  502    0  0.66457140342E+02 -0.10062664329E+04  0.79967194930E+03  0.12870368768E+04  0.10100000352E+00 0. -1.
       -3    1    3    3    0  502 -0.66457140342E+02  0.10062664329E+04 -0.11476463906E+04  0.15277699217E+04  0.10100000352E+00 0.  1.
</event>
<event>
 5   0  0.2190865E-06  0.2588811E+04  0.7818609E-02  0.8372012E-01
       -1   -1    0    0    0  501  0.00000000000E+00  0.00000000000E+00  0.67667657587E+03  0.67667657589E+03  0.50400001928E-02 0.  1.
        1   -1    0    0  501    0  0.00000000000E+00  0.00000000000E+00 -0.24760514500E+04  0.24760514500E+04  0.50400001928E-02 0. -1.
    10030    2    1    2    0    0  0.00000000000E+00  0.00000000000E+00 -0.17993748742E+04  0.31527280259E+04  0.25888113233E+04 0.  0.
        2    1    3    3  502    0 -0.11962644777E+04 -0.27086876381E+03 -0.39598996403E+03  0.12888858132E+04  0.25500000920E-02 0.  1.
       -2    1    3    3    0  502  0.11962644777E+04  0.27086876381E+03 -0.14033849101E+04  0.18638422127E+04  0.25500000920E-02 0. -1.
</event>
<event>
 5   0  0.5866136E-06  0.2805866E+04  0.7818609E-02  0.8301450E-01
        2   -1    0    0  501    0  0.00000000000E+00  0.00000000000E+00  0.13965444618E+04  0.13965444618E+04  0.25500000920E-02 0.  1.
       -2   -1    0    0    0  501  0.00000000000E+00  0.00000000000E+00 -0.14093507207E+04  0.14093507207E+04  0.25500000920E-02 0. -1.
    10030    2    1    2    0    0  0.00000000000E+00  0.00000000000E+00 -0.12806258948E+02  0.28058951825E+04  0.28058659581E+04 0.  0.
        5    1    3    3  502    0 -0.40638797105E+03  0.43148160078E+03  0.12651726567E+04  0.13971440499E+04  0.46999998093E+01 0.  1.
       -5    1    3    3    0  502  0.40638797105E+03 -0.43148160078E+03 -0.12779789156E+04  0.14087511326E+04  0.46999998093E+01 0. -1.
</event>
<event>
 5   0  0.2267565E-06  0.2777205E+04  0.7818609E-02  0.8310380E-01
       -1   -1    0    0    0  501  0.00000000000E+00  0.00000000000E+00  0.13732883026E+04  0.13732883026E+04  0.50400001928E-02 0.  1.
        1   -1    0    0  501    0  0.00000000000E+00  0.00000000000E+00 -0.14040878110E+04  0.14040878110E+04  0.50400001928E-02 0. -1.
    10030    2    1    2    0    0  0.00000000000E+00  0.00000000000E+00 -0.30799508399E+02  0.27773761136E+04  0.27772053339E+04 0.  0.
        4    1    3    3  502    0  0.32555422267E+03  0.25887591393E+03 -0.13403259173E+04  0.14033807282E+04  0.12699999809E+01 0. -1.
       -4    1    3    3    0  502 -0.32555422267E+03 -0.25887591393E+03  0.13095264089E+04  0.13739953854E+04  0.12699999809E+01 0.  1.
</event>
<event>
 5   0  0.2206967E-06  0.2791310E+04  0.7818609E-02  0.8305971E-01
        1   -1    0    0  501    0  0.00000000000E+00  0.00000000000E+00  0.11951977302E+04  0.11951977302E+04  0.50400001928E-02 0.  1.
       -1   -1    0    0    0  501  0.00000000000E+00  0.00000000000E+00 -0.16297328790E+04  0.16297328790E+04  0.50400001928E-02 0. -1.
    10030    2    1    2    0    0  0.00000000000E+00  0.00000000000E+00 -0.43453514883E+03  0.28249306092E+04  0.27913101138E+04 0.  0.
        5    1    3    3  502    0  0.11092568581E+04 -0.17103364401E+02  0.63974227924E+03  0.12806387376E+04  0.46999998093E+01 0. -1.
       -5    1    3    3    0  502 -0.11092568581E+04  0.17103364401E+02 -0.10742774281E+04  0.15442918716E+04  0.46999998093E+01 0.  1.
</event>
<event>
 5   0  0.5916603E-06  0.2799215E+04  0.7818609E-02  0.8303512E-01
       -2   -1    0    0    0  501  0.00000000000E+00  0.00000000000E+00  0.15028053688E+04  0.15028053688E+04  0.25500000920E-02 0.  1.
        2   -1    0    0  501    0  0.00000000000E+00  0.00000000000E+00 -0.13034961966E+04  0.13034961966E+04  0.25500000920E-02 0. -1.
    10030    2    1    2    0    0  0.00000000000E+00  0.00000000000E+00  0.19930917228E+03  0.28063015654E+04  0.27992149488E+04 0.  0.
        2    1    3    3  502    0  0.69972526568E+03 -0.10454269337E+04 -0.51538706624E+03  0.13594692895E+04  0.25500000920E-02 0.  1.
       -2    1    3    3    0  502 -0.69972526568E+03  0.10454269337E+04  0.71469623852E+03  0.14468322759E+04  0.25500000920E-02 0. -1.
</event>
<event>
 5   0  0.2190865E-06  0.2798299E+04  0.7818609E-02  0.8303797E-01
        1   -1    0    0  501    0  0.00000000000E+00  0.00000000000E+00  0.18799984689E+04  0.18799984689E+04  0.50400001928E-02 0. -1.
       -1   -1    0    0    0  501  0.00000000000E+00  0.00000000000E+00 -0.10412875813E+04  0.10412875813E+04  0.50400001928E-02 0.  1.
    10030    2    1    2    0    0  0.00000000000E+00  0.00000000000E+00  0.83871088758E+03  0.29212860502E+04  0.27982988107E+04 0.  0.
        2    1    3    3  502    0  0.49098182641E+03 -0.93314892876E+03 -0.54073248311E+03  0.11849986057E+04  0.25500000920E-02 0.  1.
       -2    1    3    3    0  502 -0.49098182641E+03  0.93314892876E+03  0.13794433707E+04  0.17362874445E+04  0.25500000920E-02 0. -1.
</event>
<event>
 5   0  0.5866136E-06  0.2792588E+04  0.7818609E-02  0.8305573E-01
       -2   -1    0    0    0  501  0.00000000000E+00  0.00000000000E+00  0.84294310083E+03  0.84294310083E+03  0.25500000920E-02 0.  1.
        2   -1    0    0  501    0  0.00000000000E+00  0.00000000000E+00 -0.23128919139E+04  0.23128919139E+04  0.25500000920E-02 0. -1.
    10030    2    1    2    0    0  0.00000000000E+00  0.00000000000E+00 -0.14699488131E+04  0.31558350148E+04  0.27925875326E+04 0.  0.
        5    1    3    3  502    0 -0.13864429105E+04  0.16549525533E+03 -0.73638955391E+03  0.15785766655E+04  0.46999998093E+01 0. -1.
       -5    1    3    3    0  502  0.13864429105E+04 -0.16549525533E+03 -0.73355925918E+03  0.15772583493E+04  0.46999998093E+01 0.  1.
</event>
<event>
 5   0  0.2277133E-06  0.2789477E+04  0.7818609E-02  0.8306543E-01
       -1   -1    0    0    0  501  0.00000000000E+00  0.00000000000E+00  0.24776253708E+04  0.24776253709E+04  0.50400001928E-02 0.  1.
        1   -1    0    0  501    0  0.00000000000E+00  0.00000000000E+00 -0.78514509750E+03  0.78514509751E+03  0.50400001928E-02 0. -1.
    10030    2    1    2    0    0  0.00000000000E+00  0.00000000000E+00  0.16924802734E+04  0.32627704684E+04  0.27894769498E+04 0.  0.
        1    1    3    3  502    0  0.36557477079E+03 -0.13332637458E+04  0.63037866673E+03  0.15194125155E+04  0.50400001928E-02 0. -1.
       -1    1    3    3    0  502 -0.36557477079E+03  0.13332637458E+04  0.10621016066E+04  0.17433579528E+04  0.50400001928E-02 0.  1.
</event>
<event>
 5   0  0.5625245E-06  0.2829976E+04  0.7818609E-02  0.8294022E-01
       -2   -1    0    0    0  501  0.00000000000E+00  0.00000000000E+00  0.12554823232E+04  0.12554823232E+04  0.25500000920E-02 0. -1.
        2   -1    0    0  501    0  0.00000000000E+00  0.00000000000E+00 -0.15947583293E+04  0.15947583293E+04  0.25500000920E-02 0.  1.
    10030    2    1    2    0    0  0.00000000000E+00  0.00000000000E+00 -0.33927600608E+03  0.28502406525E+04  0.28299758954E+04 0.  0.
        3    1    3    3  502    0  0.53142769706E+03  0.56918722113E+03  0.10202623879E+04  0.12834815310E+04  0.10100000352E+00 0. -1.
       -3    1    3    3    0  502 -0.53142769706E+03 -0.56918722113E+03 -0.13595383940E+04  0.15667591215E+04  0.10100000352E+00 0.  1.
</event>
<event>
 5   0  0.5866136E-06  0.2846087E+04  0.7818609E-02  0.8289101E-01
       -2   -1    0    0    0  501  0.00000000000E+00  0.00000000000E+00  0.10851881059E+04  0.10851881059E+04  0.25500000920E-02 0.  1.
        2   -1    0    0  501    0  0.00000000000E+00  0.00000000000E+00 -0.18660848691E+04  0.18660848691E+04  0.25500000920E-02 0. -1.
    10030    2    1    2    0    0  0.00000000000E+00  0.00000000000E+00 -0.78089676315E+03  0.29512729750E+04  0.28460872120E+04 0.  0.
        5    1    3    3  502    0  0.11314885052E+04  0.86203193266E+03 -0.34812671741E+03  0.14644383195E+04  0.46999998093E+01 0. -1.
       -5    1    3    3    0  502 -0.11314885052E+04 -0.86203193266E+03 -0.43277004574E+03  0.14868346555E+04  0.46999998093E+01 0.  1.
</event>
<event>
 5   0  0.2277133E-06  0.2843924E+04  0.7818609E-02  0.8289760E-01
       -1   -1    0    0    0  501  0.00000000000E+00  0.00000000000E+00  0.12643924045E+04  0.12643924045E+04  0.50400001928E-02 0. -1.
        1   -1    0    0  501    0  0.00000000000E+00  0.00000000000E+00 -0.15991676878E+04  0.15991676878E+04  0.50400001928E-02 0.  1.
    10030    2    1    2    0    0  0.00000000000E+00  0.00000000000E+00 -0.33477528334E+03  0.28635600923E+04  0.28439236825E+04 0.  0.
        1    1    3    3  502    0  0.14168201088E+03 -0.35592692100E+03 -0.15462287148E+04  0.15929786577E+04  0.50400001928E-02 0.  1.
       -1    1    3    3    0  502 -0.14168201088E+03  0.35592692100E+03  0.12114534315E+04  0.12705814346E+04  0.50400001928E-02 0. -1.
</event>
<event>
 5   0  0.5916603E-06  0.2810041E+04  0.7818609E-02  0.8300158E-01
       -2   -1    0    0    0  501  0.00000000000E+00  0.00000000000E+00  0.68678212805E+03  0.68678212805E+03  0.25500000920E-02 0. -1.
        2   -1    0    0  501    0  0.00000000000E+00  0.00000000000E+00 -0.28743935024E+04  0.28743935024E+04  0.25500000920E-02 0.  1.
    10030    2    1    2    0    0  0.00000000000E+00  0.00000000000E+00 -0.21876113743E+04  0.35611756304E+04  0.28100406306E+04 0.  0.
        2    1    3    3  502    0 -0.21154726678E+03  0.89095268942E+03  0.25665112863E+03  0.95100932840E+03  0.25500000920E-02 0. -1.
       -2    1    3    3    0  502  0.21154726678E+03 -0.89095268942E+03 -0.24442625030E+04  0.26101663020E+04  0.25500000920E-02 0.  1.
</event>
<event>
 5   0  0.5866136E-06  0.2810293E+04  0.7818609E-02  0.8300080E-01
       -2   -1    0    0    0  501  0.00000000000E+00  0.00000000000E+00  0.13726747235E+04  0.13726747235E+04  0.25500000920E-02 0. -1.
        2   -1    0    0  501    0  0.00000000000E+00  0.00000000000E+00 -0.14383869002E+04  0.14383869002E+04  0.25500000920E-02 0.  1.
    10030    2    1    2    0    0  0.00000000000E+00  0.00000000000E+00 -0.65712176654E+02  0.28110616237E+04  0.28102934654E+04 0.  0.
        5    1    3    3  502    0 -0.50567216964E+03  0.72122545102E+03  0.10622238447E+04  0.13799319116E+04  0.46999998093E+01 0. -1.
       -5    1    3    3    0  502  0.50567216964E+03 -0.72122545102E+03 -0.11279360214E+04  0.14311297120E+04  0.46999998093E+01 0.  1.
</event>
<event>
 5   0  0.2190865E-06  0.2859251E+04  0.7818609E-02  0.8285106E-01
        1   -1    0    0  501    0  0.00000000000E+00  0.00000000000E+00  0.12222497312E+04  0.12222497312E+04  0.50400001928E-02 0.  1.
       -1   -1    0    0    0  501  0.00000000000E+00  0.00000000000E+00 -0.16721858340E+04  0.16721858340E+04  0.50400001928E-02 0. -1.
    10030    2    1    2    0    0  0.00000000000E+00  0.00000000000E+00 -0.44993610282E+03  0.28944355653E+04  0.28592507314E+04 0.  0.
        2    1    3    3  502    0  0.10993508694E+04  0.75017657062E+03  0.30346271712E+03  0.13650739327E+04  0.25500000920E-02 0.  1.
       -2    1    3    3    0  502 -0.10993508694E+04 -0.75017657062E+03 -0.75339881994E+03  0.15293616325E+04  0.25500000920E-02 0. -1.
</event>
<event>
 5   0  0.5866136E-06  0.2802736E+04  0.7818609E-02  0.8302419E-01
        2   -1    0    0  501    0  0.00000000000E+00  0.00000000000E+00  0.19034653059E+04  0.19034653059E+04  0.25500000920E-02 0. -1.
       -2   -1    0    0    0  501  0.00000000000E+00  0.00000000000E+00 -0.10317141335E+04  0.10317141335E+04  0.25500000920E-02 0.  1.
    10030    2    1    2    0    0  0.00000000000E+00  0.00000000000E+00  0.87175117244E+03  0.29351794394E+04  0.28027358482E+04 0.  0.
        5    1    3    3  502    0 -0.95802488114E+02 -0.13828693603E+04  0.65127481864E+03  0.15315635030E+04  0.46999998093E+01 0. -1.
       -5    1    3    3    0  502  0.95802488114E+02  0.13828693603E+04  0.22047635380E+03  0.14036159364E+04  0.46999998093E+01 0.  1.
</event>
<event>
 5   0  0.2267565E-06  0.2792309E+04  0.7818609E-02  0.8305660E-01
       -1   -1    0    0    0  501  0.00000000000E+00  0.00000000000E+00  0.10465483981E+04  0.10465483981E+04  0.50400001928E-02 0.  1.
        1   -1    0    0  501    0  0.00000000000E+00  0.00000000000E+00 -0.18625490635E+04  0.18625490635E+04  0.50400001928E-02 0. -1.
    10030    2    1    2    0    0  0.00000000000E+00  0.00000000000E+00 -0.81600066536E+03  0.29090974616E+04  0.27923092514E+04 0.  0.
        4    1    3    3  502    0 -0.93481098091E+03  0.94859496636E+03 -0.84450154824E+03  0.15769871458E+04  0.12699999809E+01 0.  1.
       -4    1    3    3    0  502  0.93481098091E+03 -0.94859496636E+03  0.28500882871E+02  0.13321103158E+04  0.12699999809E+01 0. -1.
</event>
<event>
 5   0  0.2206967E-06  0.2814197E+04  0.7818609E-02  0.8298874E-01
       -1   -1    0    0    0  501  0.00000000000E+00  0.00000000000E+00  0.18049833794E+04  0.18049833794E+04  0.50400001928E-02 0. -1.
        1   -1    0    0  501    0  0.00000000000E+00  0.00000000000E+00 -0.10969217392E+04  0.10969217392E+04  0.50400001928E-02 0.  1.
    10030    2    1    2    0    0  0.00000000000E+00  0.00000000000E+00  0.70806164017E+03  0.29019051186E+04  0.28141965161E+04 0.  0.
        5    1    3    3  502    0  0.30940036450E+03  0.11599506600E+04  0.11108601628E+04  0.16356180821E+04  0.46999998093E+01 0. -1.
       -5    1    3    3    0  502 -0.30940036450E+03 -0.11599506600E+04 -0.40279852261E+03  0.12662870366E+04  0.46999998093E+01 0.  1.
</event>
<event>
 5   0  0.2206967E-06  0.2745465E+04  0.7818609E-02  0.8320402E-01
        1   -1    0    0  501    0  0.00000000000E+00  0.00000000000E+00  0.82333868759E+03  0.82333868761E+03  0.50400001928E-02 0.  1.
       -1   -1    0    0    0  501  0.00000000000E+00  0.00000000000E+00 -0.22887237581E+04  0.22887237581E+04  0.50400001928E-02 0. -1.
    10030    2    1    2    0    0  0.00000000000E+00  0.00000000000E+00 -0.14653850705E+04  0.31120624458E+04  0.27454652176E+04 0.  0.
        5    1    3    3  502    0 -0.11938487465E+04  0.67682386357E+03 -0.76866939886E+03  0.15729717437E+04  0.46999998093E+01 0. -1.
       -5    1    3    3    0  502  0.11938487465E+04 -0.67682386357E+03 -0.69671567169E+03  0.15390907020E+04  0.46999998093E+01 0.  1.
</event>
<event>
 5   0  0.5625245E-06  0.2797839E+04  0.7818609E-02  0.8303940E-01
        2   -1    0    0  501    0  0.00000000000E+00  0.00000000000E+00  0.11608381217E+04  0.11608381217E+04  0.25500000920E-02 0. -1.
       -2   -1    0    0    0  501  0.00000000000E+00  0.00000000000E+00 -0.16858301997E+04  0.16858301997E+04  0.25500000920E-02 0.  1.
    10030    2    1    2    0    0  0.00000000000E+00  0.00000000000E+00 -0.52499207797E+03  0.28466683215E+04  0.27978391395E+04 0.  0.
        3    1    3    3  502    0 -0.27799255156E+03 -0.10286796982E+04 -0.11846886903E+04  0.15934080090E+04  0.10100000352E+00 0.  1.
       -3    1    3    3    0  502  0.27799255156E+03  0.10286796982E+04  0.65969661231E+03  0.12532603124E+04  0.10100000352E+00 0. -1.
</event>
<event>
 5   0  0.2206967E-06  0.2763815E+04  0.7818609E-02  0.8314591E-01
        1   -1    0    0  501    0  0.00000000000E+00  0.00000000000E+00  0.20137940510E+04  0.20137940510E+04  0.50400001928E-02 0. -1.
       -1   -1    0    0    0  501  0.00000000000E+00  0.00000000000E+00 -0.94829399213E+03  0.94829399214E+03  0.50400001928E-02 0.  1.
    10030    2    1    2    0    0  0.00000000000E+00  0.00000000000E+00  0.10655000588E+04  0.29620880431E+04  0.27638153339E+04 0.  0.
        5    1    3    3  502    0 -0.54409996075E+03  0.91808925729E+02  0.18905940142E+04  0.19694774592E+04  0.46999998093E+01 0. -1.
       -5    1    3    3    0  502  0.54409996075E+03 -0.91808925729E+02 -0.82509395531E+03  0.99261058387E+03  0.46999998093E+01 0.  1.
</event>
<event>
 5   0  0.2206967E-06  0.2781747E+04  0.7818609E-02  0.8308958E-01
        1   -1    0    0  501    0  0.00000000000E+00  0.00000000000E+00  0.18940138733E+04  0.18940138733E+04  0.50400001928E-02 0. -1.
       -1   -1    0    0    0  501  0.00000000000E+00  0.00000000000E+00 -0.10213910842E+04  0.10213910842E+04  0.50400001928E-02 0.  1.
    10030    2    1    2    0    0  0.00000000000E+00  0.00000000000E+00  0.87262278909E+03  0.29154049575E+04  0.27817468495E+04 0.  0.
        5    1    3    3  502    0 -0.91817107875E+03  0.31640715259E+03  0.14798197303E+04  0.17700395872E+04  0.46999998093E+01 0. -1.
       -5    1    3    3    0  502  0.91817107875E+03 -0.31640715259E+03 -0.60719694125E+03  0.11453653703E+04  0.46999998093E+01 0.  1.
</event>
<event>
 5   0  0.5625245E-06  0.2778371E+04  0.7818609E-02  0.8310015E-01
       -2   -1    0    0    0  501  0.00000000000E+00  0.00000000000E+00  0.69302556182E+03  0.69302556182E+03  0.25500000920E-02 0. -1.
        2   -1    0    0  501    0  0.00000000000E+00  0.00000000000E+00 -0.27846544383E+04  0.27846544383E+04  0.25500000920E-02 0.  1.
    10030    2    1    2    0    0  0.00000000000E+00  0.00000000000E+00 -0.20916288764E+04  0.34776800001E+04  0.27783712542E+04 0.  0.
        3    1    3    3  502    0 -0.49698048774E+03  0.12362673566E+04 -0.15377969752E+04  0.20347398186E+04  0.10100000352E+00 0.  1.
       -3    1    3    3    0  502  0.49698048774E+03 -0.12362673566E+04 -0.55383190122E+03  0.14429401815E+04  0.10100000352E+00 0. -1.
</event>
<event>
 5   0  0.5584205E-06  0.2885900E+04  0.7818609E-02  0.8277085E-01
        2   -1    0    0  501    0  0.00000000000E+00  0.00000000000E+00  0.13083803559E+04  0.13083803559E+04  0.25500000920E-02 0. -1.
       -2   -1    0    0    0  501  0.00000000000E+00  0.00000000000E+00 -0.15913608273E+04  0.15913608273E+04  0.25500000920E-02 0.  1.
    10030    2    1    2    0    0  0.00000000000E+00  0.00000000000E+00 -0.28298047145E+03  0.28997411832E+04  0.28859003763E+04 0.  0.
        1    1    3    3  502    0 -0.78664828333E+03  0.11905198930E+04 -0.35688275792E+03  0.14708903563E+04  0.50400001928E-02 0.  1.
       -1    1    3    3    0  502  0.78664828333E+03 -0.11905198930E+04  0.73902286476E+02  0.14288508268E+04  0.50400001928E-02 0. -1.
</event>
<event>
 5   0  0.5546570E-06  0.2804704E+04  0.7818609E-02  0.8301809E-01
       -2   -1    0    0    0  501  0.00000000000E+00  0.00000000000E+00  0.90632250895E+03  0.90632250895E+03  0.25500000920E-02 0.  1.
        2   -1    0    0  501    0  0.00000000000E+00  0.00000000000E+00 -0.21698584513E+04  0.21698584513E+04  0.25500000920E-02 0. -1.
    10030    2    1    2    0    0  0.00000000000E+00  0.00000000000E+00 -0.12635359424E+04  0.30761809603E+04  0.28047043022E+04 0.  0.
        4    1    3    3  502    0  0.96932420473E+03 -0.47829750797E+03  0.34814921000E+03  0.11355912140E+04  0.12699999809E+01 0.  1.
       -4    1    3    3    0  502 -0.96932420473E+03  0.47829750797E+03 -0.16116851524E+04  0.19405897463E+04  0.12699999809E+01 0. -1.
</event>
<event>
 5   0  0.2190865E-06  0.2806315E+04  0.7818609E-02  0.8301311E-01
       -1   -1    0    0    0  501  0.00000000000E+00  0.00000000000E+00  0.10003596109E+04  0.10003596110E+04  0.50400001928E-02 0.  1.
        1   -1    0    0  501    0  0.00000000000E+00  0.00000000000E+00 -0.19681426570E+04  0.19681426570E+04  0.50400001928E-02 0. -1.
    10030    2    1    2    0    0  0.00000000000E+00  0.00000000000E+00 -0.96778304610E+03  0.29685022680E+04  0.28063146101E+04 0.  0.
        2    1    3    3  502    0  0.73315373691E+03  0.66960759310E+03  0.56485207858E+03  0.11423425937E+04  0.25500000920E-02 0.  1.
       -2    1    3    3    0  502 -0.73315373691E+03 -0.66960759310E+03 -0.15326351247E+04  0.18261596743E+04  0.25500000920E-02 0. -1.
</event>
<event>
 5   0  0.5866136E-06  0.2685500E+04  0.7818609E-02  0.8339725E-01
       -2   -1    0    0    0  501  0.00000000000E+00  0.00000000000E+00  0.12771446197E+04  0.12771446197E+04  0.25500000920E-02 0.  1.
        2   -1    0    0  501    0  0.00000000000E+00  0.00000000000E+00 -0.14117259137E+04  0.14117259137E+04  0.25500000920E-02 0. -1.
    10030    2    1    2    0    0  0.00000000000E+00  0.00000000000E+00 -0.13458129404E+03  0.26888705334E+04  0.26855004413E+04 0.  0.
        5    1    3    3  502    0 -0.12764710355E+04  0.37762047575E+03 -0.24352441768E+03  0.13532559848E+04  0.46999998093E+01 0. -1.
       -5    1    3    3    0  502  0.12764710355E+04 -0.37762047575E+03  0.10894312364E+03  0.13356145486E+04  0.46999998093E+01 0.  1.
</event>
<event>
 5   0  0.2267565E-06  0.2800905E+04  0.7818609E-02  0.8302987E-01
       -1   -1    0    0    0  501  0.00000000000E+00  0.00000000000E+00  0.12355279367E+04  0.12355279367E+04  0.50400001928E-02 0.  1.
        1   -1    0    0  501    0  0.00000000000E+00  0.00000000000E+00 -0.15873919510E+04  0.15873919510E+04  0.50400001928E-02 0. -1.
    10030    2    1    2    0    0  0.00000000000E+00  0.00000000000E+00 -0.35186401430E+03  0.28229198877E+04  0.28009049266E+04 0.  0.
        4    1    3    3  502    0  0.74723245066E+03 -0.53337717776E+03 -0.12417971222E+04  0.15443151410E+04  0.12699999809E+01 0. -1.
       -4    1    3    3    0  502 -0.74723245066E+03  0.53337717776E+03  0.88993310786E+03  0.12786047468E+04  0.12699999809E+01 0.  1.
</event>
<event>
 5   0  0.5584205E-06  0.2760580E+04  0.7818609E-02  0.8315612E-01
        2   -1    0    0  501    0  0.00000000000E+00  0.00000000000E+00  0.31089162302E+04  0.31089162302E+04  0.25500000920E-02 0.  1.
       -2   -1    0    0    0  501  0.00000000000E+00  0.00000000000E+00 -0.61281834732E+03  0.61281834733E+03  0.25500000920E-02 0. -1.
    10030    2    1    2    0    0  0.00000000000E+00  0.00000000000E+00  0.24960978829E+04  0.37217345775E+04  0.27605803058E+04 0.  0.
        1    1    3    3  502    0 -0.45078340968E+03 -0.11213973202E+04  0.21468487111E+04  0.24636755104E+04  0.50400001928E-02 0.  1.
       -1    1    3    3    0  502  0.45078340968E+03  0.11213973202E+04  0.34924917174E+03  0.12580590671E+04  0.50400001928E-02 0. -1.
</event>
<event>
 5   0  0.5866136E-06  0.2812489E+04  0.7818609E-02  0.8299402E-01
       -2   -1    0    0    0  501  0.00000000000E+00  0.00000000000E+00  0.69692281413E+03  0.69692281414E+03  0.25500000920E-02 0.  1.
        2   -1    0    0  501    0  0.00000000000E+00  0.00000000000E+00 -0.28375065163E+04  0.28375065163E+04  0.25500000920E-02 0. -1.
    10030    2    1    2    0    0  0.00000000000E+00  0.00000000000E+00 -0.21405837022E+04  0.35344293305E+04  0.28124885966E+04 0.  0.
        5    1    3    3  502    0 -0.41598141638E+03 -0.13395510061E+04 -0.11963593249E+04  0.18435658820E+04  0.46999998093E+01 0.  1.
       -5    1    3    3    0  502  0.41598141638E+03  0.13395510061E+04 -0.94422437725E+03  0.16908634485E+04  0.46999998093E+01 0. -1.
</event>
<event>
 5   0  0.5916603E-06  0.2759789E+04  0.7818609E-02  0.8315862E-01
       -2   -1    0    0    0  501  0.00000000000E+00  0.00000000000E+00  0.81345259852E+03  0.81345259853E+03  0.25500000920E-02 0. -1.
        2   -1    0    0  501    0  0.00000000000E+00  0.00000000000E+00 -0.23407749645E+04  0.23407749645E+04  0.25500000920E-02 0.  1.
    10030    2    1    2    0    0  0.00000000000E+00  0.00000000000E+00 -0.15273223659E+04  0.31542275630E+04  0.27597894684E+04 0.  0.
        2    1    3    3  502    0  0.90065822378E+03 -0.28085207794E+03  0.38726103217E+03  0.10198206866E+04  0.25500000920E-02 0. -1.
       -2    1    3    3    0  502 -0.90065822378E+03  0.28085207794E+03 -0.19145833981E+04  0.21344068764E+04  0.25500000920E-02 0.  1.
</event>
<event>
 5   0  0.2277133E-06  0.2511341E+04  0.7818609E-02  0.8398956E-01
        1   -1    0    0  501    0  0.00000000000E+00  0.00000000000E+00  0.19130959634E+04  0.19130959634E+04  0.50400001928E-02 0.  1.
       -1   -1    0    0    0  501  0.00000000000E+00  0.00000000000E+00 -0.82416564457E+03  0.82416564458E+03  0.50400001928E-02 0. -1.
    10030    2    1    2    0    0  0.00000000000E+00  0.00000000000E+00  0.10889303188E+04  0.27372616080E+04  0.25113406522E+04 0.  0.
        1    1    3    3  502    0  0.12523392849E+04 -0.91341591229E+02  0.54085067399E+03  0.13671928988E+04  0.50400001928E-02 0.  1.
       -1    1    3    3    0  502 -0.12523392849E+04  0.91341591229E+02  0.54807964485E+03  0.13700687092E+04  0.50400001928E-02 0. -1.
</event>
<event>
 5   0  0.2267565E-06  0.2798458E+04  0.7818609E-02  0.8303747E-01
        1   -1    0    0  501    0  0.00000000000E+00  0.00000000000E+00  0.17799561108E+04  0.17799561108E+04  0.50400001928E-02 0.  1.
       -1   -1    0    0    0  501  0.00000000000E+00  0.00000000000E+00 -0.10999384847E+04  0.10999384847E+04  0.50400001928E-02 0. -1.
    10030    2    1    2    0    0  0.00000000000E+00  0.00000000000E+00  0.68001762612E+03  0.28798945955E+04  0.27984583093E+04 0.  0.
        4    1    3    3  502    0  0.56809548297E+03  0.41558040528E+03 -0.90448000459E+03  0.11460912890E+04  0.12699999809E+01 0. -1.
       -4    1    3    3    0  502 -0.56809548297E+03 -0.41558040528E+03  0.15844976307E+04  0.17338033065E+04  0.12699999809E+01 0.  1.
</event>
<event>
 5   0  0.5916603E-06  0.2821143E+04  0.7818609E-02  0.8296734E-01
        2   -1    0    0  501    0  0.00000000000E+00  0.00000000000E+00  0.18582999321E+04  0.18582999321E+04  0.25500000920E-02 0. -1.
       -2   -1    0    0    0  501  0.00000000000E+00  0.00000000000E+00 -0.10707163085E+04  0.10707163085E+04  0.25500000920E-02 0.  1.
    10030    2    1    2    0    0  0.00000000000E+00  0.00000000000E+00  0.78758362356E+03  0.29290162406E+04  0.28211430615E+04 0.  0.
        2    1    3    3  502    0  0.30402447908E+03 -0.40032283441E+03 -0.97456521808E+03  0.10965703899E+04  0.25500000920E-02 0.  1.
       -2    1    3    3    0  502 -0.30402447908E+03  0.40032283441E+03  0.17621488416E+04  0.18324458507E+04  0.25500000920E-02 0. -1.
</event>
<event>
 5   0  0.5866136E-06  0.2807528E+04  0.7818609E-02  0.8300935E-01
        2   -1    0    0  501    0  0.00000000000E+00  0.00000000000E+00  0.20773150663E+04  0.20773150663E+04  0.25500000920E-02 0.  1.
       -2   -1    0    0    0  501  0.00000000000E+00  0.00000000000E+00 -0.94860606168E+03  0.94860606168E+03  0.25500000920E-02 0. -1.
    10030    2    1    2    0    0  0.00000000000E+00  0.00000000000E+00  0.11287090046E+04  0.30259211280E+04  0.28075282110E+04 0.  0.
        5    1    3    3  502    0 -0.13927180327E+04  0.15869948884E+03  0.48310807919E+03  0.14826545628E+04  0.46999998093E+01 0. -1.
       -5    1    3    3    0  502  0.13927180327E+04 -0.15869948884E+03  0.64560092546E+03  0.15432665652E+04  0.46999998093E+01 0.  1.
</event>
<event>
 5   0  0.2277133E-06  0.2784222E+04  0.7818609E-02  0.8308184E-01
       -1   -1    0    0    0  501  0.00000000000E+00  0.00000000000E+00  0.96647716656E+03  0.96647716657E+03  0.50400001928E-02 0. -1.
        1   -1    0    0  501    0  0.00000000000E+00  0.00000000000E+00 -0.20051931354E+04  0.20051931354E+04  0.50400001928E-02 0.  1.
    10030    2    1    2    0    0  0.00000000000E+00  0.00000000000E+00 -0.10387159689E+04  0.29716703020E+04  0.27842222469E+04 0.  0.
        1    1    3    3  502    0  0.91106518454E+03 -0.80897764963E+03 -0.12381115201E+04  0.17370678583E+04  0.50400001928E-02 0.  1.
       -1    1    3    3    0  502 -0.91106518454E+03  0.80897764963E+03  0.19939555127E+03  0.12346024437E+04  0.50400001928E-02 0. -1.
</event>
<event>
 5   0  0.2190865E-06  0.2844725E+04  0.7818609E-02  0.8289516E-01
        1   -1    0    0  501    0  0.00000000000E+00  0.00000000000E+00  0.16447746920E+04  0.16447746920E+04  0.50400001928E-02 0. -1.
       -1   -1    0    0    0  501  0.00000000000E+00  0.00000000000E+00 -0.12300254548E+04  0.12300254548E+04  0.50400001928E-02 0.  1.
    10030    2    1    2    0    0  0.00000000000E+00  0.00000000000E+00  0.41474923723E+03  0.28748001468E+04  0.28447247589E+04 0.  0.
        2    1    3    3  502    0  0.11744976783E+04 -0.80218966137E+03  0.19452446795E+03  0.14355461740E+04  0.25500000920E-02 0. -1.
       -2    1    3    3    0  502 -0.11744976783E+04  0.80218966137E+03  0.22022476928E+03  0.14392539728E+04  0.25500000920E-02 0.  1.
</event>
<event>
 5   0  0.5546570E-06  0.2696353E+04  0.7818609E-02  0.8336189E-01
        2   -1    0    0  501    0  0.00000000000E+00  0.00000000000E+00  0.26620337294E+04  0.26620337295E+04  0.25500000920E-02 0.  1.
       -2   -1    0    0    0  501  0.00000000000E+00  0.00000000000E+00 -0.68277844163E+03  0.68277844164E+03  0.25500000920E-02 0. -1.
    10030    2    1    2    0    0  0.00000000000E+00  0.00000000000E+00  0.19792552878E+04  0.33448121711E+04  0.26963525299E+04 0.  0.
        4    1    3    3  502    0  0.48030344335E+03  0.12582835772E+04  0.91510836227E+03  0.16283101320E+04  0.12699999809E+01 0.  1.
       -4    1    3    3    0  502 -0.48030344335E+03 -0.12582835772E+04  0.10641469255E+04  0.17165020391E+04  0.12699999809E+01 0. -1.
</event>
<event>
 5   0  0.1901375E-06  0.2819848E+04  0.7818609E-02  0.8297133E-01
        3   -1    0    0  501    0  0.00000000000E+00  0.00000000000E+00  0.14057091630E+04  0.14057091666E+04  0.10100000352E+00 0.  1.
       -3   -1    0    0    0  501  0.00000000000E+00  0.00000000000E+00 -0.14141519182E+04  0.14141519218E+04  0.10100000352E+00 0. -1.
    10030    2    1    2    0    0  0.00000000000E+00  0.00000000000E+00 -0.84427552419E+01  0.28198610884E+04  0.28198484494E+04 0.  0.
        3    1    3    3  502    0  0.80096784803E+03 -0.43771681822E+03 -0.10788148608E+04  0.14131479118E+04  0.10100000352E+00 0. -1.
       -3    1    3    3    0  502 -0.80096784803E+03  0.43771681822E+03  0.10703721056E+04  0.14067131766E+04  0.10100000352E+00 0.  1.
</event>
<event>
 5   0  0.5546570E-06  0.2730952E+04  0.7818609E-02  0.8325032E-01
        2   -1    0    0  501    0  0.00000000000E+00  0.00000000000E+00  0.18130272095E+04  0.18130272095E+04  0.25500000920E-02 0.  1.
       -2   -1    0    0    0  501  0.00000000000E+00  0.00000000000E+00 -0.10284038391E+04  0.10284038391E+04  0.25500000920E-02 0. -1.
    10030    2    1    2    0    0  0.00000000000E+00  0.00000000000E+00  0.78462337043E+03  0.28414310486E+04  0.27309515869E+04 0.  0.
        4    1    3    3  502    0 -0.98390670892E+03 -0.91008168120E+03  0.66403063591E+03  0.14957470965E+04  0.12699999809E+01 0. -1.
       -4    1    3    3    0  502  0.98390670892E+03  0.91008168120E+03  0.12059273452E+03  0.13456839521E+04  0.12699999809E+01 0.  1.
</event>
<event>
 5   0  0.5546570E-06  0.2821852E+04  0.7818609E-02  0.8296516E-01
       -2   -1    0    0    0  501  0.00000000000E+00  0.00000000000E+00  0.11592226244E+04  0.11592226244E+04  0.25500000920E-02 0.  1.
        2   -1    0    0  501    0  0.00000000000E+00  0.00000000000E+00 -0.17172814945E+04  0.17172814945E+04  0.25500000920E-02 0. -1.
    10030    2    1    2    0    0  0.00000000000E+00  0.00000000000E+00 -0.55805887012E+03  0.28765041190E+04  0.28218515631E+04 0.  0.
        4    1    3    3  502    0  0.10855400743E+04  0.89777562629E+03 -0.19804505624E+03  0.14225406094E+04  0.12699999809E+01 0. -1.
       -4    1    3    3    0  502 -0.10855400743E+04 -0.89777562629E+03 -0.36001381387E+03  0.14539635096E+04  0.12699999809E+01 0.  1.
</event>
<event>
 5   0  0.5625245E-06  0.2820609E+04  0.7818609E-02  0.8296898E-01
        2   -1    0    0  501    0  0.00000000000E+00  0.00000000000E+00  0.11514264896E+04  0.11514264896E+04  0.25500000920E-02 0. -1.
       -2   -1    0    0    0  501  0.00000000000E+00  0.00000000000E+00 -0.17273869446E+04  0.17273869446E+04  0.25500000920E-02 0.  1.
    10030    2    1    2    0    0  0.00000000000E+00  0.00000000000E+00 -0.57596045501E+03  0.28788134343E+04  0.28206092150E+04 0.  0.
        3    1    3    3  502    0 -0.74848516301E+03 -0.84964569341E+03 -0.11460615833E+04  0.16110819366E+04  0.10100000352E+00 0.  1.
       -3    1    3    3    0  502  0.74848516301E+03  0.84964569341E+03  0.57010112827E+03  0.12677314977E+04  0.10100000352E+00 0. -1.
</event>
<event>
 5   0  0.2190865E-06  0.2866233E+04  0.7818609E-02  0.8282996E-01
        1   -1    0    0  501    0  0.00000000000E+00  0.00000000000E+00  0.14509474037E+04  0.14509474037E+04  0.50400001928E-02 0. -1.
       -1   -1    0    0    0  501  0.00000000000E+00  0.00000000000E+00 -0.14155047324E+04  0.14155047324E+04  0.50400001928E-02 0.  1.
    10030    2    1    2    0    0  0.00000000000E+00  0.00000000000E+00  0.35442671278E+02  0.28664521361E+04  0.28662330096E+04 0.  0.
        2    1    3    3  502    0  0.74462820382E+03  0.33488523662E+03  0.11956074707E+04  0.14477902153E+04  0.25500000920E-02 0. -1.
       -2    1    3    3    0  502 -0.74462820382E+03 -0.33488523662E+03 -0.11601647994E+04  0.14186619207E+04  0.25500000920E-02 0.  1.
</event>
<event>
 5   0  0.2277133E-06  0.2798594E+04  0.7818609E-02  0.8303705E-01
       -1   -1    0    0    0  501  0.00000000000E+00  0.00000000000E+00  0.20363528098E+04  0.20363528098E+04  0.50400001928E-02 0.  1.
        1   -1    0    0  501    0  0.00000000000E+00  0.00000000000E+00 -0.96153875858E+03  0.96153875859E+03  0.50400001928E-02 0. -1.
    10030    2    1    2    0    0  0.00000000000E+00  0.00000000000E+00  0.10748140512E+04  0.29978915684E+04  0.27985940419E+04 0.  0.
        1    1    3    3  502    0  0.53521955916E+03 -0.83643686360E+03 -0.51867337602E+03  0.11203163278E+04  0.50400001928E-02 0. -1.
       -1    1    3    3    0  502 -0.53521955916E+03  0.83643686360E+03  0.15934874272E+04  0.18775752406E+04  0.50400001928E-02 0.  1.
</event>
<event>
 5   0  0.1901375E-06  0.2810187E+04  0.7818609E-02  0.8300113E-01
        3   -1    0    0  501    0  0.00000000000E+00  0.00000000000E+00  0.11914020857E+04  0.11914020900E+04  0.10100000352E+00 0.  1.
       -3   -1    0    0    0  501  0.00000000000E+00  0.00000000000E+00 -0.16571133715E+04  0.16571133746E+04  0.10100000352E+00 0. -1.
    10030    2    1    2    0    0  0.00000000000E+00  0.00000000000E+00 -0.46571128576E+03  0.28485154646E+04  0.28101874227E+04 0.  0.
        4    1    3    3  502    0 -0.11718665671E+04 -0.20855802214E+03  0.52400015451E+03  0.13005173872E+04  0.12699999809E+01 0.  1.
       -4    1    3    3    0  502  0.11718665671E+04  0.20855802214E+03 -0.98971144027E+03  0.15479980774E+04  0.12699999809E+01 0. -1.
</event>
<event>
 5   0  0.5584205E-06  0.2825681E+04  0.7818609E-02  0.8295339E-01
       -2   -1    0    0    0  501  0.00000000000E+00  0.00000000000E+00  0.14016817595E+04  0.14016817595E+04  0.25500000920E-02 0. -1.
        2   -1    0    0  501    0  0.00000000000E+00  0.00000000000E+00 -0.14240883453E+04  0.14240883453E+04  0.25500000920E-02 0.  1.
    10030    2    1    2    0    0  0.00000000000E+00  0.00000000000E+00 -0.22406585766E+02  0.28257701048E+04  0.28256812683E+04 0.  0.
        1    1    3    3  502    0  0.81219329350E+03  0.31062463263E+03  0.11023724869E+04  0.14040550944E+04  0.50400001928E-02 0. -1.
       -1    1    3    3    0  502 -0.81219329350E+03 -0.31062463263E+03 -0.11247790726E+04  0.14217150104E+04  0.50400001928E-02 0.  1.
</event>
<event>
 5   0  0.5866136E-06  0.2789817E+04  0.7818609E-02  0.8306437E-01
       -2   -1    0    0    0  501  0.00000000000E+00  0.00000000000E+00  0.67964591877E+03  0.67964591877E+03  0.25500000920E-02 0.  1.
        2   -1    0    0  501    0  0.00000000000E+00  0.00000000000E+00 -0.28629166704E+04  0.28629166704E+04  0.25500000920E-02 0. -1.
    10030    2    1    2    0    0  0.00000000000E+00  0.00000000000E+00 -0.21832707517E+04  0.35425625892E+04  0.27898169337E+04 0.  0.
        5    1    3    3  502    0 -0.50913065296E+03  0.82416714346E+03  0.18279868771E+03  0.98585138453E+03  0.46999998093E+01 0.  1.
       -5    1    3    3    0  502  0.50913065296E+03 -0.82416714346E+03 -0.23660694394E+04  0.25567112047E+04  0.46999998093E+01 0. -1.
</event>
<event>
 5   0  0.5546570E-06  0.2807832E+04  0.7818609E-02  0.8300841E-01
        2   -1    0    0  501    0  0.00000000000E+00  0.00000000000E+00  0.12273431696E+04  0.12273431696E+04  0.25500000920E-02 0. -1.
       -2   -1    0    0    0  501  0.00000000000E+00  0.00000000000E+00 -0.16058916385E+04  0.16058916385E+04  0.25500000920E-02 0.  1.
    10030    2    1    2    0    0  0.00000000000E+00  0.00000000000E+00 -0.37854846891E+03  0.28332348082E+04  0.28078319991E+04 0.  0.
        4    1    3    3  502    0  0.31438923546E+03  0.55464793645E+03 -0.14513915717E+04  0.15852488864E+04  0.12699999809E+01 0.  1.
       -4    1    3    3    0  502 -0.31438923546E+03 -0.55464793645E+03  0.10728431028E+04  0.12479859217E+04  0.12699999809E+01 0. -1.
</event>
<event>
 5   0  0.2206967E-06  0.2798049E+04  0.7818609E-02  0.8303874E-01
        1   -1    0    0  501    0  0.00000000000E+00  0.00000000000E+00  0.19371002461E+04  0.19371002461E+04  0.50400001928E-02 0.  1.
       -1   -1    0    0    0  501  0.00000000000E+00  0.00000000000E+00 -0.10104121141E+04  0.10104121141E+04  0.50400001928E-02 0. -1.
    10030    2    1    2    0    0  0.00000000000E+00  0.00000000000E+00  0.92668813192E+03  0.29475123602E+04  0.27980490024E+04 0.  0.
        5    1    3    3  502    0  0.18503249977E+03 -0.12651819517E+04 -0.13471951983E+03  0.12857269679E+04  0.46999998093E+01 0. -1.
       -5    1    3    3    0  502 -0.18503249977E+03  0.12651819517E+04  0.10614076518E+04  0.16617853923E+04  0.46999998093E+01 0.  1.
</event>
<event>
 5   0  0.2234068E-06  0.2820895E+04  0.7818609E-02  0.8296810E-01
        1   -1    0    0  501    0  0.00000000000E+00  0.00000000000E+00  0.10135987657E+04  0.10135987657E+04  0.50400001928E-02 0.  1.
       -1   -1    0    0    0  501  0.00000000000E+00  0.00000000000E+00 -0.19626727958E+04  0.19626727958E+04  0.50400001928E-02 0. -1.
    10030    2    1    2    0    0  0.00000000000E+00  0.00000000000E+00 -0.94907403008E+03  0.29762715616E+04  0.28208954064E+04 0.  0.
        3    1    3    3  502    0  0.64414837299E+03 -0.40682016063E+03  0.77782744048E+03  0.10887815699E+04  0.10100000352E+00 0.  1.
       -3    1    3    3    0  502 -0.64414837299E+03  0.40682016063E+03 -0.17269014706E+04  0.18874899917E+04  0.10100000352E+00 0. -1.
</event>
<event>
 5   0  0.2190865E-06  0.2806804E+04  0.7818609E-02  0.8301159E-01
       -1   -1    0    0    0  501  0.00000000000E+00  0.00000000000E+00  0.11838490646E+04  0.11838490646E+04  0.50400001928E-02 0.  1.
        1   -1    0    0  501    0  0.00000000000E+00  0.00000000000E+00 -0.16636730259E+04  0.16636730259E+04  0.50400001928E-02 0. -1.
    10030    2    1    2    0    0  0.00000000000E+00  0.00000000000E+00 -0.47982396126E+03  0.28475220905E+04  0.28068044146E+04 0.  0.
        2    1    3    3  502    0  0.26776401005E+03  0.13086799742E+04 -0.67650001180E+03  0.14973286566E+04  0.25500000920E-02 0. -1.
       -2    1    3    3    0  502 -0.26776401005E+03 -0.13086799742E+04  0.19667605054E+03  0.13501934339E+04  0.25500000920E-02 0.  1.
</event>
<event>
 5   0  0.2190865E-06  0.2830957E+04  0.7818609E-02  0.8293721E-01
        1   -1    0    0  501    0  0.00000000000E+00  0.00000000000E+00  0.11460085804E+04  0.11460085804E+04  0.50400001928E-02 0. -1.
       -1   -1    0    0    0  501  0.00000000000E+00  0.00000000000E+00 -0.17483107457E+04  0.17483107457E+04  0.50400001928E-02 0.  1.
    10030    2    1    2    0    0  0.00000000000E+00  0.00000000000E+00 -0.60230216528E+03  0.28943193261E+04  0.28309568106E+04 0.  0.
        2    1    3    3  502    0 -0.11973975815E+04 -0.63186243745E+03 -0.72339362635E+03  0.15350275068E+04  0.25500000920E-02 0.  1.
       -2    1    3    3    0  502  0.11973975815E+04  0.63186243745E+03  0.12109146107E+03  0.13592918193E+04  0.25500000920E-02 0. -1.
</event>
<event>
 5   0  0.2206967E-06  0.2816644E+04  0.7818609E-02  0.8298120E-01
       -1   -1    0    0    0  501  0.00000000000E+00  0.00000000000E+00  0.13635145250E+04  0.13635145250E+04  0.50400001928E-02 0. -1.
        1   -1    0    0  501    0  0.00000000000E+00  0.00000000000E+00 -0.14546017337E+04  0.14546017337E+04  0.50400001928E-02 0.  1.
    10030    2    1    2    0    0  0.00000000000E+00  0.00000000000E+00 -0.91087208722E+02  0.28181162587E+04  0.28166438128E+04 0.  0.
        5    1    3    3  502    0  0.10721815037E+04  0.53330949220E+03  0.69602960886E+03  0.13850889855E+04  0.46999998093E+01 0. -1.
       -5    1    3    3    0  502 -0.10721815037E+04 -0.53330949220E+03 -0.78711681759E+03  0.14330272732E+04  0.46999998093E+01 0.  1.
</event>
<event>
 5   0  0.5584205E-06  0.2799701E+04  0.7818609E-02  0.8303361E-01
       -2   -1    0    0    0  501  0.00000000000E+00  0.00000000000E+00  0.10770151691E+04  0.10770151691E+04  0.25500000920E-02 0.  1.
        2   -1    0    0  501    0  0.00000000000E+00  0.00000000000E+00 -0.18194554083E+04  0.18194554083E+04  0.25500000920E-02 0. -1.
    10030    2    1    2    0    0  0.00000000000E+00  0.00000000000E+00 -0.74244023914E+03  0.28964705774E+04  0.27997007514E+04 0.  0.
        1    1    3    3  502    0  0.69994480829E+03 -0.73652870073E+03 -0.13674061053E+04  0.17035834933E+04  0.50400001928E-02 0. -1.
       -1    1    3    3    0  502 -0.69994480829E+03  0.73652870073E+03  0.62496586618E+03  0.11928870842E+04  0.50400001928E-02 0.  1.
</event>
<event>
 5   0  0.2267565E-06  0.3070665E+04  0.7818609E-02  0.8223835E-01
       -1   -1    0    0    0  501  0.00000000000E+00  0.00000000000E+00  0.14275652266E+04  0.14275652266E+04  0.50400001928E-02 0.  1.
        1   -1    0    0  501    0  0.00000000000E+00  0.00000000000E+00 -0.16512350984E+04  0.16512350984E+04  0.50400001928E-02 0. -1.
    10030    2    1    2    0    0  0.00000000000E+00  0.00000000000E+00 -0.22366987177E+03  0.30788003250E+04  0.30706649492E+04 0.  0.
        4    1    3    3  502    0  0.50204745916E+03  0.12970384772E+04 -0.76385292989E+03  0.15867682169E+04  0.12699999809E+01 0. -1.
       -4    1    3    3    0  502 -0.50204745916E+03 -0.12970384772E+04  0.54018305811E+03  0.14920321082E+04  0.12699999809E+01 0.  1.
</event>
<event>
 5   0  0.2277133E-06  0.2823555E+04  0.7818609E-02  0.8295993E-01
        1   -1    0    0  501    0  0.00000000000E+00  0.00000000000E+00  0.17324514704E+04  0.17324514704E+04  0.50400001928E-02 0. -1.
       -1   -1    0    0    0  501  0.00000000000E+00  0.00000000000E+00 -0.11504596574E+04  0.11504596574E+04  0.50400001928E-02 0.  1.
    10030    2    1    2    0    0  0.00000000000E+00  0.00000000000E+00  0.58199181295E+03  0.28829111278E+04  0.28235548694E+04 0.  0.
        1    1    3    3  502    0 -0.63460565464E+02  0.79732952700E+03  0.14787887747E+04  0.16812429504E+04  0.50400001928E-02 0. -1.
       -1    1    3    3    0  502  0.63460565464E+02 -0.79732952700E+03 -0.89679696176E+03  0.12016681774E+04  0.50400001928E-02 0.  1.
</event>
<event>
 5   0  0.5546570E-06  0.2703035E+04  0.7818609E-02  0.8334021E-01
       -2   -1    0    0    0  501  0.00000000000E+00  0.00000000000E+00  0.94512968878E+03  0.94512968878E+03  0.25500000920E-02 0.  1.
        2   -1    0    0  501    0  0.00000000000E+00  0.00000000000E+00 -0.19326446765E+04  0.19326446765E+04  0.25500000920E-02 0. -1.
    10030    2    1    2    0    0  0.00000000000E+00  0.00000000000E+00 -0.98751498773E+03  0.28777743653E+04  0.27030352285E+04 0.  0.
        4    1    3    3  502    0  0.13446859933E+04  0.12065797269E+03 -0.55989830731E+03  0.14615835571E+04  0.12699999809E+01 0. -1.
       -4    1    3    3    0  502 -0.13446859933E+04 -0.12065797269E+03 -0.42761668042E+03  0.14161908082E+04  0.12699999809E+01 0.  1.
</event>
<event>
 5   0  0.2206967E-06  0.2799740E+04  0.7818609E-02  0.8303349E-01
        1   -1    0    0  501    0  0.00000000000E+00  0.00000000000E+00  0.14337937471E+04  0.14337937471E+04  0.50400001928E-02 0.  1.
       -1   -1    0    0    0  501  0.00000000000E+00  0.00000000000E+00 -0.13667485550E+04  0.13667485550E+04  0.50400001928E-02 0. -1.
    10030    2    1    2    0    0  0.00000000000E+00  0.00000000000E+00  0.67045192039E+02  0.28005423021E+04  0.27997396536E+04 0.  0.
        5    1    3    3  502    0  0.23044529911E+03 -0.13517627229E+04 -0.24806467517E+03  0.13935299307E+04  0.46999998093E+01 0. -1.
       -5    1    3    3    0  502 -0.23044529911E+03  0.13517627229E+04  0.31510986721E+03  0.14070123714E+04  0.46999998093E+01 0.  1.
</event>
<event>
 5   0  0.1901375E-06  0.2807588E+04  0.7818609E-02  0.8300916E-01
       -3   -1    0    0    0  501  0.00000000000E+00  0.00000000000E+00  0.25529323971E+04  0.25529323991E+04  0.10100000352E+00 0. -1.
        3   -1    0    0  501    0  0.00000000000E+00  0.00000000000E+00 -0.77191154169E+03  0.77191154829E+03  0.10100000352E+00 0.  1.
    10030    2    1    2    0    0  0.00000000000E+00  0.00000000000E+00  0.17810208554E+04  0.33248439474E+04  0.28075882866E+04 0.  0.
        2    1    3    3  502    0 -0.77963584829E+03  0.89158843363E+03 -0.18999336983E+01  0.11843840596E+04  0.25500000920E-02 0.  1.
       -2    1    3    3    0  502  0.77963584829E+03 -0.89158843363E+03  0.17829207891E+04  0.21404598878E+04  0.25500000920E-02 0. -1.
</event>
<event>
 5   0  0.2190865E-06  0.2803064E+04  0.7818609E-02  0.8302318E-01
       -1   -1    0    0    0  501  0.00000000000E+00  0.00000000000E+00  0.14853494144E+04  0.14853494144E+04  0.50400001928E-02 0. -1.
        1   -1    0    0  501    0  0.00000000000E+00  0.00000000000E+00 -0.13224442142E+04  0.13224442142E+04  0.50400001928E-02 0.  1.
    10030    2    1    2    0    0  0.00000000000E+00  0.00000000000E+00  0.16290520017E+03  0.28077936286E+04  0.28030638516E+04 0.  0.
        2    1    3    3  502    0  0.15321685769E+03 -0.10767038000E+04 -0.80407826567E+03  0.13525192552E+04  0.25500000920E-02 0.  1.
       -2    1    3    3    0  502 -0.15321685769E+03  0.10767038000E+04  0.96698346583E+03  0.14552743733E+04  0.25500000920E-02 0. -1.
</event>
<event>
 5   0  0.5584205E-06  0.2798169E+04  0.7818609E-02  0.8303837E-01
       -2   -1    0    0    0  501  0.00000000000E+00  0.00000000000E+00  0.93952639067E+03  0.93952639067E+03  0.25500000920E-02 0.  1.
        2   -1    0    0  501    0  0.00000000000E+00  0.00000000000E+00 -0.20834299131E+04  0.20834299131E+04  0.25500000920E-02 0. -1.
    10030    2    1    2    0    0  0.00000000000E+00  0.00000000000E+00 -0.11439035224E+04  0.30229563037E+04  0.27981689630E+04 0.  0.
        1    1    3    3  502    0  0.32968694720E+03 -0.78821494707E+03 -0.17688626097E+04  0.19643958913E+04  0.50400001928E-02 0. -1.
       -1    1    3    3    0  502 -0.32968694720E+03  0.78821494707E+03  0.62495908727E+03  0.10585604124E+04  0.50400001928E-02 0.  1.
</event>
<event>
 5   0  0.2267565E-06  0.2795922E+04  0.7818609E-02  0.8304536E-01
       -1   -1    0    0    0  501  0.00000000000E+00  0.00000000000E+00  0.13326550919E+04  0.13326550919E+04  0.50400001928E-02 0.  1.
        1   -1    0    0  501    0  0.00000000000E+00  0.00000000000E+00 -0.14664670631E+04  0.14664670631E+04  0.50400001928E-02 0. -1.
    10030    2    1    2    0    0  0.00000000000E+00  0.00000000000E+00 -0.13381197121E+03  0.27991221550E+04  0.27959218864E+04 0.  0.
        4    1    3    3  502    0  0.12175051691E+04 -0.16503686931E+03 -0.73455549975E+03  0.14314780474E+04  0.12699999809E+01 0.  1.
       -4    1    3    3    0  502 -0.12175051691E+04  0.16503686931E+03  0.60074352854E+03  0.13676441076E+04  0.12699999809E+01 0. -1.
</event>
<event>
 5   0  0.5584205E-06  0.2825226E+04  0.7818609E-02  0.8295479E-01
        2   -1    0    0  501    0  0.00000000000E+00  0.00000000000E+00  0.16986809822E+04  0.16986809822E+04  0.25500000920E-02 0.  1.
       -2   -1    0    0    0  501  0.00000000000E+00  0.00000000000E+00 -0.11747205489E+04  0.11747205489E+04  0.25500000920E-02 0. -1.
    10030    2    1    2    0    0  0.00000000000E+00  0.00000000000E+00  0.52396043331E+03  0.28734015311E+04  0.28252259773E+04 0.  0.
        1    1    3    3  502    0  0.10704925221E+04  0.79705758776E+03 -0.20875160612E+03  0.13508635280E+04  0.50400001928E-02 0. -1.
       -1    1    3    3    0  502 -0.10704925221E+04 -0.79705758776E+03  0.73271203944E+03  0.15225380031E+04  0.50400001928E-02 0.  1.
</event>
<event>
 5   0  0.5625245E-06  0.2819254E+04  0.7818609E-02  0.8297316E-01
       -2   -1    0    0    0  501  0.00000000000E+00  0.00000000000E+00  0.12762442970E+04  0.12762442970E+04  0.25500000920E-02 0. -1.
        2   -1    0    0  501    0  0.00000000000E+00  0.00000000000E+00 -0.15569497885E+04  0.15569497885E+04  0.25500000920E-02 0.  1.
    10030    2    1    2    0    0  0.00000000000E+00  0.00000000000E+00 -0.28070549150E+03  0.28331940854E+04  0.28192540064E+04 0.  0.
        3    1    3    3  502    0 -0.81745261166E+03  0.90772235734E+03  0.56658819293E+03  0.13465551756E+04  0.10100000352E+00 0. -1.
       -3    1    3    3    0  502  0.81745261166E+03 -0.90772235734E+03 -0.84729368444E+03  0.14866389098E+04  0.10100000352E+00 0.  1.
</event>
<event>
 5   0  0.5625245E-06  0.2803917E+04  0.7818609E-02  0.8302053E-01
        2   -1    0    0  501    0  0.00000000000E+00  0.00000000000E+00  0.25117786625E+04  0.25117786625E+04  0.25500000920E-02 0. -1.
       -2   -1    0    0    0  501  0.00000000000E+00  0.00000000000E+00 -0.78250823393E+03  0.78250823393E+03  0.25500000920E-02 0.  1.
    10030    2    1    2    0    0  0.00000000000E+00  0.00000000000E+00  0.17292704285E+04  0.32942868964E+04  0.28039168926E+04 0.  0.
        3    1    3    3  502    0 -0.11907934602E+04  0.32038545877E+03  0.81018222573E+02  0.12357992837E+04  0.10100000352E+00 0.  1.
       -3    1    3    3    0  502  0.11907934602E+04 -0.32038545877E+03  0.16482522060E+04  0.20584876127E+04  0.10100000352E+00 0. -1.
</event>
<event>
 5   0  0.2277133E-06  0.2799705E+04  0.7818609E-02  0.8303360E-01
        1   -1    0    0  501    0  0.00000000000E+00  0.00000000000E+00  0.16863828632E+04  0.16863828632E+04  0.50400001928E-02 0. -1.
       -1   -1    0    0    0  501  0.00000000000E+00  0.00000000000E+00 -0.11620063313E+04  0.11620063313E+04  0.50400001928E-02 0.  1.
    10030    2    1    2    0    0  0.00000000000E+00  0.00000000000E+00  0.52437653184E+03  0.28483891945E+04  0.27997053874E+04 0.  0.
        1    1    3    3  502    0 -0.22173395802E+03  0.60825669563E+03 -0.10005407280E+04  0.11917314733E+04  0.50400001928E-02 0.  1.
       -1    1    3    3    0  502  0.22173395802E+03 -0.60825669563E+03  0.15249172599E+04  0.16566577212E+04  0.50400001928E-02 0. -1.
</event>
<event>
 5   0  0.2206967E-06  0.2802960E+04  0.7818609E-02  0.8302350E-01
       -1   -1    0    0    0  501  0.00000000000E+00  0.00000000000E+00  0.84651153391E+03  0.84651153393E+03  0.50400001928E-02 0.  1.
        1   -1    0    0  501    0  0.00000000000E+00  0.00000000000E+00 -0.23202822127E+04  0.23202822127E+04  0.50400001928E-02 0. -1.
    10030    2    1    2    0    0  0.00000000000E+00  0.00000000000E+00 -0.14737706788E+04  0.31667937466E+04  0.28029596180E+04 0.  0.
        5    1    3    3  502    0 -0.60265171541E+03  0.67775056722E+03 -0.19440256635E+04  0.21451789650E+04  0.46999998093E+01 0. -1.
       -5    1    3    3    0  502  0.60265171541E+03 -0.67775056722E+03  0.47025498471E+03  0.10216147817E+04  0.46999998093E+01 0.  1.
</event>
<event>
 5   0  0.5625245E-06  0.2847164E+04  0.7818609E-02  0.8288773E-01
        2   -1    0    0  501    0  0.00000000000E+00  0.00000000000E+00  0.17263324554E+04  0.17263324554E+04  0.25500000920E-02 0.  1.
       -2   -1    0    0    0  501  0.00000000000E+00  0.00000000000E+00 -0.11739258497E+04  0.11739258497E+04  0.25500000920E-02 0. -1.
    10030    2    1    2    0    0  0.00000000000E+00  0.00000000000E+00  0.55240660567E+03  0.29002583051E+04  0.28471644101E+04 0.  0.
        3    1    3    3  502    0 -0.87587178437E+03  0.72449810096E+03  0.11492371682E+04  0.16164142290E+04  0.10100000352E+00 0.  1.
       -3    1    3    3    0  502  0.87587178437E+03 -0.72449810096E+03 -0.59683056251E+03  0.12838440760E+04  0.10100000352E+00 0. -1.
</event>
<event>
 5   0  0.2206967E-06  0.2805167E+04  0.7818609E-02  0.8301666E-01
        1   -1    0    0  501    0  0.00000000000E+00  0.00000000000E+00  0.15675380549E+04  0.15675380550E+04  0.50400001928E-02 0.  1.
       -1   -1    0    0    0  501  0.00000000000E+00  0.00000000000E+00 -0.12549877027E+04  0.12549877027E+04  0.50400001928E-02 0. -1.
    10030    2    1    2    0    0  0.00000000000E+00  0.00000000000E+00  0.31255035224E+03  0.28225257577E+04  0.28051673622E+04 0.  0.
        5    1    3    3  502    0 -0.31845771543E+03 -0.31150217482E+02 -0.12177640699E+04  0.12591096348E+04  0.46999998093E+01 0. -1.
       -5    1    3    3    0  502  0.31845771543E+03  0.31150217482E+02  0.15303144221E+04  0.15634161228E+04  0.46999998093E+01 0.  1.
</event>
<event>
 5   0  0.5916603E-06  0.2798254E+04  0.7818609E-02  0.8303810E-01
       -2   -1    0    0    0  501  0.00000000000E+00  0.00000000000E+00  0.14733550404E+04  0.14733550405E+04  0.25500000920E-02 0. -1.
        2   -1    0    0  501    0  0.00000000000E+00  0.00000000000E+00 -0.13286390013E+04  0.13286390013E+04  0.25500000920E-02 0.  1.
    10030    2    1    2    0    0  0.00000000000E+00  0.00000000000E+00  0.14471603910E+03  0.28019940418E+04  0.27982544342E+04 0.  0.
        2    1    3    3  502    0 -0.13303362173E+04 -0.24052015566E+03 -0.28855753476E+03  0.13823566281E+04  0.25500000920E-02 0.  1.
       -2    1    3    3    0  502  0.13303362173E+04  0.24052015566E+03  0.43327357386E+03  0.14196374137E+04  0.25500000920E-02 0. -1.
</event>
<event>
 5   0  0.2234068E-06  0.2871882E+04  0.7818609E-02  0.8281293E-01
        1   -1    0    0  501    0  0.00000000000E+00  0.00000000000E+00  0.14620636899E+04  0.14620636899E+04  0.50400001928E-02 0.  1.
       -1   -1    0    0    0  501  0.00000000000E+00  0.00000000000E+00 -0.14102848917E+04  0.14102848917E+04  0.50400001928E-02 0. -1.
    10030    2    1    2    0    0  0.00000000000E+00  0.00000000000E+00  0.51778798203E+02  0.28723485816E+04  0.28718818448E+04 0.  0.
        3    1    3    3  502    0 -0.37509137032E+03 -0.37089598282E+03  0.13616471486E+04  0.14602535169E+04  0.10100000352E+00 0.  1.
       -3    1    3    3    0  502  0.37509137032E+03  0.37089598282E+03 -0.13098683504E+04  0.14120950647E+04  0.10100000352E+00 0. -1.
</event>
<event>
 5   0  0.2234068E-06  0.2799248E+04  0.7818609E-02  0.8303502E-01
       -1   -1    0    0    0  501  0.00000000000E+00  0.00000000000E+00  0.95314528070E+03  0.95314528072E+03  0.50400001928E-02 0.  1.
        1   -1    0    0  501    0  0.00000000000E+00  0.00000000000E+00 -0.20552450900E+04  0.20552450900E+04  0.50400001928E-02 0. -1.
    10030    2    1    2    0    0  0.00000000000E+00  0.00000000000E+00 -0.11020998093E+04  0.30083903707E+04  0.27992478692E+04 0.  0.
        3    1    3    3  502    0  0.13097815273E+04  0.40311014779E+03 -0.24532884743E+03  0.13921967153E+04  0.10100000352E+00 0.  1.
       -3    1    3    3    0  502 -0.13097815273E+04 -0.40311014779E+03 -0.85677096188E+03  0.16161936554E+04  0.10100000352E+00 0. -1.
</event>
<event>
 5   0  0.2267565E-06  0.2855405E+04  0.7818609E-02  0.8286271E-01
       -1   -1    0    0    0  501  0.00000000000E+00  0.00000000000E+00  0.10836622415E+04  0.10836622415E+04  0.50400001928E-02 0. -1.
        1   -1    0    0  501    0  0.00000000000E+00  0.00000000000E+00 -0.18809682801E+04  0.18809682801E+04  0.50400001928E-02 0.  1.
    10030    2    1    2    0    0  0.00000000000E+00  0.00000000000E+00 -0.79730603863E+03  0.29646305216E+04  0.28554049118E+04 0.  0.
        4    1    3    3  502    0  0.24566956102E+03  0.72301213524E+03 -0.16511280661E+04  0.18191551843E+04  0.12699999809E+01 0.  1.
       -4    1    3    3    0  502 -0.24566956102E+03 -0.72301213524E+03  0.85382202747E+03  0.11454753373E+04  0.12699999809E+01 0. -1.
</event>
<event>
 5   0  0.5546570E-06  0.2795293E+04  0.7818609E-02  0.8304731E-01
        2   -1    0    0  501    0  0.00000000000E+00  0.00000000000E+00  0.19219998858E+04  0.19219998858E+04  0.25500000920E-02 0. -1.
       -2   -1    0    0    0  501  0.00000000000E+00  0.00000000000E+00 -0.10163452121E+04  0.10163452121E+04  0.25500000920E-02 0.  1.
    10030    2    1    2    0    0  0.00000000000E+00  0.00000000000E+00  0.90565467374E+03  0.29383450979E+04  0.27952927443E+04 0.  0.
        4    1    3    3  502    0 -0.44736659227E+03  0.27845176426E+03  0.18135794523E+04  0.18885826155E+04  0.12699999809E+01 0. -1.
       -4    1    3    3    0  502  0.44736659227E+03 -0.27845176426E+03 -0.90792477857E+03  0.10497624823E+04  0.12699999809E+01 0.  1.
</event>
<event>
 5   0  0.2234068E-06  0.2830716E+04  0.7818609E-02  0.8293795E-01
       -1   -1    0    0    0  501  0.00000000000E+00  0.00000000000E+00  0.10689034164E+04  0.10689034164E+04  0.50400001928E-02 0. -1.
        1   -1    0    0  501    0  0.00000000000E+00  0.00000000000E+00 -0.18741054386E+04  0.18741054386E+04  0.50400001928E-02 0.  1.
    10030    2    1    2    0    0  0.00000000000E+00  0.00000000000E+00 -0.80520202221E+03  0.29430088549E+04  0.28307156028E+04 0.  0.
        3    1    3    3  502    0  0.10701089006E+03 -0.93452501422E+03  0.69691989993E+03  0.11706774491E+04  0.10100000352E+00 0. -1.
       -3    1    3    3    0  502 -0.10701089006E+03  0.93452501422E+03 -0.15021219221E+04  0.17723314058E+04  0.10100000352E+00 0.  1.
</event>
<event>
 5   0  0.2206967E-06  0.2792338E+04  0.7818609E-02  0.8305651E-01
        1   -1    0    0  501    0  0.00000000000E+00  0.00000000000E+00  0.20697331867E+04  0.20697331867E+04  0.50400001928E-02 0.  1.
       -1   -1    0    0    0  501  0.00000000000E+00  0.00000000000E+00 -0.94180627729E+03  0.94180627730E+03  0.50400001928E-02 0. -1.
    10030    2    1    2    0    0  0.00000000000E+00  0.00000000000E+00  0.11279269094E+04  0.30115394640E+04  0.27923378790E+04 0.  0.
        5    1    3    3  502    0 -0.65082812688E+03 -0.27947157095E+03 -0.73364145247E+03  0.10197712883E+04  0.46999998093E+01 0. -1.
       -5    1    3    3    0  502  0.65082812688E+03  0.27947157095E+03  0.18615683619E+04  0.19917681757E+04  0.46999998093E+01 0.  1.
</event>
<event>
 5   0  0.2267565E-06  0.2790453E+04  0.7818609E-02  0.8306238E-01
       -1   -1    0    0    0  501  0.00000000000E+00  0.00000000000E+00  0.77458602533E+03  0.77458602535E+03  0.50400001928E-02 0. -1.
        1   -1    0    0  501    0  0.00000000000E+00  0.00000000000E+00 -0.25131586442E+04  0.25131586442E+04  0.50400001928E-02 0.  1.
    10030    2    1    2    0    0  0.00000000000E+00  0.00000000000E+00 -0.17385726189E+04  0.32877446696E+04  0.27904534150E+04 0.  0.
        4    1    3    3  502    0 -0.47729943696E+03  0.13050016447E+04 -0.10174410095E+04  0.17222171367E+04  0.12699999809E+01 0.  1.
       -4    1    3    3    0  502  0.47729943696E+03 -0.13050016447E+04 -0.72113160941E+03  0.15655275329E+04  0.12699999809E+01 0. -1.
</event>
<event>
 5   0  0.5916603E-06  0.2845405E+04  0.7818609E-02  0.8289309E-01
        2   -1    0    0  501    0  0.00000000000E+00  0.00000000000E+00  0.24904476956E+04  0.24904476956E+04  0.25500000920E-02 0.  1.
       -2   -1    0    0    0  501  0.00000000000E+00  0.00000000000E+00 -0.81273862059E+03  0.81273862059E+03  0.25500000920E-02 0. -1.
    10030    2    1    2    0    0  0.00000000000E+00  0.00000000000E+00  0.16777090750E+04  0.33031863162E+04  0.28454054367E+04 0.  0.
        2    1    3    3  502    0  0.50709069802E+03 -0.56050480365E+03 -0.56037287201E+03  0.94091676923E+03  0.25500000920E-02 0. -1.
       -2    1    3    3    0  502 -0.50709069802E+03  0.56050480365E+03  0.22380819471E+04  0.23622695470E+04  0.25500000920E-02 0.  1.
</event>
<event>
 5   0  0.5546570E-06  0.2803630E+04  0.7818609E-02  0.8302142E-01
       -2   -1    0    0    0  501  0.00000000000E+00  0.00000000000E+00  0.80169401625E+03  0.80169401625E+03  0.25500000920E-02 0. -1.
        2   -1    0    0  501    0  0.00000000000E+00  0.00000000000E+00 -0.24511654351E+04  0.24511654351E+04  0.25500000920E-02 0.  1.
    10030    2    1    2    0    0  0.00000000000E+00  0.00000000000E+00 -0.16494714188E+04  0.32528594513E+04  0.28036295491E+04 0.  0.
        4    1    3    3  502    0 -0.11380900076E+04  0.60883991642E+03 -0.14593178183E+04  0.19482158548E+04  0.12699999809E+01 0. -1.
       -4    1    3    3    0  502  0.11380900076E+04 -0.60883991642E+03 -0.19015360052E+03  0.13046435965E+04  0.12699999809E+01 0.  1.
</event>
<event>
 5   0  0.5546570E-06  0.2802027E+04  0.7818609E-02  0.8302639E-01
       -2   -1    0    0    0  501  0.00000000000E+00  0.00000000000E+00  0.10118635219E+04  0.10118635219E+04  0.25500000920E-02 0.  1.
        2   -1    0    0  501    0  0.00000000000E+00  0.00000000000E+00 -0.19398253701E+04  0.19398253701E+04  0.25500000920E-02 0. -1.
    10030    2    1    2    0    0  0.00000000000E+00  0.00000000000E+00 -0.92796184821E+03  0.29516888920E+04  0.28020267885E+04 0.  0.
        4    1    3    3  502    0  0.91903577837E+03  0.77537569027E+02  0.64695591582E+03  0.11265843983E+04  0.12699999809E+01 0.  1.
       -4    1    3    3    0  502 -0.91903577837E+03 -0.77537569027E+02 -0.15749177640E+04  0.18251044937E+04  0.12699999809E+01 0. -1.
</event>
<event>
 5   0  0.2267565E-06  0.2835811E+04  0.7818609E-02  0.8292236E-01
        1   -1    0    0  501    0  0.00000000000E+00  0.00000000000E+00  0.17632572858E+04  0.17632572858E+04  0.50400001928E-02 0.  1.
       -1   -1    0    0    0  501  0.00000000000E+00  0.00000000000E+00 -0.11401942063E+04  0.11401942063E+04  0.50400001928E-02 0. -1.
    10030    2    1    2    0    0  0.00000000000E+00  0.00000000000E+00  0.62306307956E+03  0.29034514921E+04  0.28358108128E+04 0.  0.
        4    1    3    3  502    0  0.13168132911E+04  0.45410679829E+03  0.40174164178E+02  0.13934940991E+04  0.12699999809E+01 0. -1.
       -4    1    3    3    0  502 -0.13168132911E+04 -0.45410679829E+03  0.58288891538E+03  0.15099573930E+04  0.12699999809E+01 0.  1.
</event>
<event>
 5   0  0.5916603E-06  0.2817588E+04  0.7818609E-02  0.8297829E-01
       -2   -1    0    0    0  501  0.00000000000E+00  0.00000000000E+00  0.11776053496E+04  0.11776053496E+04  0.25500000920E-02 0. -1.
        2   -1    0    0  501    0  0.00000000000E+00  0.00000000000E+00 -0.16853693883E+04  0.16853693883E+04  0.25500000920E-02 0.  1.
    10030    2    1    2    0    0  0.00000000000E+00  0.00000000000E+00 -0.50776403867E+03  0.28629747379E+04  0.28175876261E+04 0.  0.
        2    1    3    3  502    0 -0.13443910724E+04 -0.32122074749E+03  0.22771846705E+02  0.13824213110E+04  0.25500000920E-02 0. -1.
       -2    1    3    3    0  502  0.13443910724E+04  0.32122074749E+03 -0.53053588537E+03  0.14805534269E+04  0.25500000920E-02 0.  1.
</event>
<event>
 5   0  0.5546570E-06  0.2678986E+04  0.7818609E-02  0.8341856E-01
       -2   -1    0    0    0  501  0.00000000000E+00  0.00000000000E+00  0.21428850675E+04  0.21428850675E+04  0.25500000920E-02 0.  1.
        2   -1    0    0  501    0  0.00000000000E+00  0.00000000000E+00 -0.83730195316E+03  0.83730195316E+03  0.25500000920E-02 0. -1.
    10030    2    1    2    0    0  0.00000000000E+00  0.00000000000E+00  0.13055831143E+04  0.29801870206E+04  0.26789862653E+04 0.  0.
        4    1    3    3  502    0  0.37740929906E+03  0.37209222752E+03 -0.71570181598E+03  0.89057347092E+03  0.12699999809E+01 0. -1.
       -4    1    3    3    0  502 -0.37740929906E+03 -0.37209222752E+03  0.20212849303E+04  0.20896135497E+04  0.12699999809E+01 0.  1.
</event>
<event>
 5   0  0.5866136E-06  0.2790439E+04  0.7818609E-02  0.8306243E-01
        2   -1    0    0  501    0  0.00000000000E+00  0.00000000000E+00  0.14049864673E+04  0.14049864673E+04  0.25500000920E-02 0. -1.
       -2   -1    0    0    0  501  0.00000000000E+00  0.00000000000E+00 -0.13855201810E+04  0.13855201810E+04  0.25500000920E-02 0.  1.
    10030    2    1    2    0    0  0.00000000000E+00  0.00000000000E+00  0.19466286270E+02  0.27905066483E+04  0.27904387500E+04 0.  0.
        5    1    3    3  502    0  0.59397733693E+02 -0.13844306222E+04 -0.15287086201E+03  0.13941190154E+04  0.46999998093E+01 0.  1.
       -5    1    3    3    0  502 -0.59397733693E+02  0.13844306222E+04  0.17233714828E+03  0.13963876329E+04  0.46999998093E+01 0. -1.
</event>
<event>
 5   0  0.2190865E-06  0.2806700E+04  0.7818609E-02  0.8301191E-01
       -1   -1    0    0    0  501  0.00000000000E+00  0.00000000000E+00  0.84885473074E+03  0.84885473075E+03  0.50400001928E-02 0. -1.
        1   -1    0    0  501    0  0.00000000000E+00  0.00000000000E+00 -0.23200563729E+04  0.23200563729E+04  0.50400001928E-02 0.  1.
    10030    2    1    2    0    0  0.00000000000E+00  0.00000000000E+00 -0.14712016421E+04  0.31689111036E+04  0.28066997187E+04 0.  0.
        2    1    3    3  502    0 -0.46491473810E+01 -0.85589872911E+03  0.52003876317E+03  0.10015111404E+04  0.25500000920E-02 0. -1.
       -2    1    3    3    0  502  0.46491473810E+01  0.85589872911E+03 -0.19912404053E+04  0.21673999633E+04  0.25500000920E-02 0.  1.
</event>
<event>
 5   0  0.5866136E-06  0.2797701E+04  0.7818609E-02  0.8303982E-01
        2   -1    0    0  501    0  0.00000000000E+00  0.00000000000E+00  0.28132930904E+04  0.28132930904E+04  0.25500000920E-02 0. -1.
       -2   -1    0    0    0  501  0.00000000000E+00  0.00000000000E+00 -0.69554904451E+03  0.69554904452E+03  0.25500000920E-02 0.  1.
    10030    2    1    2    0    0  0.00000000000E+00  0.00000000000E+00  0.21177440459E+04  0.35088421349E+04  0.27977014287E+04 0.  0.
        5    1    3    3  502    0 -0.11216248070E+04 -0.63922244898E+03  0.17344050270E+04  0.21621356189E+04  0.46999998093E+01 0. -1.
       -5    1    3    3    0  502  0.11216248070E+04  0.63922244898E+03  0.38333901887E+03  0.13467065160E+04  0.46999998093E+01 0.  1.
</event>
<event>
 5   0  0.1901375E-06  0.2803709E+04  0.7818609E-02  0.8302118E-01
        3   -1    0    0  501    0  0.00000000000E+00  0.00000000000E+00  0.17206334421E+04  0.17206334451E+04  0.10100000352E+00 0.  1.
       -3   -1    0    0    0  501  0.00000000000E+00  0.00000000000E+00 -0.11421348818E+04  0.11421348862E+04  0.10100000352E+00 0. -1.
    10030    2    1    2    0    0  0.00000000000E+00  0.00000000000E+00  0.57849856036E+03  0.28627683314E+04  0.28037086037E+04 0.  0.
        4    1    3    3  502    0 -0.79360270739E+03  0.10068371069E+04 -0.28985533446E+03  0.13143606601E+04  0.12699999809E+01 0. -1.
       -4    1    3    3    0  502  0.79360270739E+03 -0.10068371069E+04  0.86835389482E+03  0.15484076713E+04  0.12699999809E+01 0.  1.
</event>
<event>
 5   0  0.2190865E-06  0.2830511E+04  0.7818609E-02  0.8293858E-01
       -1   -1    0    0    0  501  0.00000000000E+00  0.00000000000E+00  0.28032463526E+04  0.28032463526E+04  0.50400001928E-02 0. -1.
        1   -1    0    0  501    0  0.00000000000E+00  0.00000000000E+00 -0.71451007064E+03  0.71451007066E+03  0.50400001928E-02 0.  1.
    10030    2    1    2    0    0  0.00000000000E+00  0.00000000000E+00  0.20887362820E+04  0.35177564233E+04  0.28305107309E+04 0.  0.
        2    1    3    3  502    0 -0.51211170307E+03 -0.27544790215E+03  0.26479248205E+04  0.27110211726E+04  0.25500000920E-02 0. -1.
       -2    1    3    3    0  502  0.51211170307E+03  0.27544790215E+03 -0.55918853847E+03  0.80673525074E+03  0.25500000920E-02 0.  1.
</event>
<event>
 5   0  0.5584205E-06  0.2763150E+04  0.7818609E-02  0.8314801E-01
        2   -1    0    0  501    0  0.00000000000E+00  0.00000000000E+00  0.18162339283E+04  0.18162339283E+04  0.25500000920E-02 0.  1.
       -2   -1    0    0    0  501  0.00000000000E+00  0.00000000000E+00 -0.10509383088E+04  0.10509383088E+04  0.25500000920E-02 0. -1.
    10030    2    1    2    0    0  0.00000000000E+00  0.00000000000E+00  0.76529561952E+03  0.28671722370E+04  0.27631502405E+04 0.  0.
        1    1    3    3  502    0 -0.36584393644E+02  0.87460252864E+03  0.14917560470E+04  0.17296254232E+04  0.50400001928E-02 0.  1.
       -1    1    3    3    0  502  0.36584393644E+02 -0.87460252864E+03 -0.72646042744E+03  0.11375468138E+04  0.50400001928E-02 0. -1.
</event>
<event>
 5   0  0.2267565E-06  0.2790819E+04  0.7818609E-02  0.8306124E-01
        1   -1    0    0  501    0  0.00000000000E+00  0.00000000000E+00  0.18836121134E+04  0.18836121134E+04  0.50400001928E-02 0.  1.
       -1   -1    0    0    0  501  0.00000000000E+00  0.00000000000E+00 -0.10337413631E+04  0.10337413631E+04  0.50400001928E-02 0. -1.
    10030    2    1    2    0    0  0.00000000000E+00  0.00000000000E+00  0.84987075027E+03  0.29173534765E+04  0.27908190581E+04 0.  0.
        4    1    3    3  502    0  0.91657056533E+02  0.71824298496E+03  0.16718690765E+04  0.18219280511E+04  0.12699999809E+01 0.  1.
       -4    1    3    3    0  502 -0.91657056533E+02 -0.71824298496E+03 -0.82199832624E+03  0.10954254254E+04  0.12699999809E+01 0. -1.
</event>
<event>
 5   0  0.5625245E-06  0.2806693E+04  0.7818609E-02  0.8301194E-01
        2   -1    0    0  501    0  0.00000000000E+00  0.00000000000E+00  0.12665906220E+04  0.12665906220E+04  0.25500000920E-02 0. -1.
       -2   -1    0    0    0  501  0.00000000000E+00  0.00000000000E+00 -0.15548676413E+04  0.15548676413E+04  0.25500000920E-02 0.  1.
    10030    2    1    2    0    0  0.00000000000E+00  0.00000000000E+00 -0.28827701929E+03  0.28214582633E+04  0.28066925538E+04 0.  0.
        3    1    3    3  502    0  0.30712455061E+03  0.22657420852E+03 -0.15016946454E+04  0.15494347937E+04  0.10100000352E+00 0.  1.
       -3    1    3    3    0  502 -0.30712455061E+03 -0.22657420852E+03  0.12134176262E+04  0.12720234696E+04  0.10100000352E+00 0. -1.
</event>
<event>
 5   0  0.2206967E-06  0.2805847E+04  0.7818609E-02  0.8301456E-01
       -1   -1    0    0    0  501  0.00000000000E+00  0.00000000000E+00  0.96339338294E+03  0.96339338295E+03  0.50400001928E-02 0. -1.
        1   -1    0    0  501    0  0.00000000000E+00  0.00000000000E+00 -0.20429802839E+04  0.20429802839E+04  0.50400001928E-02 0.  1.
    10030    2    1    2    0    0  0.00000000000E+00  0.00000000000E+00 -0.10795869009E+04  0.30063736668E+04  0.28058465296E+04 0.  0.
        5    1    3    3  502    0 -0.85735309339E+03  0.75227401938E+03  0.33540675893E+03  0.11889029863E+04  0.46999998093E+01 0. -1.
       -5    1    3    3    0  502  0.85735309339E+03 -0.75227401938E+03 -0.14149936598E+04  0.18174706805E+04  0.46999998093E+01 0.  1.
</event>
<event>
 5   0  0.2234068E-06  0.2936218E+04  0.7818609E-02  0.8262183E-01
       -1   -1    0    0    0  501  0.00000000000E+00  0.00000000000E+00  0.12290779523E+04  0.12290779523E+04  0.50400001928E-02 0. -1.
        1   -1    0    0  501    0  0.00000000000E+00  0.00000000000E+00 -0.17536263416E+04  0.17536263416E+04  0.50400001928E-02 0.  1.
    10030    2    1    2    0    0  0.00000000000E+00  0.00000000000E+00 -0.52454838930E+03  0.29827042938E+04  0.29362176165E+04 0.  0.
        3    1    3    3  502    0  0.17924830951E+03 -0.11030859895E+04  0.70485714095E+03  0.13212691838E+04  0.10100000352E+00 0. -1.
       -3    1    3    3    0  502 -0.17924830951E+03  0.11030859895E+04 -0.12294055303E+04  0.16614351100E+04  0.10100000352E+00 0.  1.
</event>
<event>
 5   0  0.5916603E-06  0.2786721E+04  0.7818609E-02  0.8307403E-01
        2   -1    0    0  501    0  0.00000000000E+00  0.00000000000E+00  0.22939061896E+04  0.22939061896E+04  0.25500000920E-02 0. -1.
       -2   -1    0    0    0  501  0.00000000000E+00  0.00000000000E+00 -0.84635284119E+03  0.84635284120E+03  0.25500000920E-02 0.  1.
    10030    2    1    2    0    0  0.00000000000E+00  0.00000000000E+00  0.14475533484E+04  0.31402590308E+04  0.27867213862E+04 0.  0.
        2    1    3    3  502    0  0.83997041219E+03 -0.59857640449E+03 -0.33188002525E+03  0.10835074326E+04  0.25500000920E-02 0.  1.
       -2    1    3    3    0  502 -0.83997041219E+03  0.59857640449E+03  0.17794333737E+04  0.20567515982E+04  0.25500000920E-02 0. -1.
</event>
<event>
 5   0  0.5866136E-06  0.2794990E+04  0.7818609E-02  0.8304826E-01
       -2   -1    0    0    0  501  0.00000000000E+00  0.00000000000E+00  0.13680210926E+04  0.13680210926E+04  0.25500000920E-02 0. -1.
        2   -1    0    0  501    0  0.00000000000E+00  0.00000000000E+00 -0.14276036473E+04  0.14276036473E+04  0.25500000920E-02 0.  1.
    10030    2    1    2    0    0  0.00000000000E+00  0.00000000000E+00 -0.59582554729E+02  0.27956247399E+04  0.27949897326E+04 0.  0.
        5    1    3    3  502    0  0.72416728506E+03 -0.63544562600E+03 -0.10423257728E+04  0.14193923020E+04  0.46999998093E+01 0.  1.
       -5    1    3    3    0  502 -0.72416728506E+03  0.63544562600E+03  0.98274321811E+03  0.13762324379E+04  0.46999998093E+01 0. -1.
</event>
<event>
 5   0  0.2267565E-06  0.2795371E+04  0.7818609E-02  0.8304707E-01
       -1   -1    0    0    0  501  0.00000000000E+00  0.00000000000E+00  0.89317768678E+03  0.89317768680E+03  0.50400001928E-02 0. -1.
        1   -1    0    0  501    0  0.00000000000E+00  0.00000000000E+00 -0.21871624752E+04  0.21871624752E+04  0.50400001928E-02 0.  1.
    10030    2    1    2    0    0  0.00000000000E+00  0.00000000000E+00 -0.12939847884E+04  0.30803401620E+04  0.27953709738E+04 0.  0.
        4    1    3    3  502    0 -0.10408543449E+04 -0.86385005925E+03 -0.25910146099E+03  0.13772254253E+04  0.12699999809E+01 0.  1.
       -4    1    3    3    0  502  0.10408543449E+04  0.86385005925E+03 -0.10348833274E+04  0.17031147367E+04  0.12699999809E+01 0. -1.
</event>
<event>
 5   0  0.5546570E-06  0.2790783E+04  0.7818609E-02  0.8306136E-01
       -2   -1    0    0    0  501  0.00000000000E+00  0.00000000000E+00  0.11236876173E+04  0.11236876174E+04  0.25500000920E-02 0. -1.
        2   -1    0    0  501    0  0.00000000000E+00  0.00000000000E+00 -0.17327920001E+04  0.17327920001E+04  0.25500000920E-02 0.  1.
    10030    2    1    2    0    0  0.00000000000E+00  0.00000000000E+00 -0.60910438278E+03  0.28564796175E+04  0.27907826243E+04 0.  0.
        4    1    3    3  502    0 -0.86231966044E+03 -0.52125223628E+03 -0.12925824607E+04  0.16389234641E+04  0.12699999809E+01 0.  1.
       -4    1    3    3    0  502  0.86231966044E+03  0.52125223628E+03  0.68347807795E+03  0.12175561533E+04  0.12699999809E+01 0. -1.
</event>
<event>
 5   0  0.2206967E-06  0.2783616E+04  0.7818609E-02  0.8308373E-01
        1   -1    0    0  501    0  0.00000000000E+00  0.00000000000E+00  0.20001210133E+04  0.20001210133E+04  0.50400001928E-02 0.  1.
       -1   -1    0    0    0  501  0.00000000000E+00  0.00000000000E+00 -0.96850626003E+03  0.96850626004E+03  0.50400001928E-02 0. -1.
    10030    2    1    2    0    0  0.00000000000E+00  0.00000000000E+00  0.10316147533E+04  0.29686272733E+04  0.27836161533E+04 0.  0.
        5    1    3    3  502    0  0.91004572982E+03  0.10018347561E+04  0.86179496550E+03  0.16045462790E+04  0.46999998093E+01 0.  1.
       -5    1    3    3    0  502 -0.91004572982E+03 -0.10018347561E+04  0.16981978777E+03  0.13640809944E+04  0.46999998093E+01 0. -1.
</event>
<event>
 5   0  0.5916603E-06  0.2815035E+04  0.7818609E-02  0.8298616E-01
        2   -1    0    0  501    0  0.00000000000E+00  0.00000000000E+00  0.14208375342E+04  0.14208375342E+04  0.25500000920E-02 0.  1.
       -2   -1    0    0    0  501  0.00000000000E+00  0.00000000000E+00 -0.13943223484E+04  0.13943223484E+04  0.25500000920E-02 0. -1.
    10030    2    1    2    0    0  0.00000000000E+00  0.00000000000E+00  0.26515185812E+02  0.28151598826E+04  0.28150350104E+04 0.  0.
        2    1    3    3  502    0 -0.13422979070E+04 -0.29102666537E+03  0.32091606148E+03  0.14104776884E+04  0.25500000920E-02 0.  1.
       -2    1    3    3    0  502  0.13422979070E+04  0.29102666537E+03 -0.29440087567E+03  0.14046821942E+04  0.25500000920E-02 0. -1.
</event>
<event>
 5   0  0.5625245E-06  0.2805066E+04  0.7818609E-02  0.8301697E-01
       -2   -1    0    0    0  501  0.00000000000E+00  0.00000000000E+00  0.13086124133E+04  0.13086124133E+04  0.25500000920E-02 0. -1.
        2   -1    0    0  501    0  0.00000000000E+00  0.00000000000E+00 -0.15031942118E+04  0.15031942118E+04  0.25500000920E-02 0.  1.
    10030    2    1    2    0    0  0.00000000000E+00  0.00000000000E+00 -0.19458179853E+03  0.28118066252E+04  0.28050658497E+04 0.  0.
        3    1    3    3  502    0 -0.35014266021E+03 -0.65403715578E+03 -0.12904175988E+04  0.14884697085E+04  0.10100000352E+00 0.  1.
       -3    1    3    3    0  502  0.35014266021E+03  0.65403715578E+03  0.10958358003E+04  0.13233369167E+04  0.10100000352E+00 0. -1.
</event>
<event>
 5   0  0.2190865E-06  0.2853126E+04  0.7818609E-02  0.8286962E-01
        1   -1    0    0  501    0  0.00000000000E+00  0.00000000000E+00  0.20973427268E+04  0.20973427268E+04  0.50400001928E-02 0. -1.
       -1   -1    0    0    0  501  0.00000000000E+00  0.00000000000E+00 -0.97031473734E+03  0.97031473735E+03  0.50400001928E-02 0.  1.
    10030    2    1    2    0    0  0.00000000000E+00  0.00000000000E+00  0.11270279894E+04  0.30676574641E+04  0.28531263954E+04 0.  0.
        2    1    3    3  502    0 -0.54533368133E+02 -0.11182186898E+04 -0.38710107582E+03  0.11845818542E+04  0.25500000920E-02 0.  1.
       -2    1    3    3    0  502  0.54533368133E+02  0.11182186898E+04  0.15141290652E+04  0.18830756099E+04  0.25500000920E-02 0. -1.
</event>
<event>
 5   0  0.2206967E-06  0.2807568E+04  0.7818609E-02  0.8300923E-01
        1   -1    0    0  501    0  0.00000000000E+00  0.00000000000E+00  0.19704507843E+04  0.19704507843E+04  0.50400001928E-02 0. -1.
       -1   -1    0    0    0  501  0.00000000000E+00  0.00000000000E+00 -0.10000802369E+04  0.10000802369E+04  0.50400001928E-02 0.  1.
    10030    2    1    2    0    0  0.00000000000E+00  0.00000000000E+00  0.97037054739E+03  0.29705310212E+04  0.28075675501E+04 0.  0.
        5    1    3    3  502    0  0.12214425536E+04 -0.66369097438E+03  0.69192177053E+03  0.15527992297E+04  0.46999998093E+01 0. -1.
       -5    1    3    3    0  502 -0.12214425536E+04  0.66369097438E+03  0.27844877686E+03  0.14177317915E+04  0.46999998093E+01 0.  1.
</event>
<event>
 5   0  0.5625245E-06  0.3125142E+04  0.7818609E-02  0.8208872E-01
       -2   -1    0    0    0  501  0.00000000000E+00  0.00000000000E+00  0.14556134347E+04  0.14556134347E+04  0.25500000920E-02 0. -1.
        2   -1    0    0  501    0  0.00000000000E+00  0.00000000000E+00 -0.16773880456E+04  0.16773880456E+04  0.25500000920E-02 0.  1.
    10030    2    1    2    0    0  0.00000000000E+00  0.00000000000E+00 -0.22177461082E+03  0.31330014803E+04  0.31251422844E+04 0.  0.
        3    1    3    3  502    0  0.46433210608E+03  0.35364266282E+02 -0.16062058485E+04  0.16723492978E+04  0.10100000352E+00 0.  1.
       -3    1    3    3    0  502 -0.46433210608E+03 -0.35364266282E+02  0.13844312377E+04  0.14606521825E+04  0.10100000352E+00 0. -1.
</event>
<event>
 5   0  0.5625245E-06  0.2765728E+04  0.7818609E-02  0.8313988E-01
        2   -1    0    0  501    0  0.00000000000E+00  0.00000000000E+00  0.16339776162E+04  0.16339776162E+04  0.25500000920E-02 0. -1.
       -2   -1    0    0    0  501  0.00000000000E+00  0.00000000000E+00 -0.11703420611E+04  0.11703420611E+04  0.25500000920E-02 0.  1.
    10030    2    1    2    0    0  0.00000000000E+00  0.00000000000E+00  0.46363555508E+03  0.28043196774E+04  0.27657279195E+04 0.  0.
        3    1    3    3  502    0  0.96925210596E+03  0.50004708983E+03 -0.63023119669E+03  0.12596380863E+04  0.10100000352E+00 0.  1.
       -3    1    3    3    0  502 -0.96925210596E+03 -0.50004708983E+03  0.10938667518E+04  0.15446815911E+04  0.10100000352E+00 0. -1.
</event>
<event>
 5   0  0.5916603E-06  0.2802864E+04  0.7818609E-02  0.8302380E-01
       -2   -1    0    0    0  501  0.00000000000E+00  0.00000000000E+00  0.99337354614E+03  0.99337354614E+03  0.25500000920E-02 0. -1.
        2   -1    0    0  501    0  0.00000000000E+00  0.00000000000E+00 -0.19771134567E+04  0.19771134567E+04  0.25500000920E-02 0.  1.
    10030    2    1    2    0    0  0.00000000000E+00  0.00000000000E+00 -0.98373991055E+03  0.29704870028E+04  0.28028643960E+04 0.  0.
        2    1    3    3  502    0  0.35731513249E+03  0.77850753838E+03 -0.16673756780E+04  0.18745372076E+04  0.25500000920E-02 0.  1.
       -2    1    3    3    0  502 -0.35731513249E+03 -0.77850753838E+03  0.68363576740E+03  0.10959497952E+04  0.25500000920E-02 0. -1.
</event>
<event>
 5   0  0.2277133E-06  0.2765247E+04  0.7818609E-02  0.8314140E-01
        1   -1    0    0  501    0  0.00000000000E+00  0.00000000000E+00  0.17642355660E+04  0.17642355660E+04  0.50400001928E-02 0.  1.
       -1   -1    0    0    0  501  0.00000000000E+00  0.00000000000E+00 -0.10835560392E+04  0.10835560392E+04  0.50400001928E-02 0. -1.
    10030    2    1    2    0    0  0.00000000000E+00  0.00000000000E+00  0.68067952677E+03  0.28477916052E+04  0.27652472599E+04 0.  0.
        1    1    3    3  502    0 -0.12766781442E+04 -0.52971897824E+03  0.30558596846E+03  0.14155889459E+04  0.50400001928E-02 0.  1.
       -1    1    3    3    0  502  0.12766781442E+04  0.52971897824E+03  0.37509355831E+03  0.14322026593E+04  0.50400001928E-02 0. -1.
</event>
<event>
 5   0  0.5546570E-06  0.2680684E+04  0.7818609E-02  0.8341300E-01
        2   -1    0    0  501    0  0.00000000000E+00  0.00000000000E+00  0.11260882219E+04  0.11260882219E+04  0.25500000920E-02 0. -1.
       -2   -1    0    0    0  501  0.00000000000E+00  0.00000000000E+00 -0.15953610316E+04  0.15953610316E+04  0.25500000920E-02 0.  1.
    10030    2    1    2    0    0  0.00000000000E+00  0.00000000000E+00 -0.46927280970E+03  0.27214492536E+04  0.26806844406E+04 0.  0.
        4    1    3    3  502    0 -0.22158528679E+03 -0.13040634949E+04 -0.14933778210E+02  0.13228402280E+04  0.12699999809E+01 0. -1.
       -4    1    3    3    0  502  0.22158528679E+03  0.13040634949E+04 -0.45433903149E+03  0.13986090256E+04  0.12699999809E+01 0.  1.
</event>
<event>
 5   0  0.5625245E-06  0.2780576E+04  0.7818609E-02  0.8309324E-01
       -2   -1    0    0    0  501  0.00000000000E+00  0.00000000000E+00  0.14116680334E+04  0.14116680334E+04  0.25500000920E-02 0. -1.
        2   -1    0    0  501    0  0.00000000000E+00  0.00000000000E+00 -0.13692315035E+04  0.13692315035E+04  0.25500000920E-02 0.  1.
    10030    2    1    2    0    0  0.00000000000E+00  0.00000000000E+00  0.42436529887E+02  0.27808995368E+04  0.27805757272E+04 0.  0.
        3    1    3    3  502    0  0.13149025485E+04  0.41088798240E+03  0.20859719572E+03  0.13933091711E+04  0.10100000352E+00 0. -1.
       -3    1    3    3    0  502 -0.13149025485E+04 -0.41088798240E+03 -0.16616066583E+03  0.13875903657E+04  0.10100000352E+00 0.  1.
</event>
<event>
 5   0  0.2190865E-06  0.2772917E+04  0.7818609E-02  0.8311726E-01
       -1   -1    0    0    0  501  0.00000000000E+00  0.00000000000E+00  0.12399849740E+04  0.12399849740E+04  0.50400001928E-02 0.  1.
        1   -1    0    0  501    0  0.00000000000E+00  0.00000000000E+00 -0.15502345340E+04  0.15502345340E+04  0.50400001928E-02 0. -1.
    10030    2    1    2    0    0  0.00000000000E+00  0.00000000000E+00 -0.31024956004E+03  0.27902195080E+04  0.27729172568E+04 0.  0.
        2    1    3    3  502    0 -0.30616325110E+03  0.44799114016E+03  0.11287028613E+04  0.12523586336E+04  0.25500000920E-02 0.  1.
       -2    1    3    3    0  502  0.30616325110E+03 -0.44799114016E+03 -0.14389524214E+04  0.15378608744E+04  0.25500000920E-02 0. -1.
</event>
<event>
 5   0  0.2277133E-06  0.2808361E+04  0.7818609E-02  0.8300677E-01
        1   -1    0    0  501    0  0.00000000000E+00  0.00000000000E+00  0.15498153813E+04  0.15498153813E+04  0.50400001928E-02 0.  1.
       -1   -1    0    0    0  501  0.00000000000E+00  0.00000000000E+00 -0.12722306122E+04  0.12722306122E+04  0.50400001928E-02 0. -1.
    10030    2    1    2    0    0  0.00000000000E+00  0.00000000000E+00  0.27758476906E+03  0.28220459935E+04  0.28083607826E+04 0.  0.
        1    1    3    3  502    0 -0.12040637721E+04  0.40123752239E+03  0.74252077893E+03  0.14704075026E+04  0.50400001928E-02 0.  1.
       -1    1    3    3    0  502  0.12040637721E+04 -0.40123752239E+03 -0.46493600987E+03  0.13516384908E+04  0.50400001928E-02 0. -1.
</event>
<event>
 5   0  0.5584205E-06  0.2788810E+04  0.7818609E-02  0.8306751E-01
        2   -1    0    0  501    0  0.00000000000E+00  0.00000000000E+00  0.11128600412E+04  0.11128600412E+04  0.25500000920E-02 0.  1.
       -2   -1    0    0    0  501  0.00000000000E+00  0.00000000000E+00 -0.17471786259E+04  0.17471786259E+04  0.25500000920E-02 0. -1.
    10030    2    1    2    0    0  0.00000000000E+00  0.00000000000E+00 -0.63431858473E+03  0.28600386671E+04  0.27888099810E+04 0.  0.
        1    1    3    3  502    0  0.78335736679E+03 -0.11321039276E+04 -0.54430493281E+03  0.14803972193E+04  0.50400001928E-02 0.  1.
       -1    1    3    3    0  502 -0.78335736679E+03  0.11321039276E+04 -0.90013651929E+02  0.13796414478E+04  0.50400001928E-02 0. -1.
</event>
<event>
 5   0  0.2206967E-06  0.2767351E+04  0.7818609E-02  0.8313477E-01
       -1   -1    0    0    0  501  0.00000000000E+00  0.00000000000E+00  0.97878181061E+03  0.97878181062E+03  0.50400001928E-02 0.  1.
        1   -1    0    0  501    0  0.00000000000E+00  0.00000000000E+00 -0.19560622856E+04  0.19560622857E+04  0.50400001928E-02 0. -1.
    10030    2    1    2    0    0  0.00000000000E+00  0.00000000000E+00 -0.97728047504E+03  0.29348440963E+04  0.27673512142E+04 0.  0.
        5    1    3    3  502    0  0.64655601710E+03  0.37148589256E+03 -0.17247314523E+04  0.18790309002E+04  0.46999998093E+01 0. -1.
       -5    1    3    3    0  502 -0.64655601710E+03 -0.37148589256E+03  0.74745097721E+03  0.10558131960E+04  0.46999998093E+01 0.  1.
</event>
<event>
 5   0  0.2277133E-06  0.2735058E+04  0.7818609E-02  0.8323719E-01
        1   -1    0    0  501    0  0.00000000000E+00  0.00000000000E+00  0.19867993116E+04  0.19867993116E+04  0.50400001928E-02 0.  1.
       -1   -1    0    0    0  501  0.00000000000E+00  0.00000000000E+00 -0.94128041513E+03  0.94128041514E+03  0.50400001928E-02 0. -1.
    10030    2    1    2    0    0  0.00000000000E+00  0.00000000000E+00  0.10455188965E+04  0.29280797268E+04  0.27350577916E+04 0.  0.
        1    1    3    3  502    0 -0.58029527874E+03  0.10186091549E+04 -0.23108534693E+03  0.11948672138E+04  0.50400001928E-02 0. -1.
       -1    1    3    3    0  502  0.58029527874E+03 -0.10186091549E+04  0.12766042434E+04  0.17332125130E+04  0.50400001928E-02 0.  1.
</event>
<event>
 5   0  0.5625245E-06  0.2795705E+04  0.7818609E-02  0.8304603E-01
        2   -1    0    0  501    0  0.00000000000E+00  0.00000000000E+00  0.95513531347E+03  0.95513531347E+03  0.25500000920E-02 0.  1.
       -2   -1    0    0    0  501  0.00000000000E+00  0.00000000000E+00 -0.20457746839E+04  0.20457746839E+04  0.25500000920E-02 0. -1.
    10030    2    1    2    0    0  0.00000000000E+00  0.00000000000E+00 -0.10906393704E+04  0.30009099973E+04  0.27957050230E+04 0.  0.
        3    1    3    3  502    0 -0.64254348730E+03  0.54141795094E+03  0.65381575383E+03  0.10646457537E+04  0.10100000352E+00 0.  1.
       -3    1    3    3    0  502  0.64254348730E+03 -0.54141795094E+03 -0.17444551242E+04  0.19362642437E+04  0.10100000352E+00 0. -1.
</event>
<event>
 5   0  0.2277133E-06  0.2799790E+04  0.7818609E-02  0.8303333E-01
        1   -1    0    0  501    0  0.00000000000E+00  0.00000000000E+00  0.15548596500E+04  0.15548596500E+04  0.50400001928E-02 0. -1.
       -1   -1    0    0    0  501  0.00000000000E+00  0.00000000000E+00 -0.12603752154E+04  0.12603752155E+04  0.50400001928E-02 0.  1.
    10030    2    1    2    0    0  0.00000000000E+00  0.00000000000E+00  0.29448443452E+03  0.28152348654E+04  0.27997903967E+04 0.  0.
        1    1    3    3  502    0  0.23481887503E+03  0.13742986330E+04  0.27391304581E+03  0.14208676904E+04  0.50400001928E-02 0. -1.
       -1    1    3    3    0  502 -0.23481887503E+03 -0.13742986330E+04  0.20571388708E+02  0.13943671751E+04  0.50400001928E-02 0.  1.
</event>
<event>
 5   0  0.2277133E-06  0.2772353E+04  0.7818609E-02  0.8311904E-01
        1   -1    0    0  501    0  0.00000000000E+00  0.00000000000E+00  0.17189657750E+04  0.17189657750E+04  0.50400001928E-02 0. -1.
       -1   -1    0    0    0  501  0.00000000000E+00  0.00000000000E+00 -0.11178144026E+04  0.11178144026E+04  0.50400001928E-02 0.  1.
    10030    2    1    2    0    0  0.00000000000E+00  0.00000000000E+00  0.60115137237E+03  0.28367801776E+04  0.27723525756E+04 0.  0.
        1    1    3    3  502    0 -0.83336781992E+03  0.86129942441E+03  0.10132867249E+04  0.15694230178E+04  0.50400001928E-02 0. -1.
       -1    1    3    3    0  502  0.83336781992E+03 -0.86129942441E+03 -0.41213535255E+03  0.12673571598E+04  0.50400001928E-02 0.  1.
</event>
<event>
 5   0  0.2190865E-06  0.2710481E+04  0.7818609E-02  0.8331612E-01
       -1   -1    0    0    0  501  0.00000000000E+00  0.00000000000E+00  0.12662017534E+04  0.12662017534E+04  0.50400001928E-02 0.  1.
        1   -1    0    0  501    0  0.00000000000E+00  0.00000000000E+00 -0.14505401843E+04  0.14505401843E+04  0.50400001928E-02 0. -1.
    10030    2    1    2    0    0  0.00000000000E+00  0.00000000000E+00 -0.18433843087E+03  0.27167419378E+04  0.27104807875E+04 0.  0.
        2    1    3    3  502    0 -0.52368487231E+03 -0.99214291217E+03  0.66990487813E+03  0.13066621405E+04  0.25500000920E-02 0.  1.
       -2    1    3    3    0  502  0.52368487231E+03  0.99214291217E+03 -0.85424330901E+03  0.14100797973E+04  0.25500000920E-02 0. -1.
</event>
<event>
 5   0  0.5584205E-06  0.2791329E+04  0.7818609E-02  0.8305965E-01
       -2   -1    0    0    0  501  0.00000000000E+00  0.00000000000E+00  0.10187092520E+04  0.10187092520E+04  0.25500000920E-02 0.  1.
        2   -1    0    0  501    0  0.00000000000E+00  0.00000000000E+00 -0.19121052217E+04  0.19121052217E+04  0.25500000920E-02 0. -1.
    10030    2    1    2    0    0  0.00000000000E+00  0.00000000000E+00 -0.89339596963E+03  0.29308144737E+04  0.27913289166E+04 0.  0.
        1    1    3    3  502    0  0.95857390894E+03 -0.82150205282E+02  0.61489836554E+03  0.11418023450E+04  0.50400001928E-02 0.  1.
       -1    1    3    3    0  502 -0.95857390894E+03  0.82150205282E+02 -0.15082943352E+04  0.17890121287E+04  0.50400001928E-02 0. -1.
</event>
<event>
 5   0  0.5625245E-06  0.2794104E+04  0.7818609E-02  0.8305101E-01
       -2   -1    0    0    0  501  0.00000000000E+00  0.00000000000E+00  0.10727105049E+04  0.10727105049E+04  0.25500000920E-02 0.  1.
        2   -1    0    0  501    0  0.00000000000E+00  0.00000000000E+00 -0.18194604578E+04  0.18194604578E+04  0.25500000920E-02 0. -1.
    10030    2    1    2    0    0  0.00000000000E+00  0.00000000000E+00 -0.74674995289E+03  0.28921709627E+04  0.27941040399E+04 0.  0.
        3    1    3    3  502    0 -0.11947440152E+04 -0.72411304960E+03 -0.37216528987E+03  0.14457731439E+04  0.10100000352E+00 0.  1.
       -3    1    3    3    0  502  0.11947440152E+04  0.72411304960E+03 -0.37458466302E+03  0.14463978188E+04  0.10100000352E+00 0. -1.
</event>
<event>
 5   0  0.5916603E-06  0.2778277E+04  0.7818609E-02  0.8310044E-01
       -2   -1    0    0    0  501  0.00000000000E+00  0.00000000000E+00  0.13190898611E+04  0.13190898611E+04  0.25500000920E-02 0.  1.
        2   -1    0    0  501    0  0.00000000000E+00  0.00000000000E+00 -0.14629072969E+04  0.14629072969E+04  0.25500000920E-02 0. -1.
    10030    2    1    2    0    0  0.00000000000E+00  0.00000000000E+00 -0.14381743582E+03  0.27819971579E+04  0.27782772957E+04 0.  0.
        2    1    3    3  502    0 -0.48825175259E+03  0.70252002452E+03 -0.11678063478E+04  0.14476518313E+04  0.25500000920E-02 0. -1.
       -2    1    3    3    0  502  0.48825175259E+03 -0.70252002452E+03  0.10239889120E+04  0.13343453266E+04  0.25500000920E-02 0.  1.
</event>
<event>
 5   0  0.5546570E-06  0.2779838E+04  0.7818609E-02  0.8309555E-01
        2   -1    0    0  501    0  0.00000000000E+00  0.00000000000E+00  0.11137397492E+04  0.11137397492E+04  0.25500000920E-02 0.  1.
       -2   -1    0    0    0  501  0.00000000000E+00  0.00000000000E+00 -0.17345835285E+04  0.17345835285E+04  0.25500000920E-02 0. -1.
    10030    2    1    2    0    0  0.00000000000E+00  0.00000000000E+00 -0.62084377933E+03  0.28483232777E+04  0.27798378543E+04 0.  0.
        4    1    3    3  502    0 -0.77913425121E+03  0.92180547166E+03  0.39583254537E+03  0.12702206603E+04  0.12699999809E+01 0.  1.
       -4    1    3    3    0  502  0.77913425121E+03 -0.92180547166E+03 -0.10166763247E+04  0.15781026174E+04  0.12699999809E+01 0. -1.
</event>
<event>
 5   0  0.5625245E-06  0.2781738E+04  0.7818609E-02  0.8308961E-01
       -2   -1    0    0    0  501  0.00000000000E+00  0.00000000000E+00  0.87541547409E+03  0.87541547409E+03  0.25500000920E-02 0. -1.
        2   -1    0    0  501    0  0.00000000000E+00  0.00000000000E+00 -0.22098260759E+04  0.22098260759E+04  0.25500000920E-02 0.  1.
    10030    2    1    2    0    0  0.00000000000E+00  0.00000000000E+00 -0.13344106018E+04  0.30852415500E+04  0.27817375447E+04 0.  0.
        3    1    3    3  502    0 -0.12952181304E+04 -0.47745842993E+03 -0.47846371304E+03  0.14609873691E+04  0.10100000352E+00 0. -1.
       -3    1    3    3    0  502  0.12952181304E+04  0.47745842993E+03 -0.85594688877E+03  0.16242541809E+04  0.10100000352E+00 0.  1.
</event>
<event>
 5   0  0.2277133E-06  0.2771205E+04  0.7818609E-02  0.8312264E-01
        1   -1    0    0  501    0  0.00000000000E+00  0.00000000000E+00  0.27545442151E+04  0.27545442151E+04  0.50400001928E-02 0.  1.
       -1   -1    0    0    0  501  0.00000000000E+00  0.00000000000E+00 -0.69699180488E+03  0.69699180490E+03  0.50400001928E-02 0. -1.
    10030    2    1    2    0    0  0.00000000000E+00  0.00000000000E+00  0.20575524102E+04  0.34515360200E+04  0.27712053292E+04 0.  0.
        1    1    3    3  502    0  0.17862562075E+03  0.88956400206E+03 -0.27553252954E+03  0.94823488704E+03  0.50400001928E-02 0. -1.
       -1    1    3    3    0  502 -0.17862562075E+03 -0.88956400206E+03  0.23330849398E+04  0.25033011330E+04  0.50400001928E-02 0.  1.
</event>
<event>
 5   0  0.1901375E-06  0.2806566E+04  0.7818609E-02  0.8301233E-01
        3   -1    0    0  501    0  0.00000000000E+00  0.00000000000E+00  0.63638613966E+03  0.63638614768E+03  0.10100000352E+00 0.  1.
       -3   -1    0    0    0  501  0.00000000000E+00  0.00000000000E+00 -0.30943528055E+04  0.30943528071E+04  0.10100000352E+00 0. -1.
    10030    2    1    2    0    0  0.00000000000E+00  0.00000000000E+00 -0.24579666658E+04  0.37307389548E+04  0.28065660546E+04 0.  0.
        5    1    3    3  502    0 -0.10798065208E+04 -0.10335401186E+03 -0.45604260582E+02  0.10857099118E+04  0.46999998093E+01 0.  1.
       -5    1    3    3    0  502  0.10798065208E+04  0.10335401186E+03 -0.24123624052E+04  0.26450290430E+04  0.46999998093E+01 0. -1.
</event>
<event>
 5   0  0.5546570E-06  0.2535422E+04  0.7818609E-02  0.8390474E-01
       -2   -1    0    0    0  501  0.00000000000E+00  0.00000000000E+00  0.87014580268E+03  0.87014580268E+03  0.25500000920E-02 0.  1.
        2   -1    0    0  501    0  0.00000000000E+00  0.00000000000E+00 -0.18469214499E+04  0.18469214499E+04  0.25500000920E-02 0. -1.
    10030    2    1    2    0    0  0.00000000000E+00  0.00000000000E+00 -0.97677564723E+03  0.27170672526E+04  0.25354218170E+04 0.  0.
        4    1    3    3  502    0 -0.49591313182E+03 -0.89162098824E+03 -0.12947389043E+04  0.16484138632E+04  0.12699999809E+01 0. -1.
       -4    1    3    3    0  502  0.49591313182E+03  0.89162098824E+03  0.31796325710E+03  0.10686533894E+04  0.12699999809E+01 0.  1.
</event>
<event>
 5   0  0.5916603E-06  0.2808647E+04  0.7818609E-02  0.8300589E-01
       -2   -1    0    0    0  501  0.00000000000E+00  0.00000000000E+00  0.90212625895E+03  0.90212625895E+03  0.25500000920E-02 0. -1.
        2   -1    0    0  501    0  0.00000000000E+00  0.00000000000E+00 -0.21860849785E+04  0.21860849785E+04  0.25500000920E-02 0.  1.
    10030    2    1    2    0    0  0.00000000000E+00  0.00000000000E+00 -0.12839587196E+04  0.30882112375E+04  0.28086471216E+04 0.  0.
        2    1    3    3  502    0  0.26908456262E+03  0.86167624290E+03  0.54084450525E+03  0.10523332306E+04  0.25500000920E-02 0. -1.
       -2    1    3    3    0  502 -0.26908456262E+03 -0.86167624290E+03 -0.18248032248E+04  0.20358780068E+04  0.25500000920E-02 0.  1.
</event>
<event>
 5   0  0.2190865E-06  0.2805664E+04  0.7818609E-02  0.8301512E-01
        1   -1    0    0  501    0  0.00000000000E+00  0.00000000000E+00  0.12956971768E+04  0.12956971768E+04  0.50400001928E-02 0. -1.
       -1   -1    0    0    0  501  0.00000000000E+00  0.00000000000E+00 -0.15188248963E+04  0.15188248963E+04  0.50400001928E-02 0.  1.
    10030    2    1    2    0    0  0.00000000000E+00  0.00000000000E+00 -0.22312771951E+03  0.28145220731E+04  0.28056636507E+04 0.  0.
        2    1    3    3  502    0  0.62023964452E+03 -0.10804295673E+04  0.53538463640E+03  0.13559727045E+04  0.25500000920E-02 0. -1.
       -2    1    3    3    0  502 -0.62023964452E+03  0.10804295673E+04 -0.75851235591E+03  0.14585493686E+04  0.25500000920E-02 0.  1.
</event>
<event>
 5   0  0.2190865E-06  0.2775882E+04  0.7818609E-02  0.8310795E-01
       -1   -1    0    0    0  501  0.00000000000E+00  0.00000000000E+00  0.16426302448E+04  0.16426302448E+04  0.50400001928E-02 0.  1.
        1   -1    0    0  501    0  0.00000000000E+00  0.00000000000E+00 -0.11727413245E+04  0.11727413245E+04  0.50400001928E-02 0. -1.
    10030    2    1    2    0    0  0.00000000000E+00  0.00000000000E+00  0.46988892025E+03  0.28153715693E+04  0.27758821077E+04 0.  0.
        2    1    3    3  502    0  0.26394451906E+03 -0.34518301289E+03 -0.11019739429E+04  0.11845524861E+04  0.25500000920E-02 0. -1.
       -2    1    3    3    0  502 -0.26394451906E+03  0.34518301289E+03  0.15718628631E+04  0.16308190832E+04  0.25500000920E-02 0.  1.
</event>
<event>
 5   0  0.5584205E-06  0.2801027E+04  0.7818609E-02  0.8302950E-01
        2   -1    0    0  501    0  0.00000000000E+00  0.00000000000E+00  0.16824075800E+04  0.16824075800E+04  0.25500000920E-02 0.  1.
       -2   -1    0    0    0  501  0.00000000000E+00  0.00000000000E+00 -0.11658516416E+04  0.11658516416E+04  0.25500000920E-02 0. -1.
    10030    2    1    2    0    0  0.00000000000E+00  0.00000000000E+00  0.51655593840E+03  0.28482592216E+04  0.28010266967E+04 0.  0.
        1    1    3    3  502    0  0.70230099774E+03 -0.36650685186E+03 -0.91613609284E+03  0.12111396718E+04  0.50400001928E-02 0. -1.
       -1    1    3    3    0  502 -0.70230099774E+03  0.36650685186E+03  0.14326920312E+04  0.16371195498E+04  0.50400001928E-02 0.  1.
</event>
<event>
 5   0  0.2277133E-06  0.2788129E+04  0.7818609E-02  0.8306963E-01
       -1   -1    0    0    0  501  0.00000000000E+00  0.00000000000E+00  0.11835244623E+04  0.11835244623E+04  0.50400001928E-02 0. -1.
        1   -1    0    0  501    0  0.00000000000E+00  0.00000000000E+00 -0.16420579459E+04  0.16420579459E+04  0.50400001928E-02 0.  1.
    10030    2    1    2    0    0  0.00000000000E+00  0.00000000000E+00 -0.45853348366E+03  0.28255824082E+04  0.27881289407E+04 0.  0.
        1    1    3    3  502    0 -0.67436175906E+03 -0.24077476079E+02 -0.14655190948E+04  0.16134093480E+04  0.50400001928E-02 0.  1.
       -1    1    3    3    0  502  0.67436175906E+03  0.24077476079E+02  0.10069856111E+04  0.12121730602E+04  0.50400001928E-02 0. -1.
</event>
<event>
 5   0  0.2206967E-06  0.2808649E+04  0.7818609E-02  0.8300588E-01
        1   -1    0    0  501    0  0.00000000000E+00  0.00000000000E+00  0.15746285359E+04  0.15746285359E+04  0.50400001928E-02 0.  1.
       -1   -1    0    0    0  501  0.00000000000E+00  0.00000000000E+00 -0.12524393633E+04  0.12524393633E+04  0.50400001928E-02 0. -1.
    10030    2    1    2    0    0  0.00000000000E+00  0.00000000000E+00  0.32218917254E+03  0.28270678992E+04  0.28086486153E+04 0.  0.
        5    1    3    3  502    0 -0.94505656596E+03 -0.72617280025E+03  0.90869407765E+03  0.14987347549E+04  0.46999998093E+01 0.  1.
       -5    1    3    3    0  502  0.94505656596E+03  0.72617280025E+03 -0.58650490512E+03  0.13283331444E+04  0.46999998093E+01 0. -1.
</event>
<event>
 5   0  0.2277133E-06  0.2788448E+04  0.7818609E-02  0.8306864E-01
       -1   -1    0    0    0  501  0.00000000000E+00  0.00000000000E+00  0.13888652438E+04  0.13888652438E+04  0.50400001928E-02 0.  1.
        1   -1    0    0  501    0  0.00000000000E+00  0.00000000000E+00 -0.13996035572E+04  0.13996035573E+04  0.50400001928E-02 0. -1.
    10030    2    1    2    0    0  0.00000000000E+00  0.00000000000E+00 -0.10738313418E+02  0.27884688011E+04  0.27884481246E+04 0.  0.
        1    1    3    3  502    0 -0.13301151108E+04 -0.18898478038E+03  0.36737920494E+03  0.13927989573E+04  0.50400001928E-02 0.  1.
       -1    1    3    3    0  502  0.13301151108E+04  0.18898478038E+03 -0.37811751835E+03  0.13956698438E+04  0.50400001928E-02 0. -1.
</event>
<event>
 5   0  0.2234068E-06  0.2803033E+04  0.7818609E-02  0.8302327E-01
        1   -1    0    0  501    0  0.00000000000E+00  0.00000000000E+00  0.16470364901E+04  0.16470364901E+04  0.50400001928E-02 0.  1.
       -1   -1    0    0    0  501  0.00000000000E+00  0.00000000000E+00 -0.11925952540E+04  0.11925952540E+04  0.50400001928E-02 0. -1.
    10030    2    1    2    0    0  0.00000000000E+00  0.00000000000E+00  0.45444123602E+03  0.28396317441E+04  0.28030325730E+04 0.  0.
        3    1    3    3  502    0 -0.19312663164E+03  0.11410648381E+04 -0.57362065636E+03  0.12916530216E+04  0.10100000352E+00 0. -1.
       -3    1    3    3    0  502  0.19312663164E+03 -0.11410648381E+04  0.10280618924E+04  0.15479787225E+04  0.10100000352E+00 0.  1.
</event>
<event>
 5   0  0.5625245E-06  0.2820289E+04  0.7818609E-02  0.8296997E-01
       -2   -1    0    0    0  501  0.00000000000E+00  0.00000000000E+00  0.91123458682E+03  0.91123458682E+03  0.25500000920E-02 0. -1.
        2   -1    0    0  501    0  0.00000000000E+00  0.00000000000E+00 -0.21822128594E+04  0.21822128594E+04  0.25500000920E-02 0.  1.
    10030    2    1    2    0    0  0.00000000000E+00  0.00000000000E+00 -0.12709782726E+04  0.30934474463E+04  0.28202892287E+04 0.  0.
        3    1    3    3  502    0  0.31001006418E+03 -0.13723984385E+04 -0.53187201205E+03  0.15041514422E+04  0.10100000352E+00 0. -1.
       -3    1    3    3    0  502 -0.31001006418E+03  0.13723984385E+04 -0.73910626056E+03  0.15892960040E+04  0.10100000352E+00 0.  1.
</event>
<event>
 5   0  0.5584205E-06  0.2800710E+04  0.7818609E-02  0.8303048E-01
        2   -1    0    0  501    0  0.00000000000E+00  0.00000000000E+00  0.10377675793E+04  0.10377675793E+04  0.25500000920E-02 0. -1.
       -2   -1    0    0    0  501  0.00000000000E+00  0.00000000000E+00 -0.18896270152E+04  0.18896270152E+04  0.25500000920E-02 0.  1.
    10030    2    1    2    0    0  0.00000000000E+00  0.00000000000E+00 -0.85185943584E+03  0.29273945945E+04  0.28007096625E+04 0.  0.
        1    1    3    3  502    0  0.13800374582E+04  0.23718189606E+03 -0.40990606935E+03  0.14590344834E+04  0.50400001928E-02 0.  1.
       -1    1    3    3    0  502 -0.13800374582E+04 -0.23718189606E+03 -0.44195336649E+03  0.14683601112E+04  0.50400001928E-02 0. -1.
</event>
<event>
 5   0  0.5546570E-06  0.2819183E+04  0.7818609E-02  0.8297337E-01
        2   -1    0    0  501    0  0.00000000000E+00  0.00000000000E+00  0.14889698938E+04  0.14889698938E+04  0.25500000920E-02 0. -1.
       -2   -1    0    0    0  501  0.00000000000E+00  0.00000000000E+00 -0.13344447238E+04  0.13344447238E+04  0.25500000920E-02 0.  1.
    10030    2    1    2    0    0  0.00000000000E+00  0.00000000000E+00  0.15452517003E+03  0.28234146175E+04  0.28191828735E+04 0.  0.
        4    1    3    3  502    0 -0.24212211659E+03  0.11523856225E+04 -0.69871052847E+03  0.13692383860E+04  0.12699999809E+01 0.  1.
       -4    1    3    3    0  502  0.24212211659E+03 -0.11523856225E+04  0.85323569850E+03  0.14541762315E+04  0.12699999809E+01 0. -1.
</event>
<event>
 5   0  0.2190865E-06  0.2808179E+04  0.7818609E-02  0.8300734E-01
        1   -1    0    0  501    0  0.00000000000E+00  0.00000000000E+00  0.15936926203E+04  0.15936926203E+04  0.50400001928E-02 0.  1.
       -1   -1    0    0    0  501  0.00000000000E+00  0.00000000000E+00 -0.12370435287E+04  0.12370435287E+04  0.50400001928E-02 0. -1.
    10030    2    1    2    0    0  0.00000000000E+00  0.00000000000E+00  0.35664909158E+03  0.28307361490E+04  0.28081788709E+04 0.  0.
        2    1    3    3  502    0  0.11582141860E+04 -0.37850341490E+03  0.88159784183E+03  0.15039746309E+04  0.25500000920E-02 0.  1.
       -2    1    3    3    0  502 -0.11582141860E+04  0.37850341490E+03 -0.52494875025E+03  0.13267615181E+04  0.25500000920E-02 0. -1.
</event>
<event>
 5   0  0.5866136E-06  0.2802839E+04  0.7818609E-02  0.8302387E-01
       -2   -1    0    0    0  501  0.00000000000E+00  0.00000000000E+00  0.13846102308E+04  0.13846102308E+04  0.25500000920E-02 0. -1.
        2   -1    0    0  501    0  0.00000000000E+00  0.00000000000E+00 -0.14184332136E+04  0.14184332136E+04  0.25500000920E-02 0.  1.
    10030    2    1    2    0    0  0.00000000000E+00  0.00000000000E+00 -0.33822982808E+02  0.28030434445E+04  0.28028393742E+04 0.  0.
        5    1    3    3  502    0  0.80897127701E+03 -0.78734896126E+03  0.81357183585E+03  0.13915006777E+04  0.46999998093E+01 0. -1.
       -5    1    3    3    0  502 -0.80897127701E+03  0.78734896126E+03 -0.84739481866E+03  0.14115427668E+04  0.46999998093E+01 0.  1.
</event>
<event>
 5   0  0.5866136E-06  0.2789824E+04  0.7818609E-02  0.8306434E-01
        2   -1    0    0  501    0  0.00000000000E+00  0.00000000000E+00  0.22569601471E+04  0.22569601471E+04  0.25500000920E-02 0. -1.
       -2   -1    0    0    0  501  0.00000000000E+00  0.00000000000E+00 -0.86212414685E+03  0.86212414685E+03  0.25500000920E-02 0.  1.
    10030    2    1    2    0    0  0.00000000000E+00  0.00000000000E+00  0.13948360002E+04  0.31190842939E+04  0.27898242534E+04 0.  0.
        5    1    3    3  502    0 -0.10290806944E+04 -0.62356875018E+03  0.14863269147E+04  0.19123375354E+04  0.46999998093E+01 0. -1.
       -5    1    3    3    0  502  0.10290806944E+04  0.62356875018E+03 -0.91490914462E+02  0.12067467586E+04  0.46999998093E+01 0.  1.
</event>
<event>
 5   0  0.5625245E-06  0.2789834E+04  0.7818609E-02  0.8306432E-01
       -2   -1    0    0    0  501  0.00000000000E+00  0.00000000000E+00  0.91646049791E+03  0.91646049792E+03  0.25500000920E-02 0. -1.
        2   -1    0    0  501    0  0.00000000000E+00  0.00000000000E+00 -0.21231607197E+04  0.21231607197E+04  0.25500000920E-02 0.  1.
    10030    2    1    2    0    0  0.00000000000E+00  0.00000000000E+00 -0.12067002218E+04  0.30396212176E+04  0.27898336368E+04 0.  0.
        3    1    3    3  502    0  0.59378014074E+03  0.90762138274E+03 -0.15590663415E+04  0.18992207079E+04  0.10100000352E+00 0.  1.
       -3    1    3    3    0  502 -0.59378014074E+03 -0.90762138274E+03  0.35236611975E+03  0.11404005097E+04  0.10100000352E+00 0. -1.
</event>
<event>
 5   0  0.5866136E-06  0.2848970E+04  0.7818609E-02  0.8288224E-01
        2   -1    0    0  501    0  0.00000000000E+00  0.00000000000E+00  0.16709612726E+04  0.16709612726E+04  0.25500000920E-02 0. -1.
       -2   -1    0    0    0  501  0.00000000000E+00  0.00000000000E+00 -0.12143656804E+04  0.12143656804E+04  0.25500000920E-02 0.  1.
    10030    2    1    2    0    0  0.00000000000E+00  0.00000000000E+00  0.45659559220E+03  0.28853269530E+04  0.28489703563E+04 0.  0.
        5    1    3    3  502    0 -0.28518657457E+03  0.10589562344E+03  0.16376710308E+04  0.16656931772E+04  0.46999998093E+01 0. -1.
       -5    1    3    3    0  502  0.28518657457E+03 -0.10589562344E+03 -0.11810754386E+04  0.12196337758E+04  0.46999998093E+01 0.  1.
</event>
<event>
 5   0  0.5916603E-06  0.2796283E+04  0.7818609E-02  0.8304423E-01
       -2   -1    0    0    0  501  0.00000000000E+00  0.00000000000E+00  0.99093172675E+03  0.99093172675E+03  0.25500000920E-02 0. -1.
        2   -1    0    0  501    0  0.00000000000E+00  0.00000000000E+00 -0.19726886288E+04  0.19726886288E+04  0.25500000920E-02 0.  1.
    10030    2    1    2    0    0  0.00000000000E+00  0.00000000000E+00 -0.98175690208E+03  0.29636203556E+04  0.27962830681E+04 0.  0.
        2    1    3    3  502    0 -0.10912148979E+04 -0.29639643862E+03 -0.13624011064E+04  0.17705190135E+04  0.25500000920E-02 0.  1.
       -2    1    3    3    0  502  0.10912148979E+04  0.29639643862E+03  0.38064420432E+03  0.11931013421E+04  0.25500000920E-02 0. -1.
</event>
<event>
 5   0  0.5866136E-06  0.2805603E+04  0.7818609E-02  0.8301531E-01
        2   -1    0    0  501    0  0.00000000000E+00  0.00000000000E+00  0.11074694281E+04  0.11074694281E+04  0.25500000920E-02 0. -1.
       -2   -1    0    0    0  501  0.00000000000E+00  0.00000000000E+00 -0.17768901194E+04  0.17768901194E+04  0.25500000920E-02 0.  1.
    10030    2    1    2    0    0  0.00000000000E+00  0.00000000000E+00 -0.66942069124E+03  0.28843595475E+04  0.28056025979E+04 0.  0.
        5    1    3    3  502    0  0.10524426331E+03  0.75873949016E+03  0.87346698306E+03  0.11617782187E+04  0.46999998093E+01 0. -1.
       -5    1    3    3    0  502 -0.10524426331E+03 -0.75873949016E+03 -0.15428876743E+04  0.17225813288E+04  0.46999998093E+01 0.  1.
</event>
<event>
 5   0  0.5916603E-06  0.2788923E+04  0.7818609E-02  0.8306716E-01
       -2   -1    0    0    0  501  0.00000000000E+00  0.00000000000E+00  0.15817640343E+04  0.15817640343E+04  0.25500000920E-02 0.  1.
        2   -1    0    0  501    0  0.00000000000E+00  0.00000000000E+00 -0.12293379650E+04  0.12293379650E+04  0.25500000920E-02 0. -1.
    10030    2    1    2    0    0  0.00000000000E+00  0.00000000000E+00  0.35242606926E+03  0.28111019993E+04  0.27889227877E+04 0.  0.
        2    1    3    3  502    0 -0.83614301222E+03 -0.41860809367E+03  0.12189226922E+04  0.15362748460E+04  0.25500000920E-02 0. -1.
       -2    1    3    3    0  502  0.83614301222E+03  0.41860809367E+03 -0.86649662296E+03  0.12748271532E+04  0.25500000920E-02 0.  1.
</event>
<event>
 5   0  0.5546570E-06  0.2846598E+04  0.7818609E-02  0.8288946E-01
        2   -1    0    0  501    0  0.00000000000E+00  0.00000000000E+00  0.98001205590E+03  0.98001205591E+03  0.25500000920E-02 0.  1.
       -2   -1    0    0    0  501  0.00000000000E+00  0.00000000000E+00 -0.20670971341E+04  0.20670971341E+04  0.25500000920E-02 0. -1.
    10030    2    1    2    0    0  0.00000000000E+00  0.00000000000E+00 -0.10870850782E+04  0.30471091900E+04  0.28465980483E+04 0.  0.
        4    1    3    3  502    0 -0.70848999289E+03  0.11761026031E+04 -0.94492585078E+03  0.16667518950E+04  0.12699999809E+01 0.  1.
       -4    1    3    3    0  502  0.70848999289E+03 -0.11761026031E+04 -0.14215922738E+03  0.13803572950E+04  0.12699999809E+01 0. -1.
</event>
<event>
 5   0  0.5584205E-06  0.2755925E+04  0.7818609E-02  0.8317084E-01
        2   -1    0    0  501    0  0.00000000000E+00  0.00000000000E+00  0.17195802088E+04  0.17195802088E+04  0.25500000920E-02 0. -1.
       -2   -1    0    0    0  501  0.00000000000E+00  0.00000000000E+00 -0.11042120633E+04  0.11042120633E+04  0.25500000920E-02 0.  1.
    10030    2    1    2    0    0  0.00000000000E+00  0.00000000000E+00  0.61536814544E+03  0.28237922721E+04  0.27559254056E+04 0.  0.
        1    1    3    3  502    0  0.51761926347E+03  0.65185603982E+03  0.14328777292E+04  0.16571012598E+04  0.50400001928E-02 0. -1.
       -1    1    3    3    0  502 -0.51761926347E+03 -0.65185603982E+03 -0.81750958371E+03  0.11666910122E+04  0.50400001928E-02 0.  1.
</event>
<event>
 5   0  0.2277133E-06  0.2794811E+04  0.7818609E-02  0.8304881E-01
       -1   -1    0    0    0  501  0.00000000000E+00  0.00000000000E+00  0.13350553742E+04  0.13350553742E+04  0.50400001928E-02 0.  1.
        1   -1    0    0  501    0  0.00000000000E+00  0.00000000000E+00 -0.14626678176E+04  0.14626678176E+04  0.50400001928E-02 0. -1.
    10030    2    1    2    0    0  0.00000000000E+00  0.00000000000E+00 -0.12761244336E+03  0.27977231918E+04  0.27948112856E+04 0.  0.
        1    1    3    3  502    0 -0.10527392241E+03 -0.93780145987E+03 -0.10955052519E+04  0.14459204452E+04  0.50400001928E-02 0. -1.
       -1    1    3    3    0  502  0.10527392241E+03  0.93780145987E+03  0.96789280856E+03  0.13518027466E+04  0.50400001928E-02 0.  1.
</event>
<event>
 5   0  0.2206967E-06  0.2798093E+04  0.7818609E-02  0.8303861E-01
        1   -1    0    0  501    0  0.00000000000E+00  0.00000000000E+00  0.16301039268E+04  0.16301039268E+04  0.50400001928E-02 0. -1.
       -1   -1    0    0    0  501  0.00000000000E+00  0.00000000000E+00 -0.12007397942E+04  0.12007397942E+04  0.50400001928E-02 0.  1.
    10030    2    1    2    0    0  0.00000000000E+00  0.00000000000E+00  0.42936413252E+03  0.28308437210E+04  0.27980926744E+04 0.  0.
        5    1    3    3  502    0  0.27855468264E+03  0.94639307886E+03 -0.78892498786E+03  0.12632012102E+04  0.46999998093E+01 0.  1.
       -5    1    3    3    0  502 -0.27855468264E+03 -0.94639307886E+03  0.12182891204E+04  0.15676425108E+04  0.46999998093E+01 0. -1.
</event>
<event>
 5   0  0.2190865E-06  0.2646906E+04  0.7818609E-02  0.8352441E-01
        1   -1    0    0  501    0  0.00000000000E+00  0.00000000000E+00  0.17304272336E+04  0.17304272336E+04  0.50400001928E-02 0. -1.
       -1   -1    0    0    0  501  0.00000000000E+00  0.00000000000E+00 -0.10121941272E+04  0.10121941272E+04  0.50400001928E-02 0.  1.
    10030    2    1    2    0    0  0.00000000000E+00  0.00000000000E+00  0.71823310644E+03  0.27426213608E+04  0.26469063326E+04 0.  0.
        2    1    3    3  502    0 -0.80139264511E+03  0.13121650457E+03 -0.72369922578E+03  0.10877446907E+04  0.25500000920E-02 0.  1.
       -2    1    3    3    0  502  0.80139264511E+03 -0.13121650457E+03  0.14419323322E+04  0.16548766701E+04  0.25500000920E-02 0. -1.
</event>
<event>
 5   0  0.1901375E-06  0.2797390E+04  0.7818609E-02  0.8304079E-01
       -3   -1    0    0    0  501  0.00000000000E+00  0.00000000000E+00  0.10635876983E+04  0.10635877031E+04  0.10100000352E+00 0. -1.
        3   -1    0    0  501    0  0.00000000000E+00  0.00000000000E+00 -0.18393849856E+04  0.18393849883E+04  0.10100000352E+00 0.  1.
    10030    2    1    2    0    0  0.00000000000E+00  0.00000000000E+00 -0.77579728723E+03  0.29029726914E+04  0.27973896790E+04 0.  0.
        2    1    3    3  502    0  0.75536909443E+03  0.65311561294E+03 -0.14042541623E+04  0.17230995981E+04  0.25500000920E-02 0.  1.
       -2    1    3    3    0  502 -0.75536909443E+03 -0.65311561294E+03  0.62845687503E+03  0.11798730934E+04  0.25500000920E-02 0. -1.
</event>
<event>
 5   0  0.5584205E-06  0.2793265E+04  0.7818609E-02  0.8305362E-01
        2   -1    0    0  501    0  0.00000000000E+00  0.00000000000E+00  0.10147859570E+04  0.10147859570E+04  0.25500000920E-02 0. -1.
       -2   -1    0    0    0  501  0.00000000000E+00  0.00000000000E+00 -0.19221615830E+04  0.19221615830E+04  0.25500000920E-02 0.  1.
    10030    2    1    2    0    0  0.00000000000E+00  0.00000000000E+00 -0.90737562599E+03  0.29369475400E+04  0.27932651729E+04 0.  0.
        1    1    3    3  502    0 -0.13516020601E+03 -0.25433714898E+03  0.98322059056E+03  0.10245381381E+04  0.50400001928E-02 0. -1.
       -1    1    3    3    0  502  0.13516020601E+03  0.25433714898E+03 -0.18905962166E+04  0.19124094020E+04  0.50400001928E-02 0.  1.
</event>
<event>
 5   0  0.5546570E-06  0.2811550E+04  0.7818609E-02  0.8299692E-01
       -2   -1    0    0    0  501  0.00000000000E+00  0.00000000000E+00  0.10923822311E+04  0.10923822311E+04  0.25500000920E-02 0.  1.
        2   -1    0    0  501    0  0.00000000000E+00  0.00000000000E+00 -0.18090765751E+04  0.18090765752E+04  0.25500000920E-02 0. -1.
    10030    2    1    2    0    0  0.00000000000E+00  0.00000000000E+00 -0.71669434410E+03  0.29014588062E+04  0.28115498255E+04 0.  0.
        4    1    3    3  502    0 -0.28299058696E+03 -0.58088090359E+03  0.93005433183E+03  0.11324791254E+04  0.12699999809E+01 0.  1.
       -4    1    3    3    0  502  0.28299058696E+03  0.58088090359E+03 -0.16467486759E+04  0.17689796808E+04  0.12699999809E+01 0. -1.
</event>
<event>
 5   0  0.2267565E-06  0.2804554E+04  0.7818609E-02  0.8301856E-01
        1   -1    0    0  501    0  0.00000000000E+00  0.00000000000E+00  0.15207602393E+04  0.15207602393E+04  0.50400001928E-02 0.  1.
       -1   -1    0    0    0  501  0.00000000000E+00  0.00000000000E+00 -0.12930252048E+04  0.12930252048E+04  0.50400001928E-02 0. -1.
    10030    2    1    2    0    0  0.00000000000E+00  0.00000000000E+00  0.22773503452E+03  0.28137854442E+04  0.28045543817E+04 0.  0.
        4    1    3    3  502    0  0.13135343313E+04 -0.44940412033E+03 -0.84376385494E+02  0.13908477595E+04  0.12699999809E+01 0. -1.
       -4    1    3    3    0  502 -0.13135343313E+04  0.44940412033E+03  0.31211142001E+03  0.14229376846E+04  0.12699999809E+01 0.  1.
</event>
<event>
 5   0  0.2190865E-06  0.2694598E+04  0.7818609E-02  0.8336760E-01
        1   -1    0    0  501    0  0.00000000000E+00  0.00000000000E+00  0.19880932487E+04  0.19880932487E+04  0.50400001928E-02 0.  1.
       -1   -1    0    0    0  501  0.00000000000E+00  0.00000000000E+00 -0.91304307021E+03  0.91304307022E+03  0.50400001928E-02 0. -1.
    10030    2    1    2    0    0  0.00000000000E+00  0.00000000000E+00  0.10750501785E+04  0.29011363189E+04  0.26945981249E+04 0.  0.
        2    1    3    3  502    0  0.18521491534E+03  0.96818450429E+03 -0.45131059975E+03  0.10841434668E+04  0.25500000920E-02 0. -1.
       -2    1    3    3    0  502 -0.18521491534E+03 -0.96818450429E+03  0.15263607783E+04  0.18169928521E+04  0.25500000920E-02 0.  1.
</event>
<event>
 5   0  0.2190865E-06  0.2793936E+04  0.7818609E-02  0.8305153E-01
        1   -1    0    0  501    0  0.00000000000E+00  0.00000000000E+00  0.20566612235E+04  0.20566612235E+04  0.50400001928E-02 0.  1.
       -1   -1    0    0    0  501  0.00000000000E+00  0.00000000000E+00 -0.94887747821E+03  0.94887747823E+03  0.50400001928E-02 0. -1.
    10030    2    1    2    0    0  0.00000000000E+00  0.00000000000E+00  0.11077837453E+04  0.30055387017E+04  0.27939359444E+04 0.  0.
        2    1    3    3  502    0 -0.12736159042E+04  0.54938439285E+03  0.37518089204E+03  0.14368999214E+04  0.25500000920E-02 0.  1.
       -2    1    3    3    0  502  0.12736159042E+04 -0.54938439285E+03  0.73260285321E+03  0.15686387803E+04  0.25500000920E-02 0. -1.
</event>
<event>
 5   0  0.5916603E-06  0.2746387E+04  0.7818609E-02  0.8320109E-01
        2   -1    0    0  501    0  0.00000000000E+00  0.00000000000E+00  0.13435963751E+04  0.13435963752E+04  0.25500000920E-02 0.  1.
       -2   -1    0    0    0  501  0.00000000000E+00  0.00000000000E+00 -0.14034421675E+04  0.14034421675E+04  0.25500000920E-02 0. -1.
    10030    2    1    2    0    0  0.00000000000E+00  0.00000000000E+00 -0.59845792344E+02  0.27470385426E+04  0.27463865780E+04 0.  0.
        2    1    3    3  502    0  0.59318804391E+03 -0.69085402059E+03 -0.10580328827E+04  0.13959172304E+04  0.25500000920E-02 0. -1.
       -2    1    3    3    0  502 -0.59318804391E+03  0.69085402059E+03  0.99818709032E+03  0.13511213123E+04  0.25500000920E-02 0.  1.
</event>
<event>
 5   0  0.2277133E-06  0.2799949E+04  0.7818609E-02  0.8303284E-01
        1   -1    0    0  501    0  0.00000000000E+00  0.00000000000E+00  0.20318783915E+04  0.20318783915E+04  0.50400001928E-02 0. -1.
       -1   -1    0    0    0  501  0.00000000000E+00  0.00000000000E+00 -0.96458939011E+03  0.96458939012E+03  0.50400001928E-02 0.  1.
    10030    2    1    2    0    0  0.00000000000E+00  0.00000000000E+00  0.10672890014E+04  0.29964677816E+04  0.27999488127E+04 0.  0.
        1    1    3    3  502    0  0.90087834195E+02  0.10544393948E+04 -0.44718027984E+03  0.11488813942E+04  0.50400001928E-02 0.  1.
       -1    1    3    3    0  502 -0.90087834195E+02 -0.10544393948E+04  0.15144692812E+04  0.18475863874E+04  0.50400001928E-02 0. -1.
</event>
<event>
 5   0  0.2267565E-06  0.2796664E+04  0.7818609E-02  0.8304305E-01
       -1   -1    0    0    0  501  0.00000000000E+00  0.00000000000E+00  0.97999919735E+03  0.97999919737E+03  0.50400001928E-02 0. -1.
        1   -1    0    0  501    0  0.00000000000E+00  0.00000000000E+00 -0.19952383673E+04  0.19952383673E+04  0.50400001928E-02 0.  1.
    10030    2    1    2    0    0  0.00000000000E+00  0.00000000000E+00 -0.10152391699E+04  0.29752375647E+04  0.27966637256E+04 0.  0.
        4    1    3    3  502    0  0.76091972856E+03 -0.83648560697E+03  0.36747480556E+03  0.11890106600E+04  0.12699999809E+01 0. -1.
       -4    1    3    3    0  502 -0.76091972856E+03  0.83648560697E+03 -0.13827139755E+04  0.17862269047E+04  0.12699999809E+01 0.  1.
</event>
<event>
 5   0  0.2234068E-06  0.2788469E+04  0.7818609E-02  0.8306857E-01
        1   -1    0    0  501    0  0.00000000000E+00  0.00000000000E+00  0.16593023671E+04  0.16593023671E+04  0.50400001928E-02 0. -1.
       -1   -1    0    0    0  501  0.00000000000E+00  0.00000000000E+00 -0.11715103928E+04  0.11715103928E+04  0.50400001928E-02 0.  1.
    10030    2    1    2    0    0  0.00000000000E+00  0.00000000000E+00  0.48779197435E+03  0.28308127599E+04  0.27884690910E+04 0.  0.
        3    1    3    3  502    0  0.53852199542E+03  0.84150373692E+03 -0.74337128987E+03  0.12452852539E+04  0.10100000352E+00 0.  1.
       -3    1    3    3    0  502 -0.53852199542E+03 -0.84150373692E+03  0.12311632642E+04  0.15855275060E+04  0.10100000352E+00 0. -1.
</event>
<event>
 5   0  0.2267565E-06  0.2805938E+04  0.7818609E-02  0.8301427E-01
       -1   -1    0    0    0  501  0.00000000000E+00  0.00000000000E+00  0.10998752910E+04  0.10998752910E+04  0.50400001928E-02 0. -1.
        1   -1    0    0  501    0  0.00000000000E+00  0.00000000000E+00 -0.17895863670E+04  0.17895863670E+04  0.50400001928E-02 0.  1.
    10030    2    1    2    0    0  0.00000000000E+00  0.00000000000E+00 -0.68971107599E+03  0.28894616580E+04  0.28059378655E+04 0.  0.
        4    1    3    3  502    0 -0.12641387168E+04  0.39070440360E+03  0.13553215011E+03  0.13300628567E+04  0.12699999809E+01 0.  1.
       -4    1    3    3    0  502  0.12641387168E+04 -0.39070440360E+03 -0.82524322610E+03  0.15593988013E+04  0.12699999809E+01 0. -1.
</event>
<event>
 5   0  0.5546570E-06  0.2785412E+04  0.7818609E-02  0.8307812E-01
        2   -1    0    0  501    0  0.00000000000E+00  0.00000000000E+00  0.19402866142E+04  0.19402866142E+04  0.25500000920E-02 0. -1.
       -2   -1    0    0    0  501  0.00000000000E+00  0.00000000000E+00 -0.99966180958E+03  0.99966180958E+03  0.25500000920E-02 0.  1.
    10030    2    1    2    0    0  0.00000000000E+00  0.00000000000E+00  0.94062480461E+03  0.29399484238E+04  0.27854123055E+04 0.  0.
        4    1    3    3  502    0  0.10262723858E+04  0.79702029859E+03 -0.58642845477E+02  0.13007370843E+04  0.12699999809E+01 0.  1.
       -4    1    3    3    0  502 -0.10262723858E+04 -0.79702029859E+03  0.99926765009E+03  0.16392113395E+04  0.12699999809E+01 0. -1.
</event>
<event>
 5   0  0.5916603E-06  0.2782460E+04  0.7818609E-02  0.8308734E-01
       -2   -1    0    0    0  501  0.00000000000E+00  0.00000000000E+00  0.21053627181E+04  0.21053627181E+04  0.25500000920E-02 0.  1.
        2   -1    0    0  501    0  0.00000000000E+00  0.00000000000E+00 -0.91932914976E+03  0.91932914977E+03  0.25500000920E-02 0. -1.
    10030    2    1    2    0    0  0.00000000000E+00  0.00000000000E+00  0.11860335684E+04  0.30246918679E+04  0.27824602909E+04 0.  0.
        2    1    3    3  502    0 -0.36181766233E+03  0.80468551302E+03 -0.57630982244E+03  0.10538329123E+04  0.25500000920E-02 0. -1.
       -2    1    3    3    0  502  0.36181766233E+03 -0.80468551302E+03  0.17623433908E+04  0.19708589556E+04  0.25500000920E-02 0.  1.
</event>
<event>
 5   0  0.5866136E-06  0.2705742E+04  0.7818609E-02  0.8333144E-01
       -2   -1    0    0    0  501  0.00000000000E+00  0.00000000000E+00  0.11067957282E+04  0.11067957282E+04  0.25500000920E-02 0.  1.
        2   -1    0    0  501    0  0.00000000000E+00  0.00000000000E+00 -0.16536570844E+04  0.16536570844E+04  0.25500000920E-02 0. -1.
    10030    2    1    2    0    0  0.00000000000E+00  0.00000000000E+00 -0.54686135619E+03  0.27604528126E+04  0.27057424836E+04 0.  0.
        5    1    3    3  502    0 -0.46772288114E+03 -0.12548903741E+04 -0.46894052407E+03  0.14189580155E+04  0.46999998093E+01 0. -1.
       -5    1    3    3    0  502  0.46772288114E+03  0.12548903741E+04 -0.77920832128E+02  0.13414947971E+04  0.46999998093E+01 0.  1.
</event>
<event>
 5   0  0.5625245E-06  0.2802887E+04  0.7818609E-02  0.8302373E-01
        2   -1    0    0  501    0  0.00000000000E+00  0.00000000000E+00  0.96678686349E+03  0.96678686350E+03  0.25500000920E-02 0. -1.
       -2   -1    0    0    0  501  0.00000000000E+00  0.00000000000E+00 -0.20315174357E+04  0.20315174357E+04  0.25500000920E-02 0.  1.
    10030    2    1    2    0    0  0.00000000000E+00  0.00000000000E+00 -0.10647305722E+04  0.29983042992E+04  0.28028873469E+04 0.  0.
        3    1    3    3  502    0  0.46134286941E+03  0.53659092996E+03 -0.18263626176E+04  0.19586647213E+04  0.10100000352E+00 0.  1.
       -3    1    3    3    0  502 -0.46134286941E+03 -0.53659092996E+03  0.76163204537E+03  0.10396395779E+04  0.10100000352E+00 0. -1.
</event>
<event>
 5   0  0.5584205E-06  0.2785874E+04  0.7818609E-02  0.8307667E-01
        2   -1    0    0  501    0  0.00000000000E+00  0.00000000000E+00  0.28462525802E+04  0.28462525802E+04  0.25500000920E-02 0.  1.
       -2   -1    0    0    0  501  0.00000000000E+00  0.00000000000E+00 -0.68169418047E+03  0.68169418047E+03  0.25500000920E-02 0. -1.
    10030    2    1    2    0    0  0.00000000000E+00  0.00000000000E+00  0.21645583998E+04  0.35279467607E+04  0.27858742399E+04 0.  0.
        1    1    3    3  502    0  0.10324738023E+04  0.10451483326E+03  0.22589461047E+04  0.24859129121E+04  0.50400001928E-02 0.  1.
       -1    1    3    3    0  502 -0.10324738023E+04 -0.10451483326E+03 -0.94387704942E+02  0.10420338486E+04  0.50400001928E-02 0. -1.
</event>
<event>
 5   0  0.2234068E-06  0.2748473E+04  0.7818609E-02  0.8319446E-01
        1   -1    0    0  501    0  0.00000000000E+00  0.00000000000E+00  0.19554465210E+04  0.19554465210E+04  0.50400001928E-02 0. -1.
       -1   -1    0    0    0  501  0.00000000000E+00  0.00000000000E+00 -0.96577723972E+03  0.96577723973E+03  0.50400001928E-02 0.  1.
    10030    2    1    2    0    0  0.00000000000E+00  0.00000000000E+00  0.98966928130E+03  0.29212237608E+04  0.27484728440E+04 0.  0.
        3    1    3    3  502    0  0.80257404468E+03 -0.83689512600E+03  0.12787617652E+04  0.17261952993E+04  0.10100000352E+00 0. -1.
       -3    1    3    3    0  502 -0.80257404468E+03  0.83689512600E+03 -0.28909248392E+03  0.11950284614E+04  0.10100000352E+00 0.  1.
</event>
<event>
 5   0  0.2234068E-06  0.2816778E+04  0.7818609E-02  0.8298078E-01
       -1   -1    0    0    0  501  0.00000000000E+00  0.00000000000E+00  0.66805894420E+03  0.66805894422E+03  0.50400001928E-02 0. -1.
        1   -1    0    0  501    0  0.00000000000E+00  0.00000000000E+00 -0.29691383685E+04  0.29691383685E+04  0.50400001928E-02 0.  1.
    10030    2    1    2    0    0  0.00000000000E+00  0.00000000000E+00 -0.23010794243E+04  0.36371973128E+04  0.28167779065E+04 0.  0.
        3    1    3    3  502    0  0.38476685618E+03 -0.40942548620E+03  0.51708093856E+03  0.76357545114E+03  0.10100000352E+00 0. -1.
       -3    1    3    3    0  502 -0.38476685618E+03  0.40942548620E+03 -0.28181603629E+04  0.28736218616E+04  0.10100000352E+00 0.  1.
</event>
<event>
 5   0  0.5866136E-06  0.2749278E+04  0.7818609E-02  0.8319191E-01
       -2   -1    0    0    0  501  0.00000000000E+00  0.00000000000E+00  0.11029572402E+04  0.11029572402E+04  0.25500000920E-02 0. -1.
        2   -1    0    0  501    0  0.00000000000E+00  0.00000000000E+00 -0.17132411870E+04  0.17132411870E+04  0.25500000920E-02 0.  1.
    10030    2    1    2    0    0  0.00000000000E+00  0.00000000000E+00 -0.61028394682E+03  0.28161984272E+04  0.27492775570E+04 0.  0.
        5    1    3    3  502    0  0.61150346407E+03 -0.37911462378E+03 -0.15049535898E+04  0.16681042479E+04  0.46999998093E+01 0.  1.
       -5    1    3    3    0  502 -0.61150346407E+03  0.37911462378E+03  0.89466964295E+03  0.11480941793E+04  0.46999998093E+01 0. -1.
</event>
<event>
 5   0  0.2267565E-06  0.2793991E+04  0.7818609E-02  0.8305136E-01
        1   -1    0    0  501    0  0.00000000000E+00  0.00000000000E+00  0.16925987430E+04  0.16925987430E+04  0.50400001928E-02 0.  1.
       -1   -1    0    0    0  501  0.00000000000E+00  0.00000000000E+00 -0.11530178967E+04  0.11530178967E+04  0.50400001928E-02 0. -1.
    10030    2    1    2    0    0  0.00000000000E+00  0.00000000000E+00  0.53958084637E+03  0.28456166397E+04  0.27939911543E+04 0.  0.
        4    1    3    3  502    0 -0.98988377494E+03 -0.43270027555E+03  0.11718736852E+04  0.15938597690E+04  0.12699999809E+01 0.  1.
       -4    1    3    3    0  502  0.98988377494E+03  0.43270027555E+03 -0.63229283883E+03  0.12517568707E+04  0.12699999809E+01 0. -1.
</event>
<event>
 5   0  0.5584205E-06  0.2798305E+04  0.7818609E-02  0.8303795E-01
       -2   -1    0    0    0  501  0.00000000000E+00  0.00000000000E+00  0.13592973654E+04  0.13592973654E+04  0.25500000920E-02 0.  1.
        2   -1    0    0  501    0  0.00000000000E+00  0.00000000000E+00 -0.14401766599E+04  0.14401766599E+04  0.25500000920E-02 0. -1.
    10030    2    1    2    0    0  0.00000000000E+00  0.00000000000E+00 -0.80879294464E+02  0.27994740253E+04  0.27983054441E+04 0.  0.
        1    1    3    3  502    0  0.11032901293E+04 -0.35152901680E+03 -0.82613796648E+03  0.14224365359E+04  0.50400001928E-02 0. -1.
       -1    1    3    3    0  502 -0.11032901293E+04  0.35152901680E+03  0.74525867202E+03  0.13770374894E+04  0.50400001928E-02 0.  1.
</event>
<event>
 5   0  0.5625245E-06  0.2795095E+04  0.7818609E-02  0.8304793E-01
       -2   -1    0    0    0  501  0.00000000000E+00  0.00000000000E+00  0.13567822625E+04  0.13567822625E+04  0.25500000920E-02 0. -1.
        2   -1    0    0  501    0  0.00000000000E+00  0.00000000000E+00 -0.14395375534E+04  0.14395375534E+04  0.25500000920E-02 0.  1.
    10030    2    1    2    0    0  0.00000000000E+00  0.00000000000E+00 -0.82755290917E+02  0.27963198159E+04  0.27950950028E+04 0.  0.
        3    1    3    3  502    0  0.13458715921E+04  0.21206456581E+03 -0.35263660154E+03  0.14073714171E+04  0.10100000352E+00 0. -1.
       -3    1    3    3    0  502 -0.13458715921E+04 -0.21206456581E+03  0.26988131062E+03  0.13889483988E+04  0.10100000352E+00 0.  1.
</event>
<event>
 5   0  0.2234068E-06  0.2532677E+04  0.7818609E-02  0.8391436E-01
        1   -1    0    0  501    0  0.00000000000E+00  0.00000000000E+00  0.12394630959E+04  0.12394630959E+04  0.50400001928E-02 0.  1.
       -1   -1    0    0    0  501  0.00000000000E+00  0.00000000000E+00 -0.12937963211E+04  0.12937963212E+04  0.50400001928E-02 0. -1.
    10030    2    1    2    0    0  0.00000000000E+00  0.00000000000E+00 -0.54333225281E+02  0.25332594170E+04  0.25326766818E+04 0.  0.
        3    1    3    3  502    0  0.69430271466E+03 -0.29871543260E+03 -0.10434346470E+04  0.12884265761E+04  0.10100000352E+00 0. -1.
       -3    1    3    3    0  502 -0.69430271466E+03  0.29871543260E+03  0.98910142170E+03  0.12448328409E+04  0.10100000352E+00 0.  1.
</event>
<event>
 5   0  0.5625245E-06  0.2829378E+04  0.7818609E-02  0.8294205E-01
        2   -1    0    0  501    0  0.00000000000E+00  0.00000000000E+00  0.17622955358E+04  0.17622955358E+04  0.25500000920E-02 0.  1.
       -2   -1    0    0    0  501  0.00000000000E+00  0.00000000000E+00 -0.11356469144E+04  0.11356469144E+04  0.25500000920E-02 0. -1.
    10030    2    1    2    0    0  0.00000000000E+00  0.00000000000E+00  0.62664862139E+03  0.28979424501E+04  0.28293783681E+04 0.  0.
        3    1    3    3  502    0 -0.58676615773E+03 -0.12173501801E+04 -0.11527707646E+03  0.13562908241E+04  0.10100000352E+00 0.  1.
       -3    1    3    3    0  502  0.58676615773E+03  0.12173501801E+04  0.74192569785E+03  0.15416516261E+04  0.10100000352E+00 0. -1.
</event>
<event>
 5   0  0.5584205E-06  0.2794676E+04  0.7818609E-02  0.8304923E-01
       -2   -1    0    0    0  501  0.00000000000E+00  0.00000000000E+00  0.20001358099E+04  0.20001358099E+04  0.25500000920E-02 0. -1.
        2   -1    0    0  501    0  0.00000000000E+00  0.00000000000E+00 -0.97621049256E+03  0.97621049256E+03  0.25500000920E-02 0.  1.
    10030    2    1    2    0    0  0.00000000000E+00  0.00000000000E+00  0.10239253174E+04  0.29763463025E+04  0.27946760558E+04 0.  0.
        1    1    3    3  502    0  0.75832303218E+03 -0.11719512704E+04  0.44435397014E+03  0.14649143497E+04  0.50400001928E-02 0.  1.
       -1    1    3    3    0  502 -0.75832303218E+03  0.11719512704E+04  0.57957134722E+03  0.15114319527E+04  0.50400001928E-02 0. -1.
</event>
<event>
 5   0  0.2190865E-06  0.2799148E+04  0.7818609E-02  0.8303533E-01
       -1   -1    0    0    0  501  0.00000000000E+00  0.00000000000E+00  0.85203738900E+03  0.85203738902E+03  0.50400001928E-02 0. -1.
        1   -1    0    0  501    0  0.00000000000E+00  0.00000000000E+00 -0.22989695388E+04  0.22989695388E+04  0.50400001928E-02 0.  1.
    10030    2    1    2    0    0  0.00000000000E+00  0.00000000000E+00 -0.14469321498E+04  0.31510069278E+04  0.27991484443E+04 0.  0.
        2    1    3    3  502    0 -0.61323661533E+03 -0.12494388860E+04 -0.88910625218E+03  0.16515648955E+04  0.25500000920E-02 0.  1.
       -2    1    3    3    0  502  0.61323661533E+03  0.12494388860E+04 -0.55782589764E+03  0.14994420324E+04  0.25500000920E-02 0. -1.
</event>
<event>
 5   0  0.5546570E-06  0.2849633E+04  0.7818609E-02  0.8288023E-01
        2   -1    0    0  501    0  0.00000000000E+00  0.00000000000E+00  0.21492056127E+04  0.21492056127E+04  0.25500000920E-02 0. -1.
       -2   -1    0    0    0  501  0.00000000000E+00  0.00000000000E+00 -0.94458273670E+03  0.94458273670E+03  0.25500000920E-02 0.  1.
    10030    2    1    2    0    0  0.00000000000E+00  0.00000000000E+00  0.12046228760E+04  0.30937883494E+04  0.28496333233E+04 0.  0.
        4    1    3    3  502    0  0.11963071897E+03  0.89829602049E+03  0.17959929934E+04  0.20116758423E+04  0.12699999809E+01 0. -1.
       -4    1    3    3    0  502 -0.11963071897E+03 -0.89829602049E+03 -0.59137011738E+03  0.10821125071E+04  0.12699999809E+01 0.  1.
</event>
<event>
 5   0  0.5916603E-06  0.2794773E+04  0.7818609E-02  0.8304893E-01
        2   -1    0    0  501    0  0.00000000000E+00  0.00000000000E+00  0.16748705249E+04  0.16748705249E+04  0.25500000920E-02 0.  1.
       -2   -1    0    0    0  501  0.00000000000E+00  0.00000000000E+00 -0.11658745965E+04  0.11658745965E+04  0.25500000920E-02 0. -1.
    10030    2    1    2    0    0  0.00000000000E+00  0.00000000000E+00  0.50899592842E+03  0.28407451213E+04  0.27947729763E+04 0.  0.
        2    1    3    3  502    0 -0.32661161525E+03 -0.19046206044E+03 -0.11128957951E+04  0.11753671743E+04  0.25500000920E-02 0. -1.
       -2    1    3    3    0  502  0.32661161525E+03  0.19046206044E+03  0.16218917235E+04  0.16653779470E+04  0.25500000920E-02 0.  1.
</event>
<event>
 5   0  0.2234068E-06  0.2805530E+04  0.7818609E-02  0.8301553E-01
        1   -1    0    0  501    0  0.00000000000E+00  0.00000000000E+00  0.16704489259E+04  0.16704489259E+04  0.50400001928E-02 0. -1.
       -1   -1    0    0    0  501  0.00000000000E+00  0.00000000000E+00 -0.11779768028E+04  0.11779768028E+04  0.50400001928E-02 0.  1.
    10030    2    1    2    0    0  0.00000000000E+00  0.00000000000E+00  0.49247212313E+03  0.28484257287E+04  0.28055303135E+04 0.  0.
        3    1    3    3  502    0 -0.19043666900E+03 -0.57774837804E+03  0.15295600026E+04  0.16460902542E+04  0.10100000352E+00 0. -1.
       -3    1    3    3    0  502  0.19043666900E+03  0.57774837804E+03 -0.10370878795E+04  0.12023354745E+04  0.10100000352E+00 0.  1.
</event>
<event>
 5   0  0.2267565E-06  0.2797627E+04  0.7818609E-02  0.8304005E-01
       -1   -1    0    0    0  501  0.00000000000E+00  0.00000000000E+00  0.10277849362E+04  0.10277849363E+04  0.50400001928E-02 0. -1.
        1   -1    0    0  501    0  0.00000000000E+00  0.00000000000E+00 -0.19037833218E+04  0.19037833219E+04  0.50400001928E-02 0.  1.
    10030    2    1    2    0    0  0.00000000000E+00  0.00000000000E+00 -0.87599838561E+03  0.29315682581E+04  0.27976274377E+04 0.  0.
        4    1    3    3  502    0 -0.97378790231E+03  0.97447994285E+03 -0.18389361846E+03  0.13898534144E+04  0.12699999809E+01 0.  1.
       -4    1    3    3    0  502  0.97378790231E+03 -0.97447994285E+03 -0.69210476715E+03  0.15417148437E+04  0.12699999809E+01 0. -1.
</event>
<event>
 5   0  0.2206967E-06  0.2801265E+04  0.7818609E-02  0.8302876E-01
        1   -1    0    0  501    0  0.00000000000E+00  0.00000000000E+00  0.13073050277E+04  0.13073050278E+04  0.50400001928E-02 0.  1.
       -1   -1    0    0    0  501  0.00000000000E+00  0.00000000000E+00 -0.15006221815E+04  0.15006221816E+04  0.50400001928E-02 0. -1.
    10030    2    1    2    0    0  0.00000000000E+00  0.00000000000E+00 -0.19331715379E+03  0.28079272093E+04  0.28012646592E+04 0.  0.
        5    1    3    3  502    0 -0.91582299149E+03  0.54022015262E+03  0.81720013004E+03  0.13410472429E+04  0.46999998093E+01 0.  1.
       -5    1    3    3    0  502  0.91582299149E+03 -0.54022015262E+03 -0.10105172838E+04  0.14668799665E+04  0.46999998093E+01 0. -1.
</event>
<event>
 5   0  0.2267565E-06  0.2825364E+04  0.7818609E-02  0.8295437E-01
        1   -1    0    0  501    0  0.00000000000E+00  0.00000000000E+00  0.19114170407E+04  0.19114170407E+04  0.50400001928E-02 0.  1.
       -1   -1    0    0    0  501  0.00000000000E+00  0.00000000000E+00 -0.10440792940E+04  0.10440792940E+04  0.50400001928E-02 0. -1.
    10030    2    1    2    0    0  0.00000000000E+00  0.00000000000E+00  0.86733774676E+03  0.29554963347E+04  0.28253643690E+04 0.  0.
        4    1    3    3  502    0 -0.43877378850E+03  0.12613059204E+03 -0.96478180308E+03  0.10673504130E+04  0.12699999809E+01 0. -1.
       -4    1    3    3    0  502  0.43877378850E+03 -0.12613059204E+03  0.18321195498E+04  0.18881459217E+04  0.12699999809E+01 0.  1.
</event>
<event>
 5   0  0.2277133E-06  0.2764538E+04  0.7818609E-02  0.8314363E-01
        1   -1    0    0  501    0  0.00000000000E+00  0.00000000000E+00  0.19885042116E+04  0.19885042116E+04  0.50400001928E-02 0. -1.
       -1   -1    0    0    0  501  0.00000000000E+00  0.00000000000E+00 -0.96085698170E+03  0.96085698171E+03  0.50400001928E-02 0.  1.
    10030    2    1    2    0    0  0.00000000000E+00  0.00000000000E+00  0.10276472299E+04  0.29493611933E+04  0.27645384098E+04 0.  0.
        1    1    3    3  502    0  0.41680563377E+03 -0.98583962350E+03  0.14469779854E+04  0.17998199882E+04  0.50400001928E-02 0.  1.
       -1    1    3    3    0  502 -0.41680563377E+03  0.98583962350E+03 -0.41933075556E+03  0.11495412051E+04  0.50400001928E-02 0. -1.
</event>
<event>
 5   0  0.5866136E-06  0.2813030E+04  0.7818609E-02  0.8299235E-01
        2   -1    0    0  501    0  0.00000000000E+00  0.00000000000E+00  0.21065132609E+04  0.21065132609E+04  0.25500000920E-02 0.  1.
       -2   -1    0    0    0  501  0.00000000000E+00  0.00000000000E+00 -0.93912734129E+03  0.93912734130E+03  0.25500000920E-02 0. -1.
    10030    2    1    2    0    0  0.00000000000E+00  0.00000000000E+00  0.11673859196E+04  0.30456406022E+04  0.28130298243E+04 0.  0.
        5    1    3    3  502    0 -0.94150684336E+02 -0.54676775842E+03 -0.81563695352E+03  0.98646087756E+03  0.46999998093E+01 0. -1.
       -5    1    3    3    0  502  0.94150684336E+02  0.54676775842E+03  0.19830228731E+04  0.20591797246E+04  0.46999998093E+01 0.  1.
</event>
<event>
 5   0  0.2267565E-06  0.2846347E+04  0.7818609E-02  0.8289022E-01
        1   -1    0    0  501    0  0.00000000000E+00  0.00000000000E+00  0.73143144491E+03  0.73143144493E+03  0.50400001928E-02 0.  1.
       -1   -1    0    0    0  501  0.00000000000E+00  0.00000000000E+00 -0.27691225823E+04  0.27691225823E+04  0.50400001928E-02 0. -1.
    10030    2    1    2    0    0  0.00000000000E+00  0.00000000000E+00 -0.20376911373E+04  0.35005540272E+04  0.28463473657E+04 0.  0.
        4    1    3    3  502    0 -0.49298008165E+02 -0.23356990556E+03 -0.27443242282E+04  0.27546873283E+04  0.12699999809E+01 0. -1.
       -4    1    3    3    0  502  0.49298008165E+02  0.23356990556E+03  0.70663309089E+03  0.74586669884E+03  0.12699999809E+01 0.  1.
</event>
<event>
 5   0  0.1901375E-06  0.2876417E+04  0.7818609E-02  0.8279929E-01
       -4   -1    0    0    0  501  0.00000000000E+00  0.00000000000E+00  0.84076368352E+03  0.84076464271E+03  0.12699999809E+01 0. -1.
        4   -1    0    0  501    0  0.00000000000E+00  0.00000000000E+00 -0.24601943440E+04  0.24601946718E+04  0.12699999809E+01 0.  1.
    10030    2    1    2    0    0  0.00000000000E+00  0.00000000000E+00 -0.16194306605E+04  0.33009593146E+04  0.28764173432E+04 0.  0.
        1    1    3    3  502    0 -0.78927692975E+03  0.11891676100E+04 -0.10129610216E+04  0.17501907633E+04  0.50400001928E-02 0. -1.
       -1    1    3    3    0  502  0.78927692975E+03 -0.11891676100E+04 -0.60646963890E+03  0.15507685512E+04  0.50400001928E-02 0.  1.
</event>
<event>
 5   0  0.5625245E-06  0.2800188E+04  0.7818609E-02  0.8303210E-01
        2   -1    0    0  501    0  0.00000000000E+00  0.00000000000E+00  0.23905199810E+04  0.23905199810E+04  0.25500000920E-02 0.  1.
       -2   -1    0    0    0  501  0.00000000000E+00  0.00000000000E+00 -0.82001524855E+03  0.82001524855E+03  0.25500000920E-02 0. -1.
    10030    2    1    2    0    0  0.00000000000E+00  0.00000000000E+00  0.15705047324E+04  0.32105352295E+04  0.28001877340E+04 0.  0.
        3    1    3    3  502    0  0.23821330776E+03  0.21358182570E+03  0.23480453910E+04  0.23697425903E+04  0.10100000352E+00 0.  1.
       -3    1    3    3    0  502 -0.23821330776E+03 -0.21358182570E+03 -0.77754065853E+03  0.84079263920E+03  0.10100000352E+00 0. -1.
</event>
<event>
 5   0  0.5625245E-06  0.2797277E+04  0.7818609E-02  0.8304114E-01
        2   -1    0    0  501    0  0.00000000000E+00  0.00000000000E+00  0.12510988420E+04  0.12510988420E+04  0.25500000920E-02 0.  1.
       -2   -1    0    0    0  501  0.00000000000E+00  0.00000000000E+00 -0.15635767468E+04  0.15635767468E+04  0.25500000920E-02 0. -1.
    10030    2    1    2    0    0  0.00000000000E+00  0.00000000000E+00 -0.31247790475E+03  0.28146755888E+04  0.27972765736E+04 0.  0.
        3    1    3    3  502    0  0.78968948799E+03  0.59113001143E+03  0.84146500963E+03  0.12965753162E+04  0.10100000352E+00 0.  1.
       -3    1    3    3    0  502 -0.78968948799E+03 -0.59113001143E+03 -0.11539429144E+04  0.15181002726E+04  0.10100000352E+00 0. -1.
</event>
<event>
 5   0  0.2206967E-06  0.2799541E+04  0.7818609E-02  0.8303411E-01
       -1   -1    0    0    0  501  0.00000000000E+00  0.00000000000E+00  0.92784023563E+03  0.92784023564E+03  0.50400001928E-02 0. -1.
        1   -1    0    0  501    0  0.00000000000E+00  0.00000000000E+00 -0.21117399040E+04  0.21117399040E+04  0.50400001928E-02 0.  1.
    10030    2    1    2    0    0  0.00000000000E+00  0.00000000000E+00 -0.11838996683E+04  0.30395801396E+04  0.27995408553E+04 0.  0.
        5    1    3    3  502    0  0.76544892570E+03  0.10288795001E+04  0.17257181198E+02  0.12825073037E+04  0.46999998093E+01 0. -1.
       -5    1    3    3    0  502 -0.76544892570E+03 -0.10288795001E+04 -0.12011568495E+04  0.17570728359E+04  0.46999998093E+01 0.  1.
</event>
<event>
 5   0  0.5866136E-06  0.2818604E+04  0.7818609E-02  0.8297516E-01
       -2   -1    0    0    0  501  0.00000000000E+00  0.00000000000E+00  0.12702682204E+04  0.12702682205E+04  0.25500000920E-02 0. -1.
        2   -1    0    0  501    0  0.00000000000E+00  0.00000000000E+00 -0.15635538247E+04  0.15635538247E+04  0.25500000920E-02 0.  1.
    10030    2    1    2    0    0  0.00000000000E+00  0.00000000000E+00 -0.29328560427E+03  0.28338220452E+04  0.28186044309E+04 0.  0.
        5    1    3    3  502    0 -0.34226051239E+03  0.69023620471E+03 -0.13330742586E+04  0.15397004078E+04  0.46999998093E+01 0.  1.
       -5    1    3    3    0  502  0.34226051239E+03 -0.69023620471E+03  0.10397886544E+04  0.12941216374E+04  0.46999998093E+01 0. -1.
</event>
<event>
 5   0  0.5625245E-06  0.2794089E+04  0.7818609E-02  0.8305106E-01
        2   -1    0    0  501    0  0.00000000000E+00  0.00000000000E+00  0.24605456593E+04  0.24605456593E+04  0.25500000920E-02 0.  1.
       -2   -1    0    0    0  501  0.00000000000E+00  0.00000000000E+00 -0.79321164405E+03  0.79321164405E+03  0.25500000920E-02 0. -1.
    10030    2    1    2    0    0  0.00000000000E+00  0.00000000000E+00  0.16673340153E+04  0.32537573034E+04  0.27940890950E+04 0.  0.
        3    1    3    3  502    0  0.52068001752E+03 -0.94656501970E+03  0.18651931752E+04  0.21554671439E+04  0.10100000352E+00 0.  1.
       -3    1    3    3    0  502 -0.52068001752E+03  0.94656501970E+03 -0.19785915993E+03  0.10982901595E+04  0.10100000352E+00 0. -1.
</event>
<event>
 5   0  0.2234068E-06  0.2851814E+04  0.7818609E-02  0.8287360E-01
       -1   -1    0    0    0  501  0.00000000000E+00  0.00000000000E+00  0.92452632061E+03  0.92452632063E+03  0.50400001928E-02 0.  1.
        1   -1    0    0  501    0  0.00000000000E+00  0.00000000000E+00 -0.21991923688E+04  0.21991923688E+04  0.50400001928E-02 0. -1.
    10030    2    1    2    0    0  0.00000000000E+00  0.00000000000E+00 -0.12746660482E+04  0.31237186894E+04  0.28518143201E+04 0.  0.
        3    1    3    3  502    0 -0.11962695537E+04 -0.70738271592E+03 -0.28791977993E+03  0.14192776197E+04  0.10100000352E+00 0.  1.
       -3    1    3    3    0  502  0.11962695537E+04  0.70738271592E+03 -0.98674626822E+03  0.17044410697E+04  0.10100000352E+00 0. -1.
</event>
<event>
 5   0  0.2234068E-06  0.2741725E+04  0.7818609E-02  0.8321592E-01
        1   -1    0    0  501    0  0.00000000000E+00  0.00000000000E+00  0.14901473213E+04  0.14901473213E+04  0.50400001928E-02 0.  1.
       -1   -1    0    0    0  501  0.00000000000E+00  0.00000000000E+00 -0.12611262916E+04  0.12611262916E+04  0.50400001928E-02 0. -1.
    10030    2    1    2    0    0  0.00000000000E+00  0.00000000000E+00  0.22902102969E+03  0.27512736130E+04  0.27417249792E+04 0.  0.
        3    1    3    3  502    0  0.99025029782E+03  0.60158121627E+03  0.84970686341E+03  0.14368358904E+04  0.10100000352E+00 0.  1.
       -3    1    3    3    0  502 -0.99025029782E+03 -0.60158121627E+03 -0.62068583372E+03  0.13144377226E+04  0.10100000352E+00 0. -1.
</event>
<event>
 5   0  0.2267565E-06  0.2804569E+04  0.7818609E-02  0.8301851E-01
        1   -1    0    0  501    0  0.00000000000E+00  0.00000000000E+00  0.25329122430E+04  0.25329122430E+04  0.50400001928E-02 0.  1.
       -1   -1    0    0    0  501  0.00000000000E+00  0.00000000000E+00 -0.77634047536E+03  0.77634047537E+03  0.50400001928E-02 0. -1.
    10030    2    1    2    0    0  0.00000000000E+00  0.00000000000E+00  0.17565717677E+04  0.33092527184E+04  0.28045693394E+04 0.  0.
        4    1    3    3  502    0  0.10975378604E+03 -0.50587292104E+03  0.24160502753E+04  0.24708811893E+04  0.12699999809E+01 0.  1.
       -4    1    3    3    0  502 -0.10975378604E+03  0.50587292104E+03 -0.65947850768E+03  0.83837152909E+03  0.12699999809E+01 0. -1.
</event>
<event>
 5   0  0.5584205E-06  0.2798514E+04  0.7818609E-02  0.8303730E-01
        2   -1    0    0  501    0  0.00000000000E+00  0.00000000000E+00  0.19647131930E+04  0.19647131930E+04  0.25500000920E-02 0. -1.
       -2   -1    0    0    0  501  0.00000000000E+00  0.00000000000E+00 -0.99654281038E+03  0.99654281039E+03  0.25500000920E-02 0.  1.
    10030    2    1    2    0    0  0.00000000000E+00  0.00000000000E+00  0.96817038266E+03  0.29612560034E+04  0.27985144681E+04 0.  0.
        1    1    3    3  502    0 -0.36504615658E+03  0.68882247230E+03 -0.74546185720E+03  0.10786326879E+04  0.50400001928E-02 0.  1.
       -1    1    3    3    0  502  0.36504615658E+03 -0.68882247230E+03  0.17136322399E+04  0.18826233156E+04  0.50400001928E-02 0. -1.
</event>
<event>
 5   0  0.5866136E-06  0.2794903E+04  0.7818609E-02  0.8304852E-01
        2   -1    0    0  501    0  0.00000000000E+00  0.00000000000E+00  0.25210693999E+04  0.25210693999E+04  0.25500000920E-02 0. -1.
       -2   -1    0    0    0  501  0.00000000000E+00  0.00000000000E+00 -0.77462000185E+03  0.77462000186E+03  0.25500000920E-02 0.  1.
    10030    2    1    2    0    0  0.00000000000E+00  0.00000000000E+00  0.17464493981E+04  0.32956894018E+04  0.27949030632E+04 0.  0.
        5    1    3    3  502    0 -0.79333399654E+03  0.17608195418E+03  0.22137929287E+04  0.23582376695E+04  0.46999998093E+01 0. -1.
       -5    1    3    3    0  502  0.79333399654E+03 -0.17608195418E+03 -0.46734353066E+03  0.93745173225E+03  0.46999998093E+01 0.  1.
</event>
<event>
 5   0  0.5916603E-06  0.2700420E+04  0.7818609E-02  0.8334869E-01
       -2   -1    0    0    0  501  0.00000000000E+00  0.00000000000E+00  0.17442140728E+04  0.17442140728E+04  0.25500000920E-02 0. -1.
        2   -1    0    0  501    0  0.00000000000E+00  0.00000000000E+00 -0.10452079557E+04  0.10452079557E+04  0.25500000920E-02 0.  1.
    10030    2    1    2    0    0  0.00000000000E+00  0.00000000000E+00  0.69900611707E+03  0.27894220285E+04  0.27004195418E+04 0.  0.
        2    1    3    3  502    0 -0.19715114824E+03  0.61474292507E+03 -0.87545232829E+03  0.10877473136E+04  0.25500000920E-02 0.  1.
       -2    1    3    3    0  502  0.19715114824E+03 -0.61474292507E+03  0.15744584454E+04  0.17016747149E+04  0.25500000920E-02 0. -1.
</event>
<event>
 5   0  0.5625245E-06  0.2809728E+04  0.7818609E-02  0.8300254E-01
        2   -1    0    0  501    0  0.00000000000E+00  0.00000000000E+00  0.25453095955E+04  0.25453095955E+04  0.25500000920E-02 0.  1.
       -2   -1    0    0    0  501  0.00000000000E+00  0.00000000000E+00 -0.77540404191E+03  0.77540404192E+03  0.25500000920E-02 0. -1.
    10030    2    1    2    0    0  0.00000000000E+00  0.00000000000E+00  0.17699055536E+04  0.33207136375E+04  0.28097283487E+04 0.  0.
        3    1    3    3  502    0 -0.96461293648E+02 -0.12047380253E+03  0.25352602538E+04  0.25399534018E+04  0.10100000352E+00 0.  1.
       -3    1    3    3    0  502  0.96461293648E+02  0.12047380253E+03 -0.76535470022E+03  0.78076023568E+03  0.10100000352E+00 0. -1.
</event>
<event>
 5   0  0.2190865E-06  0.2817960E+04  0.7818609E-02  0.8297714E-01
       -1   -1    0    0    0  501  0.00000000000E+00  0.00000000000E+00  0.12920111577E+04  0.12920111577E+04  0.50400001928E-02 0. -1.
        1   -1    0    0  501    0  0.00000000000E+00  0.00000000000E+00 -0.15365379937E+04  0.15365379937E+04  0.50400001928E-02 0.  1.
    10030    2    1    2    0    0  0.00000000000E+00  0.00000000000E+00 -0.24452683604E+03  0.28285491514E+04  0.28179597102E+04 0.  0.
        2    1    3    3  502    0  0.10796497228E+04  0.90451787320E+03 -0.16019597180E+03  0.14175538284E+04  0.25500000920E-02 0.  1.
       -2    1    3    3    0  502 -0.10796497228E+04 -0.90451787320E+03 -0.84330864245E+02  0.14109953230E+04  0.25500000920E-02 0. -1.
</event>
<event>
 5   0  0.2277133E-06  0.2809443E+04  0.7818609E-02  0.8300343E-01
       -1   -1    0    0    0  501  0.00000000000E+00  0.00000000000E+00  0.15855173796E+04  0.15855173796E+04  0.50400001928E-02 0.  1.
        1   -1    0    0  501    0  0.00000000000E+00  0.00000000000E+00 -0.12445415345E+04  0.12445415345E+04  0.50400001928E-02 0. -1.
    10030    2    1    2    0    0  0.00000000000E+00  0.00000000000E+00  0.34097584510E+03  0.28300589142E+04  0.28094428150E+04 0.  0.
        1    1    3    3  502    0 -0.13255930494E+04  0.32437857903E+03 -0.16485710575E+03  0.13746258620E+04  0.50400001928E-02 0. -1.
       -1    1    3    3    0  502  0.13255930494E+04 -0.32437857903E+03  0.50583295085E+03  0.14554330522E+04  0.50400001928E-02 0.  1.
</event>
<event>
 5   0  0.5625245E-06  0.2821488E+04  0.7818609E-02  0.8296628E-01
        2   -1    0    0  501    0  0.00000000000E+00  0.00000000000E+00  0.17250317798E+04  0.17250317798E+04  0.25500000920E-02 0. -1.
       -2   -1    0    0    0  501  0.00000000000E+00  0.00000000000E+00 -0.11537174912E+04  0.11537174912E+04  0.25500000920E-02 0.  1.
    10030    2    1    2    0    0  0.00000000000E+00  0.00000000000E+00  0.57131428863E+03  0.28787492710E+04  0.28214884988E+04 0.  0.
        3    1    3    3  502    0  0.38644716635E+03  0.44457954724E+03  0.15935485532E+04  0.16989377233E+04  0.10100000352E+00 0. -1.
       -3    1    3    3    0  502 -0.38644716635E+03 -0.44457954724E+03 -0.10222342645E+04  0.11798115477E+04  0.10100000352E+00 0.  1.
</event>
<event>
 5   0  0.5866136E-06  0.2600447E+04  0.7818609E-02  0.8368050E-01
       -2   -1    0    0    0  501  0.00000000000E+00  0.00000000000E+00  0.12536822467E+04  0.12536822467E+04  0.25500000920E-02 0. -1.
        2   -1    0    0  501    0  0.00000000000E+00  0.00000000000E+00 -0.13484921405E+04  0.13484921405E+04  0.25500000920E-02 0.  1.
    10030    2    1    2    0    0  0.00000000000E+00  0.00000000000E+00 -0.94809893804E+02  0.26021743873E+04  0.26004466205E+04 0.  0.
        5    1    3    3  502    0  0.21155883212E+03  0.11095641391E+04  0.59697076102E+03  0.12776094464E+04  0.46999998093E+01 0. -1.
       -5    1    3    3    0  502 -0.21155883212E+03 -0.11095641391E+04 -0.69178065482E+03  0.13245649408E+04  0.46999998093E+01 0.  1.
</event>
<event>
 5   0  0.2234068E-06  0.2820647E+04  0.7818609E-02  0.8296887E-01
        1   -1    0    0  501    0  0.00000000000E+00  0.00000000000E+00  0.14418059871E+04  0.14418059871E+04  0.50400001928E-02 0. -1.
       -1   -1    0    0    0  501  0.00000000000E+00  0.00000000000E+00 -0.13795286707E+04  0.13795286707E+04  0.50400001928E-02 0.  1.
    10030    2    1    2    0    0  0.00000000000E+00  0.00000000000E+00  0.62277316370E+02  0.28213346578E+04  0.28206472284E+04 0.  0.
        3    1    3    3  502    0 -0.52375308836E+03 -0.11879746366E+04  0.58210105324E+03  0.14228291117E+04  0.10100000352E+00 0. -1.
       -3    1    3    3    0  502  0.52375308836E+03  0.11879746366E+04 -0.51982373687E+03  0.13985055461E+04  0.10100000352E+00 0.  1.
</event>
<event>
 5   0  0.2267565E-06  0.2947172E+04  0.7818609E-02  0.8258979E-01
       -1   -1    0    0    0  501  0.00000000000E+00  0.00000000000E+00  0.10279080665E+04  0.10279080665E+04  0.50400001928E-02 0. -1.
        1   -1    0    0  501    0  0.00000000000E+00  0.00000000000E+00 -0.21124992965E+04  0.21124992965E+04  0.50400001928E-02 0.  1.
    10030    2    1    2    0    0  0.00000000000E+00  0.00000000000E+00 -0.10845912300E+04  0.31404073630E+04  0.29471715711E+04 0.  0.
        4    1    3    3  502    0  0.58528213354E+03 -0.12718729341E+04 -0.52555029646E+02  0.14010637317E+04  0.12699999809E+01 0. -1.
       -4    1    3    3    0  502 -0.58528213354E+03  0.12718729341E+04 -0.10320362003E+04  0.17393436313E+04  0.12699999809E+01 0.  1.
</event>
<event>
 5   0  0.2190865E-06  0.2785153E+04  0.7818609E-02  0.8307893E-01
        1   -1    0    0  501    0  0.00000000000E+00  0.00000000000E+00  0.19489438958E+04  0.19489438958E+04  0.50400001928E-02 0.  1.
       -1   -1    0    0    0  501  0.00000000000E+00  0.00000000000E+00 -0.99503618368E+03  0.99503618370E+03  0.50400001928E-02 0. -1.
    10030    2    1    2    0    0  0.00000000000E+00  0.00000000000E+00  0.95390771216E+03  0.29439800795E+04  0.27851532786E+04 0.  0.
        2    1    3    3  502    0  0.15711030519E+03  0.66592384784E+03  0.17590231826E+04  0.18874058323E+04  0.25500000920E-02 0.  1.
       -2    1    3    3    0  502 -0.15711030519E+03 -0.66592384784E+03 -0.80511547042E+03  0.10565742472E+04  0.25500000920E-02 0. -1.
</event>
<event>
 5   0  0.5546570E-06  0.2675189E+04  0.7818609E-02  0.8343100E-01
        2   -1    0    0  501    0  0.00000000000E+00  0.00000000000E+00  0.97770565816E+03  0.97770565816E+03  0.25500000920E-02 0. -1.
       -2   -1    0    0    0  501  0.00000000000E+00  0.00000000000E+00 -0.18299572236E+04  0.18299572236E+04  0.25500000920E-02 0.  1.
    10030    2    1    2    0    0  0.00000000000E+00  0.00000000000E+00 -0.85225156543E+03  0.28076628817E+04  0.26751893628E+04 0.  0.
        4    1    3    3  502    0  0.30396017034E+03  0.12278415458E+04  0.30350296263E+02  0.12652704849E+04  0.12699999809E+01 0. -1.
       -4    1    3    3    0  502 -0.30396017034E+03 -0.12278415458E+04 -0.88260186169E+03  0.15423923968E+04  0.12699999809E+01 0.  1.
</event>
<event>
 5   0  0.2206967E-06  0.2737380E+04  0.7818609E-02  0.8322978E-01
        1   -1    0    0  501    0  0.00000000000E+00  0.00000000000E+00  0.23206323990E+04  0.23206323990E+04  0.50400001928E-02 0.  1.
       -1   -1    0    0    0  501  0.00000000000E+00  0.00000000000E+00 -0.80724190851E+03  0.80724190853E+03  0.50400001928E-02 0. -1.
    10030    2    1    2    0    0  0.00000000000E+00  0.00000000000E+00  0.15133904905E+04  0.31278743075E+04  0.27373795694E+04 0.  0.
        5    1    3    3  502    0 -0.42283095795E+03  0.69363721414E+03 -0.50197244066E+03  0.95494346692E+03  0.46999998093E+01 0. -1.
       -5    1    3    3    0  502  0.42283095795E+03 -0.69363721414E+03  0.20153629311E+04  0.21729308406E+04  0.46999998093E+01 0.  1.
</event>
<event>
 5   0  0.5866136E-06  0.2810467E+04  0.7818609E-02  0.8300026E-01
       -2   -1    0    0    0  501  0.00000000000E+00  0.00000000000E+00  0.12561330795E+04  0.12561330795E+04  0.25500000920E-02 0. -1.
        2   -1    0    0  501    0  0.00000000000E+00  0.00000000000E+00 -0.15720313318E+04  0.15720313318E+04  0.25500000920E-02 0.  1.
    10030    2    1    2    0    0  0.00000000000E+00  0.00000000000E+00 -0.31589825223E+03  0.28281644113E+04  0.28104665505E+04 0.  0.
        5    1    3    3  502    0 -0.13141804551E+04 -0.49719241170E+03 -0.17776845504E+03  0.14162959707E+04  0.46999998093E+01 0. -1.
       -5    1    3    3    0  502  0.13141804551E+04  0.49719241170E+03 -0.13812979719E+03  0.14118684407E+04  0.46999998093E+01 0.  1.
</event>
<event>
 5   0  0.2190865E-06  0.2787362E+04  0.7818609E-02  0.8307203E-01
       -1   -1    0    0    0  501  0.00000000000E+00  0.00000000000E+00  0.15318652974E+04  0.15318652974E+04  0.50400001928E-02 0. -1.
        1   -1    0    0  501    0  0.00000000000E+00  0.00000000000E+00 -0.12679621991E+04  0.12679621992E+04  0.50400001928E-02 0.  1.
    10030    2    1    2    0    0  0.00000000000E+00  0.00000000000E+00  0.26390309828E+03  0.27998274966E+04  0.27873624029E+04 0.  0.
        2    1    3    3  502    0 -0.82122633603E+02 -0.13055757322E+04  0.61480404319E+03  0.14454259341E+04  0.25500000920E-02 0. -1.
       -2    1    3    3    0  502  0.82122633603E+02  0.13055757322E+04 -0.35090094491E+03  0.13544015625E+04  0.25500000920E-02 0.  1.
</event>
<event>
 5   0  0.5584205E-06  0.2868707E+04  0.7818609E-02  0.8282249E-01
       -2   -1    0    0    0  501  0.00000000000E+00  0.00000000000E+00  0.11019466516E+04  0.11019466516E+04  0.25500000920E-02 0.  1.
        2   -1    0    0  501    0  0.00000000000E+00  0.00000000000E+00 -0.18670327343E+04  0.18670327343E+04  0.25500000920E-02 0. -1.
    10030    2    1    2    0    0  0.00000000000E+00  0.00000000000E+00 -0.76508608276E+03  0.29689793859E+04  0.28687073535E+04 0.  0.
        1    1    3    3  502    0  0.14150413304E+04 -0.21849748170E+03 -0.29419318205E+03  0.14617225265E+04  0.50400001928E-02 0. -1.
       -1    1    3    3    0  502 -0.14150413304E+04  0.21849748170E+03 -0.47089290071E+03  0.15072568594E+04  0.50400001928E-02 0.  1.
</event>
<event>
 5   0  0.2206967E-06  0.2800459E+04  0.7818609E-02  0.8303126E-01
       -1   -1    0    0    0  501  0.00000000000E+00  0.00000000000E+00  0.19199251484E+04  0.19199251484E+04  0.50400001928E-02 0. -1.
        1   -1    0    0  501    0  0.00000000000E+00  0.00000000000E+00 -0.10212080571E+04  0.10212080571E+04  0.50400001928E-02 0.  1.
    10030    2    1    2    0    0  0.00000000000E+00  0.00000000000E+00  0.89871709132E+03  0.29411332055E+04  0.28004592699E+04 0.  0.
        5    1    3    3  502    0  0.56667588413E+02 -0.10811816552E+04 -0.48319580416E+03  0.11856075498E+04  0.46999998093E+01 0.  1.
       -5    1    3    3    0  502 -0.56667588413E+02  0.10811816552E+04  0.13819128955E+04  0.17555256557E+04  0.46999998093E+01 0. -1.
</event>
<event>
 5   0  0.2190865E-06  0.2811067E+04  0.7818609E-02  0.8299841E-01
        1   -1    0    0  501    0  0.00000000000E+00  0.00000000000E+00  0.19548548577E+04  0.19548548577E+04  0.50400001928E-02 0.  1.
       -1   -1    0    0    0  501  0.00000000000E+00  0.00000000000E+00 -0.10105735509E+04  0.10105735509E+04  0.50400001928E-02 0. -1.
    10030    2    1    2    0    0  0.00000000000E+00  0.00000000000E+00  0.94428130682E+03  0.29654284086E+04  0.28110671390E+04 0.  0.
        2    1    3    3  502    0 -0.22494184411E+03 -0.40578680590E+03  0.18717440478E+04  0.19283898842E+04  0.25500000920E-02 0.  1.
       -2    1    3    3    0  502  0.22494184411E+03  0.40578680590E+03 -0.92746274100E+03  0.10370385244E+04  0.25500000920E-02 0. -1.
</event>
<event>
 5   0  0.5916603E-06  0.2829264E+04  0.7818609E-02  0.8294240E-01
       -2   -1    0    0    0  501  0.00000000000E+00  0.00000000000E+00  0.10674987202E+04  0.10674987202E+04  0.25500000920E-02 0.  1.
        2   -1    0    0  501    0  0.00000000000E+00  0.00000000000E+00 -0.18746476683E+04  0.18746476683E+04  0.25500000920E-02 0. -1.
    10030    2    1    2    0    0  0.00000000000E+00  0.00000000000E+00 -0.80714894803E+03  0.29421463885E+04  0.28292642059E+04 0.  0.
        2    1    3    3  502    0 -0.10186155284E+04 -0.60120550328E+03 -0.12105235403E+04  0.16924517404E+04  0.25500000920E-02 0. -1.
       -2    1    3    3    0  502  0.10186155284E+04  0.60120550328E+03  0.40337459230E+03  0.12496946481E+04  0.25500000920E-02 0.  1.
</event>
<event>
 5   0  0.5916603E-06  0.2795824E+04  0.7818609E-02  0.8304566E-01
        2   -1    0    0  501    0  0.00000000000E+00  0.00000000000E+00  0.11856900796E+04  0.11856900796E+04  0.25500000920E-02 0.  1.
       -2   -1    0    0    0  501  0.00000000000E+00  0.00000000000E+00 -0.16481185086E+04  0.16481185086E+04  0.25500000920E-02 0. -1.
    10030    2    1    2    0    0  0.00000000000E+00  0.00000000000E+00 -0.46242842902E+03  0.28338085882E+04  0.27958238612E+04 0.  0.
        2    1    3    3  502    0  0.36011017548E+03 -0.52428856700E+03  0.10305276074E+04  0.12110099049E+04  0.25500000920E-02 0.  1.
       -2    1    3    3    0  502 -0.36011017548E+03  0.52428856700E+03 -0.14929560365E+04  0.16227986834E+04  0.25500000920E-02 0. -1.
</event>
<event>
 5   0  0.5546570E-06  0.2813870E+04  0.7818609E-02  0.8298975E-01
       -2   -1    0    0    0  501  0.00000000000E+00  0.00000000000E+00  0.12007900561E+04  0.12007900561E+04  0.25500000920E-02 0. -1.
        2   -1    0    0  501    0  0.00000000000E+00  0.00000000000E+00 -0.16484701580E+04  0.16484701580E+04  0.25500000920E-02 0.  1.
    10030    2    1    2    0    0  0.00000000000E+00  0.00000000000E+00 -0.44768010195E+03  0.28492602141E+04  0.28138703406E+04 0.  0.
        4    1    3    3  502    0 -0.11056579706E+04  0.85255164767E+03 -0.48044618811E+02  0.13970088612E+04  0.12699999809E+01 0. -1.
       -4    1    3    3    0  502  0.11056579706E+04 -0.85255164767E+03 -0.39963548314E+03  0.14522513529E+04  0.12699999809E+01 0.  1.
</event>
<event>
 5   0  0.5916603E-06  0.2942387E+04  0.7818609E-02  0.8260377E-01
       -2   -1    0    0    0  501  0.00000000000E+00  0.00000000000E+00  0.13455284406E+04  0.13455284406E+04  0.25500000920E-02 0. -1.
        2   -1    0    0  501    0  0.00000000000E+00  0.00000000000E+00 -0.16085946788E+04  0.16085946788E+04  0.25500000920E-02 0.  1.
    10030    2    1    2    0    0  0.00000000000E+00  0.00000000000E+00 -0.26306623826E+03  0.29541231194E+04  0.29423867113E+04 0.  0.
        2    1    3    3  502    0 -0.37345398458E+03  0.71366575785E+03 -0.13675501727E+04  0.15871295371E+04  0.25500000920E-02 0.  1.
       -2    1    3    3    0  502  0.37345398458E+03 -0.71366575785E+03  0.11044839345E+04  0.13669935823E+04  0.25500000920E-02 0. -1.
</event>
<event>
 5   0  0.5916603E-06  0.2825471E+04  0.7818609E-02  0.8295404E-01
       -2   -1    0    0    0  501  0.00000000000E+00  0.00000000000E+00  0.18166877532E+04  0.18166877532E+04  0.25500000920E-02 0.  1.
        2   -1    0    0  501    0  0.00000000000E+00  0.00000000000E+00 -0.10986047925E+04  0.10986047925E+04  0.25500000920E-02 0. -1.
    10030    2    1    2    0    0  0.00000000000E+00  0.00000000000E+00  0.71808296072E+03  0.29152925457E+04  0.28254711976E+04 0.  0.
        2    1    3    3  502    0 -0.27671202795E+03  0.47507710085E+01  0.17884446533E+04  0.18097310281E+04  0.25500000920E-02 0.  1.
       -2    1    3    3    0  502  0.27671202795E+03 -0.47507710085E+01 -0.10703616925E+04  0.11055615176E+04  0.25500000920E-02 0. -1.
</event>
<event>
 5   0  0.5625245E-06  0.2786602E+04  0.7818609E-02  0.8307440E-01
        2   -1    0    0  501    0  0.00000000000E+00  0.00000000000E+00  0.22168700221E+04  0.22168700221E+04  0.25500000920E-02 0. -1.
       -2   -1    0    0    0  501  0.00000000000E+00  0.00000000000E+00 -0.87568831194E+03  0.87568831195E+03  0.25500000920E-02 0.  1.
    10030    2    1    2    0    0  0.00000000000E+00  0.00000000000E+00  0.13411817101E+04  0.30925583340E+04  0.27866016346E+04 0.  0.
        3    1    3    3  502    0  0.16229965228E+03  0.56840892457E+03 -0.72962527422E+03  0.93903297793E+03  0.10100000352E+00 0.  1.
       -3    1    3    3    0  502 -0.16229965228E+03 -0.56840892457E+03  0.20708069843E+04  0.21535253561E+04  0.10100000352E+00 0. -1.
</event>
<event>
 5   0  0.2267565E-06  0.2619136E+04  0.7818609E-02  0.8361730E-01
       -1   -1    0    0    0  501  0.00000000000E+00  0.00000000000E+00  0.16458470457E+04  0.16458470457E+04  0.50400001928E-02 0.  1.
        1   -1    0    0  501    0  0.00000000000E+00  0.00000000000E+00 -0.10419971186E+04  0.10419971187E+04  0.50400001928E-02 0. -1.
    10030    2    1    2    0    0  0.00000000000E+00  0.00000000000E+00  0.60384992709E+03  0.26878441644E+04  0.26191356432E+04 0.  0.
        4    1    3    3  502    0  0.82358173531E+02  0.89459464275E+03  0.12797501819E+04  0.15635998800E+04  0.12699999809E+01 0.  1.
       -4    1    3    3    0  502 -0.82358173531E+02 -0.89459464275E+03 -0.67590025486E+03  0.11242442844E+04  0.12699999809E+01 0. -1.
</event>
<event>
 5   0  0.2277133E-06  0.2782167E+04  0.7818609E-02  0.8308826E-01
        1   -1    0    0  501    0  0.00000000000E+00  0.00000000000E+00  0.11542404617E+04  0.11542404617E+04  0.50400001928E-02 0. -1.
       -1   -1    0    0    0  501  0.00000000000E+00  0.00000000000E+00 -0.16765255959E+04  0.16765255959E+04  0.50400001928E-02 0.  1.
    10030    2    1    2    0    0  0.00000000000E+00  0.00000000000E+00 -0.52228513419E+03  0.28307660576E+04  0.27821672687E+04 0.  0.
        1    1    3    3  502    0  0.74387817585E+03  0.11745484128E+02  0.93481343407E+03  0.11947254301E+04  0.50400001928E-02 0. -1.
       -1    1    3    3    0  502 -0.74387817585E+03 -0.11745484128E+02 -0.14570985683E+04  0.16360406274E+04  0.50400001928E-02 0.  1.
</event>
<event>
 5   0  0.2234068E-06  0.2784372E+04  0.7818609E-02  0.8308137E-01
        1   -1    0    0  501    0  0.00000000000E+00  0.00000000000E+00  0.16043117481E+04  0.16043117481E+04  0.50400001928E-02 0. -1.
       -1   -1    0    0    0  501  0.00000000000E+00  0.00000000000E+00 -0.12081076589E+04  0.12081076589E+04  0.50400001928E-02 0.  1.
    10030    2    1    2    0    0  0.00000000000E+00  0.00000000000E+00  0.39620408924E+03  0.28124194070E+04  0.27843716061E+04 0.  0.
        3    1    3    3  502    0  0.80439875453E+03  0.82411366856E+03  0.98826128347E+03  0.15175246521E+04  0.10100000352E+00 0. -1.
       -3    1    3    3    0  502 -0.80439875453E+03 -0.82411366856E+03 -0.59205719423E+03  0.12948947550E+04  0.10100000352E+00 0.  1.
</event>
<event>
 5   0  0.2190865E-06  0.2794356E+04  0.7818609E-02  0.8305023E-01
        1   -1    0    0  501    0  0.00000000000E+00  0.00000000000E+00  0.22012987402E+04  0.22012987402E+04  0.50400001928E-02 0. -1.
       -1   -1    0    0    0  501  0.00000000000E+00  0.00000000000E+00 -0.88679740391E+03  0.88679740393E+03  0.50400001928E-02 0.  1.
    10030    2    1    2    0    0  0.00000000000E+00  0.00000000000E+00  0.13145013362E+04  0.30880961441E+04  0.27943557455E+04 0.  0.
        2    1    3    3  502    0  0.75997880572E+02 -0.54562155952E+02  0.21978333077E+04  0.21998236191E+04  0.25500000920E-02 0. -1.
       -2    1    3    3    0  502 -0.75997880572E+02  0.54562155952E+02 -0.88333197149E+03  0.88827252495E+03  0.25500000920E-02 0.  1.
</event>
<event>
 5   0  0.2234068E-06  0.2836928E+04  0.7818609E-02  0.8291895E-01
        1   -1    0    0  501    0  0.00000000000E+00  0.00000000000E+00  0.21539177448E+04  0.21539177448E+04  0.50400001928E-02 0.  1.
       -1   -1    0    0    0  501  0.00000000000E+00  0.00000000000E+00 -0.93413042571E+03  0.93413042572E+03  0.50400001928E-02 0. -1.
    10030    2    1    2    0    0  0.00000000000E+00  0.00000000000E+00  0.12197873190E+04  0.30880481705E+04  0.28369279863E+04 0.  0.
        3    1    3    3  502    0 -0.12363928081E+04  0.58934339162E+03  0.20839815485E+03  0.13854322828E+04  0.10100000352E+00 0.  1.
       -3    1    3    3    0  502  0.12363928081E+04 -0.58934339162E+03  0.10113891642E+04  0.17026158876E+04  0.10100000352E+00 0. -1.
</event>
<event>
 5   0  0.5546570E-06  0.2811739E+04  0.7818609E-02  0.8299633E-01
       -2   -1    0    0    0  501  0.00000000000E+00  0.00000000000E+00  0.12742166540E+04  0.12742166540E+04  0.25500000920E-02 0.  1.
        2   -1    0    0  501    0  0.00000000000E+00  0.00000000000E+00 -0.15511248647E+04  0.15511248647E+04  0.25500000920E-02 0. -1.
    10030    2    1    2    0    0  0.00000000000E+00  0.00000000000E+00 -0.27690821067E+03  0.28253415188E+04  0.28117390598E+04 0.  0.
        4    1    3    3  502    0  0.73664011157E+03  0.18395627953E+03  0.10504812512E+04  0.12961446828E+04  0.12699999809E+01 0.  1.
       -4    1    3    3    0  502 -0.73664011157E+03 -0.18395627953E+03 -0.13273894619E+04  0.15291968360E+04  0.12699999809E+01 0. -1.
</event>
<event>
 5   0  0.5546570E-06  0.2812127E+04  0.7818609E-02  0.8299513E-01
       -2   -1    0    0    0  501  0.00000000000E+00  0.00000000000E+00  0.13328705156E+04  0.13328705156E+04  0.25500000920E-02 0.  1.
        2   -1    0    0  501    0  0.00000000000E+00  0.00000000000E+00 -0.14832757839E+04  0.14832757839E+04  0.25500000920E-02 0. -1.
    10030    2    1    2    0    0  0.00000000000E+00  0.00000000000E+00 -0.15040526832E+03  0.28161462995E+04  0.28121269949E+04 0.  0.
        4    1    3    3  502    0 -0.11845230081E+04  0.76072378983E+02  0.67961944760E+03  0.13677594708E+04  0.12699999809E+01 0.  1.
       -4    1    3    3    0  502  0.11845230081E+04 -0.76072378983E+02 -0.83002471592E+03  0.14483868287E+04  0.12699999809E+01 0. -1.
</event>
<event>
 5   0  0.5916603E-06  0.2790138E+04  0.7818609E-02  0.8306337E-01
        2   -1    0    0  501    0  0.00000000000E+00  0.00000000000E+00  0.17569258735E+04  0.17569258735E+04  0.25500000920E-02 0.  1.
       -2   -1    0    0    0  501  0.00000000000E+00  0.00000000000E+00 -0.11077401892E+04  0.11077401892E+04  0.25500000920E-02 0. -1.
    10030    2    1    2    0    0  0.00000000000E+00  0.00000000000E+00  0.64918568432E+03  0.28646660627E+04  0.27901379174E+04 0.  0.
        2    1    3    3  502    0  0.35317698351E+02  0.25052655992E+03 -0.10839886141E+04  0.11131227302E+04  0.25500000920E-02 0. -1.
       -2    1    3    3    0  502 -0.35317698351E+02 -0.25052655992E+03  0.17331742984E+04  0.17515433325E+04  0.25500000920E-02 0.  1.
</event>
<event>
 5   0  0.1901375E-06  0.2813588E+04  0.7818609E-02  0.8299062E-01
       -3   -1    0    0    0  501  0.00000000000E+00  0.00000000000E+00  0.21199269713E+04  0.21199269737E+04  0.10100000352E+00 0.  1.
        3   -1    0    0  501    0  0.00000000000E+00  0.00000000000E+00 -0.93355544479E+03  0.93355545025E+03  0.10100000352E+00 0. -1.
    10030    2    1    2    0    0  0.00000000000E+00  0.00000000000E+00  0.11863715265E+04  0.30534824240E+04  0.28135880144E+04 0.  0.
        5    1    3    3  502    0  0.89628396924E+03 -0.37350117053E+02  0.17692458161E+04  0.19836765948E+04  0.46999998093E+01 0.  1.
       -5    1    3    3    0  502 -0.89628396924E+03  0.37350117053E+02 -0.58287428958E+03  0.10698058292E+04  0.46999998093E+01 0. -1.
</event>
<event>
 5   0  0.2267565E-06  0.2656193E+04  0.7818609E-02  0.8349360E-01
       -1   -1    0    0    0  501  0.00000000000E+00  0.00000000000E+00  0.88010247862E+03  0.88010247863E+03  0.50400001928E-02 0.  1.
        1   -1    0    0  501    0  0.00000000000E+00  0.00000000000E+00 -0.20041304956E+04  0.20041304956E+04  0.50400001928E-02 0. -1.
    10030    2    1    2    0    0  0.00000000000E+00  0.00000000000E+00 -0.11240280170E+04  0.28842329743E+04  0.26561929273E+04 0.  0.
        4    1    3    3  502    0  0.96219534965E+03 -0.83464335686E+03 -0.97031347200E+03  0.16012367941E+04  0.12699999809E+01 0. -1.
       -4    1    3    3    0  502 -0.96219534965E+03  0.83464335686E+03 -0.15371454502E+03  0.12829961802E+04  0.12699999809E+01 0.  1.
</event>
<event>
 5   0  0.2234068E-06  0.2803529E+04  0.7818609E-02  0.8302174E-01
        1   -1    0    0  501    0  0.00000000000E+00  0.00000000000E+00  0.10730146781E+04  0.10730146781E+04  0.50400001928E-02 0. -1.
       -1   -1    0    0    0  501  0.00000000000E+00  0.00000000000E+00 -0.18312366452E+04  0.18312366452E+04  0.50400001928E-02 0.  1.
    10030    2    1    2    0    0  0.00000000000E+00  0.00000000000E+00 -0.75822196711E+03  0.29042513233E+04  0.28035290613E+04 0.  0.
        3    1    3    3  502    0  0.64573228882E+03  0.12381571599E+04 -0.50573349997E+03  0.14851833976E+04  0.10100000352E+00 0.  1.
       -3    1    3    3    0  502 -0.64573228882E+03 -0.12381571599E+04 -0.25248846714E+03  0.14190679257E+04  0.10100000352E+00 0. -1.
</event>
<event>
 5   0  0.2267565E-06  0.2793762E+04  0.7818609E-02  0.8305208E-01
        1   -1    0    0  501    0  0.00000000000E+00  0.00000000000E+00  0.94794078543E+03  0.94794078544E+03  0.50400001928E-02 0. -1.
       -1   -1    0    0    0  501  0.00000000000E+00  0.00000000000E+00 -0.20584371097E+04  0.20584371097E+04  0.50400001928E-02 0.  1.
    10030    2    1    2    0    0  0.00000000000E+00  0.00000000000E+00 -0.11104963243E+04  0.30063778952E+04  0.27937619731E+04 0.  0.
        4    1    3    3  502    0  0.69618862906E+03 -0.92613718990E+03  0.28443431865E+03  0.11930269051E+04  0.12699999809E+01 0. -1.
       -4    1    3    3    0  502 -0.69618862906E+03  0.92613718990E+03 -0.13949306429E+04  0.18133509901E+04  0.12699999809E+01 0.  1.
</event>
<event>
 5   0  0.2267565E-06  0.2793308E+04  0.7818609E-02  0.8305349E-01
       -1   -1    0    0    0  501  0.00000000000E+00  0.00000000000E+00  0.98878038816E+03  0.98878038817E+03  0.50400001928E-02 0. -1.
        1   -1    0    0  501    0  0.00000000000E+00  0.00000000000E+00 -0.19727757683E+04  0.19727757683E+04  0.50400001928E-02 0.  1.
    10030    2    1    2    0    0  0.00000000000E+00  0.00000000000E+00 -0.98399538010E+03  0.29615561564E+04  0.27933077094E+04 0.  0.
        4    1    3    3  502    0  0.60401827856E+03 -0.21432138179E+03 -0.18076557466E+04  0.19179136181E+04  0.12699999809E+01 0.  1.
       -4    1    3    3    0  502 -0.60401827856E+03  0.21432138179E+03  0.82366036649E+03  0.10436425383E+04  0.12699999809E+01 0. -1.
</event>
<event>
 5   0  0.5584205E-06  0.2778469E+04  0.7818609E-02  0.8309984E-01
        2   -1    0    0  501    0  0.00000000000E+00  0.00000000000E+00  0.92368934357E+03  0.92368934358E+03  0.25500000920E-02 0.  1.
       -2   -1    0    0    0  501  0.00000000000E+00  0.00000000000E+00 -0.20894175583E+04  0.20894175583E+04  0.25500000920E-02 0. -1.
    10030    2    1    2    0    0  0.00000000000E+00  0.00000000000E+00 -0.11657282148E+04  0.30131069019E+04  0.27784691706E+04 0.  0.
        1    1    3    3  502    0 -0.11763981790E+03  0.14014881328E+03 -0.20762926794E+04  0.20843397293E+04  0.50400001928E-02 0. -1.
       -1    1    3    3    0  502  0.11763981790E+03 -0.14014881328E+03  0.91056446464E+03  0.92876717261E+03  0.50400001928E-02 0.  1.
</event>
<event>
 5   0  0.5916603E-06  0.2782894E+04  0.7818609E-02  0.8308599E-01
       -2   -1    0    0    0  501  0.00000000000E+00  0.00000000000E+00  0.14494070517E+04  0.14494070517E+04  0.25500000920E-02 0. -1.
        2   -1    0    0  501    0  0.00000000000E+00  0.00000000000E+00 -0.13358048231E+04  0.13358048231E+04  0.25500000920E-02 0.  1.
    10030    2    1    2    0    0  0.00000000000E+00  0.00000000000E+00  0.11360222861E+03  0.27852118747E+04  0.27828941268E+04 0.  0.
        2    1    3    3  502    0  0.77637397810E+03 -0.84915645664E+03  0.83994990638E+03  0.14245487310E+04  0.25500000920E-02 0. -1.
       -2    1    3    3    0  502 -0.77637397810E+03  0.84915645664E+03 -0.72634767776E+03  0.13606631437E+04  0.25500000920E-02 0.  1.
</event>
<event>
 5   0  0.5625245E-06  0.2805765E+04  0.7818609E-02  0.8301481E-01
       -2   -1    0    0    0  501  0.00000000000E+00  0.00000000000E+00  0.78184518451E+03  0.78184518451E+03  0.25500000920E-02 0. -1.
        2   -1    0    0  501    0  0.00000000000E+00  0.00000000000E+00 -0.25172241725E+04  0.25172241725E+04  0.25500000920E-02 0.  1.
    10030    2    1    2    0    0  0.00000000000E+00  0.00000000000E+00 -0.17353789880E+04  0.32990693571E+04  0.28057652059E+04 0.  0.
        3    1    3    3  502    0 -0.10030387359E+04 -0.68809739799E+03 -0.45865140450E+02  0.12172380031E+04  0.10100000352E+00 0.  1.
       -3    1    3    3    0  502  0.10030387359E+04  0.68809739799E+03 -0.16895138476E+04  0.20818313539E+04  0.10100000352E+00 0. -1.
</event>
<event>
 5   0  0.5866136E-06  0.2815915E+04  0.7818609E-02  0.8298344E-01
        2   -1    0    0  501    0  0.00000000000E+00  0.00000000000E+00  0.90697219155E+03  0.90697219155E+03  0.25500000920E-02 0.  1.
       -2   -1    0    0    0  501  0.00000000000E+00  0.00000000000E+00 -0.21856731630E+04  0.21856731630E+04  0.25500000920E-02 0. -1.
    10030    2    1    2    0    0  0.00000000000E+00  0.00000000000E+00 -0.12787009714E+04  0.30926453545E+04  0.28159153245E+04 0.  0.
        5    1    3    3  502    0 -0.66864067261E+03  0.34778671747E+03 -0.19454590102E+04  0.20863529903E+04  0.46999998093E+01 0. -1.
       -5    1    3    3    0  502  0.66864067261E+03 -0.34778671747E+03  0.66675803879E+03  0.10062923642E+04  0.46999998093E+01 0.  1.
</event>
<event>
 5   0  0.2206967E-06  0.2804458E+04  0.7818609E-02  0.8301886E-01
        1   -1    0    0  501    0  0.00000000000E+00  0.00000000000E+00  0.20859208343E+04  0.20859208343E+04  0.50400001928E-02 0. -1.
       -1   -1    0    0    0  501  0.00000000000E+00  0.00000000000E+00 -0.94262726395E+03  0.94262726397E+03  0.50400001928E-02 0.  1.
    10030    2    1    2    0    0  0.00000000000E+00  0.00000000000E+00  0.11432935703E+04  0.30285480982E+04  0.28044577721E+04 0.  0.
        5    1    3    3  502    0  0.18290214930E+03  0.23716074739E+03  0.20509690280E+04  0.20727263351E+04  0.46999998093E+01 0. -1.
       -5    1    3    3    0  502 -0.18290214930E+03 -0.23716074739E+03 -0.90767545772E+03  0.95582176313E+03  0.46999998093E+01 0.  1.
</event>
<event>
 5   0  0.2190865E-06  0.2800180E+04  0.7818609E-02  0.8303212E-01
        1   -1    0    0  501    0  0.00000000000E+00  0.00000000000E+00  0.25307475528E+04  0.25307475528E+04  0.50400001928E-02 0.  1.
       -1   -1    0    0    0  501  0.00000000000E+00  0.00000000000E+00 -0.77457445812E+03  0.77457445814E+03  0.50400001928E-02 0. -1.
    10030    2    1    2    0    0  0.00000000000E+00  0.00000000000E+00  0.17561730947E+04  0.33053220110E+04  0.28001802902E+04 0.  0.
        2    1    3    3  502    0 -0.84586824305E+03  0.90780897047E+03  0.11251778785E+03  0.12459014664E+04  0.25500000920E-02 0. -1.
       -2    1    3    3    0  502  0.84586824305E+03 -0.90780897047E+03  0.16436553068E+04  0.20594205445E+04  0.25500000920E-02 0.  1.
</event>
<event>
 5   0  0.2206967E-06  0.2738436E+04  0.7818609E-02  0.8322640E-01
        1   -1    0    0  501    0  0.00000000000E+00  0.00000000000E+00  0.13990980835E+04  0.13990980836E+04  0.50400001928E-02 0. -1.
       -1   -1    0    0    0  501  0.00000000000E+00  0.00000000000E+00 -0.13399764060E+04  0.13399764060E+04  0.50400001928E-02 0.  1.
    10030    2    1    2    0    0  0.00000000000E+00  0.00000000000E+00  0.59121677524E+02  0.27390744896E+04  0.27384363580E+04 0.  0.
        5    1    3    3  502    0 -0.13263341017E+04 -0.63413326812E+02 -0.30451239907E+03  0.13623264258E+04  0.46999998093E+01 0.  1.
       -5    1    3    3    0  502  0.13263341017E+04  0.63413326812E+02  0.36363407660E+03  0.13767480637E+04  0.46999998093E+01 0. -1.
</event>
<event>
 5   0  0.5916603E-06  0.2804465E+04  0.7818609E-02  0.8301884E-01
        2   -1    0    0  501    0  0.00000000000E+00  0.00000000000E+00  0.16545230051E+04  0.16545230051E+04  0.25500000920E-02 0. -1.
       -2   -1    0    0    0  501  0.00000000000E+00  0.00000000000E+00 -0.11884124985E+04  0.11884124985E+04  0.25500000920E-02 0.  1.
    10030    2    1    2    0    0  0.00000000000E+00  0.00000000000E+00  0.46611050668E+03  0.28429355036E+04  0.28044648818E+04 0.  0.
        2    1    3    3  502    0 -0.84600108873E+03  0.10309469981E+04 -0.20611533282E+03  0.13494639993E+04  0.25500000920E-02 0.  1.
       -2    1    3    3    0  502  0.84600108873E+03 -0.10309469981E+04  0.67222583951E+03  0.14934715043E+04  0.25500000920E-02 0. -1.
</event>
<event>
 5   0  0.5584205E-06  0.2789936E+04  0.7818609E-02  0.8306400E-01
        2   -1    0    0  501    0  0.00000000000E+00  0.00000000000E+00  0.13307133233E+04  0.13307133233E+04  0.25500000920E-02 0. -1.
       -2   -1    0    0    0  501  0.00000000000E+00  0.00000000000E+00 -0.14623250143E+04  0.14623250143E+04  0.25500000920E-02 0.  1.
    10030    2    1    2    0    0  0.00000000000E+00  0.00000000000E+00 -0.13161169102E+03  0.27930383375E+04  0.27899357551E+04 0.  0.
        1    1    3    3  502    0 -0.11577296183E+04  0.24121220346E+03  0.67489137839E+03  0.13616165279E+04  0.50400001928E-02 0. -1.
       -1    1    3    3    0  502  0.11577296183E+04 -0.24121220346E+03 -0.80650306940E+03  0.14314218097E+04  0.50400001928E-02 0.  1.
</event>
<event>
 5   0  0.5584205E-06  0.2816862E+04  0.7818609E-02  0.8298053E-01
        2   -1    0    0  501    0  0.00000000000E+00  0.00000000000E+00  0.18666796387E+04  0.18666796387E+04  0.25500000920E-02 0. -1.
       -2   -1    0    0    0  501  0.00000000000E+00  0.00000000000E+00 -0.10626768863E+04  0.10626768863E+04  0.25500000920E-02 0.  1.
    10030    2    1    2    0    0  0.00000000000E+00  0.00000000000E+00  0.80400275236E+03  0.29293565250E+04  0.28168615914E+04 0.  0.
        1    1    3    3  502    0  0.30517106991E+03 -0.18656079417E+03  0.18186613990E+04  0.18535003631E+04  0.50400001928E-02 0. -1.
       -1    1    3    3    0  502 -0.30517106991E+03  0.18656079417E+03 -0.10146586467E+04  0.10758561619E+04  0.50400001928E-02 0.  1.
</event>
<event>
 5   0  0.5625245E-06  0.2845662E+04  0.7818609E-02  0.8289231E-01
        2   -1    0    0  501    0  0.00000000000E+00  0.00000000000E+00  0.11158108187E+04  0.11158108187E+04  0.25500000920E-02 0. -1.
       -2   -1    0    0    0  501  0.00000000000E+00  0.00000000000E+00 -0.18143290977E+04  0.18143290977E+04  0.25500000920E-02 0.  1.
    10030    2    1    2    0    0  0.00000000000E+00  0.00000000000E+00 -0.69851827893E+03  0.29301399164E+04  0.28456619869E+04 0.  0.
        3    1    3    3  502    0 -0.10617590666E+04 -0.16099629074E+03 -0.13103467059E+04  0.16941843527E+04  0.10100000352E+00 0.  1.
       -3    1    3    3    0  502  0.10617590666E+04  0.16099629074E+03  0.61182842695E+03  0.12359555637E+04  0.10100000352E+00 0. -1.
</event>
<event>
 5   0  0.2267565E-06  0.2787123E+04  0.7818609E-02  0.8307277E-01
       -1   -1    0    0    0  501  0.00000000000E+00  0.00000000000E+00  0.18022496606E+04  0.18022496606E+04  0.50400001928E-02 0.  1.
        1   -1    0    0  501    0  0.00000000000E+00  0.00000000000E+00 -0.10775500087E+04  0.10775500087E+04  0.50400001928E-02 0. -1.
    10030    2    1    2    0    0  0.00000000000E+00  0.00000000000E+00  0.72469965189E+03  0.28797996693E+04  0.27871233467E+04 0.  0.
        4    1    3    3  502    0 -0.47882484646E+03  0.10637783889E+04 -0.42530704849E+03  0.12416865114E+04  0.12699999809E+01 0. -1.
       -4    1    3    3    0  502  0.47882484646E+03 -0.10637783889E+04  0.11500067004E+04  0.16381131579E+04  0.12699999809E+01 0.  1.
</event>
<event>
 5   0  0.5625245E-06  0.2793549E+04  0.7818609E-02  0.8305274E-01
        2   -1    0    0  501    0  0.00000000000E+00  0.00000000000E+00  0.22541038620E+04  0.22541038620E+04  0.25500000920E-02 0.  1.
       -2   -1    0    0    0  501  0.00000000000E+00  0.00000000000E+00 -0.86552329681E+03  0.86552329682E+03  0.25500000920E-02 0. -1.
    10030    2    1    2    0    0  0.00000000000E+00  0.00000000000E+00  0.13885805652E+04  0.31196271588E+04  0.27935492879E+04 0.  0.
        3    1    3    3  502    0 -0.10207379820E+04  0.73364332905E+03  0.13743391610E+04  0.18625108595E+04  0.10100000352E+00 0.  1.
       -3    1    3    3    0  502  0.10207379820E+04 -0.73364332905E+03  0.14241404154E+02  0.12571162993E+04  0.10100000352E+00 0. -1.
</event>
<event>
 5   0  0.2190865E-06  0.2753155E+04  0.7818609E-02  0.8317961E-01
        1   -1    0    0  501    0  0.00000000000E+00  0.00000000000E+00  0.17817694362E+04  0.17817694362E+04  0.50400001928E-02 0.  1.
       -1   -1    0    0    0  501  0.00000000000E+00  0.00000000000E+00 -0.10635300566E+04  0.10635300566E+04  0.50400001928E-02 0. -1.
    10030    2    1    2    0    0  0.00000000000E+00  0.00000000000E+00  0.71823937961E+03  0.28452994928E+04  0.27531548081E+04 0.  0.
        2    1    3    3  502    0  0.81969399652E+03  0.71292308532E+03  0.12328793461E+04  0.16432130281E+04  0.25500000920E-02 0.  1.
       -2    1    3    3    0  502 -0.81969399652E+03 -0.71292308532E+03 -0.51463996654E+03  0.12020864647E+04  0.25500000920E-02 0. -1.
</event>
<event>
 5   0  0.5866136E-06  0.2784002E+04  0.7818609E-02  0.8308252E-01
        2   -1    0    0  501    0  0.00000000000E+00  0.00000000000E+00  0.16132436012E+04  0.16132436012E+04  0.25500000920E-02 0.  1.
       -2   -1    0    0    0  501  0.00000000000E+00  0.00000000000E+00 -0.12011002777E+04  0.12011002777E+04  0.25500000920E-02 0. -1.
    10030    2    1    2    0    0  0.00000000000E+00  0.00000000000E+00  0.41214332350E+03  0.28143438788E+04  0.27840023975E+04 0.  0.
        5    1    3    3  502    0 -0.93987452680E+03  0.45173903161E+03 -0.72604746469E+03  0.12706688356E+04  0.46999998093E+01 0. -1.
       -5    1    3    3    0  502  0.93987452680E+03 -0.45173903161E+03  0.11381907882E+04  0.15436750432E+04  0.46999998093E+01 0.  1.
</event>
<event>
 5   0  0.5625245E-06  0.2798827E+04  0.7818609E-02  0.8303633E-01
        2   -1    0    0  501    0  0.00000000000E+00  0.00000000000E+00  0.59240921956E+03  0.59240921957E+03  0.25500000920E-02 0.  1.
       -2   -1    0    0    0  501  0.00000000000E+00  0.00000000000E+00 -0.33057525325E+04  0.33057525325E+04  0.25500000920E-02 0. -1.
    10030    2    1    2    0    0  0.00000000000E+00  0.00000000000E+00 -0.27133433129E+04  0.38981617520E+04  0.27988270956E+04 0.  0.
        3    1    3    3  502    0  0.36018421965E+03 -0.27973510841E+03  0.48600526397E+03  0.66647245237E+03  0.10100000352E+00 0.  1.
       -3    1    3    3    0  502 -0.36018421965E+03  0.27973510841E+03 -0.31993485769E+04  0.32316892997E+04  0.10100000352E+00 0. -1.
</event>
<event>
 5   0  0.2190865E-06  0.2793353E+04  0.7818609E-02  0.8305335E-01
        1   -1    0    0  501    0  0.00000000000E+00  0.00000000000E+00  0.15208762917E+04  0.15208762917E+04  0.50400001928E-02 0.  1.
       -1   -1    0    0    0  501  0.00000000000E+00  0.00000000000E+00 -0.12826197137E+04  0.12826197137E+04  0.50400001928E-02 0. -1.
    10030    2    1    2    0    0  0.00000000000E+00  0.00000000000E+00  0.23825657804E+03  0.28034960055E+04  0.27933534785E+04 0.  0.
        2    1    3    3  502    0 -0.36507396994E+02  0.44936084232E+03  0.14458388030E+04  0.15144991914E+04  0.25500000920E-02 0.  1.
       -2    1    3    3    0  502  0.36507396994E+02 -0.44936084232E+03 -0.12075822249E+04  0.12889968140E+04  0.25500000920E-02 0. -1.
</event>
<event>
 5   0  0.2190865E-06  0.2775254E+04  0.7818609E-02  0.8310992E-01
        1   -1    0    0  501    0  0.00000000000E+00  0.00000000000E+00  0.18877263698E+04  0.18877263698E+04  0.50400001928E-02 0. -1.
       -1   -1    0    0    0  501  0.00000000000E+00  0.00000000000E+00 -0.10200146707E+04  0.10200146707E+04  0.50400001928E-02 0.  1.
    10030    2    1    2    0    0  0.00000000000E+00  0.00000000000E+00  0.86771169910E+03  0.29077410406E+04  0.27752539283E+04 0.  0.
        2    1    3    3  502    0  0.10124525802E+04  0.28557306499E+03  0.13819849540E+04  0.17368058659E+04  0.25500000920E-02 0. -1.
       -2    1    3    3    0  502 -0.10124525802E+04 -0.28557306499E+03 -0.51427325488E+03  0.11709351747E+04  0.25500000920E-02 0.  1.
</event>
<event>
 5   0  0.1901375E-06  0.2767725E+04  0.7818609E-02  0.8313359E-01
        3   -1    0    0  501    0  0.00000000000E+00  0.00000000000E+00  0.14214505965E+04  0.14214506001E+04  0.10100000352E+00 0. -1.
       -3   -1    0    0    0  501  0.00000000000E+00  0.00000000000E+00 -0.13472686956E+04  0.13472686994E+04  0.10100000352E+00 0.  1.
    10030    2    1    2    0    0  0.00000000000E+00  0.00000000000E+00  0.74181900832E+02  0.27687192995E+04  0.27677253485E+04 0.  0.
        4    1    3    3  502    0 -0.13139588474E+04 -0.38104212278E+03  0.24547643175E+03  0.13899428922E+04  0.12699999809E+01 0. -1.
       -4    1    3    3    0  502  0.13139588474E+04  0.38104212278E+03 -0.17129453092E+03  0.13787764073E+04  0.12699999809E+01 0.  1.
</event>
<event>
 5   0  0.5916603E-06  0.2788309E+04  0.7818609E-02  0.8306907E-01
        2   -1    0    0  501    0  0.00000000000E+00  0.00000000000E+00  0.16745245660E+04  0.16745245660E+04  0.25500000920E-02 0.  1.
       -2   -1    0    0    0  501  0.00000000000E+00  0.00000000000E+00 -0.11607274155E+04  0.11607274155E+04  0.25500000920E-02 0. -1.
    10030    2    1    2    0    0  0.00000000000E+00  0.00000000000E+00  0.51379715046E+03  0.28352519815E+04  0.27883088578E+04 0.  0.
        2    1    3    3  502    0  0.56038650078E+03 -0.12026664681E+04  0.69215522061E+03  0.14965020926E+04  0.25500000920E-02 0.  1.
       -2    1    3    3    0  502 -0.56038650078E+03  0.12026664681E+04 -0.17835807016E+03  0.13387498889E+04  0.25500000920E-02 0. -1.
</event>
<event>
 5   0  0.5916603E-06  0.2827391E+04  0.7818609E-02  0.8294815E-01
       -2   -1    0    0    0  501  0.00000000000E+00  0.00000000000E+00  0.12973768611E+04  0.12973768611E+04  0.25500000920E-02 0.  1.
        2   -1    0    0  501    0  0.00000000000E+00  0.00000000000E+00 -0.15404425846E+04  0.15404425846E+04  0.25500000920E-02 0. -1.
    10030    2    1    2    0    0  0.00000000000E+00  0.00000000000E+00 -0.24306572356E+03  0.28378194457E+04  0.28273907159E+04 0.  0.
        2    1    3    3  502    0 -0.53587559818E+03  0.32839393033E+03  0.11494432482E+04  0.13100477132E+04  0.25500000920E-02 0.  1.
       -2    1    3    3    0  502  0.53587559818E+03 -0.32839393033E+03 -0.13925089717E+04  0.15277717325E+04  0.25500000920E-02 0. -1.
</event>
<event>
 5   0  0.2234068E-06  0.2782284E+04  0.7818609E-02  0.8308790E-01
       -1   -1    0    0    0  501  0.00000000000E+00  0.00000000000E+00  0.18623032034E+04  0.18623032034E+04  0.50400001928E-02 0.  1.
        1   -1    0    0  501    0  0.00000000000E+00  0.00000000000E+00 -0.10391844528E+04  0.10391844528E+04  0.50400001928E-02 0. -1.
    10030    2    1    2    0    0  0.00000000000E+00  0.00000000000E+00  0.82311875058E+03  0.29014876562E+04  0.27822843387E+04 0.  0.
        3    1    3    3  502    0 -0.52965594189E+03 -0.88977760177E+03 -0.55724012367E+03  0.11759065282E+04  0.10100000352E+00 0. -1.
       -3    1    3    3    0  502  0.52965594189E+03  0.88977760177E+03  0.13803588742E+04  0.17255811280E+04  0.10100000352E+00 0.  1.
</event>
<event>
 5   0  0.5546570E-06  0.2797821E+04  0.7818609E-02  0.8303945E-01
       -2   -1    0    0    0  501  0.00000000000E+00  0.00000000000E+00  0.11259151946E+04  0.11259151946E+04  0.25500000920E-02 0. -1.
        2   -1    0    0  501    0  0.00000000000E+00  0.00000000000E+00 -0.17380974028E+04  0.17380974028E+04  0.25500000920E-02 0.  1.
    10030    2    1    2    0    0  0.00000000000E+00  0.00000000000E+00 -0.61218220823E+03  0.28640125975E+04  0.27978207774E+04 0.  0.
        4    1    3    3  502    0  0.83595333580E+02  0.12462710656E+04 -0.95088935725E+03  0.15698318163E+04  0.12699999809E+01 0. -1.
       -4    1    3    3    0  502 -0.83595333580E+02 -0.12462710656E+04  0.33870714902E+03  0.12941807812E+04  0.12699999809E+01 0.  1.
</event>
<event>
 5   0  0.2277133E-06  0.2804037E+04  0.7818609E-02  0.8302016E-01
       -1   -1    0    0    0  501  0.00000000000E+00  0.00000000000E+00  0.25133858748E+04  0.25133858748E+04  0.50400001928E-02 0.  1.
        1   -1    0    0  501    0  0.00000000000E+00  0.00000000000E+00 -0.78207510518E+03  0.78207510520E+03  0.50400001928E-02 0. -1.
    10030    2    1    2    0    0  0.00000000000E+00  0.00000000000E+00  0.17313107696E+04  0.32954609800E+04  0.28040374622E+04 0.  0.
        1    1    3    3  502    0  0.12780334155E+03 -0.58847865502E+03 -0.62233885575E+03  0.86599449936E+03  0.50400001928E-02 0. -1.
       -1    1    3    3    0  502 -0.12780334155E+03  0.58847865502E+03  0.23536496253E+04  0.24294664806E+04  0.50400001928E-02 0.  1.
</event>
<event>
 5   0  0.5916603E-06  0.2798719E+04  0.7818609E-02  0.8303666E-01
        2   -1    0    0  501    0  0.00000000000E+00  0.00000000000E+00  0.28367283370E+04  0.28367283370E+04  0.25500000920E-02 0.  1.
       -2   -1    0    0    0  501  0.00000000000E+00  0.00000000000E+00 -0.69030452239E+03  0.69030452240E+03  0.25500000920E-02 0. -1.
    10030    2    1    2    0    0  0.00000000000E+00  0.00000000000E+00  0.21464238146E+04  0.35270328594E+04  0.27987185638E+04 0.  0.
        2    1    3    3  502    0  0.82408851516E+03 -0.11124417971E+03  0.24915793325E+04  0.26266832162E+04  0.25500000920E-02 0.  1.
       -2    1    3    3    0  502 -0.82408851516E+03  0.11124417971E+03 -0.34515551791E+03  0.90034964314E+03  0.25500000920E-02 0. -1.
</event>
<event>
 5   0  0.2206967E-06  0.2776851E+04  0.7818609E-02  0.8310491E-01
        1   -1    0    0  501    0  0.00000000000E+00  0.00000000000E+00  0.15224555053E+04  0.15224555053E+04  0.50400001928E-02 0. -1.
       -1   -1    0    0    0  501  0.00000000000E+00  0.00000000000E+00 -0.12661953039E+04  0.12661953039E+04  0.50400001928E-02 0.  1.
    10030    2    1    2    0    0  0.00000000000E+00  0.00000000000E+00  0.25626020142E+03  0.27886508092E+04  0.27768514625E+04 0.  0.
        5    1    3    3  502    0 -0.39076656612E+03 -0.66215600093E+03 -0.10328770068E+04  0.12876358491E+04  0.46999998093E+01 0.  1.
       -5    1    3    3    0  502  0.39076656612E+03  0.66215600093E+03  0.12891372082E+04  0.15010149601E+04  0.46999998093E+01 0. -1.
</event>
<event>
 5   0  0.5584205E-06  0.2791062E+04  0.7818609E-02  0.8306049E-01
        2   -1    0    0  501    0  0.00000000000E+00  0.00000000000E+00  0.21013320901E+04  0.21013320901E+04  0.25500000920E-02 0. -1.
       -2   -1    0    0    0  501  0.00000000000E+00  0.00000000000E+00 -0.92679628900E+03  0.92679628900E+03  0.25500000920E-02 0.  1.
    10030    2    1    2    0    0  0.00000000000E+00  0.00000000000E+00  0.11745358011E+04  0.30281283791E+04  0.27910620080E+04 0.  0.
        1    1    3    3  502    0 -0.15438486597E+03 -0.14716676972E+03 -0.90900791760E+03  0.93369595653E+03  0.50400001928E-02 0.  1.
       -1    1    3    3    0  502  0.15438486597E+03  0.14716676972E+03  0.20835437187E+04  0.20944324226E+04  0.50400001928E-02 0. -1.
</event>
<event>
 5   0  0.5866136E-06  0.2606232E+04  0.7818609E-02  0.8366088E-01
        2   -1    0    0  501    0  0.00000000000E+00  0.00000000000E+00  0.14331120773E+04  0.14331120773E+04  0.25500000920E-02 0.  1.
       -2   -1    0    0    0  501  0.00000000000E+00  0.00000000000E+00 -0.11849113985E+04  0.11849113985E+04  0.25500000920E-02 0. -1.
    10030    2    1    2    0    0  0.00000000000E+00  0.00000000000E+00  0.24820067882E+03  0.26180234758E+04  0.26062316365E+04 0.  0.
        5    1    3    3  502    0  0.12626743036E+04 -0.50307287086E+02 -0.19547665635E+03  0.12787143674E+04  0.46999998093E+01 0. -1.
       -5    1    3    3    0  502 -0.12626743036E+04  0.50307287086E+02  0.44367733517E+03  0.13393091084E+04  0.46999998093E+01 0.  1.
</event>
<event>
 5   0  0.2277133E-06  0.2794520E+04  0.7818609E-02  0.8304972E-01
       -1   -1    0    0    0  501  0.00000000000E+00  0.00000000000E+00  0.10317238923E+04  0.10317238923E+04  0.50400001928E-02 0. -1.
        1   -1    0    0  501    0  0.00000000000E+00  0.00000000000E+00 -0.18923039173E+04  0.18923039173E+04  0.50400001928E-02 0.  1.
    10030    2    1    2    0    0  0.00000000000E+00  0.00000000000E+00 -0.86058002504E+03  0.29240278096E+04  0.27945197533E+04 0.  0.
        1    1    3    3  502    0  0.10481887485E+04 -0.82023024573E+02  0.53263477041E+03  0.11786124162E+04  0.50400001928E-02 0. -1.
       -1    1    3    3    0  502 -0.10481887485E+04  0.82023024573E+02 -0.13932147955E+04  0.17454153933E+04  0.50400001928E-02 0.  1.
</event>
<event>
 5   0  0.2267565E-06  0.2804795E+04  0.7818609E-02  0.8301781E-01
       -1   -1    0    0    0  501  0.00000000000E+00  0.00000000000E+00  0.12137933273E+04  0.12137933273E+04  0.50400001928E-02 0.  1.
        1   -1    0    0  501    0  0.00000000000E+00  0.00000000000E+00 -0.16203073681E+04  0.16203073681E+04  0.50400001928E-02 0. -1.
    10030    2    1    2    0    0  0.00000000000E+00  0.00000000000E+00 -0.40651404079E+03  0.28341006955E+04  0.28047946603E+04 0.  0.
        4    1    3    3  502    0 -0.25339016710E+03 -0.13328103712E+04 -0.56211081497E+03  0.14685231505E+04  0.12699999809E+01 0. -1.
       -4    1    3    3    0  502  0.25339016710E+03  0.13328103712E+04  0.15559677418E+03  0.13655775450E+04  0.12699999809E+01 0.  1.
</event>
<event>
 5   0  0.2267565E-06  0.2820515E+04  0.7818609E-02  0.8296928E-01
       -1   -1    0    0    0  501  0.00000000000E+00  0.00000000000E+00  0.11754813271E+04  0.11754813271E+04  0.50400001928E-02 0.  1.
        1   -1    0    0  501    0  0.00000000000E+00  0.00000000000E+00 -0.16919246235E+04  0.16919246235E+04  0.50400001928E-02 0. -1.
    10030    2    1    2    0    0  0.00000000000E+00  0.00000000000E+00 -0.51644329647E+03  0.28674059506E+04  0.28205147061E+04 0.  0.
        4    1    3    3  502    0 -0.69879882332E+03 -0.11836584131E+04  0.62389654223E+02  0.13759582538E+04  0.12699999809E+01 0. -1.
       -4    1    3    3    0  502  0.69879882332E+03  0.11836584131E+04 -0.57883295070E+03  0.14914476968E+04  0.12699999809E+01 0.  1.
</event>
<event>
 5   0  0.5916603E-06  0.2793392E+04  0.7818609E-02  0.8305323E-01
       -2   -1    0    0    0  501  0.00000000000E+00  0.00000000000E+00  0.12565090163E+04  0.12565090163E+04  0.25500000920E-02 0.  1.
        2   -1    0    0  501    0  0.00000000000E+00  0.00000000000E+00 -0.15525239164E+04  0.15525239164E+04  0.25500000920E-02 0. -1.
    10030    2    1    2    0    0  0.00000000000E+00  0.00000000000E+00 -0.29601490013E+03  0.28090329327E+04  0.27933924171E+04 0.  0.
        2    1    3    3  502    0 -0.15069363484E+02  0.10252223108E+04  0.80569737504E+03  0.13040153881E+04  0.25500000920E-02 0.  1.
       -2    1    3    3    0  502  0.15069363484E+02 -0.10252223108E+04 -0.11017122752E+04  0.15050175446E+04  0.25500000920E-02 0. -1.
</event>
<event>
 5   0  0.5916603E-06  0.2792693E+04  0.7818609E-02  0.8305541E-01
       -2   -1    0    0    0  501  0.00000000000E+00  0.00000000000E+00  0.77817669463E+03  0.77817669464E+03  0.25500000920E-02 0.  1.
        2   -1    0    0  501    0  0.00000000000E+00  0.00000000000E+00 -0.25055785972E+04  0.25055785972E+04  0.25500000920E-02 0. -1.
    10030    2    1    2    0    0  0.00000000000E+00  0.00000000000E+00 -0.17274019026E+04  0.32837552918E+04  0.27926925151E+04 0.  0.
        2    1    3    3  502    0 -0.37885715851E+03 -0.13394570796E+04 -0.73433276670E+03  0.15738242046E+04  0.25500000920E-02 0. -1.
       -2    1    3    3    0  502  0.37885715851E+03  0.13394570796E+04 -0.99306913587E+03  0.17099310873E+04  0.25500000920E-02 0.  1.
</event>
<event>
 5   0  0.5546570E-06  0.2843954E+04  0.7818609E-02  0.8289751E-01
        2   -1    0    0  501    0  0.00000000000E+00  0.00000000000E+00  0.12783412079E+04  0.12783412079E+04  0.25500000920E-02 0.  1.
       -2   -1    0    0    0  501  0.00000000000E+00  0.00000000000E+00 -0.15817517788E+04  0.15817517788E+04  0.25500000920E-02 0. -1.
    10030    2    1    2    0    0  0.00000000000E+00  0.00000000000E+00 -0.30341057090E+03  0.28600929868E+04  0.28439539234E+04 0.  0.
        4    1    3    3  502    0  0.41990442913E+02  0.85078635063E+03 -0.12967694703E+04  0.15515196691E+04  0.12699999809E+01 0. -1.
       -4    1    3    3    0  502 -0.41990442913E+02 -0.85078635063E+03  0.99335889941E+03  0.13085733176E+04  0.12699999809E+01 0.  1.
</event>
<event>
 5   0  0.5866136E-06  0.2805783E+04  0.7818609E-02  0.8301475E-01
        2   -1    0    0  501    0  0.00000000000E+00  0.00000000000E+00  0.14656627330E+04  0.14656627330E+04  0.25500000920E-02 0.  1.
       -2   -1    0    0    0  501  0.00000000000E+00  0.00000000000E+00 -0.13428082829E+04  0.13428082829E+04  0.25500000920E-02 0. -1.
    10030    2    1    2    0    0  0.00000000000E+00  0.00000000000E+00  0.12285445006E+03  0.28084710159E+04  0.28057826414E+04 0.  0.
        5    1    3    3  502    0  0.40208041693E+03 -0.36495086223E+03  0.13561982960E+04  0.14608742936E+04  0.46999998093E+01 0.  1.
       -5    1    3    3    0  502 -0.40208041693E+03  0.36495086223E+03 -0.12333438460E+04  0.13475967223E+04  0.46999998093E+01 0. -1.
</event>
<event>
 5   0  0.5916603E-06  0.2798635E+04  0.7818609E-02  0.8303692E-01
       -2   -1    0    0    0  501  0.00000000000E+00  0.00000000000E+00  0.10490780525E+04  0.10490780525E+04  0.25500000920E-02 0. -1.
        2   -1    0    0  501    0  0.00000000000E+00  0.00000000000E+00 -0.18664854593E+04  0.18664854593E+04  0.25500000920E-02 0.  1.
    10030    2    1    2    0    0  0.00000000000E+00  0.00000000000E+00 -0.81740740685E+03  0.29155635118E+04  0.27986346175E+04 0.  0.
        2    1    3    3  502    0  0.95219637537E+03 -0.33024058980E+03 -0.14200104782E+04  0.17413117304E+04  0.25500000920E-02 0.  1.
       -2    1    3    3    0  502 -0.95219637537E+03  0.33024058980E+03  0.60260307133E+03  0.11742517813E+04  0.25500000920E-02 0. -1.
</event>
<event>
 5   0  0.5584205E-06  0.2806144E+04  0.7818609E-02  0.8301363E-01
       -2   -1    0    0    0  501  0.00000000000E+00  0.00000000000E+00  0.18382850309E+04  0.18382850309E+04  0.25500000920E-02 0. -1.
        2   -1    0    0  501    0  0.00000000000E+00  0.00000000000E+00 -0.10708957400E+04  0.10708957400E+04  0.25500000920E-02 0.  1.
    10030    2    1    2    0    0  0.00000000000E+00  0.00000000000E+00  0.76738929087E+03  0.29091807709E+04  0.28061444072E+04 0.  0.
        1    1    3    3  502    0  0.11153847632E+04  0.56626014737E+03 -0.27515410705E+03  0.12807979962E+04  0.50400001928E-02 0.  1.
       -1    1    3    3    0  502 -0.11153847632E+04 -0.56626014737E+03  0.10425433979E+04  0.16283827747E+04  0.50400001928E-02 0. -1.
</event>
<event>
 5   0  0.5546570E-06  0.2813769E+04  0.7818609E-02  0.8299006E-01
        2   -1    0    0  501    0  0.00000000000E+00  0.00000000000E+00  0.26660412154E+04  0.26660412154E+04  0.25500000920E-02 0.  1.
       -2   -1    0    0    0  501  0.00000000000E+00  0.00000000000E+00 -0.74242062851E+03  0.74242062851E+03  0.25500000920E-02 0. -1.
    10030    2    1    2    0    0  0.00000000000E+00  0.00000000000E+00  0.19236205869E+04  0.34084618439E+04  0.28137689989E+04 0.  0.
        4    1    3    3  502    0 -0.13903041974E+04  0.15798636217E+03  0.78453484029E+03  0.16041826518E+04  0.12699999809E+01 0. -1.
       -4    1    3    3    0  502  0.13903041974E+04 -0.15798636217E+03  0.11390857466E+04  0.18042791921E+04  0.12699999809E+01 0.  1.
</event>
<event>
 5   0  0.5546570E-06  0.2809266E+04  0.7818609E-02  0.8300397E-01
        2   -1    0    0  501    0  0.00000000000E+00  0.00000000000E+00  0.24988088081E+04  0.24988088081E+04  0.25500000920E-02 0. -1.
       -2   -1    0    0    0  501  0.00000000000E+00  0.00000000000E+00 -0.78957398852E+03  0.78957398852E+03  0.25500000920E-02 0.  1.
    10030    2    1    2    0    0  0.00000000000E+00  0.00000000000E+00  0.17092348195E+04  0.32883827966E+04  0.28092664075E+04 0.  0.
        4    1    3    3  502    0 -0.57389883233E+03 -0.12267687353E+04  0.41872136341E+03  0.14176214561E+04  0.12699999809E+01 0.  1.
       -4    1    3    3    0  502  0.57389883233E+03  0.12267687353E+04  0.12905134561E+04  0.18707613405E+04  0.12699999809E+01 0. -1.
</event>
<event>
 5   0  0.5866136E-06  0.2787657E+04  0.7818609E-02  0.8307111E-01
       -2   -1    0    0    0  501  0.00000000000E+00  0.00000000000E+00  0.15065144337E+04  0.15065144337E+04  0.25500000920E-02 0.  1.
        2   -1    0    0  501    0  0.00000000000E+00  0.00000000000E+00 -0.12895710606E+04  0.12895710606E+04  0.25500000920E-02 0. -1.
    10030    2    1    2    0    0  0.00000000000E+00  0.00000000000E+00  0.21694337312E+03  0.27960854944E+04  0.27876566619E+04 0.  0.
        5    1    3    3  502    0 -0.11030848210E+04  0.71965196092E+03  0.56596511056E+03  0.14335388602E+04  0.46999998093E+01 0.  1.
       -5    1    3    3    0  502  0.11030848210E+04 -0.71965196092E+03 -0.34902173745E+03  0.13625466342E+04  0.46999998093E+01 0. -1.
</event>
<event>
 5   0  0.2267565E-06  0.2793847E+04  0.7818609E-02  0.8305181E-01
       -1   -1    0    0    0  501  0.00000000000E+00  0.00000000000E+00  0.21522688807E+04  0.21522688807E+04  0.50400001928E-02 0. -1.
        1   -1    0    0  501    0  0.00000000000E+00  0.00000000000E+00 -0.90666895767E+03  0.90666895769E+03  0.50400001928E-02 0.  1.
    10030    2    1    2    0    0  0.00000000000E+00  0.00000000000E+00  0.12455999231E+04  0.30589378384E+04  0.27938470844E+04 0.  0.
        4    1    3    3  502    0  0.75974821079E+03 -0.11715222158E+04  0.66810386615E+03  0.15479166756E+04  0.12699999809E+01 0.  1.
       -4    1    3    3    0  502 -0.75974821079E+03  0.11715222158E+04  0.57749605692E+03  0.15110211628E+04  0.12699999809E+01 0. -1.
</event>
<event>
 5   0  0.5866136E-06  0.2802347E+04  0.7818609E-02  0.8302540E-01
        2   -1    0    0  501    0  0.00000000000E+00  0.00000000000E+00  0.12333963435E+04  0.12333963435E+04  0.25500000920E-02 0.  1.
       -2   -1    0    0    0  501  0.00000000000E+00  0.00000000000E+00 -0.15917733032E+04  0.15917733032E+04  0.25500000920E-02 0. -1.
    10030    2    1    2    0    0  0.00000000000E+00  0.00000000000E+00 -0.35837695967E+03  0.28251696467E+04  0.28023471390E+04 0.  0.
        5    1    3    3  502    0  0.34673390971E+03 -0.13535740223E+04 -0.28433671691E+03  0.14259230332E+04  0.46999998093E+01 0.  1.
       -5    1    3    3    0  502 -0.34673390971E+03  0.13535740223E+04 -0.74040242757E+02  0.13992466135E+04  0.46999998093E+01 0. -1.
</event>
<event>
 5   0  0.5625245E-06  0.2705886E+04  0.7818609E-02  0.8333098E-01
       -2   -1    0    0    0  501  0.00000000000E+00  0.00000000000E+00  0.10591253331E+04  0.10591253331E+04  0.25500000920E-02 0. -1.
        2   -1    0    0  501    0  0.00000000000E+00  0.00000000000E+00 -0.17282703331E+04  0.17282703331E+04  0.25500000920E-02 0.  1.
    10030    2    1    2    0    0  0.00000000000E+00  0.00000000000E+00 -0.66914500003E+03  0.27873956662E+04  0.27058860968E+04 0.  0.
        3    1    3    3  502    0  0.24258337408E+03  0.12069296631E+04 -0.91266245146E+03  0.15324746868E+04  0.10100000352E+00 0. -1.
       -3    1    3    3    0  502 -0.24258337408E+03 -0.12069296631E+04  0.24351745143E+03  0.12549209794E+04  0.10100000352E+00 0.  1.
</event>
<event>
 5   0  0.1901375E-06  0.2788893E+04  0.7818609E-02  0.8306725E-01
       -4   -1    0    0    0  501  0.00000000000E+00  0.00000000000E+00  0.11065806081E+04  0.11065813369E+04  0.12699999809E+01 0.  1.
        4   -1    0    0  501    0  0.00000000000E+00  0.00000000000E+00 -0.17571956928E+04  0.17571961517E+04  0.12699999809E+01 0. -1.
    10030    2    1    2    0    0  0.00000000000E+00  0.00000000000E+00 -0.65061508466E+03  0.28637774886E+04  0.27888925250E+04 0.  0.
        1    1    3    3  502    0  0.93488168577E+03 -0.85668536362E+03 -0.92102884378E+03  0.15672293099E+04  0.50400001928E-02 0. -1.
       -1    1    3    3    0  502 -0.93488168577E+03  0.85668536362E+03  0.27041375912E+03  0.12965481787E+04  0.50400001928E-02 0.  1.
</event>
<event>
 5   0  0.2277133E-06  0.2845607E+04  0.7818609E-02  0.8289248E-01
       -1   -1    0    0    0  501  0.00000000000E+00  0.00000000000E+00  0.11387084931E+04  0.11387084931E+04  0.50400001928E-02 0. -1.
        1   -1    0    0  501    0  0.00000000000E+00  0.00000000000E+00 -0.17777764936E+04  0.17777764936E+04  0.50400001928E-02 0.  1.
    10030    2    1    2    0    0  0.00000000000E+00  0.00000000000E+00 -0.63906800051E+03  0.29164849867E+04  0.28456065730E+04 0.  0.
        1    1    3    3  502    0 -0.16480182924E+03  0.11198447057E+04 -0.12030721137E+04  0.16518457308E+04  0.50400001928E-02 0.  1.
       -1    1    3    3    0  502  0.16480182924E+03 -0.11198447057E+04  0.56400411318E+03  0.12646392558E+04  0.50400001928E-02 0. -1.
</event>
<event>
 5   0  0.2206967E-06  0.2796463E+04  0.7818609E-02  0.8304367E-01
       -1   -1    0    0    0  501  0.00000000000E+00  0.00000000000E+00  0.10155022325E+04  0.10155022325E+04  0.50400001928E-02 0.  1.
        1   -1    0    0  501    0  0.00000000000E+00  0.00000000000E+00 -0.19252066894E+04  0.19252066895E+04  0.50400001928E-02 0. -1.
    10030    2    1    2    0    0  0.00000000000E+00  0.00000000000E+00 -0.90970445698E+03  0.29407089219E+04  0.27964632600E+04 0.  0.
        5    1    3    3  502    0  0.63069099022E+03 -0.80977729304E+03  0.54360718139E+03  0.11614823490E+04  0.46999998093E+01 0.  1.
       -5    1    3    3    0  502 -0.63069099022E+03  0.80977729304E+03 -0.14533116384E+04  0.17792265729E+04  0.46999998093E+01 0. -1.
</event>
<event>
 5   0  0.2206967E-06  0.2842243E+04  0.7818609E-02  0.8290272E-01
       -1   -1    0    0    0  501  0.00000000000E+00  0.00000000000E+00  0.77317230835E+03  0.77317230837E+03  0.50400001928E-02 0.  1.
        1   -1    0    0  501    0  0.00000000000E+00  0.00000000000E+00 -0.26120781075E+04  0.26120781075E+04  0.50400001928E-02 0. -1.
    10030    2    1    2    0    0  0.00000000000E+00  0.00000000000E+00 -0.18389057991E+04  0.33852504159E+04  0.28422431001E+04 0.  0.
        5    1    3    3  502    0  0.10947609753E+04  0.63067344992E+03 -0.14452592144E+03  0.12716762266E+04  0.46999998093E+01 0.  1.
       -5    1    3    3    0  502 -0.10947609753E+04 -0.63067344992E+03 -0.16943798777E+04  0.21135741892E+04  0.46999998093E+01 0. -1.
</event>
<event>
 5   0  0.5584205E-06  0.2781704E+04  0.7818609E-02  0.8308971E-01
        2   -1    0    0  501    0  0.00000000000E+00  0.00000000000E+00  0.10699252437E+04  0.10699252437E+04  0.25500000920E-02 0.  1.
       -2   -1    0    0    0  501  0.00000000000E+00  0.00000000000E+00 -0.18080419444E+04  0.18080419444E+04  0.25500000920E-02 0. -1.
    10030    2    1    2    0    0  0.00000000000E+00  0.00000000000E+00 -0.73811670075E+03  0.28779671881E+04  0.27817043106E+04 0.  0.
        1    1    3    3  502    0 -0.58815755917E+03  0.13939424495E+03  0.92693126345E+03  0.11065991312E+04  0.50400001928E-02 0. -1.
       -1    1    3    3    0  502  0.58815755917E+03 -0.13939424495E+03 -0.16650479642E+04  0.17713680569E+04  0.50400001928E-02 0.  1.
</event>
<event>
 5   0  0.5584205E-06  0.2783162E+04  0.7818609E-02  0.8308515E-01
       -2   -1    0    0    0  501  0.00000000000E+00  0.00000000000E+00  0.15611236175E+04  0.15611236175E+04  0.25500000920E-02 0. -1.
        2   -1    0    0  501    0  0.00000000000E+00  0.00000000000E+00 -0.12404512907E+04  0.12404512907E+04  0.25500000920E-02 0.  1.
    10030    2    1    2    0    0  0.00000000000E+00  0.00000000000E+00  0.32067232677E+03  0.28015749082E+04  0.27831620911E+04 0.  0.
        1    1    3    3  502    0 -0.12523497674E+03 -0.61146497548E+03  0.14123188132E+04  0.15440912038E+04  0.50400001928E-02 0. -1.
       -1    1    3    3    0  502  0.12523497674E+03  0.61146497548E+03 -0.10916464864E+04  0.12574837044E+04  0.50400001928E-02 0.  1.
</event>
<event>
 5   0  0.2267565E-06  0.2836917E+04  0.7818609E-02  0.8291898E-01
        1   -1    0    0  501    0  0.00000000000E+00  0.00000000000E+00  0.18573255114E+04  0.18573255114E+04  0.50400001928E-02 0. -1.
       -1   -1    0    0    0  501  0.00000000000E+00  0.00000000000E+00 -0.10832910440E+04  0.10832910440E+04  0.50400001928E-02 0.  1.
    10030    2    1    2    0    0  0.00000000000E+00  0.00000000000E+00  0.77403446741E+03  0.29406165555E+04  0.28369167012E+04 0.  0.
        4    1    3    3  502    0 -0.34117401689E+03 -0.40512856708E+02  0.18135431882E+04  0.18458010482E+04  0.12699999809E+01 0. -1.
       -4    1    3    3    0  502  0.34117401689E+03  0.40512856708E+02 -0.10395087208E+04  0.10948155072E+04  0.12699999809E+01 0.  1.
</event>
<event>
 5   0  0.5916603E-06  0.2798231E+04  0.7818609E-02  0.8303818E-01
        2   -1    0    0  501    0  0.00000000000E+00  0.00000000000E+00  0.17495169314E+04  0.17495169314E+04  0.25500000920E-02 0.  1.
       -2   -1    0    0    0  501  0.00000000000E+00  0.00000000000E+00 -0.11188939383E+04  0.11188939383E+04  0.25500000920E-02 0. -1.
    10030    2    1    2    0    0  0.00000000000E+00  0.00000000000E+00  0.63062299310E+03  0.28684108698E+04  0.27982307908E+04 0.  0.
        2    1    3    3  502    0 -0.61436691566E+03  0.28649096837E+03  0.15699359580E+04  0.17100358752E+04  0.25500000920E-02 0.  1.
       -2    1    3    3    0  502  0.61436691566E+03 -0.28649096837E+03 -0.93931296493E+03  0.11583749946E+04  0.25500000920E-02 0. -1.
</event>
<event>
 5   0  0.5866136E-06  0.2801754E+04  0.7818609E-02  0.8302724E-01
        2   -1    0    0  501    0  0.00000000000E+00  0.00000000000E+00  0.20439195189E+04  0.20439195189E+04  0.25500000920E-02 0.  1.
       -2   -1    0    0    0  501  0.00000000000E+00  0.00000000000E+00 -0.96014345718E+03  0.96014345718E+03  0.25500000920E-02 0. -1.
    10030    2    1    2    0    0  0.00000000000E+00  0.00000000000E+00  0.10837760617E+04  0.30040629761E+04  0.28017537030E+04 0.  0.
        5    1    3    3  502    0  0.42762075553E+03 -0.93287185979E+03 -0.48055356965E+03  0.11331651427E+04  0.46999998093E+01 0. -1.
       -5    1    3    3    0  502 -0.42762075553E+03  0.93287185979E+03  0.15643296314E+04  0.18708978334E+04  0.46999998093E+01 0.  1.
</event>
<event>
 5   0  0.5866136E-06  0.2800982E+04  0.7818609E-02  0.8302964E-01
        2   -1    0    0  501    0  0.00000000000E+00  0.00000000000E+00  0.23235607670E+04  0.23235607670E+04  0.25500000920E-02 0.  1.
       -2   -1    0    0    0  501  0.00000000000E+00  0.00000000000E+00 -0.84412446654E+03  0.84412446655E+03  0.25500000920E-02 0. -1.
    10030    2    1    2    0    0  0.00000000000E+00  0.00000000000E+00  0.14794363004E+04  0.31676852335E+04  0.28009816086E+04 0.  0.
        5    1    3    3  502    0 -0.10826932256E+04  0.26825796939E+03 -0.21800820897E+03  0.11365459199E+04  0.46999998093E+01 0. -1.
       -5    1    3    3    0  502  0.10826932256E+04 -0.26825796939E+03  0.16974445094E+04  0.20311393136E+04  0.46999998093E+01 0.  1.
</event>
<event>
 5   0  0.2277133E-06  0.2803076E+04  0.7818609E-02  0.8302314E-01
       -1   -1    0    0    0  501  0.00000000000E+00  0.00000000000E+00  0.15810503588E+04  0.15810503588E+04  0.50400001928E-02 0.  1.
        1   -1    0    0  501    0  0.00000000000E+00  0.00000000000E+00 -0.12424070848E+04  0.12424070848E+04  0.50400001928E-02 0. -1.
    10030    2    1    2    0    0  0.00000000000E+00  0.00000000000E+00  0.33864327404E+03  0.28234574437E+04  0.28030755732E+04 0.  0.
        1    1    3    3  502    0  0.89791626475E+03  0.88358373036E+03  0.78806364856E+03  0.14859401540E+04  0.50400001928E-02 0.  1.
       -1    1    3    3    0  502 -0.89791626475E+03 -0.88358373036E+03 -0.44942037453E+03  0.13375172897E+04  0.50400001928E-02 0. -1.
</event>
<event>
 5   0  0.2267565E-06  0.2790465E+04  0.7818609E-02  0.8306235E-01
        1   -1    0    0  501    0  0.00000000000E+00  0.00000000000E+00  0.23242607675E+04  0.23242607675E+04  0.50400001928E-02 0.  1.
       -1   -1    0    0    0  501  0.00000000000E+00  0.00000000000E+00 -0.83754559924E+03  0.83754559926E+03  0.50400001928E-02 0. -1.
    10030    2    1    2    0    0  0.00000000000E+00  0.00000000000E+00  0.14867151683E+04  0.31618063668E+04  0.27904654646E+04 0.  0.
        4    1    3    3  502    0  0.11492103615E+02  0.13923093440E+04  0.64191487127E+03  0.15332037349E+04  0.12699999809E+01 0. -1.
       -4    1    3    3    0  502 -0.11492103615E+02 -0.13923093440E+04  0.84480029699E+03  0.16286026319E+04  0.12699999809E+01 0.  1.
</event>
<event>
 5   0  0.5625245E-06  0.2771604E+04  0.7818609E-02  0.8312139E-01
        2   -1    0    0  501    0  0.00000000000E+00  0.00000000000E+00  0.11524400989E+04  0.11524400989E+04  0.25500000920E-02 0.  1.
       -2   -1    0    0    0  501  0.00000000000E+00  0.00000000000E+00 -0.16664181674E+04  0.16664181674E+04  0.25500000920E-02 0. -1.
    10030    2    1    2    0    0  0.00000000000E+00  0.00000000000E+00 -0.51397806848E+03  0.28188582664E+04  0.27716039528E+04 0.  0.
        3    1    3    3  502    0  0.45945740451E+03  0.79685432006E+03 -0.13111789106E+04  0.16016454226E+04  0.10100000352E+00 0. -1.
       -3    1    3    3    0  502 -0.45945740451E+03 -0.79685432006E+03  0.79720084217E+03  0.12172128437E+04  0.10100000352E+00 0.  1.
</event>
<event>
 5   0  0.5584205E-06  0.2803099E+04  0.7818609E-02  0.8302307E-01
       -2   -1    0    0    0  501  0.00000000000E+00  0.00000000000E+00  0.89570141011E+03  0.89570141011E+03  0.25500000920E-02 0.  1.
        2   -1    0    0  501    0  0.00000000000E+00  0.00000000000E+00 -0.21930752962E+04  0.21930752962E+04  0.25500000920E-02 0. -1.
    10030    2    1    2    0    0  0.00000000000E+00  0.00000000000E+00 -0.12973738861E+04  0.30887767063E+04  0.28030987391E+04 0.  0.
        1    1    3    3  502    0 -0.27886696921E+03 -0.51739027814E+03  0.75333754883E+03  0.95549827260E+03  0.50400001928E-02 0.  1.
       -1    1    3    3    0  502  0.27886696921E+03  0.51739027814E+03 -0.20507114349E+04  0.21332784337E+04  0.50400001928E-02 0. -1.
</event>
<event>
 5   0  0.5866136E-06  0.2801341E+04  0.7818609E-02  0.8302852E-01
        2   -1    0    0  501    0  0.00000000000E+00  0.00000000000E+00  0.19982636407E+04  0.19982636407E+04  0.25500000920E-02 0. -1.
       -2   -1    0    0    0  501  0.00000000000E+00  0.00000000000E+00 -0.98179108311E+03  0.98179108311E+03  0.25500000920E-02 0.  1.
    10030    2    1    2    0    0  0.00000000000E+00  0.00000000000E+00  0.10164725576E+04  0.29800547238E+04  0.28013406963E+04 0.  0.
        5    1    3    3  502    0 -0.89644301556E+03  0.10633736753E+04  0.33188445564E+03  0.14298751817E+04  0.46999998093E+01 0.  1.
       -5    1    3    3    0  502  0.89644301556E+03 -0.10633736753E+04  0.68458810193E+03  0.15501795421E+04  0.46999998093E+01 0. -1.
</event>
<event>
 5   0  0.1901375E-06  0.2800854E+04  0.7818609E-02  0.8303003E-01
        4   -1    0    0  501    0  0.00000000000E+00  0.00000000000E+00  0.14638028653E+04  0.14638034163E+04  0.12699999809E+01 0. -1.
       -4   -1    0    0    0  501  0.00000000000E+00  0.00000000000E+00 -0.13397943128E+04  0.13397949148E+04  0.12699999809E+01 0.  1.
    10030    2    1    2    0    0  0.00000000000E+00  0.00000000000E+00  0.12400855249E+03  0.28035983310E+04  0.28008544198E+04 0.  0.
        5    1    3    3  502    0 -0.10805394421E+04 -0.82241904770E+03 -0.28072815746E+03  0.13866394500E+04  0.46999998093E+01 0.  1.
       -5    1    3    3    0  502  0.10805394421E+04  0.82241904770E+03  0.40473670995E+03  0.14169588810E+04  0.46999998093E+01 0. -1.
</event>
<event>
 5   0  0.5625245E-06  0.2810799E+04  0.7818609E-02  0.8299924E-01
       -2   -1    0    0    0  501  0.00000000000E+00  0.00000000000E+00  0.24807067292E+04  0.24807067292E+04  0.25500000920E-02 0.  1.
        2   -1    0    0  501    0  0.00000000000E+00  0.00000000000E+00 -0.79620360015E+03  0.79620360016E+03  0.25500000920E-02 0. -1.
    10030    2    1    2    0    0  0.00000000000E+00  0.00000000000E+00  0.16845031291E+04  0.32769103294E+04  0.28107989104E+04 0.  0.
        3    1    3    3  502    0 -0.79021975725E+02 -0.64833624609E+03 -0.60852073984E+03  0.89268239686E+03  0.10100000352E+00 0. -1.
       -3    1    3    3    0  502  0.79021975725E+02  0.64833624609E+03  0.22930238689E+04  0.23842279325E+04  0.10100000352E+00 0.  1.
</event>
<event>
 5   0  0.5546570E-06  0.2754899E+04  0.7818609E-02  0.8317409E-01
        2   -1    0    0  501    0  0.00000000000E+00  0.00000000000E+00  0.16365468505E+04  0.16365468506E+04  0.25500000920E-02 0.  1.
       -2   -1    0    0    0  501  0.00000000000E+00  0.00000000000E+00 -0.11593722253E+04  0.11593722253E+04  0.25500000920E-02 0. -1.
    10030    2    1    2    0    0  0.00000000000E+00  0.00000000000E+00  0.47717462526E+03  0.27959190758E+04  0.27548988830E+04 0.  0.
        4    1    3    3  502    0 -0.30825314307E+03  0.13248382781E+04  0.18216202023E+02  0.13603491854E+04  0.12699999809E+01 0. -1.
       -4    1    3    3    0  502  0.30825314307E+03 -0.13248382781E+04  0.45895842324E+03  0.14355698905E+04  0.12699999809E+01 0.  1.
</event>
<event>
 5   0  0.1901375E-06  0.2790826E+04  0.7818609E-02  0.8306122E-01
       -3   -1    0    0    0  501  0.00000000000E+00  0.00000000000E+00  0.13620071679E+04  0.13620071716E+04  0.10100000352E+00 0.  1.
        3   -1    0    0  501    0  0.00000000000E+00  0.00000000000E+00 -0.14296377736E+04  0.14296377771E+04  0.10100000352E+00 0. -1.
    10030    2    1    2    0    0  0.00000000000E+00  0.00000000000E+00 -0.67630605712E+02  0.27916449487E+04  0.27908256164E+04 0.  0.
        5    1    3    3  502    0 -0.18479242956E+03 -0.31216414983E+03 -0.13816381027E+04  0.14284749334E+04  0.46999998093E+01 0. -1.
       -5    1    3    3    0  502  0.18479242956E+03  0.31216414983E+03  0.13140074970E+04  0.13631700153E+04  0.46999998093E+01 0.  1.
</event>
<event>
 5   0  0.5625245E-06  0.2632124E+04  0.7818609E-02  0.8357370E-01
        2   -1    0    0  501    0  0.00000000000E+00  0.00000000000E+00  0.13350358861E+04  0.13350358861E+04  0.25500000920E-02 0.  1.
       -2   -1    0    0    0  501  0.00000000000E+00  0.00000000000E+00 -0.12973581871E+04  0.12973581871E+04  0.25500000920E-02 0. -1.
    10030    2    1    2    0    0  0.00000000000E+00  0.00000000000E+00  0.37677699044E+02  0.26323940732E+04  0.26321244172E+04 0.  0.
        3    1    3    3  502    0  0.26213725307E+03 -0.93611812387E+03  0.90605241124E+03  0.13288958061E+04  0.10100000352E+00 0.  1.
       -3    1    3    3    0  502 -0.26213725307E+03  0.93611812387E+03 -0.86837471220E+03  0.13034982671E+04  0.10100000352E+00 0. -1.
</event>
<event>
 5   0  0.5546570E-06  0.2812744E+04  0.7818609E-02  0.8299323E-01
       -2   -1    0    0    0  501  0.00000000000E+00  0.00000000000E+00  0.13405319478E+04  0.13405319478E+04  0.25500000920E-02 0.  1.
        2   -1    0    0  501    0  0.00000000000E+00  0.00000000000E+00 -0.14754461887E+04  0.14754461887E+04  0.25500000920E-02 0. -1.
    10030    2    1    2    0    0  0.00000000000E+00  0.00000000000E+00 -0.13491424083E+03  0.28159781365E+04  0.28127443917E+04 0.  0.
        4    1    3    3  502    0 -0.56683848941E+03 -0.58999194470E+03 -0.12126624160E+04  0.14628561502E+04  0.12699999809E+01 0. -1.
       -4    1    3    3    0  502  0.56683848941E+03  0.58999194470E+03  0.10777481752E+04  0.13531219864E+04  0.12699999809E+01 0.  1.
</event>
<event>
 5   0  0.5584205E-06  0.2800231E+04  0.7818609E-02  0.8303197E-01
        2   -1    0    0  501    0  0.00000000000E+00  0.00000000000E+00  0.30185463246E+04  0.30185463246E+04  0.25500000920E-02 0. -1.
       -2   -1    0    0    0  501  0.00000000000E+00  0.00000000000E+00 -0.64942616253E+03  0.64942616253E+03  0.25500000920E-02 0.  1.
    10030    2    1    2    0    0  0.00000000000E+00  0.00000000000E+00  0.23691201621E+04  0.36679724871E+04  0.28002306733E+04 0.  0.
        1    1    3    3  502    0 -0.37473036588E+03  0.10875333135E+04  0.22301476185E+04  0.25093246015E+04  0.50400001928E-02 0. -1.
       -1    1    3    3    0  502  0.37473036588E+03 -0.10875333135E+04  0.13897254351E+03  0.11586478856E+04  0.50400001928E-02 0.  1.
</event>
<event>
 5   0  0.2267565E-06  0.2788484E+04  0.7818609E-02  0.8306852E-01
        1   -1    0    0  501    0  0.00000000000E+00  0.00000000000E+00  0.20700967311E+04  0.20700967311E+04  0.50400001928E-02 0. -1.
       -1   -1    0    0    0  501  0.00000000000E+00  0.00000000000E+00 -0.93904361331E+03  0.93904361332E+03  0.50400001928E-02 0.  1.
    10030    2    1    2    0    0  0.00000000000E+00  0.00000000000E+00  0.11310531178E+04  0.30091403444E+04  0.27884842580E+04 0.  0.
        4    1    3    3  502    0  0.12728317634E+04 -0.15874722172E+02 -0.48305419603E+02  0.12738476091E+04  0.12699999809E+01 0.  1.
       -4    1    3    3    0  502 -0.12728317634E+04  0.15874722172E+02  0.11793585374E+04  0.17352927354E+04  0.12699999809E+01 0. -1.
</event>
<event>
 5   0  0.5625245E-06  0.2823789E+04  0.7818609E-02  0.8295921E-01
       -2   -1    0    0    0  501  0.00000000000E+00  0.00000000000E+00  0.87662570297E+03  0.87662570297E+03  0.25500000920E-02 0.  1.
        2   -1    0    0  501    0  0.00000000000E+00  0.00000000000E+00 -0.22739986078E+04  0.22739986078E+04  0.25500000920E-02 0. -1.
    10030    2    1    2    0    0  0.00000000000E+00  0.00000000000E+00 -0.13973729049E+04  0.31506243108E+04  0.28237886806E+04 0.  0.
        3    1    3    3  502    0 -0.10257981353E+03 -0.66185660801E+03  0.68810204949E+03  0.96024019309E+03  0.10100000352E+00 0.  1.
       -3    1    3    3    0  502  0.10257981353E+03  0.66185660801E+03 -0.20854749544E+04  0.21903841177E+04  0.10100000352E+00 0. -1.
</event>
<event>
 5   0  0.5866136E-06  0.2800100E+04  0.7818609E-02  0.8303237E-01
        2   -1    0    0  501    0  0.00000000000E+00  0.00000000000E+00  0.16134872293E+04  0.16134872293E+04  0.25500000920E-02 0.  1.
       -2   -1    0    0    0  501  0.00000000000E+00  0.00000000000E+00 -0.12148472977E+04  0.12148472978E+04  0.25500000920E-02 0. -1.
    10030    2    1    2    0    0  0.00000000000E+00  0.00000000000E+00  0.39863993151E+03  0.28283345270E+04  0.28001004271E+04 0.  0.
        5    1    3    3  502    0 -0.27694652044E+03  0.13691595361E+04  0.29418877781E+03  0.14275385590E+04  0.46999998093E+01 0.  1.
       -5    1    3    3    0  502  0.27694652044E+03 -0.13691595361E+04  0.10445115371E+03  0.14007959680E+04  0.46999998093E+01 0. -1.
</event>
<event>
 5   0  0.2234068E-06  0.2792542E+04  0.7818609E-02  0.8305587E-01
       -1   -1    0    0    0  501  0.00000000000E+00  0.00000000000E+00  0.93061002872E+03  0.93061002873E+03  0.50400001928E-02 0. -1.
        1   -1    0    0  501    0  0.00000000000E+00  0.00000000000E+00 -0.20949410180E+04  0.20949410180E+04  0.50400001928E-02 0.  1.
    10030    2    1    2    0    0  0.00000000000E+00  0.00000000000E+00 -0.11643309893E+04  0.30255510467E+04  0.27925422976E+04 0.  0.
        3    1    3    3  502    0  0.94859022078E+02  0.13929999418E+04 -0.57000204209E+03  0.15080946290E+04  0.10100000352E+00 0.  1.
       -3    1    3    3    0  502 -0.94859022078E+02 -0.13929999418E+04 -0.59432894720E+03  0.15174564177E+04  0.10100000352E+00 0. -1.
</event>
<event>
 5   0  0.2267565E-06  0.2769214E+04  0.7818609E-02  0.8312890E-01
       -1   -1    0    0    0  501  0.00000000000E+00  0.00000000000E+00  0.12847312843E+04  0.12847312843E+04  0.50400001928E-02 0. -1.
        1   -1    0    0  501    0  0.00000000000E+00  0.00000000000E+00 -0.14922472622E+04  0.14922472622E+04  0.50400001928E-02 0.  1.
    10030    2    1    2    0    0  0.00000000000E+00  0.00000000000E+00 -0.20751597786E+03  0.27769785465E+04  0.27692141424E+04 0.  0.
        4    1    3    3  502    0  0.18673584431E+03  0.96291197432E+03 -0.10837725664E+04  0.14617230703E+04  0.12699999809E+01 0.  1.
       -4    1    3    3    0  502 -0.18673584431E+03 -0.96291197432E+03  0.87625658850E+03  0.13152554762E+04  0.12699999809E+01 0. -1.
</event>
<event>
 5   0  0.5546570E-06  0.2803371E+04  0.7818609E-02  0.8302222E-01
        2   -1    0    0  501    0  0.00000000000E+00  0.00000000000E+00  0.21229424042E+04  0.21229424042E+04  0.25500000920E-02 0. -1.
       -2   -1    0    0    0  501  0.00000000000E+00  0.00000000000E+00 -0.92547156007E+03  0.92547156007E+03  0.25500000920E-02 0.  1.
    10030    2    1    2    0    0  0.00000000000E+00  0.00000000000E+00  0.11974708441E+04  0.30484139643E+04  0.28033714122E+04 0.  0.
        4    1    3    3  502    0 -0.99403975754E+03  0.50251958724E+02  0.16719605131E+04  0.19457887524E+04  0.12699999809E+01 0. -1.
       -4    1    3    3    0  502  0.99403975754E+03 -0.50251958724E+02 -0.47448966895E+03  0.11026252118E+04  0.12699999809E+01 0.  1.
</event>
<event>
 5   0  0.2234068E-06  0.2806744E+04  0.7818609E-02  0.8301178E-01
        1   -1    0    0  501    0  0.00000000000E+00  0.00000000000E+00  0.15203557650E+04  0.15203557650E+04  0.50400001928E-02 0.  1.
       -1   -1    0    0    0  501  0.00000000000E+00  0.00000000000E+00 -0.12953891889E+04  0.12953891889E+04  0.50400001928E-02 0. -1.
    10030    2    1    2    0    0  0.00000000000E+00  0.00000000000E+00  0.22496657607E+03  0.28157449539E+04  0.28067436087E+04 0.  0.
        3    1    3    3  502    0 -0.76567602735E+03  0.58409140588E+03 -0.91158909543E+03  0.13260532562E+04  0.10100000352E+00 0. -1.
       -3    1    3    3    0  502  0.76567602735E+03 -0.58409140588E+03  0.11365556715E+04  0.14896916976E+04  0.10100000352E+00 0.  1.
</event>
<event>
 5   0  0.5866136E-06  0.2820716E+04  0.7818609E-02  0.8296866E-01
        2   -1    0    0  501    0  0.00000000000E+00  0.00000000000E+00  0.12311739886E+04  0.12311739886E+04  0.25500000920E-02 0. -1.
       -2   -1    0    0    0  501  0.00000000000E+00  0.00000000000E+00 -0.16156199407E+04  0.16156199407E+04  0.25500000920E-02 0.  1.
    10030    2    1    2    0    0  0.00000000000E+00  0.00000000000E+00 -0.38444595206E+03  0.28467939293E+04  0.28207156868E+04 0.  0.
        5    1    3    3  502    0  0.31153956233E+03  0.39293345550E+03  0.11381573530E+04  0.12437354419E+04  0.46999998093E+01 0. -1.
       -5    1    3    3    0  502 -0.31153956233E+03 -0.39293345550E+03 -0.15226033050E+04  0.16030584874E+04  0.46999998093E+01 0.  1.
</event>
<event>
 5   0  0.5916603E-06  0.2786583E+04  0.7818609E-02  0.8307446E-01
       -2   -1    0    0    0  501  0.00000000000E+00  0.00000000000E+00  0.62493257001E+03  0.62493257002E+03  0.25500000920E-02 0.  1.
        2   -1    0    0  501    0  0.00000000000E+00  0.00000000000E+00 -0.31063538889E+04  0.31063538889E+04  0.25500000920E-02 0. -1.
    10030    2    1    2    0    0  0.00000000000E+00  0.00000000000E+00 -0.24814213189E+04  0.37312864589E+04  0.27865833698E+04 0.  0.
        2    1    3    3  502    0 -0.25951744950E+03  0.57154603166E+03 -0.29062943226E+04  0.29733080672E+04  0.25500000920E-02 0. -1.
       -2    1    3    3    0  502  0.25951744950E+03 -0.57154603166E+03  0.42487300376E+03  0.75797839167E+03  0.25500000920E-02 0.  1.
</event>
<event>
 5   0  0.5866136E-06  0.2791653E+04  0.7818609E-02  0.8305865E-01
        2   -1    0    0  501    0  0.00000000000E+00  0.00000000000E+00  0.15438994520E+04  0.15438994520E+04  0.25500000920E-02 0. -1.
       -2   -1    0    0    0  501  0.00000000000E+00  0.00000000000E+00 -0.12619546444E+04  0.12619546444E+04  0.25500000920E-02 0.  1.
    10030    2    1    2    0    0  0.00000000000E+00  0.00000000000E+00  0.28194480764E+03  0.28058540964E+04  0.27916526173E+04 0.  0.
        5    1    3    3  502    0  0.12492417105E+04  0.45570042178E+03 -0.28549882803E+03  0.13600733055E+04  0.46999998093E+01 0.  1.
       -5    1    3    3    0  502 -0.12492417105E+04 -0.45570042178E+03  0.56744363567E+03  0.14457807909E+04  0.46999998093E+01 0. -1.
</event>
<event>
 5   0  0.2206967E-06  0.2807795E+04  0.7818609E-02  0.8300852E-01
        1   -1    0    0  501    0  0.00000000000E+00  0.00000000000E+00  0.13377832103E+04  0.13377832104E+04  0.50400001928E-02 0. -1.
       -1   -1    0    0    0  501  0.00000000000E+00  0.00000000000E+00 -0.14732796162E+04  0.14732796162E+04  0.50400001928E-02 0.  1.
    10030    2    1    2    0    0  0.00000000000E+00  0.00000000000E+00 -0.13549640582E+03  0.28110628265E+04  0.28077953876E+04 0.  0.
        5    1    3    3  502    0  0.34167021127E+03 -0.60865619222E+03  0.11517438819E+04  0.13467505163E+04  0.46999998093E+01 0. -1.
       -5    1    3    3    0  502 -0.34167021127E+03  0.60865619222E+03 -0.12872402877E+04  0.14643123102E+04  0.46999998093E+01 0.  1.
</event>
<event>
 5   0  0.2267565E-06  0.2631758E+04  0.7818609E-02  0.8357493E-01
        1   -1    0    0  501    0  0.00000000000E+00  0.00000000000E+00  0.14542559306E+04  0.14542559306E+04  0.50400001928E-02 0.  1.
       -1   -1    0    0    0  501  0.00000000000E+00  0.00000000000E+00 -0.11906688592E+04  0.11906688592E+04  0.50400001928E-02 0. -1.
    10030    2    1    2    0    0  0.00000000000E+00  0.00000000000E+00  0.26358707145E+03  0.26449247898E+04  0.26317577775E+04 0.  0.
        4    1    3    3  502    0  0.10288550008E+04 -0.72498526508E+01 -0.69264015998E+03  0.12403012445E+04  0.12699999809E+01 0. -1.
       -4    1    3    3    0  502 -0.10288550008E+04  0.72498526508E+01  0.95622723143E+03  0.14046235453E+04  0.12699999809E+01 0.  1.
</event>
<event>
 5   0  0.5625245E-06  0.2790490E+04  0.7818609E-02  0.8306227E-01
       -2   -1    0    0    0  501  0.00000000000E+00  0.00000000000E+00  0.89865120925E+03  0.89865120926E+03  0.25500000920E-02 0. -1.
        2   -1    0    0  501    0  0.00000000000E+00  0.00000000000E+00 -0.21662559849E+04  0.21662559849E+04  0.25500000920E-02 0.  1.
    10030    2    1    2    0    0  0.00000000000E+00  0.00000000000E+00 -0.12676047757E+04  0.30649071942E+04  0.27904899644E+04 0.  0.
        3    1    3    3  502    0  0.10160996090E+03  0.32600560698E+02  0.89416254488E+03  0.90050766103E+03  0.10100000352E+00 0. -1.
       -3    1    3    3    0  502 -0.10160996090E+03 -0.32600560698E+02 -0.21617673205E+04  0.21643995331E+04  0.10100000352E+00 0.  1.
</event>
<event>
 5   0  0.2190865E-06  0.2798719E+04  0.7818609E-02  0.8303666E-01
        1   -1    0    0  501    0  0.00000000000E+00  0.00000000000E+00  0.15987882249E+04  0.15987882249E+04  0.50400001928E-02 0.  1.
       -1   -1    0    0    0  501  0.00000000000E+00  0.00000000000E+00 -0.12248069298E+04  0.12248069298E+04  0.50400001928E-02 0. -1.
    10030    2    1    2    0    0  0.00000000000E+00  0.00000000000E+00  0.37398129511E+03  0.28235951547E+04  0.27987189192E+04 0.  0.
        2    1    3    3  502    0 -0.72440322390E+03  0.48892728468E+03 -0.91560809300E+03  0.12657598905E+04  0.25500000920E-02 0. -1.
       -2    1    3    3    0  502  0.72440322390E+03 -0.48892728468E+03  0.12895893881E+04  0.15578352642E+04  0.25500000920E-02 0.  1.
</event>
<event>
 5   0  0.5546570E-06  0.2758883E+04  0.7818609E-02  0.8316148E-01
       -2   -1    0    0    0  501  0.00000000000E+00  0.00000000000E+00  0.78264021094E+03  0.78264021095E+03  0.25500000920E-02 0.  1.
        2   -1    0    0  501    0  0.00000000000E+00  0.00000000000E+00 -0.24313336390E+04  0.24313336390E+04  0.25500000920E-02 0. -1.
    10030    2    1    2    0    0  0.00000000000E+00  0.00000000000E+00 -0.16486934280E+04  0.32139738499E+04  0.27588834496E+04 0.  0.
        4    1    3    3  502    0  0.11086504337E+04  0.71508691931E+03 -0.35487902764E+03  0.13661609801E+04  0.12699999809E+01 0.  1.
       -4    1    3    3    0  502 -0.11086504337E+04 -0.71508691931E+03 -0.12938144004E+04  0.18478128698E+04  0.12699999809E+01 0. -1.
</event>
<event>
 5   0  0.2267565E-06  0.2815202E+04  0.7818609E-02  0.8298564E-01
       -1   -1    0    0    0  501  0.00000000000E+00  0.00000000000E+00  0.82040680225E+03  0.82040680226E+03  0.50400001928E-02 0. -1.
        1   -1    0    0  501    0  0.00000000000E+00  0.00000000000E+00 -0.24150701315E+04  0.24150701315E+04  0.50400001928E-02 0.  1.
    10030    2    1    2    0    0  0.00000000000E+00  0.00000000000E+00 -0.15946633293E+04  0.32354769338E+04  0.28152015657E+04 0.  0.
        4    1    3    3  502    0  0.11760665412E+04  0.37159710823E+03 -0.17743847908E+02  0.12335045104E+04  0.12699999809E+01 0. -1.
       -4    1    3    3    0  502 -0.11760665412E+04 -0.37159710823E+03 -0.15769194814E+04  0.20019724233E+04  0.12699999809E+01 0.  1.
</event>
<event>
 5   0  0.2277133E-06  0.2808337E+04  0.7818609E-02  0.8300685E-01
        1   -1    0    0  501    0  0.00000000000E+00  0.00000000000E+00  0.18150582944E+04  0.18150582944E+04  0.50400001928E-02 0.  1.
       -1   -1    0    0    0  501  0.00000000000E+00  0.00000000000E+00 -0.10862952685E+04  0.10862952686E+04  0.50400001928E-02 0. -1.
    10030    2    1    2    0    0  0.00000000000E+00  0.00000000000E+00  0.72876302588E+03  0.29013535630E+04  0.28083370434E+04 0.  0.
        1    1    3    3  502    0 -0.11853914202E+04  0.39100835831E+03 -0.30007621167E+03  0.12837780525E+04  0.50400001928E-02 0. -1.
       -1    1    3    3    0  502  0.11853914202E+04 -0.39100835831E+03  0.10288392375E+04  0.16175755105E+04  0.50400001928E-02 0.  1.
</event>
<event>
 5   0  0.2206967E-06  0.2815468E+04  0.7818609E-02  0.8298482E-01
        1   -1    0    0  501    0  0.00000000000E+00  0.00000000000E+00  0.97436116276E+03  0.97436116278E+03  0.50400001928E-02 0.  1.
       -1   -1    0    0    0  501  0.00000000000E+00  0.00000000000E+00 -0.20338603076E+04  0.20338603076E+04  0.50400001928E-02 0. -1.
    10030    2    1    2    0    0  0.00000000000E+00  0.00000000000E+00 -0.10594991448E+04  0.30082214704E+04  0.28154676302E+04 0.  0.
        5    1    3    3  502    0  0.11034860902E+03  0.11822768050E+04  0.27815017499E+03  0.12195674926E+04  0.46999998093E+01 0. -1.
       -5    1    3    3    0  502 -0.11034860902E+03 -0.11822768050E+04 -0.13376493198E+04  0.17886539777E+04  0.46999998093E+01 0.  1.
</event>
<event>
 5   0  0.2234068E-06  0.2781944E+04  0.7818609E-02  0.8308896E-01
       -1   -1    0    0    0  501  0.00000000000E+00  0.00000000000E+00  0.14080213048E+04  0.14080213048E+04  0.50400001928E-02 0.  1.
        1   -1    0    0  501    0  0.00000000000E+00  0.00000000000E+00 -0.13741287955E+04  0.13741287955E+04  0.50400001928E-02 0. -1.
    10030    2    1    2    0    0  0.00000000000E+00  0.00000000000E+00  0.33892509275E+02  0.27821501004E+04  0.27819436512E+04 0.  0.
        3    1    3    3  502    0  0.72196490722E+03  0.36333493857E+03 -0.11151965020E+04  0.13772831419E+04  0.10100000352E+00 0. -1.
       -3    1    3    3    0  502 -0.72196490722E+03 -0.36333493857E+03  0.11490890113E+04  0.14048669584E+04  0.10100000352E+00 0.  1.
</event>
<event>
 5   0  0.5916603E-06  0.2804373E+04  0.7818609E-02  0.8301912E-01
        2   -1    0    0  501    0  0.00000000000E+00  0.00000000000E+00  0.11676858013E+04  0.11676858013E+04  0.25500000920E-02 0. -1.
       -2   -1    0    0    0  501  0.00000000000E+00  0.00000000000E+00 -0.16837814074E+04  0.16837814074E+04  0.25500000920E-02 0.  1.
    10030    2    1    2    0    0  0.00000000000E+00  0.00000000000E+00 -0.51609560610E+03  0.28514672087E+04  0.28043734715E+04 0.  0.
        2    1    3    3  502    0 -0.10067359514E+04  0.18291873871E+03 -0.12328712968E+04  0.16021698335E+04  0.25500000920E-02 0.  1.
       -2    1    3    3    0  502  0.10067359514E+04 -0.18291873871E+03  0.71677569073E+03  0.12492973752E+04  0.25500000920E-02 0. -1.
</event>
<event>
 5   0  0.2267565E-06  0.2776504E+04  0.7818609E-02  0.8310600E-01
       -1   -1    0    0    0  501  0.00000000000E+00  0.00000000000E+00  0.91767534953E+03  0.91767534954E+03  0.50400001928E-02 0. -1.
        1   -1    0    0  501    0  0.00000000000E+00  0.00000000000E+00 -0.21001370397E+04  0.21001370397E+04  0.50400001928E-02 0.  1.
    10030    2    1    2    0    0  0.00000000000E+00  0.00000000000E+00 -0.11824616901E+04  0.30178123892E+04  0.27765042712E+04 0.  0.
        4    1    3    3  502    0 -0.13117355686E+04  0.45278180929E+03 -0.63444577040E+03  0.15258389880E+04  0.12699999809E+01 0.  1.
       -4    1    3    3    0  502  0.13117355686E+04 -0.45278180929E+03 -0.54801591973E+03  0.14919734012E+04  0.12699999809E+01 0. -1.
</event>
<event>
 5   0  0.5625245E-06  0.2800836E+04  0.7818609E-02  0.8303009E-01
       -2   -1    0    0    0  501  0.00000000000E+00  0.00000000000E+00  0.10458116570E+04  0.10458116570E+04  0.25500000920E-02 0. -1.
        2   -1    0    0  501    0  0.00000000000E+00  0.00000000000E+00 -0.18752610854E+04  0.18752610854E+04  0.25500000920E-02 0.  1.
    10030    2    1    2    0    0  0.00000000000E+00  0.00000000000E+00 -0.82944942838E+03  0.29210727425E+04  0.28008355204E+04 0.  0.
        3    1    3    3  502    0 -0.40926451062E+03  0.81723005732E+03  0.69186551914E+03  0.11463159743E+04  0.10100000352E+00 0. -1.
       -3    1    3    3    0  502  0.40926451062E+03 -0.81723005732E+03 -0.15213149475E+04  0.17747567681E+04  0.10100000352E+00 0.  1.
</event>
<event>
 5   0  0.5546570E-06  0.2795421E+04  0.7818609E-02  0.8304692E-01
       -2   -1    0    0    0  501  0.00000000000E+00  0.00000000000E+00  0.11384874268E+04  0.11384874268E+04  0.25500000920E-02 0.  1.
        2   -1    0    0  501    0  0.00000000000E+00  0.00000000000E+00 -0.17159556611E+04  0.17159556611E+04  0.25500000920E-02 0. -1.
    10030    2    1    2    0    0  0.00000000000E+00  0.00000000000E+00 -0.57746823432E+03  0.28544430879E+04  0.27954205016E+04 0.  0.
        4    1    3    3  502    0 -0.85106656666E+03  0.10530596608E+04  0.65495890725E+02  0.13555590267E+04  0.12699999809E+01 0.  1.
       -4    1    3    3    0  502  0.85106656666E+03 -0.10530596608E+04 -0.64296412505E+03  0.14988840613E+04  0.12699999809E+01 0. -1.
</event>
<event>
 5   0  0.2277133E-06  0.2790397E+04  0.7818609E-02  0.8306256E-01
       -1   -1    0    0    0  501  0.00000000000E+00  0.00000000000E+00  0.11406482339E+04  0.11406482339E+04  0.50400001928E-02 0. -1.
        1   -1    0    0  501    0  0.00000000000E+00  0.00000000000E+00 -0.17065553888E+04  0.17065553888E+04  0.50400001928E-02 0.  1.
    10030    2    1    2    0    0  0.00000000000E+00  0.00000000000E+00 -0.56590715492E+03  0.28472036227E+04  0.27903973841E+04 0.  0.
        1    1    3    3  502    0  0.20994800359E+03  0.73358744681E+03  0.90887961939E+03  0.11867143165E+04  0.50400001928E-02 0. -1.
       -1    1    3    3    0  502 -0.20994800359E+03 -0.73358744681E+03 -0.14747867743E+04  0.16604893062E+04  0.50400001928E-02 0.  1.
</event>
<event>
 5   0  0.5866136E-06  0.2802653E+04  0.7818609E-02  0.8302445E-01
       -2   -1    0    0    0  501  0.00000000000E+00  0.00000000000E+00  0.13524367980E+04  0.13524367980E+04  0.25500000920E-02 0.  1.
        2   -1    0    0  501    0  0.00000000000E+00  0.00000000000E+00 -0.14519839481E+04  0.14519839481E+04  0.25500000920E-02 0. -1.
    10030    2    1    2    0    0  0.00000000000E+00  0.00000000000E+00 -0.99547150087E+02  0.28044207461E+04  0.28026534010E+04 0.  0.
        5    1    3    3  502    0  0.89836446566E+03  0.10639171325E+04  0.10753896478E+03  0.13966263269E+04  0.46999998093E+01 0.  1.
       -5    1    3    3    0  502 -0.89836446566E+03 -0.10639171325E+04 -0.20708611487E+03  0.14077944193E+04  0.46999998093E+01 0. -1.
</event>
<event>
 5   0  0.5584205E-06  0.2763987E+04  0.7818609E-02  0.8314537E-01
        2   -1    0    0  501    0  0.00000000000E+00  0.00000000000E+00  0.22479331884E+04  0.22479331884E+04  0.25500000920E-02 0.  1.
       -2   -1    0    0    0  501  0.00000000000E+00  0.00000000000E+00 -0.84962771847E+03  0.84962771847E+03  0.25500000920E-02 0. -1.
    10030    2    1    2    0    0  0.00000000000E+00  0.00000000000E+00  0.13983054700E+04  0.30975609069E+04  0.27639872258E+04 0.  0.
        1    1    3    3  502    0  0.16005442365E+03  0.60895727321E+03  0.20778511996E+04  0.21711545286E+04  0.50400001928E-02 0.  1.
       -1    1    3    3    0  502 -0.16005442365E+03 -0.60895727321E+03 -0.67954572966E+03  0.92640637835E+03  0.50400001928E-02 0. -1.
</event>
<event>
 5   0  0.5625245E-06  0.2786389E+04  0.7818609E-02  0.8307506E-01
        2   -1    0    0  501    0  0.00000000000E+00  0.00000000000E+00  0.85794219033E+03  0.85794219033E+03  0.25500000920E-02 0. -1.
       -2   -1    0    0    0  501  0.00000000000E+00  0.00000000000E+00 -0.22623803808E+04  0.22623803808E+04  0.25500000920E-02 0.  1.
    10030    2    1    2    0    0  0.00000000000E+00  0.00000000000E+00 -0.14044381905E+04  0.31203225711E+04  0.27863894769E+04 0.  0.
        3    1    3    3  502    0  0.12846969199E+04  0.45395979966E+03 -0.37675854006E+03  0.14136734713E+04  0.10100000352E+00 0. -1.
       -3    1    3    3    0  502 -0.12846969199E+04 -0.45395979966E+03 -0.10276796504E+04  0.17066490998E+04  0.10100000352E+00 0.  1.
</event>
<event>
 5   0  0.2277133E-06  0.2814472E+04  0.7818609E-02  0.8298789E-01
       -1   -1    0    0    0  501  0.00000000000E+00  0.00000000000E+00  0.12470025471E+04  0.12470025471E+04  0.50400001928E-02 0. -1.
        1   -1    0    0  501    0  0.00000000000E+00  0.00000000000E+00 -0.15880591909E+04  0.15880591910E+04  0.50400001928E-02 0.  1.
    10030    2    1    2    0    0  0.00000000000E+00  0.00000000000E+00 -0.34105664383E+03  0.28350617381E+04  0.28144724949E+04 0.  0.
        1    1    3    3  502    0 -0.13574620364E+04  0.22373941530E+03  0.12752703722E+03  0.13816749442E+04  0.50400001928E-02 0. -1.
       -1    1    3    3    0  502  0.13574620364E+04 -0.22373941530E+03 -0.46858368106E+03  0.14533867938E+04  0.50400001928E-02 0.  1.
</event>
<event>
 5   0  0.2190865E-06  0.2759179E+04  0.7818609E-02  0.8316055E-01
       -1   -1    0    0    0  501  0.00000000000E+00  0.00000000000E+00  0.11051795411E+04  0.11051795411E+04  0.50400001928E-02 0. -1.
        1   -1    0    0  501    0  0.00000000000E+00  0.00000000000E+00 -0.17221341836E+04  0.17221341836E+04  0.50400001928E-02 0.  1.
    10030    2    1    2    0    0  0.00000000000E+00  0.00000000000E+00 -0.61695464245E+03  0.28273137247E+04  0.27591792017E+04 0.  0.
        2    1    3    3  502    0 -0.70509870438E+03  0.10547201364E+04 -0.86377126531E+03  0.15348288334E+04  0.25500000920E-02 0. -1.
       -2    1    3    3    0  502  0.70509870438E+03 -0.10547201364E+04  0.24681662287E+03  0.12924848913E+04  0.25500000920E-02 0.  1.
</event>
<event>
 5   0  0.5584205E-06  0.2798969E+04  0.7818609E-02  0.8303589E-01
       -2   -1    0    0    0  501  0.00000000000E+00  0.00000000000E+00  0.14275284674E+04  0.14275284674E+04  0.25500000920E-02 0. -1.
        2   -1    0    0  501    0  0.00000000000E+00  0.00000000000E+00 -0.13719911429E+04  0.13719911429E+04  0.25500000920E-02 0.  1.
    10030    2    1    2    0    0  0.00000000000E+00  0.00000000000E+00  0.55537324478E+02  0.27995196103E+04  0.27989686769E+04 0.  0.
        1    1    3    3  502    0 -0.24130634669E+03  0.11526065031E+02  0.14065155322E+04  0.14271116094E+04  0.50400001928E-02 0. -1.
       -1    1    3    3    0  502  0.24130634669E+03 -0.11526065031E+02 -0.13509782078E+04  0.13724080009E+04  0.50400001928E-02 0.  1.
</event>
<event>
 5   0  0.5625245E-06  0.2807609E+04  0.7818609E-02  0.8300910E-01
        2   -1    0    0  501    0  0.00000000000E+00  0.00000000000E+00  0.23538593784E+04  0.23538593784E+04  0.25500000920E-02 0. -1.
       -2   -1    0    0    0  501  0.00000000000E+00  0.00000000000E+00 -0.83720651123E+03  0.83720651123E+03  0.25500000920E-02 0.  1.
    10030    2    1    2    0    0  0.00000000000E+00  0.00000000000E+00  0.15166528672E+04  0.31910658897E+04  0.28076085184E+04 0.  0.
        3    1    3    3  502    0  0.97209381434E+03 -0.84604322810E+03  0.13910552559E+04  0.18962569084E+04  0.10100000352E+00 0. -1.
       -3    1    3    3    0  502 -0.97209381434E+03  0.84604322810E+03  0.12559761132E+03  0.12948089812E+04  0.10100000352E+00 0.  1.
</event>
<event>
 5   0  0.2206967E-06  0.2767086E+04  0.7818609E-02  0.8313560E-01
        1   -1    0    0  501    0  0.00000000000E+00  0.00000000000E+00  0.94186218480E+03  0.94186218482E+03  0.50400001928E-02 0.  1.
       -1   -1    0    0    0  501  0.00000000000E+00  0.00000000000E+00 -0.20323467643E+04  0.20323467643E+04  0.50400001928E-02 0. -1.
    10030    2    1    2    0    0  0.00000000000E+00  0.00000000000E+00 -0.10904845795E+04  0.29742089491E+04  0.27670855163E+04 0.  0.
        5    1    3    3  502    0 -0.36449904941E+03  0.97654921799E+03  0.43261397015E+03  0.11285764792E+04  0.46999998093E+01 0.  1.
       -5    1    3    3    0  502  0.36449904941E+03 -0.97654921799E+03 -0.15230985496E+04  0.18456324699E+04  0.46999998093E+01 0. -1.
</event>
<event>
 5   0  0.5625245E-06  0.2805261E+04  0.7818609E-02  0.8301637E-01
       -2   -1    0    0    0  501  0.00000000000E+00  0.00000000000E+00  0.10936553574E+04  0.10936553574E+04  0.25500000920E-02 0. -1.
        2   -1    0    0  501    0  0.00000000000E+00  0.00000000000E+00 -0.17988965630E+04  0.17988965630E+04  0.25500000920E-02 0.  1.
    10030    2    1    2    0    0  0.00000000000E+00  0.00000000000E+00 -0.70524120561E+03  0.28925519205E+04  0.28052613879E+04 0.  0.
        3    1    3    3  502    0  0.36485816154E+03 -0.11201551414E+04  0.43231853887E+03  0.12548977441E+04  0.10100000352E+00 0. -1.
       -3    1    3    3    0  502 -0.36485816154E+03  0.11201551414E+04 -0.11375597445E+04  0.16376541764E+04  0.10100000352E+00 0.  1.
</event>
<event>
 5   0  0.2267565E-06  0.2822643E+04  0.7818609E-02  0.8296273E-01
       -1   -1    0    0    0  501  0.00000000000E+00  0.00000000000E+00  0.13607749280E+04  0.13607749280E+04  0.50400001928E-02 0.  1.
        1   -1    0    0  501    0  0.00000000000E+00  0.00000000000E+00 -0.14637452381E+04  0.14637452381E+04  0.50400001928E-02 0. -1.
    10030    2    1    2    0    0  0.00000000000E+00  0.00000000000E+00 -0.10297031010E+03  0.28245201662E+04  0.28226426066E+04 0.  0.
        4    1    3    3  502    0 -0.93281683817E+03  0.78493747343E+03  0.66000968355E+03  0.13863219273E+04  0.12699999809E+01 0.  1.
       -4    1    3    3    0  502  0.93281683817E+03 -0.78493747343E+03 -0.76297999365E+03  0.14381982389E+04  0.12699999809E+01 0. -1.
</event>
<event>
 5   0  0.2267565E-06  0.3014005E+04  0.7818609E-02  0.8239743E-01
        1   -1    0    0  501    0  0.00000000000E+00  0.00000000000E+00  0.19617009375E+04  0.19617009375E+04  0.50400001928E-02 0.  1.
       -1   -1    0    0    0  501  0.00000000000E+00  0.00000000000E+00 -0.11576973602E+04  0.11576973602E+04  0.50400001928E-02 0. -1.
    10030    2    1    2    0    0  0.00000000000E+00  0.00000000000E+00  0.80400357731E+03  0.31193982977E+04  0.30140046429E+04 0.  0.
        4    1    3    3  502    0  0.13257880488E+03 -0.83046636940E+03 -0.89224743901E+03  0.12261152619E+04  0.12699999809E+01 0. -1.
       -4    1    3    3    0  502 -0.13257880488E+03  0.83046636940E+03  0.16962510163E+04  0.18932830358E+04  0.12699999809E+01 0.  1.
</event>
<event>
 5   0  0.5625245E-06  0.2811962E+04  0.7818609E-02  0.8299564E-01
        2   -1    0    0  501    0  0.00000000000E+00  0.00000000000E+00  0.83996096276E+03  0.83996096277E+03  0.25500000920E-02 0. -1.
       -2   -1    0    0    0  501  0.00000000000E+00  0.00000000000E+00 -0.23534219117E+04  0.23534219117E+04  0.25500000920E-02 0.  1.
    10030    2    1    2    0    0  0.00000000000E+00  0.00000000000E+00 -0.15134609489E+04  0.31933828745E+04  0.28119619732E+04 0.  0.
        3    1    3    3  502    0  0.11367788506E+04  0.58357995235E+03 -0.14227542241E+04  0.19123444534E+04  0.10100000352E+00 0.  1.
       -3    1    3    3    0  502 -0.11367788506E+04 -0.58357995235E+03 -0.90706724773E+02  0.12810384210E+04  0.10100000352E+00 0. -1.
</event>
<event>
 5   0  0.2206967E-06  0.2798485E+04  0.7818609E-02  0.8303739E-01
       -1   -1    0    0    0  501  0.00000000000E+00  0.00000000000E+00  0.12667086000E+04  0.12667086000E+04  0.50400001928E-02 0. -1.
        1   -1    0    0  501    0  0.00000000000E+00  0.00000000000E+00 -0.15456427468E+04  0.15456427468E+04  0.50400001928E-02 0.  1.
    10030    2    1    2    0    0  0.00000000000E+00  0.00000000000E+00 -0.27893414688E+03  0.28123513468E+04  0.27984845612E+04 0.  0.
        5    1    3    3  502    0 -0.49312614185E+03 -0.94378845409E+03  0.77274592198E+03  0.13157007212E+04  0.46999998093E+01 0. -1.
       -5    1    3    3    0  502  0.49312614185E+03  0.94378845409E+03 -0.10516800689E+04  0.14966506256E+04  0.46999998093E+01 0.  1.
</event>
<event>
 5   0  0.2277133E-06  0.2799535E+04  0.7818609E-02  0.8303413E-01
       -1   -1    0    0    0  501  0.00000000000E+00  0.00000000000E+00  0.12251018196E+04  0.12251018196E+04  0.50400001928E-02 0.  1.
        1   -1    0    0  501    0  0.00000000000E+00  0.00000000000E+00 -0.15993352990E+04  0.15993352990E+04  0.50400001928E-02 0. -1.
    10030    2    1    2    0    0  0.00000000000E+00  0.00000000000E+00 -0.37423347943E+03  0.28244371187E+04  0.27995346649E+04 0.  0.
        1    1    3    3  502    0  0.12906893496E+03  0.13256568045E+04 -0.62143860762E+03  0.14697655243E+04  0.50400001928E-02 0. -1.
       -1    1    3    3    0  502 -0.12906893496E+03 -0.13256568045E+04  0.24720512818E+03  0.13546715944E+04  0.50400001928E-02 0.  1.
</event>
<event>
 5   0  0.2267565E-06  0.2802658E+04  0.7818609E-02  0.8302444E-01
        1   -1    0    0  501    0  0.00000000000E+00  0.00000000000E+00  0.20876430815E+04  0.20876430815E+04  0.50400001928E-02 0.  1.
       -1   -1    0    0    0  501  0.00000000000E+00  0.00000000000E+00 -0.94064090600E+03  0.94064090601E+03  0.50400001928E-02 0. -1.
    10030    2    1    2    0    0  0.00000000000E+00  0.00000000000E+00  0.11470021755E+04  0.30282839875E+04  0.28026576527E+04 0.  0.
        4    1    3    3  502    0  0.10316641354E+04 -0.17971731467E+03 -0.43264039345E+03  0.11330527457E+04  0.12699999809E+01 0. -1.
       -4    1    3    3    0  502 -0.10316641354E+04  0.17971731467E+03  0.15796425689E+04  0.18952312418E+04  0.12699999809E+01 0.  1.
</event>
<event>
 5   0  0.5916603E-06  0.2794350E+04  0.7818609E-02  0.8305025E-01
        2   -1    0    0  501    0  0.00000000000E+00  0.00000000000E+00  0.24361063596E+04  0.24361063596E+04  0.25500000920E-02 0. -1.
       -2   -1    0    0    0  501  0.00000000000E+00  0.00000000000E+00 -0.80131899163E+03  0.80131899164E+03  0.25500000920E-02 0.  1.
    10030    2    1    2    0    0  0.00000000000E+00  0.00000000000E+00  0.16347873680E+04  0.32374253513E+04  0.27943502226E+04 0.  0.
        2    1    3    3  502    0  0.46606476400E+03 -0.53204266985E+02 -0.70735860472E+03  0.84876572383E+03  0.25500000920E-02 0.  1.
       -2    1    3    3    0  502 -0.46606476400E+03  0.53204266985E+02  0.23421459727E+04  0.23886596274E+04  0.25500000920E-02 0. -1.
</event>
<event>
 5   0  0.5916603E-06  0.2749023E+04  0.7818609E-02  0.8319272E-01
        2   -1    0    0  501    0  0.00000000000E+00  0.00000000000E+00  0.18103612338E+04  0.18103612338E+04  0.25500000920E-02 0. -1.
       -2   -1    0    0    0  501  0.00000000000E+00  0.00000000000E+00 -0.10435937706E+04  0.10435937706E+04  0.25500000920E-02 0.  1.
    10030    2    1    2    0    0  0.00000000000E+00  0.00000000000E+00  0.76676746320E+03  0.28539550044E+04  0.27490228854E+04 0.  0.
        2    1    3    3  502    0 -0.52317177563E+03 -0.64842663576E+03 -0.75155855627E+03  0.11220543981E+04  0.25500000920E-02 0.  1.
       -2    1    3    3    0  502  0.52317177563E+03  0.64842663576E+03  0.15183260195E+04  0.17319006063E+04  0.25500000920E-02 0. -1.
</event>
<event>
 5   0  0.5916603E-06  0.2787200E+04  0.7818609E-02  0.8307253E-01
        2   -1    0    0  501    0  0.00000000000E+00  0.00000000000E+00  0.17369904903E+04  0.17369904903E+04  0.25500000920E-02 0. -1.
       -2   -1    0    0    0  501  0.00000000000E+00  0.00000000000E+00 -0.11180952261E+04  0.11180952261E+04  0.25500000920E-02 0.  1.
    10030    2    1    2    0    0  0.00000000000E+00  0.00000000000E+00  0.61889526413E+03  0.28550857164E+04  0.27871998672E+04 0.  0.
        2    1    3    3  502    0 -0.75559722140E+03  0.74119956987E+03 -0.61917347193E+03  0.12262462035E+04  0.25500000920E-02 0.  1.
       -2    1    3    3    0  502  0.75559722140E+03 -0.74119956987E+03  0.12380687361E+04  0.16288395128E+04  0.25500000920E-02 0. -1.
</event>
<event>
 5   0  0.2190865E-06  0.2799889E+04  0.7818609E-02  0.8303303E-01
       -1   -1    0    0    0  501  0.00000000000E+00  0.00000000000E+00  0.15466713834E+04  0.15466713834E+04  0.50400001928E-02 0. -1.
        1   -1    0    0  501    0  0.00000000000E+00  0.00000000000E+00 -0.12671367630E+04  0.12671367631E+04  0.50400001928E-02 0.  1.
    10030    2    1    2    0    0  0.00000000000E+00  0.00000000000E+00  0.27953462040E+03  0.28138081465E+04  0.27998886909E+04 0.  0.
        2    1    3    3  502    0  0.12670710975E+04  0.87602435463E+02  0.73150761231E+03  0.14656898511E+04  0.25500000920E-02 0. -1.
       -2    1    3    3    0  502 -0.12670710975E+04 -0.87602435463E+02 -0.45197299191E+03  0.13481182954E+04  0.25500000920E-02 0.  1.
</event>
<event>
 5   0  0.2267565E-06  0.2810938E+04  0.7818609E-02  0.8299881E-01
       -1   -1    0    0    0  501  0.00000000000E+00  0.00000000000E+00  0.15134723513E+04  0.15134723513E+04  0.50400001928E-02 0. -1.
        1   -1    0    0  501    0  0.00000000000E+00  0.00000000000E+00 -0.13051728393E+04  0.13051728393E+04  0.50400001928E-02 0.  1.
    10030    2    1    2    0    0  0.00000000000E+00  0.00000000000E+00  0.20829951200E+03  0.28186451906E+04  0.28109379260E+04 0.  0.
        4    1    3    3  502    0  0.28633885218E+03  0.13382244854E+04 -0.21689475008E+03  0.13855972204E+04  0.12699999809E+01 0. -1.
       -4    1    3    3    0  502 -0.28633885218E+03 -0.13382244854E+04  0.42519426208E+03  0.14330479702E+04  0.12699999809E+01 0.  1.
</event>
<event>
 5   0  0.2234068E-06  0.2819884E+04  0.7818609E-02  0.8297122E-01
       -1   -1    0    0    0  501  0.00000000000E+00  0.00000000000E+00  0.99311970447E+03  0.99311970449E+03  0.50400001928E-02 0.  1.
        1   -1    0    0  501    0  0.00000000000E+00  0.00000000000E+00 -0.20017091213E+04  0.20017091213E+04  0.50400001928E-02 0. -1.
    10030    2    1    2    0    0  0.00000000000E+00  0.00000000000E+00 -0.10085894168E+04  0.29948288258E+04  0.28198842324E+04 0.  0.
        3    1    3    3  502    0  0.27515260398E+02 -0.37954897519E+02  0.99229177606E+03  0.99339853172E+03  0.10100000352E+00 0.  1.
       -3    1    3    3    0  502 -0.27515260398E+02  0.37954897519E+02 -0.20008811929E+04  0.20014302941E+04  0.10100000352E+00 0. -1.
</event>
<event>
 5   0  0.5866136E-06  0.2781710E+04  0.7818609E-02  0.8308969E-01
       -2   -1    0    0    0  501  0.00000000000E+00  0.00000000000E+00  0.96538237245E+03  0.96538237245E+03  0.25500000920E-02 0. -1.
        2   -1    0    0  501    0  0.00000000000E+00  0.00000000000E+00 -0.20038454950E+04  0.20038454950E+04  0.25500000920E-02 0.  1.
    10030    2    1    2    0    0  0.00000000000E+00  0.00000000000E+00 -0.10384631226E+04  0.29692278675E+04  0.27817096311E+04 0.  0.
        5    1    3    3  502    0 -0.85394206329E+03  0.57698053744E+03  0.47771641566E+03  0.11359395459E+04  0.46999998093E+01 0. -1.
       -5    1    3    3    0  502  0.85394206329E+03 -0.57698053744E+03 -0.15161795382E+04  0.18332883216E+04  0.46999998093E+01 0.  1.
</event>
<event>
 5   0  0.2267565E-06  0.2766598E+04  0.7818609E-02  0.8313714E-01
        1   -1    0    0  501    0  0.00000000000E+00  0.00000000000E+00  0.11298160175E+04  0.11298160175E+04  0.50400001928E-02 0.  1.
       -1   -1    0    0    0  501  0.00000000000E+00  0.00000000000E+00 -0.16936522698E+04  0.16936522698E+04  0.50400001928E-02 0. -1.
    10030    2    1    2    0    0  0.00000000000E+00  0.00000000000E+00 -0.56383625234E+03  0.28234682873E+04  0.27665975223E+04 0.  0.
        4    1    3    3  502    0 -0.40971531664E+02  0.30036071748E+03 -0.16593358257E+04  0.16867994019E+04  0.12699999809E+01 0. -1.
       -4    1    3    3    0  502  0.40971531664E+02 -0.30036071748E+03  0.10954995733E+04  0.11366688854E+04  0.12699999809E+01 0.  1.
</event>
<event>
 5   0  0.5866136E-06  0.2793840E+04  0.7818609E-02  0.8305183E-01
        2   -1    0    0  501    0  0.00000000000E+00  0.00000000000E+00  0.11214696385E+04  0.11214696385E+04  0.25500000920E-02 0.  1.
       -2   -1    0    0    0  501  0.00000000000E+00  0.00000000000E+00 -0.17400251547E+04  0.17400251548E+04  0.25500000920E-02 0. -1.
    10030    2    1    2    0    0  0.00000000000E+00  0.00000000000E+00 -0.61855551623E+03  0.28614947933E+04  0.27938399248E+04 0.  0.
        5    1    3    3  502    0  0.11509942753E+04 -0.57060310360E+03  0.25263089423E+03  0.13092823157E+04  0.46999998093E+01 0.  1.
       -5    1    3    3    0  502 -0.11509942753E+04  0.57060310360E+03 -0.87118641047E+03  0.15522124775E+04  0.46999998093E+01 0. -1.
</event>
<event>
 5   0  0.2267565E-06  0.2803552E+04  0.7818609E-02  0.8302166E-01
        1   -1    0    0  501    0  0.00000000000E+00  0.00000000000E+00  0.12938844747E+04  0.12938844747E+04  0.50400001928E-02 0. -1.
       -1   -1    0    0    0  501  0.00000000000E+00  0.00000000000E+00 -0.15186645114E+04  0.15186645114E+04  0.50400001928E-02 0.  1.
    10030    2    1    2    0    0  0.00000000000E+00  0.00000000000E+00 -0.22478003669E+03  0.28125489861E+04  0.28035523420E+04 0.  0.
        4    1    3    3  502    0  0.12962655177E+04  0.48589696098E+03 -0.33349389813E+03  0.14239452033E+04  0.12699999809E+01 0. -1.
       -4    1    3    3    0  502 -0.12962655177E+04 -0.48589696098E+03  0.10871386144E+03  0.13886037828E+04  0.12699999809E+01 0.  1.
</event>
<event>
 5   0  0.1901375E-06  0.2867405E+04  0.7818609E-02  0.8282642E-01
        3   -1    0    0  501    0  0.00000000000E+00  0.00000000000E+00  0.15362308250E+04  0.15362308284E+04  0.10100000352E+00 0. -1.
       -3   -1    0    0    0  501  0.00000000000E+00  0.00000000000E+00 -0.13380170634E+04  0.13380170672E+04  0.10100000352E+00 0.  1.
    10030    2    1    2    0    0  0.00000000000E+00  0.00000000000E+00  0.19821376162E+03  0.28742478956E+04  0.28674051458E+04 0.  0.
        4    1    3    3  502    0  0.56311776484E+03  0.78143064799E+03  0.11636044071E+04  0.15105337811E+04  0.12699999809E+01 0. -1.
       -4    1    3    3    0  502 -0.56311776484E+03 -0.78143064799E+03 -0.96539064551E+03  0.13637141145E+04  0.12699999809E+01 0.  1.
</event>
<event>
 5   0  0.2234068E-06  0.2805212E+04  0.7818609E-02  0.8301652E-01
        1   -1    0    0  501    0  0.00000000000E+00  0.00000000000E+00  0.14624485561E+04  0.14624485561E+04  0.50400001928E-02 0.  1.
       -1   -1    0    0    0  501  0.00000000000E+00  0.00000000000E+00 -0.13452117447E+04  0.13452117447E+04  0.50400001928E-02 0. -1.
    10030    2    1    2    0    0  0.00000000000E+00  0.00000000000E+00  0.11723681143E+03  0.28076603008E+04  0.28052115597E+04 0.  0.
        3    1    3    3  502    0  0.26890945117E+03  0.44623147082E+03  0.13620102005E+04  0.14582546468E+04  0.10100000352E+00 0.  1.
       -3    1    3    3    0  502 -0.26890945117E+03 -0.44623147082E+03 -0.12447733891E+04  0.13494056539E+04  0.10100000352E+00 0. -1.
</event>
<event>
 5   0  0.2234068E-06  0.2801866E+04  0.7818609E-02  0.8302689E-01
       -1   -1    0    0    0  501  0.00000000000E+00  0.00000000000E+00  0.14662119814E+04  0.14662119814E+04  0.50400001928E-02 0. -1.
        1   -1    0    0  501    0  0.00000000000E+00  0.00000000000E+00 -0.13385600379E+04  0.13385600379E+04  0.50400001928E-02 0.  1.
    10030    2    1    2    0    0  0.00000000000E+00  0.00000000000E+00  0.12765194353E+03  0.28047720193E+04  0.28018656395E+04 0.  0.
        3    1    3    3  502    0  0.72664380542E+03  0.84975830913E+03  0.90880602981E+03  0.14408430914E+04  0.10100000352E+00 0. -1.
       -3    1    3    3    0  502 -0.72664380542E+03 -0.84975830913E+03 -0.78115408628E+03  0.13639289280E+04  0.10100000352E+00 0.  1.
</event>
<event>
 5   0  0.5546570E-06  0.2803639E+04  0.7818609E-02  0.8302140E-01
       -2   -1    0    0    0  501  0.00000000000E+00  0.00000000000E+00  0.15231510152E+04  0.15231510152E+04  0.25500000920E-02 0.  1.
        2   -1    0    0  501    0  0.00000000000E+00  0.00000000000E+00 -0.12901527144E+04  0.12901527144E+04  0.25500000920E-02 0. -1.
    10030    2    1    2    0    0  0.00000000000E+00  0.00000000000E+00  0.23299830085E+03  0.28133037296E+04  0.28036386476E+04 0.  0.
        4    1    3    3  502    0 -0.17611020547E+03 -0.95488572191E+02 -0.12757141209E+04  0.12913485212E+04  0.12699999809E+01 0. -1.
       -4    1    3    3    0  502  0.17611020547E+03  0.95488572191E+02  0.15087124218E+04  0.15219552084E+04  0.12699999809E+01 0.  1.
</event>
<event>
 5   0  0.5916603E-06  0.2797080E+04  0.7818609E-02  0.8304176E-01
       -2   -1    0    0    0  501  0.00000000000E+00  0.00000000000E+00  0.14612384413E+04  0.14612384413E+04  0.25500000920E-02 0. -1.
        2   -1    0    0  501    0  0.00000000000E+00  0.00000000000E+00 -0.13385314241E+04  0.13385314241E+04  0.25500000920E-02 0.  1.
    10030    2    1    2    0    0  0.00000000000E+00  0.00000000000E+00  0.12270701720E+03  0.27997698654E+04  0.27970795997E+04 0.  0.
        2    1    3    3  502    0  0.12025636221E+04 -0.58033114561E+03 -0.35494320941E+03  0.13816396729E+04  0.25500000920E-02 0. -1.
       -2    1    3    3    0  502 -0.12025636221E+04  0.58033114561E+03  0.47765022661E+03  0.14181301925E+04  0.25500000920E-02 0.  1.
</event>
<event>
 5   0  0.2234068E-06  0.2798884E+04  0.7818609E-02  0.8303615E-01
        1   -1    0    0  501    0  0.00000000000E+00  0.00000000000E+00  0.14619359373E+04  0.14619359373E+04  0.50400001928E-02 0. -1.
       -1   -1    0    0    0  501  0.00000000000E+00  0.00000000000E+00 -0.13396197463E+04  0.13396197463E+04  0.50400001928E-02 0.  1.
    10030    2    1    2    0    0  0.00000000000E+00  0.00000000000E+00  0.12231619097E+03  0.28015556837E+04  0.27988842416E+04 0.  0.
        3    1    3    3  502    0 -0.26268042243E+03 -0.39417125755E+03 -0.12569382787E+04  0.13432296272E+04  0.10100000352E+00 0.  1.
       -3    1    3    3    0  502  0.26268042243E+03  0.39417125755E+03  0.13792544697E+04  0.14583260565E+04  0.10100000352E+00 0. -1.
</event>
<event>
 5   0  0.5625245E-06  0.2806848E+04  0.7818609E-02  0.8301146E-01
       -2   -1    0    0    0  501  0.00000000000E+00  0.00000000000E+00  0.13524648467E+04  0.13524648467E+04  0.25500000920E-02 0. -1.
        2   -1    0    0  501    0  0.00000000000E+00  0.00000000000E+00 -0.14563030110E+04  0.14563030110E+04  0.25500000920E-02 0.  1.
    10030    2    1    2    0    0  0.00000000000E+00  0.00000000000E+00 -0.10383816432E+03  0.28087678576E+04  0.28068477896E+04 0.  0.
        3    1    3    3  502    0 -0.43278430421E+03 -0.84437614965E+03  0.98287015237E+03  0.13661285015E+04  0.10100000352E+00 0. -1.
       -3    1    3    3    0  502  0.43278430421E+03  0.84437614965E+03 -0.10867083167E+04  0.14426393561E+04  0.10100000352E+00 0.  1.
</event>
<event>
 5   0  0.2277133E-06  0.2787044E+04  0.7818609E-02  0.8307302E-01
        1   -1    0    0  501    0  0.00000000000E+00  0.00000000000E+00  0.13412628239E+04  0.13412628239E+04  0.50400001928E-02 0.  1.
       -1   -1    0    0    0  501  0.00000000000E+00  0.00000000000E+00 -0.14478168746E+04  0.14478168746E+04  0.50400001928E-02 0. -1.
    10030    2    1    2    0    0  0.00000000000E+00  0.00000000000E+00 -0.10655405075E+03  0.27890796985E+04  0.27870435588E+04 0.  0.
        1    1    3    3  502    0 -0.13010858841E+04 -0.40619056561E+03 -0.34346766216E+03  0.14056262975E+04  0.50400001928E-02 0. -1.
       -1    1    3    3    0  502  0.13010858841E+04  0.40619056561E+03  0.23691361141E+03  0.13834534010E+04  0.50400001928E-02 0.  1.
</event>
<event>
 5   0  0.2267565E-06  0.2795071E+04  0.7818609E-02  0.8304800E-01
       -1   -1    0    0    0  501  0.00000000000E+00  0.00000000000E+00  0.13214309019E+04  0.13214309019E+04  0.50400001928E-02 0. -1.
        1   -1    0    0  501    0  0.00000000000E+00  0.00000000000E+00 -0.14780236125E+04  0.14780236125E+04  0.50400001928E-02 0.  1.
    10030    2    1    2    0    0  0.00000000000E+00  0.00000000000E+00 -0.15659271059E+03  0.27994545143E+04  0.27950714304E+04 0.  0.
        4    1    3    3  502    0  0.12574512043E+04 -0.52530029056E+03 -0.38858943460E+03  0.14170840794E+04  0.12699999809E+01 0.  1.
       -4    1    3    3    0  502 -0.12574512043E+04  0.52530029056E+03  0.23199672402E+03  0.13823704349E+04  0.12699999809E+01 0. -1.
</event>
<event>
 5   0  0.2206967E-06  0.2855210E+04  0.7818609E-02  0.8286330E-01
        1   -1    0    0  501    0  0.00000000000E+00  0.00000000000E+00  0.19824527135E+04  0.19824527135E+04  0.50400001928E-02 0. -1.
       -1   -1    0    0    0  501  0.00000000000E+00  0.00000000000E+00 -0.10280474021E+04  0.10280474021E+04  0.50400001928E-02 0.  1.
    10030    2    1    2    0    0  0.00000000000E+00  0.00000000000E+00  0.95440531138E+03  0.30105001156E+04  0.28552095278E+04 0.  0.
        5    1    3    3  502    0 -0.58938838392E+03  0.10770090050E+04  0.12453203117E+04  0.17487629435E+04  0.46999998093E+01 0. -1.
       -5    1    3    3    0  502  0.58938838392E+03 -0.10770090050E+04 -0.29091500032E+03  0.12617371721E+04  0.46999998093E+01 0.  1.
</event>
<event>
 5   0  0.5625245E-06  0.2793327E+04  0.7818609E-02  0.8305343E-01
        2   -1    0    0  501    0  0.00000000000E+00  0.00000000000E+00  0.13349888941E+04  0.13349888941E+04  0.25500000920E-02 0.  1.
       -2   -1    0    0    0  501  0.00000000000E+00  0.00000000000E+00 -0.14611874307E+04  0.14611874307E+04  0.25500000920E-02 0. -1.
    10030    2    1    2    0    0  0.00000000000E+00  0.00000000000E+00 -0.12619853664E+03  0.27961763248E+04  0.27933270429E+04 0.  0.
        3    1    3    3  502    0 -0.32935065569E+03 -0.67711812382E+03  0.11144118636E+04  0.13449440955E+04  0.10100000352E+00 0.  1.
       -3    1    3    3    0  502  0.32935065569E+03  0.67711812382E+03 -0.12406104003E+04  0.14512322293E+04  0.10100000352E+00 0. -1.
</event>
<event>
 5   0  0.2277133E-06  0.2807832E+04  0.7818609E-02  0.8300841E-01
        1   -1    0    0  501    0  0.00000000000E+00  0.00000000000E+00  0.12369050324E+04  0.12369050324E+04  0.50400001928E-02 0. -1.
       -1   -1    0    0    0  501  0.00000000000E+00  0.00000000000E+00 -0.15934776260E+04  0.15934776260E+04  0.50400001928E-02 0.  1.
    10030    2    1    2    0    0  0.00000000000E+00  0.00000000000E+00 -0.35657259363E+03  0.28303826584E+04  0.28078322561E+04 0.  0.
        1    1    3    3  502    0  0.56586377697E+03  0.11810255780E+04 -0.68827167662E+03  0.14794394651E+04  0.50400001928E-02 0.  1.
       -1    1    3    3    0  502 -0.56586377697E+03 -0.11810255780E+04  0.33169908299E+03  0.13509431933E+04  0.50400001928E-02 0. -1.
</event>
<event>
 5   0  0.5584205E-06  0.2789843E+04  0.7818609E-02  0.8306429E-01
       -2   -1    0    0    0  501  0.00000000000E+00  0.00000000000E+00  0.94148558510E+03  0.94148558510E+03  0.25500000920E-02 0.  1.
        2   -1    0    0  501    0  0.00000000000E+00  0.00000000000E+00 -0.20667396250E+04  0.20667396250E+04  0.25500000920E-02 0. -1.
    10030    2    1    2    0    0  0.00000000000E+00  0.00000000000E+00 -0.11252540399E+04  0.30082252101E+04  0.27898426946E+04 0.  0.
        1    1    3    3  502    0  0.53652807744E+03  0.12675297451E+04 -0.80687901661E+03  0.15954772892E+04  0.50400001928E-02 0.  1.
       -1    1    3    3    0  502 -0.53652807744E+03 -0.12675297451E+04 -0.31837502331E+03  0.14127479210E+04  0.50400001928E-02 0. -1.
</event>
<event>
 5   0  0.2267565E-06  0.2796111E+04  0.7818609E-02  0.8304477E-01
       -1   -1    0    0    0  501  0.00000000000E+00  0.00000000000E+00  0.10452324338E+04  0.10452324338E+04  0.50400001928E-02 0.  1.
        1   -1    0    0  501    0  0.00000000000E+00  0.00000000000E+00 -0.18699759664E+04  0.18699759664E+04  0.50400001928E-02 0. -1.
    10030    2    1    2    0    0  0.00000000000E+00  0.00000000000E+00 -0.82474353261E+03  0.29152084002E+04  0.27961112499E+04 0.  0.
        4    1    3    3  502    0  0.14538721367E+03  0.12671500309E+04 -0.10092522168E+04  0.16264680423E+04  0.12699999809E+01 0. -1.
       -4    1    3    3    0  502 -0.14538721367E+03 -0.12671500309E+04  0.18450868415E+03  0.12887403579E+04  0.12699999809E+01 0.  1.
</event>
<event>
 5   0  0.2206967E-06  0.2819573E+04  0.7818609E-02  0.8297217E-01
        1   -1    0    0  501    0  0.00000000000E+00  0.00000000000E+00  0.27494659881E+04  0.27494659881E+04  0.50400001928E-02 0. -1.
       -1   -1    0    0    0  501  0.00000000000E+00  0.00000000000E+00 -0.72286678138E+03  0.72286678140E+03  0.50400001928E-02 0.  1.
    10030    2    1    2    0    0  0.00000000000E+00  0.00000000000E+00  0.20265992067E+04  0.34723327695E+04  0.28195727544E+04 0.  0.
        5    1    3    3  502    0 -0.30319276356E+03  0.90989902216E+03 -0.25917499377E+03  0.99349677895E+03  0.46999998093E+01 0.  1.
       -5    1    3    3    0  502  0.30319276356E+03 -0.90989902216E+03  0.22857742005E+04  0.24788359905E+04  0.46999998093E+01 0. -1.
</event>
<event>
 5   0  0.2190865E-06  0.2818613E+04  0.7818609E-02  0.8297513E-01
       -1   -1    0    0    0  501  0.00000000000E+00  0.00000000000E+00  0.11583329688E+04  0.11583329688E+04  0.50400001928E-02 0. -1.
        1   -1    0    0  501    0  0.00000000000E+00  0.00000000000E+00 -0.17146584239E+04  0.17146584239E+04  0.50400001928E-02 0.  1.
    10030    2    1    2    0    0  0.00000000000E+00  0.00000000000E+00 -0.55632545510E+03  0.28729913927E+04  0.28186134056E+04 0.  0.
        2    1    3    3  502    0 -0.35056231156E+03  0.91068545365E+03 -0.13145899335E+04  0.16371892447E+04  0.25500000920E-02 0.  1.
       -2    1    3    3    0  502  0.35056231156E+03 -0.91068545365E+03  0.75826447836E+03  0.12358021480E+04  0.25500000920E-02 0. -1.
</event>
<event>
 5   0  0.2267565E-06  0.2790134E+04  0.7818609E-02  0.8306338E-01
        1   -1    0    0  501    0  0.00000000000E+00  0.00000000000E+00  0.15759087779E+04  0.15759087779E+04  0.50400001928E-02 0.  1.
       -1   -1    0    0    0  501  0.00000000000E+00  0.00000000000E+00 -0.12349778624E+04  0.12349778624E+04  0.50400001928E-02 0. -1.
    10030    2    1    2    0    0  0.00000000000E+00  0.00000000000E+00  0.34093091547E+03  0.28108866403E+04  0.27901343723E+04 0.  0.
        4    1    3    3  502    0  0.34517559218E+03 -0.26510337634E+03  0.15057613132E+04  0.15674006299E+04  0.12699999809E+01 0.  1.
       -4    1    3    3    0  502 -0.34517559218E+03  0.26510337634E+03 -0.11648303977E+04  0.12434860103E+04  0.12699999809E+01 0. -1.
</event>
<event>
 5   0  0.2206967E-06  0.2762493E+04  0.7818609E-02  0.8315008E-01
        1   -1    0    0  501    0  0.00000000000E+00  0.00000000000E+00  0.26438398223E+04  0.26438398223E+04  0.50400001928E-02 0. -1.
       -1   -1    0    0    0  501  0.00000000000E+00  0.00000000000E+00 -0.72161783030E+03  0.72161783032E+03  0.50400001928E-02 0.  1.
    10030    2    1    2    0    0  0.00000000000E+00  0.00000000000E+00  0.19222219920E+04  0.33654576526E+04  0.27624930452E+04 0.  0.
        5    1    3    3  502    0  0.13147256563E+04  0.23191353759E+03  0.13927502149E+04  0.19292648059E+04  0.46999998093E+01 0. -1.
       -5    1    3    3    0  502 -0.13147256563E+04 -0.23191353759E+03  0.52947177706E+03  0.14361928467E+04  0.46999998093E+01 0.  1.
</event>
<event>
 5   0  0.5916603E-06  0.2809136E+04  0.7818609E-02  0.8300438E-01
        2   -1    0    0  501    0  0.00000000000E+00  0.00000000000E+00  0.24568861694E+04  0.24568861694E+04  0.25500000920E-02 0.  1.
       -2   -1    0    0    0  501  0.00000000000E+00  0.00000000000E+00 -0.80297233668E+03  0.80297233668E+03  0.25500000920E-02 0. -1.
    10030    2    1    2    0    0  0.00000000000E+00  0.00000000000E+00  0.16539138327E+04  0.32598585061E+04  0.28091362576E+04 0.  0.
        2    1    3    3  502    0  0.62066479272E+03  0.12588474599E+04  0.76457358477E+03  0.15982785986E+04  0.25500000920E-02 0.  1.
       -2    1    3    3    0  502 -0.62066479272E+03 -0.12588474599E+04  0.88934024798E+03  0.16615799075E+04  0.25500000920E-02 0. -1.
</event>
<event>
 5   0  0.2277133E-06  0.2844561E+04  0.7818609E-02  0.8289566E-01
       -1   -1    0    0    0  501  0.00000000000E+00  0.00000000000E+00  0.81056768578E+03  0.81056768580E+03  0.50400001928E-02 0.  1.
        1   -1    0    0  501    0  0.00000000000E+00  0.00000000000E+00 -0.24956367526E+04  0.24956367526E+04  0.50400001928E-02 0. -1.
    10030    2    1    2    0    0  0.00000000000E+00  0.00000000000E+00 -0.16850690668E+04  0.33062044384E+04  0.28445614826E+04 0.  0.
        1    1    3    3  502    0 -0.88964081944E+03 -0.26306464402E+03 -0.20955554228E+04  0.22917278033E+04  0.50400001928E-02 0. -1.
       -1    1    3    3    0  502  0.88964081944E+03  0.26306464402E+03  0.41048635600E+03  0.10144766350E+04  0.50400001928E-02 0.  1.
</event>
<event>
 5   0  0.2277133E-06  0.2801848E+04  0.7818609E-02  0.8302695E-01
        1   -1    0    0  501    0  0.00000000000E+00  0.00000000000E+00  0.30324853043E+04  0.30324853043E+04  0.50400001928E-02 0.  1.
       -1   -1    0    0    0  501  0.00000000000E+00  0.00000000000E+00 -0.64718783874E+03  0.64718783876E+03  0.50400001928E-02 0. -1.
    10030    2    1    2    0    0  0.00000000000E+00  0.00000000000E+00  0.23852974656E+04  0.36796731431E+04  0.28018476834E+04 0.  0.
        1    1    3    3  502    0 -0.98051335132E+03 -0.29857685986E+03  0.24468580018E+04  0.26528604664E+04  0.50400001928E-02 0.  1.
       -1    1    3    3    0  502  0.98051335132E+03  0.29857685986E+03 -0.61560536191E+02  0.10268126767E+04  0.50400001928E-02 0. -1.
</event>
<event>
 5   0  0.2277133E-06  0.2845459E+04  0.7818609E-02  0.8289292E-01
        1   -1    0    0  501    0  0.00000000000E+00  0.00000000000E+00  0.11570077120E+04  0.11570077121E+04  0.50400001928E-02 0. -1.
       -1   -1    0    0    0  501  0.00000000000E+00  0.00000000000E+00 -0.17494781319E+04  0.17494781320E+04  0.50400001928E-02 0.  1.
    10030    2    1    2    0    0  0.00000000000E+00  0.00000000000E+00 -0.59247041990E+03  0.29064858440E+04  0.28454593237E+04 0.  0.
        1    1    3    3  502    0 -0.71940874758E+03 -0.43880850857E+03 -0.14671440122E+04  0.16919259458E+04  0.50400001928E-02 0.  1.
       -1    1    3    3    0  502  0.71940874758E+03  0.43880850857E+03  0.87467359233E+03  0.12145598982E+04  0.50400001928E-02 0. -1.
</event>
<event>
 5   0  0.5546570E-06  0.2800780E+04  0.7818609E-02  0.8303026E-01
       -2   -1    0    0    0  501  0.00000000000E+00  0.00000000000E+00  0.88380321494E+03  0.88380321494E+03  0.25500000920E-02 0.  1.
        2   -1    0    0  501    0  0.00000000000E+00  0.00000000000E+00 -0.22189234422E+04  0.22189234422E+04  0.25500000920E-02 0. -1.
    10030    2    1    2    0    0  0.00000000000E+00  0.00000000000E+00 -0.13351202273E+04  0.31027266571E+04  0.28007796571E+04 0.  0.
        4    1    3    3  502    0  0.13030212175E+04 -0.18017889828E+03 -0.11997248474E+04  0.17803567201E+04  0.12699999809E+01 0. -1.
       -4    1    3    3    0  502 -0.13030212175E+04  0.18017889828E+03 -0.13539537989E+03  0.13223699370E+04  0.12699999809E+01 0.  1.
</event>
<event>
 5   0  0.2234068E-06  0.2808820E+04  0.7818609E-02  0.8300535E-01
       -1   -1    0    0    0  501  0.00000000000E+00  0.00000000000E+00  0.15253525085E+04  0.15253525085E+04  0.50400001928E-02 0.  1.
        1   -1    0    0  501    0  0.00000000000E+00  0.00000000000E+00 -0.12930571952E+04  0.12930571952E+04  0.50400001928E-02 0. -1.
    10030    2    1    2    0    0  0.00000000000E+00  0.00000000000E+00  0.23229531338E+03  0.28184097037E+04  0.28088204189E+04 0.  0.
        3    1    3    3  502    0 -0.92954442792E+03 -0.95196043330E+03  0.56722272160E+03  0.14463827765E+04  0.10100000352E+00 0.  1.
       -3    1    3    3    0  502  0.92954442792E+03  0.95196043330E+03 -0.33492740822E+03  0.13720269272E+04  0.10100000352E+00 0. -1.
</event>
<event>
 5   0  0.5546570E-06  0.2741205E+04  0.7818609E-02  0.8321758E-01
        2   -1    0    0  501    0  0.00000000000E+00  0.00000000000E+00  0.14518197706E+04  0.14518197706E+04  0.25500000920E-02 0. -1.
       -2   -1    0    0    0  501  0.00000000000E+00  0.00000000000E+00 -0.12939287628E+04  0.12939287628E+04  0.25500000920E-02 0.  1.
    10030    2    1    2    0    0  0.00000000000E+00  0.00000000000E+00  0.15789100780E+03  0.27457485334E+04  0.27412051069E+04 0.  0.
        4    1    3    3  502    0  0.11992172669E+04 -0.66163167948E+03  0.27176050504E+02  0.13698973258E+04  0.12699999809E+01 0.  1.
       -4    1    3    3    0  502 -0.11992172669E+04  0.66163167948E+03  0.13071495729E+03  0.13758512076E+04  0.12699999809E+01 0. -1.
</event>
<event>
 5   0  0.5625245E-06  0.2818467E+04  0.7818609E-02  0.8297558E-01
       -2   -1    0    0    0  501  0.00000000000E+00  0.00000000000E+00  0.74261273532E+03  0.74261273533E+03  0.25500000920E-02 0.  1.
        2   -1    0    0  501    0  0.00000000000E+00  0.00000000000E+00 -0.26742595811E+04  0.26742595811E+04  0.25500000920E-02 0. -1.
    10030    2    1    2    0    0  0.00000000000E+00  0.00000000000E+00 -0.19316468458E+04  0.34168723164E+04  0.28184671171E+04 0.  0.
        3    1    3    3  502    0  0.98790372933E+03  0.90918563281E+02 -0.21791809466E+04  0.23943787444E+04  0.10100000352E+00 0. -1.
       -3    1    3    3    0  502 -0.98790372933E+03 -0.90918563281E+02  0.24753410079E+03  0.10224935720E+04  0.10100000352E+00 0.  1.
</event>
<event>
 5   0  0.5584205E-06  0.2685495E+04  0.7818609E-02  0.8339727E-01
        2   -1    0    0  501    0  0.00000000000E+00  0.00000000000E+00  0.20518150562E+04  0.20518150562E+04  0.25500000920E-02 0.  1.
       -2   -1    0    0    0  501  0.00000000000E+00  0.00000000000E+00 -0.87872018823E+03  0.87872018823E+03  0.25500000920E-02 0. -1.
    10030    2    1    2    0    0  0.00000000000E+00  0.00000000000E+00  0.11730948680E+04  0.29305352444E+04  0.26854953453E+04 0.  0.
        1    1    3    3  502    0  0.33180487921E+03 -0.23617377466E+03  0.19827871510E+04  0.20241831479E+04  0.50400001928E-02 0.  1.
       -1    1    3    3    0  502 -0.33180487921E+03  0.23617377466E+03 -0.80969228307E+03  0.90635209658E+03  0.50400001928E-02 0. -1.
</event>
<event>
 5   0  0.5546570E-06  0.2824691E+04  0.7818609E-02  0.8295643E-01
       -2   -1    0    0    0  501  0.00000000000E+00  0.00000000000E+00  0.97700522944E+03  0.97700522944E+03  0.25500000920E-02 0. -1.
        2   -1    0    0  501    0  0.00000000000E+00  0.00000000000E+00 -0.20416681929E+04  0.20416681929E+04  0.25500000920E-02 0.  1.
    10030    2    1    2    0    0  0.00000000000E+00  0.00000000000E+00 -0.10646629634E+04  0.30186734223E+04  0.28246914884E+04 0.  0.
        4    1    3    3  502    0 -0.92543877494E+03 -0.84669616271E+03 -0.12260542848E+04  0.17540074231E+04  0.12699999809E+01 0.  1.
       -4    1    3    3    0  502  0.92543877494E+03  0.84669616271E+03  0.16139132134E+03  0.12646659992E+04  0.12699999809E+01 0. -1.
</event>
<event>
 5   0  0.2234068E-06  0.2806172E+04  0.7818609E-02  0.8301355E-01
        1   -1    0    0  501    0  0.00000000000E+00  0.00000000000E+00  0.10695995394E+04  0.10695995394E+04  0.50400001928E-02 0. -1.
       -1   -1    0    0    0  501  0.00000000000E+00  0.00000000000E+00 -0.18405489223E+04  0.18405489223E+04  0.50400001928E-02 0.  1.
    10030    2    1    2    0    0  0.00000000000E+00  0.00000000000E+00 -0.77094938287E+03  0.29101484617E+04  0.28061719687E+04 0.  0.
        3    1    3    3  502    0 -0.66433714632E+03  0.97965400812E+03  0.39582221967E+03  0.12480949721E+04  0.10100000352E+00 0.  1.
       -3    1    3    3    0  502  0.66433714632E+03 -0.97965400812E+03 -0.11667716025E+04  0.16620534896E+04  0.10100000352E+00 0. -1.
</event>
<event>
 5   0  0.5625245E-06  0.2847228E+04  0.7818609E-02  0.8288754E-01
        2   -1    0    0  501    0  0.00000000000E+00  0.00000000000E+00  0.15267797238E+04  0.15267797238E+04  0.25500000920E-02 0. -1.
       -2   -1    0    0    0  501  0.00000000000E+00  0.00000000000E+00 -0.13274196586E+04  0.13274196586E+04  0.25500000920E-02 0.  1.
    10030    2    1    2    0    0  0.00000000000E+00  0.00000000000E+00  0.19936006519E+03  0.28541993824E+04  0.28472284205E+04 0.  0.
        3    1    3    3  502    0 -0.90153122180E+03  0.10844226553E+04 -0.95595179293E+02  0.14134601118E+04  0.10100000352E+00 0. -1.
       -3    1    3    3    0  502  0.90153122180E+03 -0.10844226553E+04  0.29495524448E+03  0.14407392705E+04  0.10100000352E+00 0.  1.
</event>
<event>
 5   0  0.2234068E-06  0.2811181E+04  0.7818609E-02  0.8299805E-01
        1   -1    0    0  501    0  0.00000000000E+00  0.00000000000E+00  0.23509940535E+04  0.23509940536E+04  0.50400001928E-02 0.  1.
       -1   -1    0    0    0  501  0.00000000000E+00  0.00000000000E+00 -0.84036157805E+03  0.84036157807E+03  0.50400001928E-02 0. -1.
    10030    2    1    2    0    0  0.00000000000E+00  0.00000000000E+00  0.15106324755E+04  0.31913556316E+04  0.28111812982E+04 0.  0.
        3    1    3    3  502    0  0.96632052649E+03  0.92714751779E+03  0.12400332228E+04  0.18251192518E+04  0.10100000352E+00 0.  1.
       -3    1    3    3    0  502 -0.96632052649E+03 -0.92714751779E+03  0.27059925273E+03  0.13662363798E+04  0.10100000352E+00 0. -1.
</event>
<event>
 5   0  0.5546570E-06  0.2523602E+04  0.7818609E-02  0.8394625E-01
        2   -1    0    0  501    0  0.00000000000E+00  0.00000000000E+00  0.14878634041E+04  0.14878634041E+04  0.25500000920E-02 0. -1.
       -2   -1    0    0    0  501  0.00000000000E+00  0.00000000000E+00 -0.10700863916E+04  0.10700863916E+04  0.25500000920E-02 0.  1.
    10030    2    1    2    0    0  0.00000000000E+00  0.00000000000E+00  0.41777701258E+03  0.25579497957E+04  0.25236024895E+04 0.  0.
        4    1    3    3  502    0  0.22810593440E+03  0.69400666577E+02  0.14648217687E+04  0.14841001303E+04  0.12699999809E+01 0. -1.
       -4    1    3    3    0  502 -0.22810593440E+03 -0.69400666577E+02 -0.10470447561E+04  0.10738496654E+04  0.12699999809E+01 0.  1.
</event>
<event>
 5   0  0.5916603E-06  0.2770614E+04  0.7818609E-02  0.8312450E-01
       -2   -1    0    0    0  501  0.00000000000E+00  0.00000000000E+00  0.83754196574E+03  0.83754196574E+03  0.25500000920E-02 0. -1.
        2   -1    0    0  501    0  0.00000000000E+00  0.00000000000E+00 -0.22913178699E+04  0.22913178699E+04  0.25500000920E-02 0.  1.
    10030    2    1    2    0    0  0.00000000000E+00  0.00000000000E+00 -0.14537759042E+04  0.31288598357E+04  0.27706135587E+04 0.  0.
        2    1    3    3  502    0  0.46375593487E+03  0.10985338555E+04  0.69433171074E+02  0.11944317327E+04  0.25500000920E-02 0. -1.
       -2    1    3    3    0  502 -0.46375593487E+03 -0.10985338555E+04 -0.15232090753E+04  0.19344281030E+04  0.25500000920E-02 0.  1.
</event>
<event>
 5   0  0.5584205E-06  0.2818216E+04  0.7818609E-02  0.8297635E-01
       -2   -1    0    0    0  501  0.00000000000E+00  0.00000000000E+00  0.19327830255E+04  0.19327830255E+04  0.25500000920E-02 0. -1.
        2   -1    0    0  501    0  0.00000000000E+00  0.00000000000E+00 -0.10273195681E+04  0.10273195681E+04  0.25500000920E-02 0.  1.
    10030    2    1    2    0    0  0.00000000000E+00  0.00000000000E+00  0.90546345744E+03  0.29601025936E+04  0.28182163316E+04 0.  0.
        1    1    3    3  502    0  0.93239209597E+03 -0.86960649457E+03 -0.17748937703E+03  0.12872734577E+04  0.50400001928E-02 0. -1.
       -1    1    3    3    0  502 -0.93239209597E+03  0.86960649457E+03  0.10829528345E+04  0.16728291358E+04  0.50400001928E-02 0.  1.
</event>
<event>
 5   0  0.5625245E-06  0.2797328E+04  0.7818609E-02  0.8304098E-01
        2   -1    0    0  501    0  0.00000000000E+00  0.00000000000E+00  0.22292246675E+04  0.22292246675E+04  0.25500000920E-02 0. -1.
       -2   -1    0    0    0  501  0.00000000000E+00  0.00000000000E+00 -0.87755242565E+03  0.87755242565E+03  0.25500000920E-02 0.  1.
    10030    2    1    2    0    0  0.00000000000E+00  0.00000000000E+00  0.13516722419E+04  0.31067770932E+04  0.27973283785E+04 0.  0.
        3    1    3    3  502    0 -0.13765359846E+04 -0.12804124955E+03  0.91147572745E+03  0.16559087808E+04  0.10100000352E+00 0.  1.
       -3    1    3    3    0  502  0.13765359846E+04  0.12804124955E+03  0.44019651441E+03  0.14508683124E+04  0.10100000352E+00 0. -1.
</event>
<event>
 5   0  0.5916603E-06  0.2807058E+04  0.7818609E-02  0.8301080E-01
       -2   -1    0    0    0  501  0.00000000000E+00  0.00000000000E+00  0.17874281501E+04  0.17874281501E+04  0.25500000920E-02 0. -1.
        2   -1    0    0  501    0  0.00000000000E+00  0.00000000000E+00 -0.11020827954E+04  0.11020827954E+04  0.25500000920E-02 0.  1.
    10030    2    1    2    0    0  0.00000000000E+00  0.00000000000E+00  0.68534535467E+03  0.28895109455E+04  0.28070581129E+04 0.  0.
        2    1    3    3  502    0 -0.69377663362E+02 -0.77553463097E+03  0.15447175230E+04  0.17298611071E+04  0.25500000920E-02 0. -1.
       -2    1    3    3    0  502  0.69377663362E+02  0.77553463097E+03 -0.85937216835E+03  0.11596498384E+04  0.25500000920E-02 0.  1.
</event>
<event>
 5   0  0.2190865E-06  0.2701907E+04  0.7818609E-02  0.8334386E-01
        1   -1    0    0  501    0  0.00000000000E+00  0.00000000000E+00  0.16975877621E+04  0.16975877621E+04  0.50400001928E-02 0.  1.
       -1   -1    0    0    0  501  0.00000000000E+00  0.00000000000E+00 -0.10750995356E+04  0.10750995356E+04  0.50400001928E-02 0. -1.
    10030    2    1    2    0    0  0.00000000000E+00  0.00000000000E+00  0.62248822654E+03  0.27726872977E+04  0.27019073372E+04 0.  0.
        2    1    3    3  502    0 -0.70065251022E+03  0.78990210992E+03 -0.55357609775E+03  0.11921852957E+04  0.25500000920E-02 0. -1.
       -2    1    3    3    0  502  0.70065251022E+03 -0.78990210992E+03  0.11760643243E+04  0.15805020020E+04  0.25500000920E-02 0.  1.
</event>
<event>
 5   0  0.2190865E-06  0.2793403E+04  0.7818609E-02  0.8305319E-01
       -1   -1    0    0    0  501  0.00000000000E+00  0.00000000000E+00  0.86178305842E+03  0.86178305844E+03  0.50400001928E-02 0.  1.
        1   -1    0    0  501    0  0.00000000000E+00  0.00000000000E+00 -0.22636503174E+04  0.22636503174E+04  0.50400001928E-02 0. -1.
    10030    2    1    2    0    0  0.00000000000E+00  0.00000000000E+00 -0.14018672590E+04  0.31254333758E+04  0.27934032962E+04 0.  0.
        2    1    3    3  502    0  0.88508257929E+03  0.10558301749E+04 -0.44426029055E+03  0.14475896297E+04  0.25500000920E-02 0.  1.
       -2    1    3    3    0  502 -0.88508257929E+03 -0.10558301749E+04 -0.95760696843E+03  0.16778437461E+04  0.25500000920E-02 0. -1.
</event>
<event>
 5   0  0.2267565E-06  0.2803522E+04  0.7818609E-02  0.8302176E-01
        1   -1    0    0  501    0  0.00000000000E+00  0.00000000000E+00  0.20958480828E+04  0.20958480828E+04  0.50400001928E-02 0. -1.
       -1   -1    0    0    0  501  0.00000000000E+00  0.00000000000E+00 -0.93753631038E+03  0.93753631040E+03  0.50400001928E-02 0.  1.
    10030    2    1    2    0    0  0.00000000000E+00  0.00000000000E+00  0.11583117724E+04  0.30333843932E+04  0.28035218413E+04 0.  0.
        4    1    3    3  502    0  0.12054874531E+04  0.25201657046E+03 -0.14522833430E+03  0.12400827526E+04  0.12699999809E+01 0.  1.
       -4    1    3    3    0  502 -0.12054874531E+04 -0.25201657046E+03  0.13035401067E+04  0.17933016406E+04  0.12699999809E+01 0. -1.
</event>
<event>
 5   0  0.2206967E-06  0.2744198E+04  0.7818609E-02  0.8320805E-01
       -1   -1    0    0    0  501  0.00000000000E+00  0.00000000000E+00  0.15363848451E+04  0.15363848451E+04  0.50400001928E-02 0. -1.
        1   -1    0    0  501    0  0.00000000000E+00  0.00000000000E+00 -0.12253798631E+04  0.12253798631E+04  0.50400001928E-02 0.  1.
    10030    2    1    2    0    0  0.00000000000E+00  0.00000000000E+00  0.31100498205E+03  0.27617647082E+04  0.27441975521E+04 0.  0.
        5    1    3    3  502    0 -0.50424168238E+03  0.52137737924E+03 -0.10166589516E+04  0.12488841258E+04  0.46999998093E+01 0.  1.
       -5    1    3    3    0  502  0.50424168238E+03 -0.52137737924E+03  0.13276639337E+04  0.15128805824E+04  0.46999998093E+01 0. -1.
</event>
<event>
 5   0  0.2206967E-06  0.2794651E+04  0.7818609E-02  0.8304931E-01
       -1   -1    0    0    0  501  0.00000000000E+00  0.00000000000E+00  0.11759626992E+04  0.11759626992E+04  0.50400001928E-02 0. -1.
        1   -1    0    0  501    0  0.00000000000E+00  0.00000000000E+00 -0.16603574229E+04  0.16603574229E+04  0.50400001928E-02 0.  1.
    10030    2    1    2    0    0  0.00000000000E+00  0.00000000000E+00 -0.48439472369E+03  0.28363201222E+04  0.27946508882E+04 0.  0.
        5    1    3    3  502    0  0.52413434057E+03 -0.38878141732E+02  0.10718148731E+04  0.11937493578E+04  0.46999998093E+01 0. -1.
       -5    1    3    3    0  502 -0.52413434057E+03  0.38878141732E+02 -0.15562095968E+04  0.16425707644E+04  0.46999998093E+01 0.  1.
</event>
<event>
 5   0  0.5625245E-06  0.2840368E+04  0.7818609E-02  0.8290844E-01
       -2   -1    0    0    0  501  0.00000000000E+00  0.00000000000E+00  0.11307758652E+04  0.11307758652E+04  0.25500000920E-02 0. -1.
        2   -1    0    0  501    0  0.00000000000E+00  0.00000000000E+00 -0.17836627005E+04  0.17836627005E+04  0.25500000920E-02 0.  1.
    10030    2    1    2    0    0  0.00000000000E+00  0.00000000000E+00 -0.65288683528E+03  0.29144385656E+04  0.28403680982E+04 0.  0.
        3    1    3    3  502    0 -0.58988790786E+03  0.10176301444E+04  0.49016486031E+03  0.12742842913E+04  0.10100000352E+00 0. -1.
       -3    1    3    3    0  502  0.58988790786E+03 -0.10176301444E+04 -0.11430516956E+04  0.16401542743E+04  0.10100000352E+00 0.  1.
</event>
<event>
 5   0  0.5625245E-06  0.2791704E+04  0.7818609E-02  0.8305848E-01
        2   -1    0    0  501    0  0.00000000000E+00  0.00000000000E+00  0.22173913812E+04  0.22173913812E+04  0.25500000920E-02 0.  1.
       -2   -1    0    0    0  501  0.00000000000E+00  0.00000000000E+00 -0.87869167387E+03  0.87869167387E+03  0.25500000920E-02 0. -1.
    10030    2    1    2    0    0  0.00000000000E+00  0.00000000000E+00  0.13386997073E+04  0.30960830551E+04  0.27917043858E+04 0.  0.
        3    1    3    3  502    0  0.29825069892E+03  0.51684210371E+02 -0.84185463318E+03  0.89461945575E+03  0.10100000352E+00 0. -1.
       -3    1    3    3    0  502 -0.29825069892E+03 -0.51684210371E+02  0.21805543405E+04  0.22014635993E+04  0.10100000352E+00 0.  1.
</event>
<event>
 5   0  0.1901375E-06  0.2787920E+04  0.7818609E-02  0.8307029E-01
        3   -1    0    0  501    0  0.00000000000E+00  0.00000000000E+00  0.11768028276E+04  0.11768028319E+04  0.10100000352E+00 0.  1.
       -3   -1    0    0    0  501  0.00000000000E+00  0.00000000000E+00 -0.16511896419E+04  0.16511896450E+04  0.10100000352E+00 0. -1.
    10030    2    1    2    0    0  0.00000000000E+00  0.00000000000E+00 -0.47438681431E+03  0.28279924769E+04  0.27879201208E+04 0.  0.
        4    1    3    3  502    0  0.11814388169E+04 -0.88125823433E+02 -0.98229840062E+03  0.15389852499E+04  0.12699999809E+01 0. -1.
       -4    1    3    3    0  502 -0.11814388169E+04  0.88125823433E+02  0.50791158631E+03  0.12890072270E+04  0.12699999809E+01 0.  1.
</event>
<event>
 5   0  0.5584205E-06  0.2789640E+04  0.7818609E-02  0.8306492E-01
       -2   -1    0    0    0  501  0.00000000000E+00  0.00000000000E+00  0.14724822907E+04  0.14724822907E+04  0.25500000920E-02 0. -1.
        2   -1    0    0  501    0  0.00000000000E+00  0.00000000000E+00 -0.13212540474E+04  0.13212540474E+04  0.25500000920E-02 0.  1.
    10030    2    1    2    0    0  0.00000000000E+00  0.00000000000E+00  0.15122824333E+03  0.27937363381E+04  0.27896402537E+04 0.  0.
        1    1    3    3  502    0 -0.34769203190E+03  0.86399099560E+03  0.11154802035E+04  0.14531573466E+04  0.50400001928E-02 0. -1.
       -1    1    3    3    0  502  0.34769203190E+03 -0.86399099560E+03 -0.96425196022E+03  0.13405789915E+04  0.50400001928E-02 0.  1.
</event>
<event>
 5   0  0.2190865E-06  0.2780628E+04  0.7818609E-02  0.8309308E-01
       -1   -1    0    0    0  501  0.00000000000E+00  0.00000000000E+00  0.11520992960E+04  0.11520992961E+04  0.50400001928E-02 0. -1.
        1   -1    0    0  501    0  0.00000000000E+00  0.00000000000E+00 -0.16777829668E+04  0.16777829668E+04  0.50400001928E-02 0.  1.
    10030    2    1    2    0    0  0.00000000000E+00  0.00000000000E+00 -0.52568367071E+03  0.28298822628E+04  0.27806276809E+04 0.  0.
        2    1    3    3  502    0 -0.48642794291E+03 -0.12712750523E+04 -0.55109051159E+03  0.14684866885E+04  0.25500000920E-02 0. -1.
       -2    1    3    3    0  502  0.48642794291E+03  0.12712750523E+04  0.25406840875E+02  0.13613955743E+04  0.25500000920E-02 0.  1.
</event>
<event>
 5   0  0.5625245E-06  0.2812681E+04  0.7818609E-02  0.8299342E-01
       -2   -1    0    0    0  501  0.00000000000E+00  0.00000000000E+00  0.73757279598E+03  0.73757279598E+03  0.25500000920E-02 0. -1.
        2   -1    0    0  501    0  0.00000000000E+00  0.00000000000E+00 -0.26814888542E+04  0.26814888542E+04  0.25500000920E-02 0.  1.
    10030    2    1    2    0    0  0.00000000000E+00  0.00000000000E+00 -0.19439160582E+04  0.34190616502E+04  0.28126807367E+04 0.  0.
        3    1    3    3  502    0 -0.68870642812E+03 -0.12261581099E+04 -0.97633530191E+03  0.17120195345E+04  0.10100000352E+00 0.  1.
       -3    1    3    3    0  502  0.68870642812E+03  0.12261581099E+04 -0.96758075634E+03  0.17070421157E+04  0.10100000352E+00 0. -1.
</event>
<event>
 5   0  0.5546570E-06  0.2802873E+04  0.7818609E-02  0.8302377E-01
        2   -1    0    0  501    0  0.00000000000E+00  0.00000000000E+00  0.14450549571E+04  0.14450549571E+04  0.25500000920E-02 0. -1.
       -2   -1    0    0    0  501  0.00000000000E+00  0.00000000000E+00 -0.13591342398E+04  0.13591342398E+04  0.25500000920E-02 0.  1.
    10030    2    1    2    0    0  0.00000000000E+00  0.00000000000E+00  0.85920717310E+02  0.28041891970E+04  0.28028725770E+04 0.  0.
        4    1    3    3  502    0 -0.11777522831E+03  0.15142833117E+03  0.14318561512E+04  0.14446505440E+04  0.12699999809E+01 0. -1.
       -4    1    3    3    0  502  0.11777522831E+03 -0.15142833117E+03 -0.13459354338E+04  0.13595386529E+04  0.12699999809E+01 0.  1.
</event>
<event>
 5   0  0.5866136E-06  0.2783497E+04  0.7818609E-02  0.8308410E-01
       -2   -1    0    0    0  501  0.00000000000E+00  0.00000000000E+00  0.11215497357E+04  0.11215497357E+04  0.25500000920E-02 0. -1.
        2   -1    0    0  501    0  0.00000000000E+00  0.00000000000E+00 -0.17270421241E+04  0.17270421241E+04  0.25500000920E-02 0.  1.
    10030    2    1    2    0    0  0.00000000000E+00  0.00000000000E+00 -0.60549238836E+03  0.28485918598E+04  0.27834968208E+04 0.  0.
        5    1    3    3  502    0 -0.56361099015E+03  0.12355102586E+04 -0.61449888649E+03  0.14905616119E+04  0.46999998093E+01 0.  1.
       -5    1    3    3    0  502  0.56361099015E+03 -0.12355102586E+04  0.90064981370E+01  0.13580302479E+04  0.46999998093E+01 0. -1.
</event>
<event>
 5   0  0.2277133E-06  0.2771282E+04  0.7818609E-02  0.8312240E-01
        1   -1    0    0  501    0  0.00000000000E+00  0.00000000000E+00  0.22161265362E+04  0.22161265362E+04  0.50400001928E-02 0. -1.
       -1   -1    0    0    0  501  0.00000000000E+00  0.00000000000E+00 -0.86637724096E+03  0.86637724097E+03  0.50400001928E-02 0.  1.
    10030    2    1    2    0    0  0.00000000000E+00  0.00000000000E+00  0.13497492952E+04  0.30825037772E+04  0.27712824425E+04 0.  0.
        1    1    3    3  502    0 -0.51590316075E+03 -0.62946008548E+03 -0.57250455412E+03  0.99505654865E+03  0.50400001928E-02 0.  1.
       -1    1    3    3    0  502  0.51590316075E+03  0.62946008548E+03  0.19222538494E+04  0.20874472285E+04  0.50400001928E-02 0. -1.
</event>
<event>
 5   0  0.2234068E-06  0.2797309E+04  0.7818609E-02  0.8304104E-01
       -1   -1    0    0    0  501  0.00000000000E+00  0.00000000000E+00  0.12203275707E+04  0.12203275707E+04  0.50400001928E-02 0. -1.
        1   -1    0    0  501    0  0.00000000000E+00  0.00000000000E+00 -0.16030400971E+04  0.16030400971E+04  0.50400001928E-02 0.  1.
    10030    2    1    2    0    0  0.00000000000E+00  0.00000000000E+00 -0.38271252634E+03  0.28233676678E+04  0.27973087262E+04 0.  0.
        3    1    3    3  502    0  0.13210451560E+04  0.44665361550E+03 -0.29994222192E+03  0.14264028544E+04  0.10100000352E+00 0. -1.
       -3    1    3    3    0  502 -0.13210451560E+04 -0.44665361550E+03 -0.82770304425E+02  0.13969648134E+04  0.10100000352E+00 0.  1.
</event>
<event>
 5   0  0.2267565E-06  0.2795591E+04  0.7818609E-02  0.8304638E-01
       -1   -1    0    0    0  501  0.00000000000E+00  0.00000000000E+00  0.16359582638E+04  0.16359582638E+04  0.50400001928E-02 0.  1.
        1   -1    0    0  501    0  0.00000000000E+00  0.00000000000E+00 -0.11943047583E+04  0.11943047583E+04  0.50400001928E-02 0. -1.
    10030    2    1    2    0    0  0.00000000000E+00  0.00000000000E+00  0.44165350548E+03  0.28302630221E+04  0.27955913427E+04 0.  0.
        4    1    3    3  502    0 -0.81790355021E+03  0.71830786793E+03  0.11085706144E+04  0.15536611054E+04  0.12699999809E+01 0.  1.
       -4    1    3    3    0  502  0.81790355021E+03 -0.71830786793E+03 -0.66691710887E+03  0.12766019166E+04  0.12699999809E+01 0. -1.
</event>
<event>
 5   0  0.2206967E-06  0.2803703E+04  0.7818609E-02  0.8302120E-01
        1   -1    0    0  501    0  0.00000000000E+00  0.00000000000E+00  0.20947744138E+04  0.20947744138E+04  0.50400001928E-02 0.  1.
       -1   -1    0    0    0  501  0.00000000000E+00  0.00000000000E+00 -0.93813801805E+03  0.93813801806E+03  0.50400001928E-02 0. -1.
    10030    2    1    2    0    0  0.00000000000E+00  0.00000000000E+00  0.11566363958E+04  0.30329124319E+04  0.28037029207E+04 0.  0.
        5    1    3    3  502    0 -0.31236394422E+03  0.37496342467E+03  0.19999057810E+04  0.20585951584E+04  0.46999998093E+01 0.  1.
       -5    1    3    3    0  502  0.31236394422E+03 -0.37496342467E+03 -0.84326938517E+03  0.97431727350E+03  0.46999998093E+01 0. -1.
</event>
<event>
 5   0  0.5625245E-06  0.2816187E+04  0.7818609E-02  0.8298261E-01
       -2   -1    0    0    0  501  0.00000000000E+00  0.00000000000E+00  0.15238227227E+04  0.15238227227E+04  0.25500000920E-02 0. -1.
        2   -1    0    0  501    0  0.00000000000E+00  0.00000000000E+00 -0.13011532007E+04  0.13011532007E+04  0.25500000920E-02 0.  1.
    10030    2    1    2    0    0  0.00000000000E+00  0.00000000000E+00  0.22266952194E+03  0.28249759234E+04  0.28161866507E+04 0.  0.
        3    1    3    3  502    0 -0.11237374370E+04  0.72962713941E+03 -0.32312805769E+03  0.13782428457E+04  0.10100000352E+00 0.  1.
       -3    1    3    3    0  502  0.11237374370E+04 -0.72962713941E+03  0.54579757963E+03  0.14467330777E+04  0.10100000352E+00 0. -1.
</event>
<event>
 5   0  0.2190865E-06  0.2803328E+04  0.7818609E-02  0.8302236E-01
       -1   -1    0    0    0  501  0.00000000000E+00  0.00000000000E+00  0.17603543947E+04  0.17603543948E+04  0.50400001928E-02 0. -1.
        1   -1    0    0  501    0  0.00000000000E+00  0.00000000000E+00 -0.11160607462E+04  0.11160607462E+04  0.50400001928E-02 0.  1.
    10030    2    1    2    0    0  0.00000000000E+00  0.00000000000E+00  0.64429364856E+03  0.28764151409E+04  0.28033283357E+04 0.  0.
        2    1    3    3  502    0 -0.17061137026E+03 -0.14272723328E+02  0.17495853456E+04  0.17579422151E+04  0.25500000920E-02 0. -1.
       -2    1    3    3    0  502  0.17061137026E+03  0.14272723328E+02 -0.11052916970E+04  0.11184729258E+04  0.25500000920E-02 0.  1.
</event>
<event>
 5   0  0.2267565E-06  0.2803092E+04  0.7818609E-02  0.8302309E-01
       -1   -1    0    0    0  501  0.00000000000E+00  0.00000000000E+00  0.12729042509E+04  0.12729042510E+04  0.50400001928E-02 0.  1.
        1   -1    0    0  501    0  0.00000000000E+00  0.00000000000E+00 -0.15431888870E+04  0.15431888870E+04  0.50400001928E-02 0. -1.
    10030    2    1    2    0    0  0.00000000000E+00  0.00000000000E+00 -0.27028463603E+03  0.28160931379E+04  0.28030923597E+04 0.  0.
        4    1    3    3  502    0 -0.61199303540E+03 -0.61403526131E+03  0.97121700014E+03  0.13018597666E+04  0.12699999809E+01 0.  1.
       -4    1    3    3    0  502  0.61199303540E+03  0.61403526131E+03 -0.12415016362E+04  0.15142333714E+04  0.12699999809E+01 0. -1.
</event>
<event>
 5   0  0.2234068E-06  0.2801276E+04  0.7818609E-02  0.8302872E-01
       -1   -1    0    0    0  501  0.00000000000E+00  0.00000000000E+00  0.10374050989E+04  0.10374050990E+04  0.50400001928E-02 0. -1.
        1   -1    0    0  501    0  0.00000000000E+00  0.00000000000E+00 -0.18910520898E+04  0.18910520898E+04  0.50400001928E-02 0.  1.
    10030    2    1    2    0    0  0.00000000000E+00  0.00000000000E+00 -0.85364699087E+03  0.29284571888E+04  0.28012761951E+04 0.  0.
        3    1    3    3  502    0  0.95660025326E+03  0.85467379022E+03 -0.10147031399E+04  0.16355958561E+04  0.10100000352E+00 0.  1.
       -3    1    3    3    0  502 -0.95660025326E+03 -0.85467379022E+03  0.16105614900E+03  0.12928613327E+04  0.10100000352E+00 0. -1.
</event>
<event>
 5   0  0.2267565E-06  0.2456522E+04  0.7818609E-02  0.8418641E-01
        1   -1    0    0  501    0  0.00000000000E+00  0.00000000000E+00  0.14845677728E+04  0.14845677728E+04  0.50400001928E-02 0. -1.
       -1   -1    0    0    0  501  0.00000000000E+00  0.00000000000E+00 -0.10162045140E+04  0.10162045140E+04  0.50400001928E-02 0.  1.
    10030    2    1    2    0    0  0.00000000000E+00  0.00000000000E+00  0.46836325874E+03  0.25007722868E+04  0.24565215017E+04 0.  0.
        4    1    3    3  502    0  0.92616045471E+03 -0.49563598003E+03 -0.41383392072E+03  0.11290209650E+04  0.12699999809E+01 0.  1.
       -4    1    3    3    0  502 -0.92616045471E+03  0.49563598003E+03  0.88219717946E+03  0.13717513218E+04  0.12699999809E+01 0. -1.
</event>
<event>
 5   0  0.5916603E-06  0.2796823E+04  0.7818609E-02  0.8304255E-01
        2   -1    0    0  501    0  0.00000000000E+00  0.00000000000E+00  0.21502880772E+04  0.21502880772E+04  0.25500000920E-02 0.  1.
       -2   -1    0    0    0  501  0.00000000000E+00  0.00000000000E+00 -0.90943827889E+03  0.90943827889E+03  0.25500000920E-02 0. -1.
    10030    2    1    2    0    0  0.00000000000E+00  0.00000000000E+00  0.12408497983E+04  0.30597263561E+04  0.27968226887E+04 0.  0.
        2    1    3    3  502    0 -0.99308824417E+03 -0.97605493418E+03  0.76157556781E+03  0.15871058064E+04  0.25500000920E-02 0.  1.
       -2    1    3    3    0  502  0.99308824417E+03  0.97605493418E+03  0.47927423047E+03  0.14726205496E+04  0.25500000920E-02 0. -1.
</event>
<event>
 5   0  0.5866136E-06  0.2803587E+04  0.7818609E-02  0.8302156E-01
       -2   -1    0    0    0  501  0.00000000000E+00  0.00000000000E+00  0.84082496029E+03  0.84082496030E+03  0.25500000920E-02 0. -1.
        2   -1    0    0  501    0  0.00000000000E+00  0.00000000000E+00 -0.23370205265E+04  0.23370205266E+04  0.25500000920E-02 0.  1.
    10030    2    1    2    0    0  0.00000000000E+00  0.00000000000E+00 -0.14961955663E+04  0.31778454868E+04  0.28035871247E+04 0.  0.
        5    1    3    3  502    0  0.25659305473E+03 -0.75867010942E+03 -0.20521478715E+04  0.22028965721E+04  0.46999998093E+01 0.  1.
       -5    1    3    3    0  502 -0.25659305473E+03  0.75867010942E+03  0.55595230528E+03  0.97494891477E+03  0.46999998093E+01 0. -1.
</event>
<event>
 5   0  0.5625245E-06  0.2799187E+04  0.7818609E-02  0.8303521E-01
       -2   -1    0    0    0  501  0.00000000000E+00  0.00000000000E+00  0.94791186710E+03  0.94791186711E+03  0.25500000920E-02 0. -1.
        2   -1    0    0  501    0  0.00000000000E+00  0.00000000000E+00 -0.20665015762E+04  0.20665015762E+04  0.25500000920E-02 0.  1.
    10030    2    1    2    0    0  0.00000000000E+00  0.00000000000E+00 -0.11185897091E+04  0.30144134433E+04  0.27991865729E+04 0.  0.
        3    1    3    3  502    0  0.35771355673E+03  0.35179129713E+03 -0.19663340931E+04  0.20293313877E+04  0.10100000352E+00 0.  1.
       -3    1    3    3    0  502 -0.35771355673E+03 -0.35179129713E+03  0.84774438400E+03  0.98508205557E+03  0.10100000352E+00 0. -1.
</event>
<event>
 5   0  0.5866136E-06  0.2795465E+04  0.7818609E-02  0.8304678E-01
        2   -1    0    0  501    0  0.00000000000E+00  0.00000000000E+00  0.14589508989E+04  0.14589508989E+04  0.25500000920E-02 0. -1.
       -2   -1    0    0    0  501  0.00000000000E+00  0.00000000000E+00 -0.13390823984E+04  0.13390823984E+04  0.25500000920E-02 0.  1.
    10030    2    1    2    0    0  0.00000000000E+00  0.00000000000E+00  0.11986850050E+03  0.27980332973E+04  0.27954645188E+04 0.  0.
        5    1    3    3  502    0  0.16921572277E+03 -0.89187556854E+03  0.11237172469E+04  0.14445893989E+04  0.46999998093E+01 0. -1.
       -5    1    3    3    0  502 -0.16921572277E+03  0.89187556854E+03 -0.10038487464E+04  0.13534438984E+04  0.46999998093E+01 0.  1.
</event>
<event>
 5   0  0.2267565E-06  0.2787297E+04  0.7818609E-02  0.8307223E-01
        1   -1    0    0  501    0  0.00000000000E+00  0.00000000000E+00  0.20926138158E+04  0.20926138159E+04  0.50400001928E-02 0.  1.
       -1   -1    0    0    0  501  0.00000000000E+00  0.00000000000E+00 -0.92814862904E+03  0.92814862905E+03  0.50400001928E-02 0. -1.
    10030    2    1    2    0    0  0.00000000000E+00  0.00000000000E+00  0.11644651868E+04  0.30207624449E+04  0.27872973608E+04 0.  0.
        4    1    3    3  502    0  0.67149796048E+03  0.37044232289E+03 -0.67890225431E+03  0.10242299104E+04  0.12699999809E+01 0. -1.
       -4    1    3    3    0  502 -0.67149796048E+03 -0.37044232289E+03  0.18433674411E+04  0.19965325345E+04  0.12699999809E+01 0.  1.
</event>
<event>
 5   0  0.2206967E-06  0.2537578E+04  0.7818609E-02  0.8389719E-01
       -1   -1    0    0    0  501  0.00000000000E+00  0.00000000000E+00  0.17492741142E+04  0.17492741142E+04  0.50400001928E-02 0. -1.
        1   -1    0    0  501    0  0.00000000000E+00  0.00000000000E+00 -0.92028223496E+03  0.92028223497E+03  0.50400001928E-02 0.  1.
    10030    2    1    2    0    0  0.00000000000E+00  0.00000000000E+00  0.82899187926E+03  0.26695563492E+04  0.25375782876E+04 0.  0.
        5    1    3    3  502    0 -0.56032849730E+02 -0.11481294032E+04 -0.15052519979E+03  0.11593190814E+04  0.46999998093E+01 0.  1.
       -5    1    3    3    0  502  0.56032849730E+02  0.11481294032E+04  0.97951707905E+03  0.15102372678E+04  0.46999998093E+01 0. -1.
</event>
<event>
 5   0  0.2234068E-06  0.2795377E+04  0.7818609E-02  0.8304705E-01
        1   -1    0    0  501    0  0.00000000000E+00  0.00000000000E+00  0.31337013122E+04  0.31337013122E+04  0.50400001928E-02 0.  1.
       -1   -1    0    0    0  501  0.00000000000E+00  0.00000000000E+00 -0.62339459706E+03  0.62339459708E+03  0.50400001928E-02 0. -1.
    10030    2    1    2    0    0  0.00000000000E+00  0.00000000000E+00  0.25103067151E+04  0.37570959092E+04  0.27953765162E+04 0.  0.
        3    1    3    3  502    0  0.46413464344E+02  0.12419177658E+04  0.39557900185E+03  0.13042226434E+04  0.10100000352E+00 0. -1.
       -3    1    3    3    0  502 -0.46413464344E+02 -0.12419177658E+04  0.21147277132E+04  0.24528732658E+04  0.10100000352E+00 0.  1.
</event>
<event>
 5   0  0.2206967E-06  0.2790700E+04  0.7818609E-02  0.8306162E-01
       -1   -1    0    0    0  501  0.00000000000E+00  0.00000000000E+00  0.18700118618E+04  0.18700118618E+04  0.50400001928E-02 0.  1.
        1   -1    0    0  501    0  0.00000000000E+00  0.00000000000E+00 -0.10411703659E+04  0.10411703659E+04  0.50400001928E-02 0. -1.
    10030    2    1    2    0    0  0.00000000000E+00  0.00000000000E+00  0.82884149596E+03  0.29111822277E+04  0.27906995069E+04 0.  0.
        5    1    3    3  502    0  0.18640131147E+03 -0.11420957494E+04 -0.39888674665E+03  0.12240346712E+04  0.46999998093E+01 0.  1.
       -5    1    3    3    0  502 -0.18640131147E+03  0.11420957494E+04  0.12277282426E+04  0.16871475565E+04  0.46999998093E+01 0. -1.
</event>
<event>
 5   0  0.5916603E-06  0.2817927E+04  0.7818609E-02  0.8297724E-01
        2   -1    0    0  501    0  0.00000000000E+00  0.00000000000E+00  0.76826434131E+03  0.76826434131E+03  0.25500000920E-02 0. -1.
       -2   -1    0    0    0  501  0.00000000000E+00  0.00000000000E+00 -0.25839788207E+04  0.25839788207E+04  0.25500000920E-02 0.  1.
    10030    2    1    2    0    0  0.00000000000E+00  0.00000000000E+00 -0.18157144794E+04  0.33522431621E+04  0.28179274559E+04 0.  0.
        2    1    3    3  502    0 -0.15794856103E+03 -0.60106429439E+03 -0.24121193639E+04  0.24908925829E+04  0.25500000920E-02 0.  1.
       -2    1    3    3    0  502  0.15794856103E+03  0.60106429439E+03  0.59640488448E+03  0.86135057913E+03  0.25500000920E-02 0. -1.
</event>
<event>
 5   0  0.5625245E-06  0.2764451E+04  0.7818609E-02  0.8314391E-01
        2   -1    0    0  501    0  0.00000000000E+00  0.00000000000E+00  0.16087893275E+04  0.16087893275E+04  0.25500000920E-02 0. -1.
       -2   -1    0    0    0  501  0.00000000000E+00  0.00000000000E+00 -0.11875680489E+04  0.11875680489E+04  0.25500000920E-02 0.  1.
    10030    2    1    2    0    0  0.00000000000E+00  0.00000000000E+00  0.42122127860E+03  0.27963573763E+04  0.27644506164E+04 0.  0.
        3    1    3    3  502    0 -0.58918949046E+03 -0.25238665109E+03  0.14493688391E+04  0.15847754791E+04  0.10100000352E+00 0. -1.
       -3    1    3    3    0  502  0.58918949046E+03  0.25238665109E+03 -0.10281475605E+04  0.12115818972E+04  0.10100000352E+00 0.  1.
</event>
<event>
 5   0  0.5625245E-06  0.2786804E+04  0.7818609E-02  0.8307377E-01
        2   -1    0    0  501    0  0.00000000000E+00  0.00000000000E+00  0.10423257386E+04  0.10423257386E+04  0.25500000920E-02 0.  1.
       -2   -1    0    0    0  501  0.00000000000E+00  0.00000000000E+00 -0.18627273147E+04  0.18627273147E+04  0.25500000920E-02 0. -1.
    10030    2    1    2    0    0  0.00000000000E+00  0.00000000000E+00 -0.82040157612E+03  0.29050530532E+04  0.27868036343E+04 0.  0.
        3    1    3    3  502    0  0.43572157230E+02 -0.79804019399E+03  0.77963464070E+03  0.11165110243E+04  0.10100000352E+00 0.  1.
       -3    1    3    3    0  502 -0.43572157230E+02  0.79804019399E+03 -0.16000362168E+04  0.17885420290E+04  0.10100000352E+00 0. -1.
</event>
<event>
 5   0  0.2190865E-06  0.2825385E+04  0.7818609E-02  0.8295431E-01
        1   -1    0    0  501    0  0.00000000000E+00  0.00000000000E+00  0.15651958339E+04  0.15651958339E+04  0.50400001928E-02 0. -1.
       -1   -1    0    0    0  501  0.00000000000E+00  0.00000000000E+00 -0.12750478064E+04  0.12750478064E+04  0.50400001928E-02 0.  1.
    10030    2    1    2    0    0  0.00000000000E+00  0.00000000000E+00  0.29014802752E+03  0.28402436404E+04  0.28253845860E+04 0.  0.
        2    1    3    3  502    0 -0.38214229540E+03  0.95681053860E+03 -0.82653915879E+03  0.13208656713E+04  0.25500000920E-02 0.  1.
       -2    1    3    3    0  502  0.38214229540E+03 -0.95681053860E+03  0.11166871863E+04  0.15193779690E+04  0.25500000920E-02 0. -1.
</event>
<event>
 5   0  0.5546570E-06  0.2836715E+04  0.7818609E-02  0.8291960E-01
       -2   -1    0    0    0  501  0.00000000000E+00  0.00000000000E+00  0.25945792026E+04  0.25945792026E+04  0.25500000920E-02 0. -1.
        2   -1    0    0  501    0  0.00000000000E+00  0.00000000000E+00 -0.77536204820E+03  0.77536204820E+03  0.25500000920E-02 0.  1.
    10030    2    1    2    0    0  0.00000000000E+00  0.00000000000E+00  0.18192171544E+04  0.33699412508E+04  0.28367151741E+04 0.  0.
        4    1    3    3  502    0 -0.71096962938E+02 -0.72056469196E+03  0.23584820763E+04  0.24671253658E+04  0.12699999809E+01 0. -1.
       -4    1    3    3    0  502  0.71096962938E+02  0.72056469196E+03 -0.53926492186E+03  0.90281588504E+03  0.12699999809E+01 0.  1.
</event>
<event>
 5   0  0.5625245E-06  0.2781905E+04  0.7818609E-02  0.8308908E-01
        2   -1    0    0  501    0  0.00000000000E+00  0.00000000000E+00  0.13646243855E+04  0.13646243855E+04  0.25500000920E-02 0. -1.
       -2   -1    0    0    0  501  0.00000000000E+00  0.00000000000E+00 -0.14177888614E+04  0.14177888614E+04  0.25500000920E-02 0.  1.
    10030    2    1    2    0    0  0.00000000000E+00  0.00000000000E+00 -0.53164475888E+02  0.27824132469E+04  0.27819052850E+04 0.  0.
        3    1    3    3  502    0  0.20073302910E+03  0.48150837775E+03 -0.13162381606E+04  0.14158484991E+04  0.10100000352E+00 0.  1.
       -3    1    3    3    0  502 -0.20073302910E+03 -0.48150837775E+03  0.12630736847E+04  0.13665647478E+04  0.10100000352E+00 0. -1.
</event>
<event>
 5   0  0.5625245E-06  0.2827232E+04  0.7818609E-02  0.8294863E-01
        2   -1    0    0  501    0  0.00000000000E+00  0.00000000000E+00  0.19249794093E+04  0.19249794093E+04  0.25500000920E-02 0.  1.
       -2   -1    0    0    0  501  0.00000000000E+00  0.00000000000E+00 -0.10380945956E+04  0.10380945956E+04  0.25500000920E-02 0. -1.
    10030    2    1    2    0    0  0.00000000000E+00  0.00000000000E+00  0.88688481375E+03  0.29630740049E+04  0.28272323720E+04 0.  0.
        3    1    3    3  502    0  0.12897397849E+04 -0.51770467087E+03  0.71444706456E+03  0.15626520590E+04  0.10100000352E+00 0.  1.
       -3    1    3    3    0  502 -0.12897397849E+04  0.51770467087E+03  0.17243774919E+03  0.14004219459E+04  0.10100000352E+00 0. -1.
</event>
<event>
 5   0  0.5625245E-06  0.2785189E+04  0.7818609E-02  0.8307881E-01
       -2   -1    0    0    0  501  0.00000000000E+00  0.00000000000E+00  0.11420791328E+04  0.11420791328E+04  0.25500000920E-02 0. -1.
        2   -1    0    0  501    0  0.00000000000E+00  0.00000000000E+00 -0.16980608028E+04  0.16980608029E+04  0.25500000920E-02 0.  1.
    10030    2    1    2    0    0  0.00000000000E+00  0.00000000000E+00 -0.55598167001E+03  0.28401399357E+04  0.27851892641E+04 0.  0.
        3    1    3    3  502    0 -0.47373232857E+03  0.97808797889E+03 -0.11659413604E+04  0.15938938734E+04  0.10100000352E+00 0.  1.
       -3    1    3    3    0  502  0.47373232857E+03 -0.97808797889E+03  0.60995969042E+03  0.12462460623E+04  0.10100000352E+00 0. -1.
</event>
<event>
 5   0  0.5866136E-06  0.2534203E+04  0.7818609E-02  0.8390901E-01
       -2   -1    0    0    0  501  0.00000000000E+00  0.00000000000E+00  0.86637324395E+03  0.86637324395E+03  0.25500000920E-02 0.  1.
        2   -1    0    0  501    0  0.00000000000E+00  0.00000000000E+00 -0.18531808972E+04  0.18531808972E+04  0.25500000920E-02 0. -1.
    10030    2    1    2    0    0  0.00000000000E+00  0.00000000000E+00 -0.98680765329E+03  0.27195541412E+04  0.25342031060E+04 0.  0.
        5    1    3    3  502    0  0.51366300859E+03 -0.36706398761E+03 -0.16723633055E+04  0.17875700750E+04  0.46999998093E+01 0. -1.
       -5    1    3    3    0  502 -0.51366300859E+03  0.36706398761E+03  0.68555565221E+03  0.93198406621E+03  0.46999998093E+01 0.  1.
</event>
<event>
 5   0  0.2234068E-06  0.2800092E+04  0.7818609E-02  0.8303240E-01
        1   -1    0    0  501    0  0.00000000000E+00  0.00000000000E+00  0.14374480990E+04  0.14374480990E+04  0.50400001928E-02 0. -1.
       -1   -1    0    0    0  501  0.00000000000E+00  0.00000000000E+00 -0.13636171298E+04  0.13636171298E+04  0.50400001928E-02 0.  1.
    10030    2    1    2    0    0  0.00000000000E+00  0.00000000000E+00  0.73830969222E+02  0.28010652288E+04  0.28000920349E+04 0.  0.
        3    1    3    3  502    0 -0.31711732139E+03  0.56145821397E+03  0.12800581932E+04  0.14332995882E+04  0.10100000352E+00 0. -1.
       -3    1    3    3    0  502  0.31711732139E+03 -0.56145821397E+03 -0.12062272239E+04  0.13677656406E+04  0.10100000352E+00 0.  1.
</event>
<event>
 5   0  0.2190865E-06  0.2791581E+04  0.7818609E-02  0.8305887E-01
       -1   -1    0    0    0  501  0.00000000000E+00  0.00000000000E+00  0.22285322611E+04  0.22285322611E+04  0.50400001928E-02 0.  1.
        1   -1    0    0  501    0  0.00000000000E+00  0.00000000000E+00 -0.87422185992E+03  0.87422185993E+03  0.50400001928E-02 0. -1.
    10030    2    1    2    0    0  0.00000000000E+00  0.00000000000E+00  0.13543104012E+04  0.31027541210E+04  0.27915813570E+04 0.  0.
        2    1    3    3  502    0  0.31063474828E+02  0.10658807066E+04  0.16781957572E+04  0.19883177864E+04  0.25500000920E-02 0. -1.
       -2    1    3    3    0  502 -0.31063474828E+02 -0.10658807066E+04 -0.32388535597E+03  0.11144363347E+04  0.25500000920E-02 0.  1.
</event>
<event>
 5   0  0.2267565E-06  0.2816659E+04  0.7818609E-02  0.8298115E-01
       -1   -1    0    0    0  501  0.00000000000E+00  0.00000000000E+00  0.12164012771E+04  0.12164012771E+04  0.50400001928E-02 0.  1.
        1   -1    0    0  501    0  0.00000000000E+00  0.00000000000E+00 -0.16305405552E+04  0.16305405552E+04  0.50400001928E-02 0. -1.
    10030    2    1    2    0    0  0.00000000000E+00  0.00000000000E+00 -0.41413927807E+03  0.28469418324E+04  0.28166587396E+04 0.  0.
        4    1    3    3  502    0 -0.48541828416E+03  0.10890763751E+04  0.55043561320E+03  0.13132780507E+04  0.12699999809E+01 0.  1.
       -4    1    3    3    0  502  0.48541828416E+03 -0.10890763751E+04 -0.96457489127E+03  0.15336637816E+04  0.12699999809E+01 0. -1.
</event>
<event>
 5   0  0.5625245E-06  0.2932910E+04  0.7818609E-02  0.8263153E-01
        2   -1    0    0  501    0  0.00000000000E+00  0.00000000000E+00  0.21544043476E+04  0.21544043476E+04  0.25500000920E-02 0. -1.
       -2   -1    0    0    0  501  0.00000000000E+00  0.00000000000E+00 -0.99818321844E+03  0.99818321845E+03  0.25500000920E-02 0.  1.
    10030    2    1    2    0    0  0.00000000000E+00  0.00000000000E+00  0.11562211292E+04  0.31525875661E+04  0.29329099990E+04 0.  0.
        3    1    3    3  502    0 -0.72688521091E+03 -0.11377881551E+04 -0.37091809802E+02  0.13506664312E+04  0.10100000352E+00 0.  1.
       -3    1    3    3    0  502  0.72688521091E+03  0.11377881551E+04  0.11933129390E+04  0.18019211349E+04  0.10100000352E+00 0. -1.
</event>
<event>
 5   0  0.5625245E-06  0.2788695E+04  0.7818609E-02  0.8306787E-01
        2   -1    0    0  501    0  0.00000000000E+00  0.00000000000E+00  0.19250920679E+04  0.19250920679E+04  0.25500000920E-02 0. -1.
       -2   -1    0    0    0  501  0.00000000000E+00  0.00000000000E+00 -0.10099285032E+04  0.10099285032E+04  0.25500000920E-02 0.  1.
    10030    2    1    2    0    0  0.00000000000E+00  0.00000000000E+00  0.91516356468E+03  0.29350205711E+04  0.27886952868E+04 0.  0.
        3    1    3    3  502    0 -0.11327940975E+04 -0.80028050517E+03  0.30676602484E+03  0.14204846914E+04  0.10100000352E+00 0.  1.
       -3    1    3    3    0  502  0.11327940975E+04  0.80028050517E+03  0.60839753984E+03  0.15145358797E+04  0.10100000352E+00 0. -1.
</event>
<event>
 5   0  0.5584205E-06  0.2785363E+04  0.7818609E-02  0.8307827E-01
        2   -1    0    0  501    0  0.00000000000E+00  0.00000000000E+00  0.23192921830E+04  0.23192921830E+04  0.25500000920E-02 0.  1.
       -2   -1    0    0    0  501  0.00000000000E+00  0.00000000000E+00 -0.83627335232E+03  0.83627335233E+03  0.25500000920E-02 0. -1.
    10030    2    1    2    0    0  0.00000000000E+00  0.00000000000E+00  0.14830188306E+04  0.31555655353E+04  0.27853633507E+04 0.  0.
        1    1    3    3  502    0  0.11709114282E+04  0.56142603653E+03  0.17129497088E+03  0.13097995015E+04  0.50400001928E-02 0. -1.
       -1    1    3    3    0  502 -0.11709114282E+04 -0.56142603653E+03  0.13117238598E+04  0.18457660338E+04  0.50400001928E-02 0.  1.
</event>
<event>
 5   0  0.2277133E-06  0.2856759E+04  0.7818609E-02  0.8285860E-01
       -1   -1    0    0    0  501  0.00000000000E+00  0.00000000000E+00  0.12233253191E+04  0.12233253192E+04  0.50400001928E-02 0.  1.
        1   -1    0    0  501    0  0.00000000000E+00  0.00000000000E+00 -0.16678053879E+04  0.16678053879E+04  0.50400001928E-02 0. -1.
    10030    2    1    2    0    0  0.00000000000E+00  0.00000000000E+00 -0.44448006876E+03  0.28911307071E+04  0.28567593938E+04 0.  0.
        1    1    3    3  502    0 -0.49029184938E+03 -0.42581465816E+03  0.10652949724E+04  0.12476207753E+04  0.50400001928E-02 0.  1.
       -1    1    3    3    0  502  0.49029184938E+03  0.42581465816E+03 -0.15097750412E+04  0.16435099317E+04  0.50400001928E-02 0. -1.
</event>
<event>
 5   0  0.5916603E-06  0.2799406E+04  0.7818609E-02  0.8303453E-01
        2   -1    0    0  501    0  0.00000000000E+00  0.00000000000E+00  0.22405896755E+04  0.22405896755E+04  0.25500000920E-02 0. -1.
       -2   -1    0    0    0  501  0.00000000000E+00  0.00000000000E+00 -0.87439891638E+03  0.87439891639E+03  0.25500000920E-02 0.  1.
    10030    2    1    2    0    0  0.00000000000E+00  0.00000000000E+00  0.13661907592E+04  0.31149885919E+04  0.27994064974E+04 0.  0.
        2    1    3    3  502    0  0.20499145617E+03 -0.36214848979E+03 -0.80397236786E+03  0.90528702302E+03  0.25500000920E-02 0.  1.
       -2    1    3    3    0  502 -0.20499145617E+03  0.36214848979E+03  0.21701631270E+04  0.22097015689E+04  0.25500000920E-02 0. -1.
</event>
<event>
 5   0  0.5625245E-06  0.2795790E+04  0.7818609E-02  0.8304577E-01
        2   -1    0    0  501    0  0.00000000000E+00  0.00000000000E+00  0.21192702737E+04  0.21192702737E+04  0.25500000920E-02 0.  1.
       -2   -1    0    0    0  501  0.00000000000E+00  0.00000000000E+00 -0.92206742582E+03  0.92206742582E+03  0.25500000920E-02 0. -1.
    10030    2    1    2    0    0  0.00000000000E+00  0.00000000000E+00  0.11972028479E+04  0.30413376995E+04  0.27957897531E+04 0.  0.
        3    1    3    3  502    0 -0.31461496756E+03  0.10264254932E+04 -0.37534055799E+03  0.11372829092E+04  0.10100000352E+00 0. -1.
       -3    1    3    3    0  502  0.31461496756E+03 -0.10264254932E+04  0.15725434058E+04  0.19040547903E+04  0.10100000352E+00 0.  1.
</event>
<event>
 5   0  0.2277133E-06  0.2773059E+04  0.7818609E-02  0.8311682E-01
        1   -1    0    0  501    0  0.00000000000E+00  0.00000000000E+00  0.19095394778E+04  0.19095394778E+04  0.50400001928E-02 0. -1.
       -1   -1    0    0    0  501  0.00000000000E+00  0.00000000000E+00 -0.10067684550E+04  0.10067684550E+04  0.50400001928E-02 0.  1.
    10030    2    1    2    0    0  0.00000000000E+00  0.00000000000E+00  0.90277102279E+03  0.29163079327E+04  0.27730590399E+04 0.  0.
        1    1    3    3  502    0 -0.19729276540E+03  0.12754713934E+04 -0.81455551336E+02  0.12932079174E+04  0.50400001928E-02 0.  1.
       -1    1    3    3    0  502  0.19729276540E+03 -0.12754713934E+04  0.98422657412E+03  0.16231000154E+04  0.50400001928E-02 0. -1.
</event>
<event>
 5   0  0.5546570E-06  0.2791252E+04  0.7818609E-02  0.8305989E-01
       -2   -1    0    0    0  501  0.00000000000E+00  0.00000000000E+00  0.11414150201E+04  0.11414150201E+04  0.25500000920E-02 0.  1.
        2   -1    0    0  501    0  0.00000000000E+00  0.00000000000E+00 -0.17064534433E+04  0.17064534433E+04  0.25500000920E-02 0. -1.
    10030    2    1    2    0    0  0.00000000000E+00  0.00000000000E+00 -0.56503842317E+03  0.28478684633E+04  0.27912517559E+04 0.  0.
        4    1    3    3  502    0 -0.38759280122E+03 -0.13341890782E+04 -0.14762049742E+03  0.13971693169E+04  0.12699999809E+01 0.  1.
       -4    1    3    3    0  502  0.38759280122E+03  0.13341890782E+04 -0.41741792575E+03  0.14506991465E+04  0.12699999809E+01 0. -1.
</event>
<event>
 5   0  0.1901375E-06  0.2790952E+04  0.7818609E-02  0.8306083E-01
       -3   -1    0    0    0  501  0.00000000000E+00  0.00000000000E+00  0.77629579430E+03  0.77629580087E+03  0.10100000352E+00 0.  1.
        3   -1    0    0  501    0  0.00000000000E+00  0.00000000000E+00 -0.25085190724E+04  0.25085190744E+04  0.10100000352E+00 0. -1.
    10030    2    1    2    0    0  0.00000000000E+00  0.00000000000E+00 -0.17322232781E+04  0.32848148753E+04  0.27909516800E+04 0.  0.
        3    1    3    3  502    0  0.45137525157E+03 -0.13065197235E+04 -0.64088787240E+03  0.15236373193E+04  0.10100000352E+00 0.  1.
       -3    1    3    3    0  502 -0.45137525157E+03  0.13065197235E+04 -0.10913354057E+04  0.17611775560E+04  0.10100000352E+00 0. -1.
</event>
<event>
 5   0  0.5866136E-06  0.2793623E+04  0.7818609E-02  0.8305251E-01
       -2   -1    0    0    0  501  0.00000000000E+00  0.00000000000E+00  0.74697736530E+03  0.74697736531E+03  0.25500000920E-02 0. -1.
        2   -1    0    0  501    0  0.00000000000E+00  0.00000000000E+00 -0.26119689767E+04  0.26119689767E+04  0.25500000920E-02 0.  1.
    10030    2    1    2    0    0  0.00000000000E+00  0.00000000000E+00 -0.18649916114E+04  0.33589463420E+04  0.27936225260E+04 0.  0.
        5    1    3    3  502    0 -0.66961350312E+03  0.23196897531E+03 -0.23797663308E+04  0.24830428366E+04  0.46999998093E+01 0.  1.
       -5    1    3    3    0  502  0.66961350312E+03 -0.23196897531E+03  0.51477471941E+03  0.87590350542E+03  0.46999998093E+01 0. -1.
</event>
<event>
 5   0  0.5546570E-06  0.2820072E+04  0.7818609E-02  0.8297064E-01
       -2   -1    0    0    0  501  0.00000000000E+00  0.00000000000E+00  0.16431451002E+04  0.16431451002E+04  0.25500000920E-02 0.  1.
        2   -1    0    0  501    0  0.00000000000E+00  0.00000000000E+00 -0.12099977349E+04  0.12099977349E+04  0.25500000920E-02 0. -1.
    10030    2    1    2    0    0  0.00000000000E+00  0.00000000000E+00  0.43314736530E+03  0.28531428352E+04  0.28200722327E+04 0.  0.
        4    1    3    3  502    0  0.28635499517E+03 -0.95452636217E+03  0.12258088713E+04  0.15797875684E+04  0.12699999809E+01 0.  1.
       -4    1    3    3    0  502 -0.28635499517E+03  0.95452636217E+03 -0.79266150604E+03  0.12733552668E+04  0.12699999809E+01 0. -1.
</event>
<event>
 5   0  0.5625245E-06  0.2730941E+04  0.7818609E-02  0.8325035E-01
       -2   -1    0    0    0  501  0.00000000000E+00  0.00000000000E+00  0.16884472119E+04  0.16884472119E+04  0.25500000920E-02 0. -1.
        2   -1    0    0  501    0  0.00000000000E+00  0.00000000000E+00 -0.11042746404E+04  0.11042746405E+04  0.25500000920E-02 0.  1.
    10030    2    1    2    0    0  0.00000000000E+00  0.00000000000E+00  0.58417257145E+03  0.27927218524E+04  0.27309408180E+04 0.  0.
        3    1    3    3  502    0  0.48955270434E+03  0.68893395724E+03 -0.80465803741E+03  0.11669474775E+04  0.10100000352E+00 0.  1.
       -3    1    3    3    0  502 -0.48955270434E+03 -0.68893395724E+03  0.13888306089E+04  0.16257743749E+04  0.10100000352E+00 0. -1.
</event>
<event>
 5   0  0.5625245E-06  0.2789695E+04  0.7818609E-02  0.8306475E-01
        2   -1    0    0  501    0  0.00000000000E+00  0.00000000000E+00  0.24532412296E+04  0.24532412296E+04  0.25500000920E-02 0.  1.
       -2   -1    0    0    0  501  0.00000000000E+00  0.00000000000E+00 -0.79307335069E+03  0.79307335069E+03  0.25500000920E-02 0. -1.
    10030    2    1    2    0    0  0.00000000000E+00  0.00000000000E+00  0.16601678789E+04  0.32463145803E+04  0.27896954974E+04 0.  0.
        3    1    3    3  502    0  0.12657159828E+04 -0.56903653720E+03  0.66650213881E+03  0.15395014261E+04  0.10100000352E+00 0. -1.
       -3    1    3    3    0  502 -0.12657159828E+04  0.56903653720E+03  0.99366574008E+03  0.17068131541E+04  0.10100000352E+00 0.  1.
</event>
<event>
 5   0  0.5546570E-06  0.2824273E+04  0.7818609E-02  0.8295772E-01
       -2   -1    0    0    0  501  0.00000000000E+00  0.00000000000E+00  0.67138663723E+03  0.67138663723E+03  0.25500000920E-02 0. -1.
        2   -1    0    0  501    0  0.00000000000E+00  0.00000000000E+00 -0.29701653956E+04  0.29701653956E+04  0.25500000920E-02 0.  1.
    10030    2    1    2    0    0  0.00000000000E+00  0.00000000000E+00 -0.22987787584E+04  0.36415520328E+04  0.28242729025E+04 0.  0.
        4    1    3    3  502    0  0.77791785550E+03 -0.10778272149E+04 -0.53472024055E+03  0.14327578454E+04  0.12699999809E+01 0. -1.
       -4    1    3    3    0  502 -0.77791785550E+03  0.10778272149E+04 -0.17640585178E+04  0.22087941874E+04  0.12699999809E+01 0.  1.
</event>
<event>
 5   0  0.5625245E-06  0.2811820E+04  0.7818609E-02  0.8299608E-01
       -2   -1    0    0    0  501  0.00000000000E+00  0.00000000000E+00  0.89286734496E+03  0.89286734496E+03  0.25500000920E-02 0.  1.
        2   -1    0    0  501    0  0.00000000000E+00  0.00000000000E+00 -0.22137482841E+04  0.22137482841E+04  0.25500000920E-02 0. -1.
    10030    2    1    2    0    0  0.00000000000E+00  0.00000000000E+00 -0.13208809392E+04  0.31066156291E+04  0.28118204444E+04 0.  0.
        3    1    3    3  502    0 -0.69011799937E+03 -0.20210239014E+03 -0.19951855083E+04  0.21208190521E+04  0.10100000352E+00 0. -1.
       -3    1    3    3    0  502  0.69011799937E+03  0.20210239014E+03  0.67430456908E+03  0.98579657701E+03  0.10100000352E+00 0.  1.
</event>
<event>
 5   0  0.2206967E-06  0.2734597E+04  0.7818609E-02  0.8323866E-01
        1   -1    0    0  501    0  0.00000000000E+00  0.00000000000E+00  0.26822688716E+04  0.26822688716E+04  0.50400001928E-02 0. -1.
       -1   -1    0    0    0  501  0.00000000000E+00  0.00000000000E+00 -0.69698674836E+03  0.69698674837E+03  0.50400001928E-02 0.  1.
    10030    2    1    2    0    0  0.00000000000E+00  0.00000000000E+00  0.19852821232E+04  0.33792556199E+04  0.27345974907E+04 0.  0.
        5    1    3    3  502    0  0.18051931482E+03 -0.13118878449E+03  0.26596037015E+04  0.26689532891E+04  0.46999998093E+01 0. -1.
       -5    1    3    3    0  502 -0.18051931482E+03  0.13118878449E+03 -0.67432157833E+03  0.71030233084E+03  0.46999998093E+01 0.  1.
</event>
<event>
 5   0  0.5584205E-06  0.2684358E+04  0.7818609E-02  0.8340098E-01
        2   -1    0    0  501    0  0.00000000000E+00  0.00000000000E+00  0.12199705322E+04  0.12199705322E+04  0.25500000920E-02 0. -1.
       -2   -1    0    0    0  501  0.00000000000E+00  0.00000000000E+00 -0.14766289446E+04  0.14766289446E+04  0.25500000920E-02 0.  1.
    10030    2    1    2    0    0  0.00000000000E+00  0.00000000000E+00 -0.25665841247E+03  0.26965994768E+04  0.26843575018E+04 0.  0.
        1    1    3    3  502    0  0.11544641590E+04  0.23958887926E+03  0.51588586540E+03  0.12869842857E+04  0.50400001928E-02 0. -1.
       -1    1    3    3    0  502 -0.11544641590E+04 -0.23958887926E+03 -0.77254427787E+03  0.14096151911E+04  0.50400001928E-02 0.  1.
</event>
<event>
 5   0  0.2234068E-06  0.2802913E+04  0.7818609E-02  0.8302365E-01
       -1   -1    0    0    0  501  0.00000000000E+00  0.00000000000E+00  0.10107559221E+04  0.10107559221E+04  0.50400001928E-02 0.  1.
        1   -1    0    0  501    0  0.00000000000E+00  0.00000000000E+00 -0.19431795808E+04  0.19431795808E+04  0.50400001928E-02 0. -1.
    10030    2    1    2    0    0  0.00000000000E+00  0.00000000000E+00 -0.93242365864E+03  0.29539355029E+04  0.28029129626E+04 0.  0.
        3    1    3    3  502    0 -0.45691260227E+03 -0.10305070114E+04 -0.13437637129E+04  0.17539711380E+04  0.10100000352E+00 0. -1.
       -3    1    3    3    0  502  0.45691260227E+03  0.10305070114E+04  0.41134005424E+03  0.11999643649E+04  0.10100000352E+00 0.  1.
</event>
<event>
 5   0  0.5546570E-06  0.2793240E+04  0.7818609E-02  0.8305370E-01
       -2   -1    0    0    0  501  0.00000000000E+00  0.00000000000E+00  0.16946057848E+04  0.16946057848E+04  0.25500000920E-02 0.  1.
        2   -1    0    0  501    0  0.00000000000E+00  0.00000000000E+00 -0.11510332000E+04  0.11510332000E+04  0.25500000920E-02 0. -1.
    10030    2    1    2    0    0  0.00000000000E+00  0.00000000000E+00  0.54357258474E+03  0.28456389848E+04  0.27932400679E+04 0.  0.
        4    1    3    3  502    0  0.12246108895E+04  0.46915924647E+03 -0.21760390261E+03  0.13293364137E+04  0.12699999809E+01 0. -1.
       -4    1    3    3    0  502 -0.12246108895E+04 -0.46915924647E+03  0.76117648735E+03  0.15163025711E+04  0.12699999809E+01 0.  1.
</event>
<event>
 5   0  0.5546570E-06  0.2789927E+04  0.7818609E-02  0.8306402E-01
       -2   -1    0    0    0  501  0.00000000000E+00  0.00000000000E+00  0.14803852706E+04  0.14803852706E+04  0.25500000920E-02 0. -1.
        2   -1    0    0  501    0  0.00000000000E+00  0.00000000000E+00 -0.13144706937E+04  0.13144706937E+04  0.25500000920E-02 0.  1.
    10030    2    1    2    0    0  0.00000000000E+00  0.00000000000E+00  0.16591457694E+03  0.27948559643E+04  0.27899269191E+04 0.  0.
        4    1    3    3  502    0 -0.13074713833E+04  0.48383077433E+03  0.34417537305E+02  0.13945464554E+04  0.12699999809E+01 0.  1.
       -4    1    3    3    0  502  0.13074713833E+04 -0.48383077433E+03  0.13149703963E+03  0.14003095089E+04  0.12699999809E+01 0. -1.
</event>
<event>
 5   0  0.5546570E-06  0.2799558E+04  0.7818609E-02  0.8303406E-01
       -2   -1    0    0    0  501  0.00000000000E+00  0.00000000000E+00  0.11254653485E+04  0.11254653485E+04  0.25500000920E-02 0. -1.
        2   -1    0    0  501    0  0.00000000000E+00  0.00000000000E+00 -0.17409524128E+04  0.17409524128E+04  0.25500000920E-02 0.  1.
    10030    2    1    2    0    0  0.00000000000E+00  0.00000000000E+00 -0.61548706428E+03  0.28664177613E+04  0.27995582609E+04 0.  0.
        4    1    3    3  502    0 -0.56034767633E+03  0.48170691559E+03 -0.15249792107E+04  0.16945779052E+04  0.12699999809E+01 0.  1.
       -4    1    3    3    0  502  0.56034767633E+03 -0.48170691559E+03  0.90949214644E+03  0.11718398561E+04  0.12699999809E+01 0. -1.
</event>
<event>
 5   0  0.5584205E-06  0.2809445E+04  0.7818609E-02  0.8300342E-01
       -2   -1    0    0    0  501  0.00000000000E+00  0.00000000000E+00  0.18890081177E+04  0.18890081177E+04  0.25500000920E-02 0.  1.
        2   -1    0    0  501    0  0.00000000000E+00  0.00000000000E+00 -0.10445931559E+04  0.10445931559E+04  0.25500000920E-02 0. -1.
    10030    2    1    2    0    0  0.00000000000E+00  0.00000000000E+00  0.84441496178E+03  0.29336012737E+04  0.28094447503E+04 0.  0.
        1    1    3    3  502    0  0.91465712507E+03  0.28906764461E+03 -0.64934329477E+03  0.11583628422E+04  0.50400001928E-02 0. -1.
       -1    1    3    3    0  502 -0.91465712507E+03 -0.28906764461E+03  0.14937582566E+04  0.17752384315E+04  0.50400001928E-02 0.  1.
</event>
<event>
 5   0  0.2267565E-06  0.2743855E+04  0.7818609E-02  0.8320914E-01
       -1   -1    0    0    0  501  0.00000000000E+00  0.00000000000E+00  0.15365903379E+04  0.15365903379E+04  0.50400001928E-02 0. -1.
        1   -1    0    0  501    0  0.00000000000E+00  0.00000000000E+00 -0.12249096809E+04  0.12249096809E+04  0.50400001928E-02 0.  1.
    10030    2    1    2    0    0  0.00000000000E+00  0.00000000000E+00  0.31168065701E+03  0.27615000189E+04  0.27438545009E+04 0.  0.
        4    1    3    3  502    0 -0.83662648867E+03  0.60094356616E+03  0.10678165401E+04  0.14836815115E+04  0.12699999809E+01 0. -1.
       -4    1    3    3    0  502  0.83662648867E+03 -0.60094356616E+03 -0.75613588309E+03  0.12778185074E+04  0.12699999809E+01 0.  1.
</event>
<event>
 5   0  0.2206967E-06  0.2793555E+04  0.7818609E-02  0.8305272E-01
       -1   -1    0    0    0  501  0.00000000000E+00  0.00000000000E+00  0.93484475095E+03  0.93484475096E+03  0.50400001928E-02 0. -1.
        1   -1    0    0  501    0  0.00000000000E+00  0.00000000000E+00 -0.20869643734E+04  0.20869643734E+04  0.50400001928E-02 0.  1.
    10030    2    1    2    0    0  0.00000000000E+00  0.00000000000E+00 -0.11521196224E+04  0.30218091243E+04  0.27935552186E+04 0.  0.
        5    1    3    3  502    0  0.86052483910E+03  0.10501422105E+04 -0.93099160186E+03  0.16462287550E+04  0.46999998093E+01 0. -1.
       -5    1    3    3    0  502 -0.86052483910E+03 -0.10501422105E+04 -0.22112802057E+03  0.13755803693E+04  0.46999998093E+01 0.  1.
</event>
<event>
 5   0  0.5546570E-06  0.2711664E+04  0.7818609E-02  0.8331230E-01
       -2   -1    0    0    0  501  0.00000000000E+00  0.00000000000E+00  0.22027207812E+04  0.22027207812E+04  0.25500000920E-02 0. -1.
        2   -1    0    0  501    0  0.00000000000E+00  0.00000000000E+00 -0.83455013185E+03  0.83455013185E+03  0.25500000920E-02 0.  1.
    10030    2    1    2    0    0  0.00000000000E+00  0.00000000000E+00  0.13681706494E+04  0.30372709131E+04  0.27116643733E+04 0.  0.
        4    1    3    3  502    0  0.13547943256E+04 -0.10161933640E+02  0.62579424815E+03  0.14923776276E+04  0.12699999809E+01 0.  1.
       -4    1    3    3    0  502 -0.13547943256E+04  0.10161933640E+02  0.74237640121E+03  0.15448932854E+04  0.12699999809E+01 0. -1.
</event>
<event>
 5   0  0.5584205E-06  0.2790630E+04  0.7818609E-02  0.8306183E-01
        2   -1    0    0  501    0  0.00000000000E+00  0.00000000000E+00  0.17256910360E+04  0.17256910360E+04  0.25500000920E-02 0.  1.
       -2   -1    0    0    0  501  0.00000000000E+00  0.00000000000E+00 -0.11281879270E+04  0.11281879270E+04  0.25500000920E-02 0. -1.
    10030    2    1    2    0    0  0.00000000000E+00  0.00000000000E+00  0.59750310899E+03  0.28538789630E+04  0.27906298878E+04 0.  0.
        1    1    3    3  502    0 -0.12874883559E+04 -0.27388258990E+03  0.77213142994E+03  0.15260487819E+04  0.50400001928E-02 0.  1.
       -1    1    3    3    0  502  0.12874883559E+04  0.27388258990E+03 -0.17462832095E+03  0.13278301812E+04  0.50400001928E-02 0. -1.
</event>
<event>
 5   0  0.5916603E-06  0.2786478E+04  0.7818609E-02  0.8307479E-01
       -2   -1    0    0    0  501  0.00000000000E+00  0.00000000000E+00  0.14285546454E+04  0.14285546454E+04  0.25500000920E-02 0. -1.
        2   -1    0    0  501    0  0.00000000000E+00  0.00000000000E+00 -0.13587967102E+04  0.13587967102E+04  0.25500000920E-02 0.  1.
    10030    2    1    2    0    0  0.00000000000E+00  0.00000000000E+00  0.69757935179E+02  0.27873513556E+04  0.27864783168E+04 0.  0.
        2    1    3    3  502    0 -0.13496403597E+04  0.27348525110E+03 -0.17682871220E+03  0.13883773538E+04  0.25500000920E-02 0.  1.
       -2    1    3    3    0  502  0.13496403597E+04 -0.27348525110E+03  0.24658664738E+03  0.13989740018E+04  0.25500000920E-02 0. -1.
</event>
<event>
 5   0  0.5866136E-06  0.2788929E+04  0.7818609E-02  0.8306714E-01
        2   -1    0    0  501    0  0.00000000000E+00  0.00000000000E+00  0.12903305649E+04  0.12903305649E+04  0.25500000920E-02 0.  1.
       -2   -1    0    0    0  501  0.00000000000E+00  0.00000000000E+00 -0.15070024511E+04  0.15070024511E+04  0.25500000920E-02 0. -1.
    10030    2    1    2    0    0  0.00000000000E+00  0.00000000000E+00 -0.21667188622E+03  0.27973330160E+04  0.27889290590E+04 0.  0.
        5    1    3    3  502    0 -0.24710715505E+03  0.13615894678E+04  0.63999753812E+02  0.13853179720E+04  0.46999998093E+01 0.  1.
       -5    1    3    3    0  502  0.24710715505E+03 -0.13615894678E+04 -0.28067164003E+03  0.14120150440E+04  0.46999998093E+01 0. -1.
</event>
<event>
 5   0  0.5916603E-06  0.2779589E+04  0.7818609E-02  0.8309633E-01
        2   -1    0    0  501    0  0.00000000000E+00  0.00000000000E+00  0.15335496717E+04  0.15335496717E+04  0.25500000920E-02 0. -1.
       -2   -1    0    0    0  501  0.00000000000E+00  0.00000000000E+00 -0.12595152728E+04  0.12595152728E+04  0.25500000920E-02 0.  1.
    10030    2    1    2    0    0  0.00000000000E+00  0.00000000000E+00  0.27403439893E+03  0.27930649445E+04  0.27795893460E+04 0.  0.
        2    1    3    3  502    0 -0.13378413298E+04  0.37621308180E+03  0.15025400351E+03  0.13978311673E+04  0.25500000920E-02 0.  1.
       -2    1    3    3    0  502  0.13378413298E+04 -0.37621308180E+03  0.12378039542E+03  0.13952337772E+04  0.25500000920E-02 0. -1.
</event>
<event>
 5   0  0.2234068E-06  0.3120897E+04  0.7818609E-02  0.8210026E-01
        1   -1    0    0  501    0  0.00000000000E+00  0.00000000000E+00  0.18911388521E+04  0.18911388521E+04  0.50400001928E-02 0.  1.
       -1   -1    0    0    0  501  0.00000000000E+00  0.00000000000E+00 -0.12875836262E+04  0.12875836262E+04  0.50400001928E-02 0. -1.
    10030    2    1    2    0    0  0.00000000000E+00  0.00000000000E+00  0.60355522592E+03  0.31787224784E+04  0.31208969358E+04 0.  0.
        3    1    3    3  502    0  0.12031497040E+04  0.26822776224E+03  0.12763151719E+04  0.17744001158E+04  0.10100000352E+00 0.  1.
       -3    1    3    3    0  502 -0.12031497040E+04 -0.26822776224E+03 -0.67275994602E+03  0.14043223625E+04  0.10100000352E+00 0. -1.
</event>
<event>
 5   0  0.5584205E-06  0.2794784E+04  0.7818609E-02  0.8304889E-01
        2   -1    0    0  501    0  0.00000000000E+00  0.00000000000E+00  0.21319772312E+04  0.21319772312E+04  0.25500000920E-02 0. -1.
       -2   -1    0    0    0  501  0.00000000000E+00  0.00000000000E+00 -0.91591256479E+03  0.91591256479E+03  0.25500000920E-02 0.  1.
    10030    2    1    2    0    0  0.00000000000E+00  0.00000000000E+00  0.12160646664E+04  0.30478897960E+04  0.27947842378E+04 0.  0.
        1    1    3    3  502    0  0.68163132080E+03  0.12158653072E+04  0.50032003226E+03  0.14809692223E+04  0.50400001928E-02 0.  1.
       -1    1    3    3    0  502 -0.68163132080E+03 -0.12158653072E+04  0.71574463418E+03  0.15669205737E+04  0.50400001928E-02 0. -1.
</event>
<event>
 5   0  0.2190865E-06  0.2808451E+04  0.7818609E-02  0.8300649E-01
       -1   -1    0    0    0  501  0.00000000000E+00  0.00000000000E+00  0.12130641048E+04  0.12130641048E+04  0.50400001928E-02 0. -1.
        1   -1    0    0  501    0  0.00000000000E+00  0.00000000000E+00 -0.16255112889E+04  0.16255112889E+04  0.50400001928E-02 0.  1.
    10030    2    1    2    0    0  0.00000000000E+00  0.00000000000E+00 -0.41244718409E+03  0.28385753936E+04  0.28084511008E+04 0.  0.
        2    1    3    3  502    0 -0.10875794743E+03 -0.27052970387E+03  0.11821313297E+04  0.12175586607E+04  0.25500000920E-02 0. -1.
       -2    1    3    3    0  502  0.10875794743E+03  0.27052970387E+03 -0.15945785137E+04  0.16210167329E+04  0.25500000920E-02 0.  1.
</event>
<event>
 5   0  0.2267565E-06  0.2799226E+04  0.7818609E-02  0.8303509E-01
        1   -1    0    0  501    0  0.00000000000E+00  0.00000000000E+00  0.20007554304E+04  0.20007554304E+04  0.50400001928E-02 0. -1.
       -1   -1    0    0    0  501  0.00000000000E+00  0.00000000000E+00 -0.97908846823E+03  0.97908846825E+03  0.50400001928E-02 0.  1.
    10030    2    1    2    0    0  0.00000000000E+00  0.00000000000E+00  0.10216669621E+04  0.29798438986E+04  0.27992260142E+04 0.  0.
        4    1    3    3  502    0  0.43581872007E+02 -0.95048093322E+03  0.16035153917E+04  0.18645580196E+04  0.12699999809E+01 0. -1.
       -4    1    3    3    0  502 -0.43581872007E+02  0.95048093322E+03 -0.58184842962E+03  0.11152858790E+04  0.12699999809E+01 0.  1.
</event>
<event>
 5   0  0.5625245E-06  0.2796215E+04  0.7818609E-02  0.8304444E-01
        2   -1    0    0  501    0  0.00000000000E+00  0.00000000000E+00  0.14064310252E+04  0.14064310252E+04  0.25500000920E-02 0. -1.
       -2   -1    0    0    0  501  0.00000000000E+00  0.00000000000E+00 -0.13898335651E+04  0.13898335651E+04  0.25500000920E-02 0.  1.
    10030    2    1    2    0    0  0.00000000000E+00  0.00000000000E+00  0.16597460102E+02  0.27962645903E+04  0.27962153321E+04 0.  0.
        3    1    3    3  502    0  0.69469894156E+03 -0.45221311394E+03 -0.11175993011E+04  0.13914494341E+04  0.10100000352E+00 0.  1.
       -3    1    3    3    0  502 -0.69469894156E+03  0.45221311394E+03  0.11341967612E+04  0.14048151562E+04  0.10100000352E+00 0. -1.
</event>
<event>
 5   0  0.5866136E-06  0.2809513E+04  0.7818609E-02  0.8300321E-01
        2   -1    0    0  501    0  0.00000000000E+00  0.00000000000E+00  0.34604764550E+04  0.34604764550E+04  0.25500000920E-02 0.  1.
       -2   -1    0    0    0  501  0.00000000000E+00  0.00000000000E+00 -0.57025109871E+03  0.57025109872E+03  0.25500000920E-02 0. -1.
    10030    2    1    2    0    0  0.00000000000E+00  0.00000000000E+00  0.28902253563E+04  0.40307275537E+04  0.28095127695E+04 0.  0.
        5    1    3    3  502    0 -0.51348951412E+02 -0.38616847524E+03  0.33814171582E+04  0.34037871399E+04  0.46999998093E+01 0.  1.
       -5    1    3    3    0  502  0.51348951412E+02  0.38616847524E+03 -0.49119180196E+03  0.62694041375E+03  0.46999998093E+01 0. -1.
</event>
<event>
 5   0  0.5866136E-06  0.2806896E+04  0.7818609E-02  0.8301131E-01
        2   -1    0    0  501    0  0.00000000000E+00  0.00000000000E+00  0.15853839963E+04  0.15853839963E+04  0.25500000920E-02 0. -1.
       -2   -1    0    0    0  501  0.00000000000E+00  0.00000000000E+00 -0.12423906045E+04  0.12423906045E+04  0.25500000920E-02 0.  1.
    10030    2    1    2    0    0  0.00000000000E+00  0.00000000000E+00  0.34299339174E+03  0.28277746008E+04  0.28068959236E+04 0.  0.
        5    1    3    3  502    0  0.78274269557E+03 -0.48298585061E+02 -0.10010443552E+04  0.12716645674E+04  0.46999998093E+01 0.  1.
       -5    1    3    3    0  502 -0.78274269557E+03  0.48298585061E+02  0.13440377470E+04  0.15561100334E+04  0.46999998093E+01 0. -1.
</event>
<event>
 5   0  0.5584205E-06  0.2792049E+04  0.7818609E-02  0.8305741E-01
        2   -1    0    0  501    0  0.00000000000E+00  0.00000000000E+00  0.24001051727E+04  0.24001051727E+04  0.25500000920E-02 0. -1.
       -2   -1    0    0    0  501  0.00000000000E+00  0.00000000000E+00 -0.81199965109E+03  0.81199965109E+03  0.25500000920E-02 0.  1.
    10030    2    1    2    0    0  0.00000000000E+00  0.00000000000E+00  0.15881055216E+04  0.32121048238E+04  0.27920491134E+04 0.  0.
        1    1    3    3  502    0 -0.78821809320E+03 -0.61339284845E+03  0.19161639877E+04  0.21608384893E+04  0.50400001928E-02 0. -1.
       -1    1    3    3    0  502  0.78821809320E+03  0.61339284845E+03 -0.32805846606E+03  0.10512663345E+04  0.50400001928E-02 0.  1.
</event>
<event>
 5   0  0.2267565E-06  0.2801576E+04  0.7818609E-02  0.8302779E-01
       -1   -1    0    0    0  501  0.00000000000E+00  0.00000000000E+00  0.10412903904E+04  0.10412903905E+04  0.50400001928E-02 0.  1.
        1   -1    0    0  501    0  0.00000000000E+00  0.00000000000E+00 -0.18843998212E+04  0.18843998212E+04  0.50400001928E-02 0. -1.
    10030    2    1    2    0    0  0.00000000000E+00  0.00000000000E+00 -0.84310943074E+03  0.29256902116E+04  0.28015762889E+04 0.  0.
        4    1    3    3  502    0  0.29596896495E+03 -0.33221140938E+03  0.96553701043E+03  0.10631205859E+04  0.12699999809E+01 0.  1.
       -4    1    3    3    0  502 -0.29596896495E+03  0.33221140938E+03 -0.18086464412E+04  0.18625696258E+04  0.12699999809E+01 0. -1.
</event>
<event>
 5   0  0.1901375E-06  0.2801107E+04  0.7818609E-02  0.8302925E-01
       -3   -1    0    0    0  501  0.00000000000E+00  0.00000000000E+00  0.68243275395E+03  0.68243276142E+03  0.10100000352E+00 0.  1.
        3   -1    0    0  501    0  0.00000000000E+00  0.00000000000E+00 -0.28743484560E+04  0.28743484577E+04  0.10100000352E+00 0. -1.
    10030    2    1    2    0    0  0.00000000000E+00  0.00000000000E+00 -0.21919157020E+04  0.35567812192E+04  0.28011066021E+04 0.  0.
        3    1    3    3  502    0  0.61175422894E+03 -0.48598822070E+02 -0.26945384528E+04  0.27635380522E+04  0.10100000352E+00 0. -1.
       -3    1    3    3    0  502 -0.61175422894E+03  0.48598822070E+02  0.50262275078E+03  0.79324316697E+03  0.10100000352E+00 0.  1.
</event>
<event>
 5   0  0.5866136E-06  0.2829362E+04  0.7818609E-02  0.8294210E-01
       -2   -1    0    0    0  501  0.00000000000E+00  0.00000000000E+00  0.10041233822E+04  0.10041233822E+04  0.25500000920E-02 0. -1.
        2   -1    0    0  501    0  0.00000000000E+00  0.00000000000E+00 -0.19931044879E+04  0.19931044879E+04  0.25500000920E-02 0.  1.
    10030    2    1    2    0    0  0.00000000000E+00  0.00000000000E+00 -0.98898110573E+03  0.29972278700E+04  0.28293623447E+04 0.  0.
        5    1    3    3  502    0  0.77246832277E+03  0.10855151552E+04 -0.99836895520E+03  0.16648763085E+04  0.46999998093E+01 0.  1.
       -5    1    3    3    0  502 -0.77246832277E+03 -0.10855151552E+04  0.93878494710E+01  0.13323515616E+04  0.46999998093E+01 0. -1.
</event>
<event>
 5   0  0.5916603E-06  0.2846352E+04  0.7818609E-02  0.8289021E-01
       -2   -1    0    0    0  501  0.00000000000E+00  0.00000000000E+00  0.10153065843E+04  0.10153065843E+04  0.25500000920E-02 0.  1.
        2   -1    0    0  501    0  0.00000000000E+00  0.00000000000E+00 -0.19948945274E+04  0.19948945274E+04  0.25500000920E-02 0. -1.
    10030    2    1    2    0    0  0.00000000000E+00  0.00000000000E+00 -0.97958794311E+03  0.30102011117E+04  0.28463517342E+04 0.  0.
        2    1    3    3  502    0 -0.47539348095E+03 -0.50976687900E+03 -0.18020132920E+04  0.19321265841E+04  0.25500000920E-02 0. -1.
       -2    1    3    3    0  502  0.47539348095E+03  0.50976687900E+03  0.82242534885E+03  0.10780745276E+04  0.25500000920E-02 0.  1.
</event>
<event>
 5   0  0.5625245E-06  0.2784353E+04  0.7818609E-02  0.8308143E-01
       -2   -1    0    0    0  501  0.00000000000E+00  0.00000000000E+00  0.89851604423E+03  0.89851604424E+03  0.25500000920E-02 0. -1.
        2   -1    0    0  501    0  0.00000000000E+00  0.00000000000E+00 -0.21570631829E+04  0.21570631829E+04  0.25500000920E-02 0.  1.
    10030    2    1    2    0    0  0.00000000000E+00  0.00000000000E+00 -0.12585471387E+04  0.30555792272E+04  0.27843533384E+04 0.  0.
        3    1    3    3  502    0  0.40486943615E+03 -0.14686750645E+03 -0.20821171209E+04  0.21261940269E+04  0.10100000352E+00 0.  1.
       -3    1    3    3    0  502 -0.40486943615E+03  0.14686750645E+03  0.82356998217E+03  0.92938520028E+03  0.10100000352E+00 0. -1.
</event>
<event>
 5   0  0.2277133E-06  0.2758191E+04  0.7818609E-02  0.8316367E-01
       -1   -1    0    0    0  501  0.00000000000E+00  0.00000000000E+00  0.11252476335E+04  0.11252476335E+04  0.50400001928E-02 0. -1.
        1   -1    0    0  501    0  0.00000000000E+00  0.00000000000E+00 -0.16902096966E+04  0.16902096966E+04  0.50400001928E-02 0.  1.
    10030    2    1    2    0    0  0.00000000000E+00  0.00000000000E+00 -0.56496206310E+03  0.28154573300E+04  0.27581910457E+04 0.  0.
        1    1    3    3  502    0  0.12607557549E+04  0.43132665518E+03  0.80366146718E+02  0.13349181528E+04  0.50400001928E-02 0.  1.
       -1    1    3    3    0  502 -0.12607557549E+04 -0.43132665518E+03 -0.64532820982E+03  0.14805391773E+04  0.50400001928E-02 0. -1.
</event>
<event>
 5   0  0.5625245E-06  0.2808268E+04  0.7818609E-02  0.8300706E-01
       -2   -1    0    0    0  501  0.00000000000E+00  0.00000000000E+00  0.11232447114E+04  0.11232447114E+04  0.25500000920E-02 0.  1.
        2   -1    0    0  501    0  0.00000000000E+00  0.00000000000E+00 -0.17552656679E+04  0.17552656679E+04  0.25500000920E-02 0. -1.
    10030    2    1    2    0    0  0.00000000000E+00  0.00000000000E+00 -0.63202095652E+03  0.28785103793E+04  0.28082684192E+04 0.  0.
        3    1    3    3  502    0 -0.11845332328E+04  0.69100152101E+03 -0.62520222563E+03  0.15071429643E+04  0.10100000352E+00 0. -1.
       -3    1    3    3    0  502  0.11845332328E+04 -0.69100152101E+03 -0.68187308911E+01  0.13713674150E+04  0.10100000352E+00 0.  1.
</event>
<event>
 5   0  0.5866136E-06  0.2780725E+04  0.7818609E-02  0.8309278E-01
       -2   -1    0    0    0  501  0.00000000000E+00  0.00000000000E+00  0.10815626214E+04  0.10815626214E+04  0.25500000920E-02 0. -1.
        2   -1    0    0  501    0  0.00000000000E+00  0.00000000000E+00 -0.17873287811E+04  0.17873287811E+04  0.25500000920E-02 0.  1.
    10030    2    1    2    0    0  0.00000000000E+00  0.00000000000E+00 -0.70576615963E+03  0.28688914025E+04  0.27807250866E+04 0.  0.
        5    1    3    3  502    0  0.28741014614E+03 -0.60071778011E+03 -0.16120802061E+04  0.17442164787E+04  0.46999998093E+01 0.  1.
       -5    1    3    3    0  502 -0.28741014614E+03  0.60071778011E+03  0.90631404651E+03  0.11246749239E+04  0.46999998093E+01 0. -1.
</event>
<event>
 5   0  0.2277133E-06  0.2793910E+04  0.7818609E-02  0.8305162E-01
        1   -1    0    0  501    0  0.00000000000E+00  0.00000000000E+00  0.12834848540E+04  0.12834848540E+04  0.50400001928E-02 0.  1.
       -1   -1    0    0    0  501  0.00000000000E+00  0.00000000000E+00 -0.15204565032E+04  0.15204565032E+04  0.50400001928E-02 0. -1.
    10030    2    1    2    0    0  0.00000000000E+00  0.00000000000E+00 -0.23697164920E+03  0.28039413572E+04  0.27939097286E+04 0.  0.
        1    1    3    3  502    0 -0.45242258011E+03  0.15397360802E+03  0.11988921253E+04  0.12906341042E+04  0.50400001928E-02 0.  1.
       -1    1    3    3    0  502  0.45242258011E+03 -0.15397360802E+03 -0.14358637745E+04  0.15133072529E+04  0.50400001928E-02 0. -1.
</event>
<event>
 5   0  0.2190865E-06  0.2811477E+04  0.7818609E-02  0.8299714E-01
       -1   -1    0    0    0  501  0.00000000000E+00  0.00000000000E+00  0.13361773183E+04  0.13361773183E+04  0.50400001928E-02 0. -1.
        1   -1    0    0  501    0  0.00000000000E+00  0.00000000000E+00 -0.14789215192E+04  0.14789215193E+04  0.50400001928E-02 0.  1.
    10030    2    1    2    0    0  0.00000000000E+00  0.00000000000E+00 -0.14274420095E+03  0.28150988376E+04  0.28114774689E+04 0.  0.
        2    1    3    3  502    0 -0.34938955778E+03  0.19258427852E+03 -0.14210473626E+04  0.14759869153E+04  0.25500000920E-02 0.  1.
       -2    1    3    3    0  502  0.34938955778E+03 -0.19258427852E+03  0.12783031616E+04  0.13391119223E+04  0.25500000920E-02 0. -1.
</event>
<event>
 5   0  0.5546570E-06  0.2788802E+04  0.7818609E-02  0.8306753E-01
        2   -1    0    0  501    0  0.00000000000E+00  0.00000000000E+00  0.29409190717E+04  0.29409190717E+04  0.25500000920E-02 0. -1.
       -2   -1    0    0    0  501  0.00000000000E+00  0.00000000000E+00 -0.66113806675E+03  0.66113806676E+03  0.25500000920E-02 0.  1.
    10030    2    1    2    0    0  0.00000000000E+00  0.00000000000E+00  0.22797810050E+04  0.36020571385E+04  0.27888015703E+04 0.  0.
        4    1    3    3  502    0  0.32804512932E+03  0.41826704791E+02  0.28895345313E+04  0.29083972392E+04  0.12699999809E+01 0. -1.
       -4    1    3    3    0  502 -0.32804512932E+03 -0.41826704791E+02 -0.60975352636E+03  0.69365989932E+03  0.12699999809E+01 0.  1.
</event>
<event>
 5   0  0.5546570E-06  0.2820221E+04  0.7818609E-02  0.8297018E-01
       -2   -1    0    0    0  501  0.00000000000E+00  0.00000000000E+00  0.14876966919E+04  0.14876966919E+04  0.25500000920E-02 0. -1.
        2   -1    0    0  501    0  0.00000000000E+00  0.00000000000E+00 -0.13365703245E+04  0.13365703245E+04  0.25500000920E-02 0.  1.
    10030    2    1    2    0    0  0.00000000000E+00  0.00000000000E+00  0.15112636742E+03  0.28242670165E+04  0.28202207363E+04 0.  0.
        4    1    3    3  502    0  0.48235633070E+03  0.12853241290E+04 -0.24689863295E+03  0.13948785948E+04  0.12699999809E+01 0. -1.
       -4    1    3    3    0  502 -0.48235633070E+03 -0.12853241290E+04  0.39802500037E+03  0.14293884217E+04  0.12699999809E+01 0.  1.
</event>
<event>
 5   0  0.5916603E-06  0.2805793E+04  0.7818609E-02  0.8301472E-01
        2   -1    0    0  501    0  0.00000000000E+00  0.00000000000E+00  0.97856331830E+03  0.97856331830E+03  0.25500000920E-02 0.  1.
       -2   -1    0    0    0  501  0.00000000000E+00  0.00000000000E+00 -0.20112323080E+04  0.20112323080E+04  0.25500000920E-02 0. -1.
    10030    2    1    2    0    0  0.00000000000E+00  0.00000000000E+00 -0.10326689897E+04  0.29897956263E+04  0.28057926946E+04 0.  0.
        2    1    3    3  502    0 -0.12868819417E+03 -0.82559823173E+03 -0.17171558157E+04  0.19096589190E+04  0.25500000920E-02 0. -1.
       -2    1    3    3    0  502  0.12868819417E+03  0.82559823173E+03  0.68448682598E+03  0.10801367073E+04  0.25500000920E-02 0.  1.
</event>
<event>
 5   0  0.5584205E-06  0.2810818E+04  0.7818609E-02  0.8299918E-01
        2   -1    0    0  501    0  0.00000000000E+00  0.00000000000E+00  0.11048340694E+04  0.11048340694E+04  0.25500000920E-02 0.  1.
       -2   -1    0    0    0  501  0.00000000000E+00  0.00000000000E+00 -0.17877565043E+04  0.17877565043E+04  0.25500000920E-02 0. -1.
    10030    2    1    2    0    0  0.00000000000E+00  0.00000000000E+00 -0.68292243486E+03  0.28925905737E+04  0.28108178837E+04 0.  0.
        1    1    3    3  502    0  0.69567727455E+03 -0.12195646184E+04 -0.27744568878E+03  0.14311816233E+04  0.50400001928E-02 0. -1.
       -1    1    3    3    0  502 -0.69567727455E+03  0.12195646184E+04 -0.40547674608E+03  0.14614089504E+04  0.50400001928E-02 0.  1.
</event>
<event>
 5   0  0.5546570E-06  0.2816475E+04  0.7818609E-02  0.8298172E-01
        2   -1    0    0  501    0  0.00000000000E+00  0.00000000000E+00  0.25838722004E+04  0.25838722004E+04  0.25500000920E-02 0. -1.
       -2   -1    0    0    0  501  0.00000000000E+00  0.00000000000E+00 -0.76750444032E+03  0.76750444032E+03  0.25500000920E-02 0.  1.
    10030    2    1    2    0    0  0.00000000000E+00  0.00000000000E+00  0.18163677601E+04  0.33513766408E+04  0.28164753768E+04 0.  0.
        4    1    3    3  502    0  0.75991822366E+03 -0.40220654512E+03 -0.41892807948E+03  0.95642467569E+03  0.12699999809E+01 0.  1.
       -4    1    3    3    0  502 -0.75991822366E+03  0.40220654512E+03  0.22352958396E+04  0.23949519651E+04  0.12699999809E+01 0. -1.
</event>
<event>
 5   0  0.5625245E-06  0.2794831E+04  0.7818609E-02  0.8304875E-01
       -2   -1    0    0    0  501  0.00000000000E+00  0.00000000000E+00  0.10330544493E+04  0.10330544493E+04  0.25500000920E-02 0. -1.
        2   -1    0    0  501    0  0.00000000000E+00  0.00000000000E+00 -0.18902880117E+04  0.18902880117E+04  0.25500000920E-02 0.  1.
    10030    2    1    2    0    0  0.00000000000E+00  0.00000000000E+00 -0.85723356241E+03  0.29233424611E+04  0.27948312586E+04 0.  0.
        3    1    3    3  502    0  0.99334810530E+03 -0.76619491975E+03  0.21529973610E+03  0.12728507768E+04  0.10100000352E+00 0. -1.
       -3    1    3    3    0  502 -0.99334810530E+03  0.76619491975E+03 -0.10725332985E+04  0.16504916843E+04  0.10100000352E+00 0.  1.
</event>
<event>
 5   0  0.2234068E-06  0.2793636E+04  0.7818609E-02  0.8305247E-01
        1   -1    0    0  501    0  0.00000000000E+00  0.00000000000E+00  0.15643663123E+04  0.15643663124E+04  0.50400001928E-02 0.  1.
       -1   -1    0    0    0  501  0.00000000000E+00  0.00000000000E+00 -0.12472142042E+04  0.12472142042E+04  0.50400001928E-02 0. -1.
    10030    2    1    2    0    0  0.00000000000E+00  0.00000000000E+00  0.31715210816E+03  0.28115805165E+04  0.27936355420E+04 0.  0.
        3    1    3    3  502    0  0.64697647408E+03 -0.90706624324E+03 -0.68930344658E+03  0.13101476937E+04  0.10100000352E+00 0. -1.
       -3    1    3    3    0  502 -0.64697647408E+03  0.90706624324E+03  0.10064555547E+04  0.15014328228E+04  0.10100000352E+00 0.  1.
</event>
<event>
 5   0  0.2234068E-06  0.2785960E+04  0.7818609E-02  0.8307640E-01
        1   -1    0    0  501    0  0.00000000000E+00  0.00000000000E+00  0.20344243524E+04  0.20344243524E+04  0.50400001928E-02 0.  1.
       -1   -1    0    0    0  501  0.00000000000E+00  0.00000000000E+00 -0.95378028216E+03  0.95378028218E+03  0.50400001928E-02 0. -1.
    10030    2    1    2    0    0  0.00000000000E+00  0.00000000000E+00  0.10806440703E+04  0.29882046346E+04  0.27859603966E+04 0.  0.
        3    1    3    3  502    0 -0.85821045823E+03 -0.58301967929E+03  0.15372904082E+04  0.18546425387E+04  0.10100000352E+00 0.  1.
       -3    1    3    3    0  502  0.85821045823E+03  0.58301967929E+03 -0.45664633794E+03  0.11335620959E+04  0.10100000352E+00 0. -1.
</event>
<event>
 5   0  0.2267565E-06  0.2803175E+04  0.7818609E-02  0.8302283E-01
       -1   -1    0    0    0  501  0.00000000000E+00  0.00000000000E+00  0.10606907770E+04  0.10606907770E+04  0.50400001928E-02 0. -1.
        1   -1    0    0  501    0  0.00000000000E+00  0.00000000000E+00 -0.18520458132E+04  0.18520458132E+04  0.50400001928E-02 0.  1.
    10030    2    1    2    0    0  0.00000000000E+00  0.00000000000E+00 -0.79135503622E+03  0.29127365902E+04  0.28031752800E+04 0.  0.
        4    1    3    3  502    0  0.81002325779E+03 -0.10071463934E+04 -0.95905384654E+03  0.16094307781E+04  0.12699999809E+01 0.  1.
       -4    1    3    3    0  502 -0.81002325779E+03  0.10071463934E+04  0.16769881032E+03  0.13033058121E+04  0.12699999809E+01 0. -1.
</event>
<event>
 5   0  0.2277133E-06  0.2768843E+04  0.7818609E-02  0.8313007E-01
        1   -1    0    0  501    0  0.00000000000E+00  0.00000000000E+00  0.11340086669E+04  0.11340086669E+04  0.50400001928E-02 0. -1.
       -1   -1    0    0    0  501  0.00000000000E+00  0.00000000000E+00 -0.16901307706E+04  0.16901307706E+04  0.50400001928E-02 0.  1.
    10030    2    1    2    0    0  0.00000000000E+00  0.00000000000E+00 -0.55612210371E+03  0.28241394374E+04  0.27688430378E+04 0.  0.
        1    1    3    3  502    0  0.48239672967E+03  0.45174201859E+03  0.96272237706E+03  0.11677379122E+04  0.50400001928E-02 0. -1.
       -1    1    3    3    0  502 -0.48239672967E+03 -0.45174201859E+03 -0.15188444808E+04  0.16564015253E+04  0.50400001928E-02 0.  1.
</event>
<event>
 5   0  0.5584205E-06  0.2800527E+04  0.7818609E-02  0.8303105E-01
        2   -1    0    0  501    0  0.00000000000E+00  0.00000000000E+00  0.15655959371E+04  0.15655959371E+04  0.25500000920E-02 0. -1.
       -2   -1    0    0    0  501  0.00000000000E+00  0.00000000000E+00 -0.12523907888E+04  0.12523907889E+04  0.25500000920E-02 0.  1.
    10030    2    1    2    0    0  0.00000000000E+00  0.00000000000E+00  0.31320514828E+03  0.28179867260E+04  0.28005270438E+04 0.  0.
        1    1    3    3  502    0  0.10895523291E+04 -0.45821792383E+03  0.91204943842E+03  0.14929575084E+04  0.50400001928E-02 0. -1.
       -1    1    3    3    0  502 -0.10895523291E+04  0.45821792383E+03 -0.59884429014E+03  0.13250292176E+04  0.50400001928E-02 0.  1.
</event>
<event>
 5   0  0.5546570E-06  0.2871372E+04  0.7818609E-02  0.8281446E-01
       -2   -1    0    0    0  501  0.00000000000E+00  0.00000000000E+00  0.11538949579E+04  0.11538949579E+04  0.25500000920E-02 0.  1.
        2   -1    0    0  501    0  0.00000000000E+00  0.00000000000E+00 -0.17862931434E+04  0.17862931434E+04  0.25500000920E-02 0. -1.
    10030    2    1    2    0    0  0.00000000000E+00  0.00000000000E+00 -0.63239818553E+03  0.29401881014E+04  0.28713722514E+04 0.  0.
        4    1    3    3  502    0  0.94534173852E+02 -0.11157437699E+03 -0.17786463333E+04  0.17846484089E+04  0.12699999809E+01 0. -1.
       -4    1    3    3    0  502 -0.94534173852E+02  0.11157437699E+03  0.11462481478E+04  0.11555396924E+04  0.12699999809E+01 0.  1.
</event>
<event>
 5   0  0.5916603E-06  0.2788439E+04  0.7818609E-02  0.8306866E-01
        2   -1    0    0  501    0  0.00000000000E+00  0.00000000000E+00  0.11175284437E+04  0.11175284437E+04  0.25500000920E-02 0.  1.
       -2   -1    0    0    0  501  0.00000000000E+00  0.00000000000E+00 -0.17394174424E+04  0.17394174424E+04  0.25500000920E-02 0. -1.
    10030    2    1    2    0    0  0.00000000000E+00  0.00000000000E+00 -0.62188899872E+03  0.28569458861E+04  0.27884393250E+04 0.  0.
        2    1    3    3  502    0 -0.42842753951E+02 -0.78979025445E+03 -0.14873004936E+04  0.16845375941E+04  0.25500000920E-02 0. -1.
       -2    1    3    3    0  502  0.42842753951E+02  0.78979025445E+03  0.86541149490E+03  0.11724082920E+04  0.25500000920E-02 0.  1.
</event>
<event>
 5   0  0.1901375E-06  0.2792401E+04  0.7818609E-02  0.8305631E-01
        3   -1    0    0  501    0  0.00000000000E+00  0.00000000000E+00  0.16988974658E+04  0.16988974688E+04  0.10100000352E+00 0.  1.
       -3   -1    0    0    0  501  0.00000000000E+00  0.00000000000E+00 -0.11474361226E+04  0.11474361270E+04  0.10100000352E+00 0. -1.
    10030    2    1    2    0    0  0.00000000000E+00  0.00000000000E+00  0.55146134321E+03  0.28463335958E+04  0.27924013547E+04 0.  0.
        2    1    3    3  502    0  0.91047700852E+03  0.99456117114E+03 -0.93559358636E+02  0.13516189033E+04  0.25500000920E-02 0. -1.
       -2    1    3    3    0  502 -0.91047700852E+03 -0.99456117114E+03  0.64502070184E+03  0.14947146925E+04  0.25500000920E-02 0.  1.
</event>
<event>
 5   0  0.2234068E-06  0.2796198E+04  0.7818609E-02  0.8304450E-01
        1   -1    0    0  501    0  0.00000000000E+00  0.00000000000E+00  0.16512290054E+04  0.16512290054E+04  0.50400001928E-02 0.  1.
       -1   -1    0    0    0  501  0.00000000000E+00  0.00000000000E+00 -0.11837731606E+04  0.11837731606E+04  0.50400001928E-02 0. -1.
    10030    2    1    2    0    0  0.00000000000E+00  0.00000000000E+00  0.46745584478E+03  0.28350021660E+04  0.27961978317E+04 0.  0.
        3    1    3    3  502    0 -0.11820572294E+04 -0.16802969724E+03 -0.50381993405E+03  0.12958888104E+04  0.10100000352E+00 0. -1.
       -3    1    3    3    0  502  0.11820572294E+04  0.16802969724E+03  0.97127577883E+03  0.15391133556E+04  0.10100000352E+00 0.  1.
</event>
<event>
 5   0  0.5584205E-06  0.2820921E+04  0.7818609E-02  0.8296803E-01
        2   -1    0    0  501    0  0.00000000000E+00  0.00000000000E+00  0.15737265627E+04  0.15737265627E+04  0.25500000920E-02 0. -1.
       -2   -1    0    0    0  501  0.00000000000E+00  0.00000000000E+00 -0.12641321209E+04  0.12641321209E+04  0.25500000920E-02 0.  1.
    10030    2    1    2    0    0  0.00000000000E+00  0.00000000000E+00  0.30959444175E+03  0.28378586836E+04  0.28209206280E+04 0.  0.
        1    1    3    3  502    0 -0.12094323530E+04 -0.11955107136E+03 -0.56530749251E+03  0.13403699625E+04  0.50400001928E-02 0.  1.
       -1    1    3    3    0  502  0.12094323530E+04  0.11955107136E+03  0.87490193427E+03  0.14974887211E+04  0.50400001928E-02 0. -1.
</event>
<event>
 5   0  0.2267565E-06  0.2789341E+04  0.7818609E-02  0.8306585E-01
        1   -1    0    0  501    0  0.00000000000E+00  0.00000000000E+00  0.16442948863E+04  0.16442948864E+04  0.50400001928E-02 0. -1.
       -1   -1    0    0    0  501  0.00000000000E+00  0.00000000000E+00 -0.11829421771E+04  0.11829421771E+04  0.50400001928E-02 0.  1.
    10030    2    1    2    0    0  0.00000000000E+00  0.00000000000E+00  0.46135270926E+03  0.28272370634E+04  0.27893409778E+04 0.  0.
        4    1    3    3  502    0 -0.70595783420E+03 -0.88487186145E+03 -0.59508807971E+03  0.12788690748E+04  0.12699999809E+01 0. -1.
       -4    1    3    3    0  502  0.70595783420E+03  0.88487186145E+03  0.10564407890E+04  0.15483679887E+04  0.12699999809E+01 0.  1.
</event>
<event>
 5   0  0.2234068E-06  0.2797691E+04  0.7818609E-02  0.8303986E-01
        1   -1    0    0  501    0  0.00000000000E+00  0.00000000000E+00  0.11718251218E+04  0.11718251219E+04  0.50400001928E-02 0.  1.
       -1   -1    0    0    0  501  0.00000000000E+00  0.00000000000E+00 -0.16698473043E+04  0.16698473043E+04  0.50400001928E-02 0. -1.
    10030    2    1    2    0    0  0.00000000000E+00  0.00000000000E+00 -0.49802218244E+03  0.28416724261E+04  0.27976912059E+04 0.  0.
        3    1    3    3  502    0  0.23229990227E+03  0.40495593827E+03  0.10903605709E+04  0.11861023317E+04  0.10100000352E+00 0.  1.
       -3    1    3    3    0  502 -0.23229990227E+03 -0.40495593827E+03 -0.15883827533E+04  0.16555700945E+04  0.10100000352E+00 0. -1.
</event>
<event>
 5   0  0.2277133E-06  0.2801165E+04  0.7818609E-02  0.8302907E-01
        1   -1    0    0  501    0  0.00000000000E+00  0.00000000000E+00  0.22847731776E+04  0.22847731776E+04  0.50400001928E-02 0.  1.
       -1   -1    0    0    0  501  0.00000000000E+00  0.00000000000E+00 -0.85856722283E+03  0.85856722284E+03  0.50400001928E-02 0. -1.
    10030    2    1    2    0    0  0.00000000000E+00  0.00000000000E+00  0.14262059547E+04  0.31433404004E+04  0.28011650161E+04 0.  0.
        1    1    3    3  502    0  0.67612190695E+03 -0.64264973152E+03  0.18854683150E+04  0.21035993624E+04  0.50400001928E-02 0.  1.
       -1    1    3    3    0  502 -0.67612190695E+03  0.64264973152E+03 -0.45926236030E+03  0.10397410380E+04  0.50400001928E-02 0. -1.
</event>
<event>
 5   0  0.1901375E-06  0.2760097E+04  0.7818609E-02  0.8315765E-01
        3   -1    0    0  501    0  0.00000000000E+00  0.00000000000E+00  0.17253083596E+04  0.17253083626E+04  0.10100000352E+00 0.  1.
       -3   -1    0    0    0  501  0.00000000000E+00  0.00000000000E+00 -0.11038803420E+04  0.11038803466E+04  0.10100000352E+00 0. -1.
    10030    2    1    2    0    0  0.00000000000E+00  0.00000000000E+00  0.62142801763E+03  0.28291887092E+04  0.27600970945E+04 0.  0.
        2    1    3    3  502    0  0.12233151244E+04  0.46379332535E+03  0.76094695334E+03  0.15134874985E+04  0.25500000920E-02 0. -1.
       -2    1    3    3    0  502 -0.12233151244E+04 -0.46379332535E+03 -0.13951893570E+03  0.13157012107E+04  0.25500000920E-02 0.  1.
</event>
<event>
 5   0  0.2234068E-06  0.2783827E+04  0.7818609E-02  0.8308307E-01
        1   -1    0    0  501    0  0.00000000000E+00  0.00000000000E+00  0.16064978245E+04  0.16064978245E+04  0.50400001928E-02 0. -1.
       -1   -1    0    0    0  501  0.00000000000E+00  0.00000000000E+00 -0.12059920462E+04  0.12059920462E+04  0.50400001928E-02 0.  1.
    10030    2    1    2    0    0  0.00000000000E+00  0.00000000000E+00  0.40050577829E+03  0.28124898708E+04  0.27838272926E+04 0.  0.
        3    1    3    3  502    0  0.13062433542E+03 -0.13106433774E+04 -0.25446432709E+03  0.13414920364E+04  0.10100000352E+00 0.  1.
       -3    1    3    3    0  502 -0.13062433542E+03  0.13106433774E+04  0.65497010538E+03  0.14709978344E+04  0.10100000352E+00 0. -1.
</event>
<event>
 5   0  0.5546570E-06  0.2799324E+04  0.7818609E-02  0.8303478E-01
        2   -1    0    0  501    0  0.00000000000E+00  0.00000000000E+00  0.10521058685E+04  0.10521058685E+04  0.25500000920E-02 0. -1.
       -2   -1    0    0    0  501  0.00000000000E+00  0.00000000000E+00 -0.18620310740E+04  0.18620310740E+04  0.25500000920E-02 0.  1.
    10030    2    1    2    0    0  0.00000000000E+00  0.00000000000E+00 -0.80992520549E+03  0.29141369424E+04  0.27993240757E+04 0.  0.
        4    1    3    3  502    0 -0.72817594810E+03  0.11867778324E+04 -0.25638400286E+03  0.14157740656E+04  0.12699999809E+01 0. -1.
       -4    1    3    3    0  502  0.72817594810E+03 -0.11867778324E+04 -0.55354120264E+03  0.14983628769E+04  0.12699999809E+01 0.  1.
</event>
<event>
 5   0  0.5584205E-06  0.2894706E+04  0.7818609E-02  0.8274454E-01
        2   -1    0    0  501    0  0.00000000000E+00  0.00000000000E+00  0.18278476442E+04  0.18278476442E+04  0.25500000920E-02 0.  1.
       -2   -1    0    0    0  501  0.00000000000E+00  0.00000000000E+00 -0.11460642423E+04  0.11460642423E+04  0.25500000920E-02 0. -1.
    10030    2    1    2    0    0  0.00000000000E+00  0.00000000000E+00  0.68178340196E+03  0.29739118865E+04  0.28947060821E+04 0.  0.
        1    1    3    3  502    0 -0.79381159215E+03  0.43269376542E+03 -0.82028681752E+03  0.12207502617E+04  0.50400001928E-02 0. -1.
       -1    1    3    3    0  502  0.79381159215E+03 -0.43269376542E+03  0.15020702195E+04  0.17531616248E+04  0.50400001928E-02 0.  1.
</event>
<event>
 5   0  0.2267565E-06  0.2836085E+04  0.7818609E-02  0.8292152E-01
        1   -1    0    0  501    0  0.00000000000E+00  0.00000000000E+00  0.26495745939E+04  0.26495745939E+04  0.50400001928E-02 0.  1.
       -1   -1    0    0    0  501  0.00000000000E+00  0.00000000000E+00 -0.75893092252E+03  0.75893092253E+03  0.50400001928E-02 0. -1.
    10030    2    1    2    0    0  0.00000000000E+00  0.00000000000E+00  0.18906436714E+04  0.34085055165E+04  0.28360846891E+04 0.  0.
        4    1    3    3  502    0  0.68171335063E+03  0.12403815014E+04  0.10498408259E+04  0.17622277758E+04  0.12699999809E+01 0. -1.
       -4    1    3    3    0  502 -0.68171335063E+03 -0.12403815014E+04  0.84080284551E+03  0.16462777406E+04  0.12699999809E+01 0.  1.
</event>
<event>
 5   0  0.5866136E-06  0.2584731E+04  0.7818609E-02  0.8373406E-01
       -2   -1    0    0    0  501  0.00000000000E+00  0.00000000000E+00  0.11154941460E+04  0.11154941460E+04  0.25500000920E-02 0. -1.
        2   -1    0    0  501    0  0.00000000000E+00  0.00000000000E+00 -0.14972809241E+04  0.14972809241E+04  0.25500000920E-02 0.  1.
    10030    2    1    2    0    0  0.00000000000E+00  0.00000000000E+00 -0.38178677810E+03  0.26127750702E+04  0.25847306288E+04 0.  0.
        5    1    3    3  502    0 -0.34512002381E+03 -0.25129412433E+03  0.10421487078E+04  0.11262116084E+04  0.46999998093E+01 0. -1.
       -5    1    3    3    0  502  0.34512002381E+03  0.25129412433E+03 -0.14239354859E+04  0.14865634617E+04  0.46999998093E+01 0.  1.
</event>
<event>
 5   0  0.2267565E-06  0.2794156E+04  0.7818609E-02  0.8305085E-01
        1   -1    0    0  501    0  0.00000000000E+00  0.00000000000E+00  0.14113197671E+04  0.14113197671E+04  0.50400001928E-02 0. -1.
       -1   -1    0    0    0  501  0.00000000000E+00  0.00000000000E+00 -0.13829796450E+04  0.13829796450E+04  0.50400001928E-02 0.  1.
    10030    2    1    2    0    0  0.00000000000E+00  0.00000000000E+00  0.28340122131E+02  0.27942994121E+04  0.27941556939E+04 0.  0.
        4    1    3    3  502    0  0.53870303170E+03 -0.12881975677E+04 -0.32425981673E+02  0.13966771234E+04  0.12699999809E+01 0. -1.
       -4    1    3    3    0  502 -0.53870303170E+03  0.12881975677E+04  0.60766103804E+02  0.13976222887E+04  0.12699999809E+01 0.  1.
</event>
<event>
 5   0  0.2277133E-06  0.2818326E+04  0.7818609E-02  0.8297601E-01
       -1   -1    0    0    0  501  0.00000000000E+00  0.00000000000E+00  0.18797047334E+04  0.18797047334E+04  0.50400001928E-02 0.  1.
        1   -1    0    0  501    0  0.00000000000E+00  0.00000000000E+00 -0.10564107051E+04  0.10564107051E+04  0.50400001928E-02 0. -1.
    10030    2    1    2    0    0  0.00000000000E+00  0.00000000000E+00  0.82329402834E+03  0.29361154386E+04  0.28183258881E+04 0.  0.
        1    1    3    3  502    0 -0.83522237379E+03  0.37323855789E+03 -0.70498758383E+03  0.11549506172E+04  0.50400001928E-02 0. -1.
       -1    1    3    3    0  502  0.83522237379E+03 -0.37323855789E+03  0.15282816122E+04  0.17811648214E+04  0.50400001928E-02 0.  1.
</event>
<event>
 5   0  0.2234068E-06  0.2797848E+04  0.7818609E-02  0.8303937E-01
       -1   -1    0    0    0  501  0.00000000000E+00  0.00000000000E+00  0.18341906494E+04  0.18341906494E+04  0.50400001928E-02 0.  1.
        1   -1    0    0  501    0  0.00000000000E+00  0.00000000000E+00 -0.10669495176E+04  0.10669495176E+04  0.50400001928E-02 0. -1.
    10030    2    1    2    0    0  0.00000000000E+00  0.00000000000E+00  0.76724113183E+03  0.29011401670E+04  0.27978483365E+04 0.  0.
        3    1    3    3  502    0 -0.79095549840E+02 -0.19572013972E+03  0.18175801181E+04  0.18297977962E+04  0.10100000352E+00 0.  1.
       -3    1    3    3    0  502  0.79095549840E+02  0.19572013972E+03 -0.10503389863E+04  0.10713423708E+04  0.10100000352E+00 0. -1.
</event>
<event>
 5   0  0.2234068E-06  0.2789981E+04  0.7818609E-02  0.8306385E-01
        1   -1    0    0  501    0  0.00000000000E+00  0.00000000000E+00  0.13648366350E+04  0.13648366350E+04  0.50400001928E-02 0.  1.
       -1   -1    0    0    0  501  0.00000000000E+00  0.00000000000E+00 -0.14258109343E+04  0.14258109343E+04  0.50400001928E-02 0. -1.
    10030    2    1    2    0    0  0.00000000000E+00  0.00000000000E+00 -0.60974299307E+02  0.27906475693E+04  0.27899813603E+04 0.  0.
        3    1    3    3  502    0  0.89577143921E+03  0.56564367648E+02  0.10376596912E+04  0.13719852929E+04  0.10100000352E+00 0.  1.
       -3    1    3    3    0  502 -0.89577143921E+03 -0.56564367648E+02 -0.10986339905E+04  0.14186622764E+04  0.10100000352E+00 0. -1.
</event>
<event>
 5   0  0.5866136E-06  0.2761107E+04  0.7818609E-02  0.8315446E-01
       -2   -1    0    0    0  501  0.00000000000E+00  0.00000000000E+00  0.11243590402E+04  0.11243590402E+04  0.25500000920E-02 0. -1.
        2   -1    0    0  501    0  0.00000000000E+00  0.00000000000E+00 -0.16951237269E+04  0.16951237269E+04  0.25500000920E-02 0.  1.
    10030    2    1    2    0    0  0.00000000000E+00  0.00000000000E+00 -0.57076468676E+03  0.28194827671E+04  0.27611067973E+04 0.  0.
        5    1    3    3  502    0  0.26808894989E+02  0.53586061176E+03 -0.15842978587E+04  0.16726885865E+04  0.46999998093E+01 0.  1.
       -5    1    3    3    0  502 -0.26808894989E+02 -0.53586061176E+03  0.10135331720E+04  0.11467941806E+04  0.46999998093E+01 0. -1.
</event>
<event>
 5   0  0.5584205E-06  0.2860412E+04  0.7818609E-02  0.8284754E-01
        2   -1    0    0  501    0  0.00000000000E+00  0.00000000000E+00  0.20179401245E+04  0.20179401245E+04  0.25500000920E-02 0. -1.
       -2   -1    0    0    0  501  0.00000000000E+00  0.00000000000E+00 -0.10136521574E+04  0.10136521574E+04  0.25500000920E-02 0.  1.
    10030    2    1    2    0    0  0.00000000000E+00  0.00000000000E+00  0.10042879671E+04  0.30315922819E+04  0.28604121106E+04 0.  0.
        1    1    3    3  502    0  0.29361537270E+03  0.28596955847E+03  0.19543634308E+04  0.19968788133E+04  0.50400001928E-02 0. -1.
       -1    1    3    3    0  502 -0.29361537270E+03 -0.28596955847E+03 -0.95007546363E+03  0.10347134686E+04  0.50400001928E-02 0.  1.
</event>
<event>
 5   0  0.2267565E-06  0.2857256E+04  0.7818609E-02  0.8285710E-01
       -1   -1    0    0    0  501  0.00000000000E+00  0.00000000000E+00  0.93264360531E+03  0.93264360532E+03  0.50400001928E-02 0. -1.
        1   -1    0    0  501    0  0.00000000000E+00  0.00000000000E+00 -0.21883787742E+04  0.21883787742E+04  0.50400001928E-02 0.  1.
    10030    2    1    2    0    0  0.00000000000E+00  0.00000000000E+00 -0.12557351689E+04  0.31210223796E+04  0.28572556552E+04 0.  0.
        4    1    3    3  502    0 -0.56180705235E+03  0.51883142542E+03 -0.19459808317E+04  0.20908505978E+04  0.12699999809E+01 0.  1.
       -4    1    3    3    0  502  0.56180705235E+03 -0.51883142542E+03  0.69024566277E+03  0.10301717818E+04  0.12699999809E+01 0. -1.
</event>
<event>
 5   0  0.2234068E-06  0.2808491E+04  0.7818609E-02  0.8300637E-01
        1   -1    0    0  501    0  0.00000000000E+00  0.00000000000E+00  0.23373084120E+04  0.23373084120E+04  0.50400001928E-02 0. -1.
       -1   -1    0    0    0  501  0.00000000000E+00  0.00000000000E+00 -0.84366513351E+03  0.84366513352E+03  0.50400001928E-02 0.  1.
    10030    2    1    2    0    0  0.00000000000E+00  0.00000000000E+00  0.14936432785E+04  0.31809735455E+04  0.28084911347E+04 0.  0.
        3    1    3    3  502    0  0.99396995215E+03  0.80900987739E+03  0.13969066103E+04  0.18957376758E+04  0.10100000352E+00 0. -1.
       -3    1    3    3    0  502 -0.99396995215E+03 -0.80900987739E+03  0.96736668167E+02  0.12852358697E+04  0.10100000352E+00 0.  1.
</event>
<event>
 5   0  0.5866136E-06  0.2605238E+04  0.7818609E-02  0.8366424E-01
       -2   -1    0    0    0  501  0.00000000000E+00  0.00000000000E+00  0.12541852105E+04  0.12541852105E+04  0.25500000920E-02 0. -1.
        2   -1    0    0  501    0  0.00000000000E+00  0.00000000000E+00 -0.13529229734E+04  0.13529229734E+04  0.25500000920E-02 0.  1.
    10030    2    1    2    0    0  0.00000000000E+00  0.00000000000E+00 -0.98737762853E+02  0.26071081839E+04  0.26052377889E+04 0.  0.
        5    1    3    3  502    0 -0.39104485695E+03  0.10739955728E+04 -0.67464650445E+03  0.13272349327E+04  0.46999998093E+01 0.  1.
       -5    1    3    3    0  502  0.39104485695E+03 -0.10739955728E+04  0.57590874159E+03  0.12798732512E+04  0.46999998093E+01 0. -1.
</event>
<event>
 5   0  0.2206967E-06  0.2800712E+04  0.7818609E-02  0.8303047E-01
       -1   -1    0    0    0  501  0.00000000000E+00  0.00000000000E+00  0.13361026799E+04  0.13361026799E+04  0.50400001928E-02 0. -1.
        1   -1    0    0  501    0  0.00000000000E+00  0.00000000000E+00 -0.14676997344E+04  0.14676997344E+04  0.50400001928E-02 0.  1.
    10030    2    1    2    0    0  0.00000000000E+00  0.00000000000E+00 -0.13159705456E+03  0.28038024143E+04  0.28007124440E+04 0.  0.
        5    1    3    3  502    0 -0.17860623005E+03 -0.11917917142E+04 -0.77982296420E+03  0.14354140939E+04  0.46999998093E+01 0.  1.
       -5    1    3    3    0  502  0.17860623005E+03  0.11917917142E+04  0.64822590964E+03  0.13683883204E+04  0.46999998093E+01 0. -1.
</event>
<event>
 5   0  0.2234068E-06  0.2759943E+04  0.7818609E-02  0.8315813E-01
        1   -1    0    0  501    0  0.00000000000E+00  0.00000000000E+00  0.21882498825E+04  0.21882498825E+04  0.50400001928E-02 0. -1.
       -1   -1    0    0    0  501  0.00000000000E+00  0.00000000000E+00 -0.87024882031E+03  0.87024882032E+03  0.50400001928E-02 0.  1.
    10030    2    1    2    0    0  0.00000000000E+00  0.00000000000E+00  0.13180010622E+04  0.30584987028E+04  0.27599433899E+04 0.  0.
        3    1    3    3  502    0 -0.51331460433E+03  0.11974261007E+04  0.11631903286E+04  0.17465202262E+04  0.10100000352E+00 0. -1.
       -3    1    3    3    0  502  0.51331460433E+03 -0.11974261007E+04  0.15481073357E+03  0.13119784766E+04  0.10100000352E+00 0.  1.
</event>
<event>
 5   0  0.5546570E-06  0.2774197E+04  0.7818609E-02  0.8311324E-01
       -2   -1    0    0    0  501  0.00000000000E+00  0.00000000000E+00  0.12083523087E+04  0.12083523087E+04  0.25500000920E-02 0.  1.
        2   -1    0    0  501    0  0.00000000000E+00  0.00000000000E+00 -0.15922859256E+04  0.15922859257E+04  0.25500000920E-02 0. -1.
    10030    2    1    2    0    0  0.00000000000E+00  0.00000000000E+00 -0.38393361696E+03  0.28006382343E+04  0.27741970906E+04 0.  0.
        4    1    3    3  502    0 -0.22129157812E+03 -0.98838192881E+03  0.76478534484E+03  0.12691599727E+04  0.12699999809E+01 0.  1.
       -4    1    3    3    0  502  0.22129157812E+03  0.98838192881E+03 -0.11487189618E+04  0.15314782616E+04  0.12699999809E+01 0. -1.
</event>
<event>
 5   0  0.5916603E-06  0.2807492E+04  0.7818609E-02  0.8300946E-01
        2   -1    0    0  501    0  0.00000000000E+00  0.00000000000E+00  0.19119628323E+04  0.19119628323E+04  0.25500000920E-02 0.  1.
       -2   -1    0    0    0  501  0.00000000000E+00  0.00000000000E+00 -0.10306177044E+04  0.10306177044E+04  0.25500000920E-02 0. -1.
    10030    2    1    2    0    0  0.00000000000E+00  0.00000000000E+00  0.88134512790E+03  0.29425805368E+04  0.28074919378E+04 0.  0.
        2    1    3    3  502    0  0.58001876329E+03 -0.71871013156E+03 -0.66732994177E+03  0.11394276064E+04  0.25500000920E-02 0. -1.
       -2    1    3    3    0  502 -0.58001876329E+03  0.71871013156E+03  0.15486750697E+04  0.18031529304E+04  0.25500000920E-02 0.  1.
</event>
<event>
 5   0  0.2190865E-06  0.2815279E+04  0.7818609E-02  0.8298540E-01
       -1   -1    0    0    0  501  0.00000000000E+00  0.00000000000E+00  0.16028560207E+04  0.16028560207E+04  0.50400001928E-02 0. -1.
        1   -1    0    0  501    0  0.00000000000E+00  0.00000000000E+00 -0.12361989875E+04  0.12361989875E+04  0.50400001928E-02 0.  1.
    10030    2    1    2    0    0  0.00000000000E+00  0.00000000000E+00  0.36665703324E+03  0.28390550082E+04  0.28152790199E+04 0.  0.
        2    1    3    3  502    0 -0.12646492322E+03  0.32199645216E+03 -0.11926632397E+04  0.12418215232E+04  0.25500000920E-02 0.  1.
       -2    1    3    3    0  502  0.12646492322E+03 -0.32199645216E+03  0.15593202730E+04  0.15972334850E+04  0.25500000920E-02 0. -1.
</event>
<event>
 5   0  0.5916603E-06  0.2795997E+04  0.7818609E-02  0.8304512E-01
        2   -1    0    0  501    0  0.00000000000E+00  0.00000000000E+00  0.23707440914E+04  0.23707440914E+04  0.25500000920E-02 0.  1.
       -2   -1    0    0    0  501  0.00000000000E+00  0.00000000000E+00 -0.82438235664E+03  0.82438235665E+03  0.25500000920E-02 0. -1.
    10030    2    1    2    0    0  0.00000000000E+00  0.00000000000E+00  0.15463617347E+04  0.31951264480E+04  0.27959968534E+04 0.  0.
        2    1    3    3  502    0 -0.76975319032E+03 -0.72205836426E+03 -0.27448588520E+03  0.10905185723E+04  0.25500000920E-02 0. -1.
       -2    1    3    3    0  502  0.76975319032E+03  0.72205836426E+03  0.18208476199E+04  0.21046078757E+04  0.25500000920E-02 0.  1.
</event>
<event>
 5   0  0.2190865E-06  0.2789942E+04  0.7818609E-02  0.8306398E-01
        1   -1    0    0  501    0  0.00000000000E+00  0.00000000000E+00  0.12695917983E+04  0.12695917983E+04  0.50400001928E-02 0. -1.
       -1   -1    0    0    0  501  0.00000000000E+00  0.00000000000E+00 -0.15327324353E+04  0.15327324353E+04  0.50400001928E-02 0.  1.
    10030    2    1    2    0    0  0.00000000000E+00  0.00000000000E+00 -0.26314063699E+03  0.28023242336E+04  0.27899423140E+04 0.  0.
        2    1    3    3  502    0  0.13148223930E+04 -0.44909115774E+03 -0.65037196767E+01  0.13894182565E+04  0.25500000920E-02 0. -1.
       -2    1    3    3    0  502 -0.13148223930E+04  0.44909115774E+03 -0.25663691732E+03  0.14129059772E+04  0.25500000920E-02 0.  1.
</event>
<event>
 5   0  0.2277133E-06  0.2793010E+04  0.7818609E-02  0.8305442E-01
       -1   -1    0    0    0  501  0.00000000000E+00  0.00000000000E+00  0.20512596215E+04  0.20512596215E+04  0.50400001928E-02 0.  1.
        1   -1    0    0  501    0  0.00000000000E+00  0.00000000000E+00 -0.95074592813E+03  0.95074592815E+03  0.50400001928E-02 0. -1.
    10030    2    1    2    0    0  0.00000000000E+00  0.00000000000E+00  0.11005136933E+04  0.30020055496E+04  0.27930103707E+04 0.  0.
        1    1    3    3  502    0 -0.11278713202E+04 -0.53881173443E+03  0.12196036694E+04  0.17463805171E+04  0.50400001928E-02 0.  1.
       -1    1    3    3    0  502  0.11278713202E+04  0.53881173443E+03 -0.11908997601E+03  0.12556250326E+04  0.50400001928E-02 0. -1.
</event>
<event>
 5   0  0.5916603E-06  0.2808357E+04  0.7818609E-02  0.8300678E-01
        2   -1    0    0  501    0  0.00000000000E+00  0.00000000000E+00  0.13760619408E+04  0.13760619408E+04  0.25500000920E-02 0.  1.
       -2   -1    0    0    0  501  0.00000000000E+00  0.00000000000E+00 -0.14328697123E+04  0.14328697123E+04  0.25500000920E-02 0. -1.
    10030    2    1    2    0    0  0.00000000000E+00  0.00000000000E+00 -0.56807771450E+02  0.28089316531E+04  0.28083571548E+04 0.  0.
        2    1    3    3  502    0 -0.12901521290E+04  0.31307874959E+03 -0.48588859621E+03  0.14137179872E+04  0.25500000920E-02 0. -1.
       -2    1    3    3    0  502  0.12901521290E+04 -0.31307874959E+03  0.42908082476E+03  0.13952136659E+04  0.25500000920E-02 0.  1.
</event>
<event>
 5   0  0.5546570E-06  0.2797814E+04  0.7818609E-02  0.8303947E-01
       -2   -1    0    0    0  501  0.00000000000E+00  0.00000000000E+00  0.10607245067E+04  0.10607245067E+04  0.25500000920E-02 0.  1.
        2   -1    0    0  501    0  0.00000000000E+00  0.00000000000E+00 -0.18449089311E+04  0.18449089311E+04  0.25500000920E-02 0. -1.
    10030    2    1    2    0    0  0.00000000000E+00  0.00000000000E+00 -0.78418442437E+03  0.29056334378E+04  0.27978135148E+04 0.  0.
        4    1    3    3  502    0  0.96075478202E+03  0.93253768522E+03  0.28819394509E+02  0.13392193457E+04  0.12699999809E+01 0.  1.
       -4    1    3    3    0  502 -0.96075478202E+03 -0.93253768522E+03 -0.81300381888E+03  0.15664140921E+04  0.12699999809E+01 0. -1.
</event>
<event>
 5   0  0.5584205E-06  0.2793710E+04  0.7818609E-02  0.8305224E-01
       -2   -1    0    0    0  501  0.00000000000E+00  0.00000000000E+00  0.78398413278E+03  0.78398413278E+03  0.25500000920E-02 0. -1.
        2   -1    0    0  501    0  0.00000000000E+00  0.00000000000E+00 -0.24888317181E+04  0.24888317181E+04  0.25500000920E-02 0.  1.
    10030    2    1    2    0    0  0.00000000000E+00  0.00000000000E+00 -0.17048475854E+04  0.32728158509E+04  0.27937104905E+04 0.  0.
        1    1    3    3  502    0  0.13087894872E+03  0.13716666859E+04 -0.58373045256E+03  0.14964424606E+04  0.50400001928E-02 0. -1.
       -1    1    3    3    0  502 -0.13087894872E+03 -0.13716666859E+04 -0.11211171328E+04  0.17763733904E+04  0.50400001928E-02 0.  1.
</event>
<event>
 5   0  0.5584205E-06  0.2761500E+04  0.7818609E-02  0.8315322E-01
        2   -1    0    0  501    0  0.00000000000E+00  0.00000000000E+00  0.29654812230E+04  0.29654812230E+04  0.25500000920E-02 0.  1.
       -2   -1    0    0    0  501  0.00000000000E+00  0.00000000000E+00 -0.64288737790E+03  0.64288737791E+03  0.25500000920E-02 0. -1.
    10030    2    1    2    0    0  0.00000000000E+00  0.00000000000E+00  0.23225938451E+04  0.36083686009E+04  0.27614999168E+04 0.  0.
        1    1    3    3  502    0 -0.12416570083E+03 -0.22665415539E+02  0.29579273499E+04  0.29606190314E+04  0.50400001928E-02 0.  1.
       -1    1    3    3    0  502  0.12416570083E+03  0.22665415539E+02 -0.63533350480E+03  0.64774956941E+03  0.50400001928E-02 0. -1.
</event>
<event>
 5   0  0.2190865E-06  0.2779507E+04  0.7818609E-02  0.8309659E-01
       -1   -1    0    0    0  501  0.00000000000E+00  0.00000000000E+00  0.95042353419E+03  0.95042353420E+03  0.50400001928E-02 0. -1.
        1   -1    0    0  501    0  0.00000000000E+00  0.00000000000E+00 -0.20321628583E+04  0.20321628583E+04  0.50400001928E-02 0.  1.
    10030    2    1    2    0    0  0.00000000000E+00  0.00000000000E+00 -0.10817393241E+04  0.29825863925E+04  0.27795074426E+04 0.  0.
        2    1    3    3  502    0  0.59551249134E+03 -0.79075164568E+03  0.50584374587E+03  0.11116659515E+04  0.25500000920E-02 0. -1.
       -2    1    3    3    0  502 -0.59551249134E+03  0.79075164568E+03 -0.15875830700E+04  0.18709204410E+04  0.25500000920E-02 0.  1.
</event>
<event>
 5   0  0.1901375E-06  0.2796863E+04  0.7818609E-02  0.8304243E-01
       -4   -1    0    0    0  501  0.00000000000E+00  0.00000000000E+00  0.99209711375E+03  0.99209792662E+03  0.12699999809E+01 0.  1.
        4   -1    0    0  501    0  0.00000000000E+00  0.00000000000E+00 -0.19711867277E+04  0.19711871369E+04  0.12699999809E+01 0. -1.
    10030    2    1    2    0    0  0.00000000000E+00  0.00000000000E+00 -0.97908961399E+03  0.29632850635E+04  0.27968628667E+04 0.  0.
        5    1    3    3  502    0  0.32518760199E+03  0.71552347714E+03 -0.17150321236E+04  0.18865519070E+04  0.46999998093E+01 0. -1.
       -5    1    3    3    0  502 -0.32518760199E+03 -0.71552347714E+03  0.73594250961E+03  0.10767331565E+04  0.46999998093E+01 0.  1.
</event>
<event>
 5   0  0.5584205E-06  0.2800657E+04  0.7818609E-02  0.8303064E-01
       -2   -1    0    0    0  501  0.00000000000E+00  0.00000000000E+00  0.77698325911E+03  0.77698325912E+03  0.25500000920E-02 0. -1.
        2   -1    0    0  501    0  0.00000000000E+00  0.00000000000E+00 -0.25237616677E+04  0.25237616677E+04  0.25500000920E-02 0.  1.
    10030    2    1    2    0    0  0.00000000000E+00  0.00000000000E+00 -0.17467784086E+04  0.33007449268E+04  0.28006574698E+04 0.  0.
        1    1    3    3  502    0  0.82561133460E+03  0.89407001136E+03 -0.56921909724E+02  0.12182919867E+04  0.50400001928E-02 0. -1.
       -1    1    3    3    0  502 -0.82561133460E+03 -0.89407001136E+03 -0.16898564989E+04  0.20824529401E+04  0.50400001928E-02 0.  1.
</event>
<event>
 5   0  0.5866136E-06  0.2809915E+04  0.7818609E-02  0.8300197E-01
        2   -1    0    0  501    0  0.00000000000E+00  0.00000000000E+00  0.18322889332E+04  0.18322889332E+04  0.25500000920E-02 0. -1.
       -2   -1    0    0    0  501  0.00000000000E+00  0.00000000000E+00 -0.10772891480E+04  0.10772891480E+04  0.25500000920E-02 0.  1.
    10030    2    1    2    0    0  0.00000000000E+00  0.00000000000E+00  0.75499978524E+03  0.29095780812E+04  0.28099145779E+04 0.  0.
        5    1    3    3  502    0 -0.42665252231E+03  0.41155556804E+03  0.16964415210E+04  0.17970381978E+04  0.46999998093E+01 0. -1.
       -5    1    3    3    0  502  0.42665252231E+03 -0.41155556804E+03 -0.94144173572E+03  0.11125398834E+04  0.46999998093E+01 0.  1.
</event>
<event>
 5   0  0.5546570E-06  0.2813175E+04  0.7818609E-02  0.8299190E-01
        2   -1    0    0  501    0  0.00000000000E+00  0.00000000000E+00  0.21002507072E+04  0.21002507072E+04  0.25500000920E-02 0. -1.
       -2   -1    0    0    0  501  0.00000000000E+00  0.00000000000E+00 -0.94202490805E+03  0.94202490805E+03  0.25500000920E-02 0.  1.
    10030    2    1    2    0    0  0.00000000000E+00  0.00000000000E+00  0.11582257991E+04  0.30422756152E+04  0.28131750598E+04 0.  0.
        4    1    3    3  502    0  0.39927036526E+03  0.13425977891E+04  0.71803131073E+03  0.15740254839E+04  0.12699999809E+01 0. -1.
       -4    1    3    3    0  502 -0.39927036526E+03 -0.13425977891E+04  0.44019448840E+03  0.14682501314E+04  0.12699999809E+01 0.  1.
</event>
<event>
 5   0  0.2277133E-06  0.2829354E+04  0.7818609E-02  0.8294213E-01
        1   -1    0    0  501    0  0.00000000000E+00  0.00000000000E+00  0.17627306972E+04  0.17627306972E+04  0.50400001928E-02 0. -1.
       -1   -1    0    0    0  501  0.00000000000E+00  0.00000000000E+00 -0.11353467814E+04  0.11353467814E+04  0.50400001928E-02 0.  1.
    10030    2    1    2    0    0  0.00000000000E+00  0.00000000000E+00  0.62738391583E+03  0.28980774786E+04  0.28293537238E+04 0.  0.
        1    1    3    3  502    0 -0.10018184862E+04 -0.77043984965E+03 -0.33743142610E+03  0.13080817285E+04  0.50400001928E-02 0.  1.
       -1    1    3    3    0  502  0.10018184862E+04  0.77043984965E+03  0.96481534193E+03  0.15899957501E+04  0.50400001928E-02 0. -1.
</event>
<event>
 5   0  0.5625245E-06  0.2586333E+04  0.7818609E-02  0.8372858E-01
       -2   -1    0    0    0  501  0.00000000000E+00  0.00000000000E+00  0.14665758058E+04  0.14665758058E+04  0.25500000920E-02 0.  1.
        2   -1    0    0  501    0  0.00000000000E+00  0.00000000000E+00 -0.11402614310E+04  0.11402614310E+04  0.25500000920E-02 0. -1.
    10030    2    1    2    0    0  0.00000000000E+00  0.00000000000E+00  0.32631437480E+03  0.26068372368E+04  0.25863331781E+04 0.  0.
        3    1    3    3  502    0 -0.19960839323E+03  0.12135353033E+04  0.56603639317E+03  0.13538495676E+04  0.10100000352E+00 0.  1.
       -3    1    3    3    0  502  0.19960839323E+03 -0.12135353033E+04 -0.23972201838E+03  0.12529876693E+04  0.10100000352E+00 0. -1.
</event>
<event>
 5   0  0.5584205E-06  0.2775189E+04  0.7818609E-02  0.8311013E-01
       -2   -1    0    0    0  501  0.00000000000E+00  0.00000000000E+00  0.13853296367E+04  0.13853296367E+04  0.25500000920E-02 0.  1.
        2   -1    0    0  501    0  0.00000000000E+00  0.00000000000E+00 -0.13898631315E+04  0.13898631315E+04  0.25500000920E-02 0. -1.
    10030    2    1    2    0    0  0.00000000000E+00  0.00000000000E+00 -0.45334947713E+01  0.27751927683E+04  0.27751890654E+04 0.  0.
        1    1    3    3  502    0 -0.26266812085E+03 -0.58854740121E+02  0.13589698631E+04  0.13853726975E+04  0.50400001928E-02 0.  1.
       -1    1    3    3    0  502  0.26266812085E+03  0.58854740121E+02 -0.13635033579E+04  0.13898200708E+04  0.50400001928E-02 0. -1.
</event>
<event>
 5   0  0.2267565E-06  0.2796975E+04  0.7818609E-02  0.8304208E-01
       -1   -1    0    0    0  501  0.00000000000E+00  0.00000000000E+00  0.96851020444E+03  0.96851020445E+03  0.50400001928E-02 0. -1.
        1   -1    0    0  501    0  0.00000000000E+00  0.00000000000E+00 -0.20193567228E+04  0.20193567228E+04  0.50400001928E-02 0.  1.
    10030    2    1    2    0    0  0.00000000000E+00  0.00000000000E+00 -0.10508465184E+04  0.29878669273E+04  0.27969752180E+04 0.  0.
        4    1    3    3  502    0  0.80333057894E+03  0.98986027883E+03 -0.11396458107E+04  0.17099583555E+04  0.12699999809E+01 0.  1.
       -4    1    3    3    0  502 -0.80333057894E+03 -0.98986027883E+03  0.88799292346E+02  0.12779085718E+04  0.12699999809E+01 0. -1.
</event>
<event>
 5   0  0.5625245E-06  0.2794280E+04  0.7818609E-02  0.8305046E-01
       -2   -1    0    0    0  501  0.00000000000E+00  0.00000000000E+00  0.13562667539E+04  0.13562667539E+04  0.25500000920E-02 0. -1.
        2   -1    0    0  501    0  0.00000000000E+00  0.00000000000E+00 -0.14392447856E+04  0.14392447856E+04  0.25500000920E-02 0.  1.
    10030    2    1    2    0    0  0.00000000000E+00  0.00000000000E+00 -0.82978031686E+02  0.27955115396E+04  0.27942797666E+04 0.  0.
        3    1    3    3  502    0 -0.40254971342E+03 -0.12292603561E+04  0.48682761990E+03  0.13820739620E+04  0.10100000352E+00 0. -1.
       -3    1    3    3    0  502  0.40254971342E+03  0.12292603561E+04 -0.56980565159E+03  0.14134375775E+04  0.10100000352E+00 0.  1.
</event>
<event>
 5   0  0.5584205E-06  0.2751428E+04  0.7818609E-02  0.8318509E-01
       -2   -1    0    0    0  501  0.00000000000E+00  0.00000000000E+00  0.11494090045E+04  0.11494090045E+04  0.25500000920E-02 0. -1.
        2   -1    0    0  501    0  0.00000000000E+00  0.00000000000E+00 -0.16465761483E+04  0.16465761483E+04  0.25500000920E-02 0.  1.
    10030    2    1    2    0    0  0.00000000000E+00  0.00000000000E+00 -0.49716714378E+03  0.27959851529E+04  0.27514283211E+04 0.  0.
        1    1    3    3  502    0 -0.72742562649E+02  0.64759661118E+03  0.98261286101E+03  0.11790678038E+04  0.50400001928E-02 0. -1.
       -1    1    3    3    0  502  0.72742562649E+02 -0.64759661118E+03 -0.14797800048E+04  0.16169173491E+04  0.50400001928E-02 0.  1.
</event>
<event>
 5   0  0.2190865E-06  0.2798656E+04  0.7818609E-02  0.8303686E-01
       -1   -1    0    0    0  501  0.00000000000E+00  0.00000000000E+00  0.80295035529E+03  0.80295035531E+03  0.50400001928E-02 0. -1.
        1   -1    0    0  501    0  0.00000000000E+00  0.00000000000E+00 -0.24386549378E+04  0.24386549378E+04  0.50400001928E-02 0.  1.
    10030    2    1    2    0    0  0.00000000000E+00  0.00000000000E+00 -0.16357045825E+04  0.32416052931E+04  0.27986559980E+04 0.  0.
        2    1    3    3  502    0  0.25552651456E+03  0.67787728471E+03 -0.22045451857E+04  0.23205238393E+04  0.25500000920E-02 0.  1.
       -2    1    3    3    0  502 -0.25552651456E+03 -0.67787728471E+03  0.56884060320E+03  0.92108145385E+03  0.25500000920E-02 0. -1.
</event>
<event>
 5   0  0.5866136E-06  0.2821724E+04  0.7818609E-02  0.8296555E-01
       -2   -1    0    0    0  501  0.00000000000E+00  0.00000000000E+00  0.23174219034E+04  0.23174219034E+04  0.25500000920E-02 0.  1.
        2   -1    0    0  501    0  0.00000000000E+00  0.00000000000E+00 -0.85894227466E+03  0.85894227467E+03  0.25500000920E-02 0. -1.
    10030    2    1    2    0    0  0.00000000000E+00  0.00000000000E+00  0.14584796287E+04  0.31763641781E+04  0.28217240411E+04 0.  0.
        5    1    3    3  502    0 -0.83984688981E+03  0.77076712986E+03 -0.20655668608E+03  0.11584958012E+04  0.46999998093E+01 0. -1.
       -5    1    3    3    0  502  0.83984688981E+03 -0.77076712986E+03  0.16650363148E+04  0.20178683769E+04  0.46999998093E+01 0.  1.
</event>
<event>
 5   0  0.2277133E-06  0.2784462E+04  0.7818609E-02  0.8308108E-01
        1   -1    0    0  501    0  0.00000000000E+00  0.00000000000E+00  0.24039216536E+04  0.24039216536E+04  0.50400001928E-02 0.  1.
       -1   -1    0    0    0  501  0.00000000000E+00  0.00000000000E+00 -0.80631070285E+03  0.80631070287E+03  0.50400001928E-02 0. -1.
    10030    2    1    2    0    0  0.00000000000E+00  0.00000000000E+00  0.15976109507E+04  0.32102323564E+04  0.27844624315E+04 0.  0.
        1    1    3    3  502    0 -0.65927091199E+02  0.10884724845E+04 -0.19910322503E+03  0.11084948466E+04  0.50400001928E-02 0. -1.
       -1    1    3    3    0  502  0.65927091199E+02 -0.10884724845E+04  0.17967141757E+04  0.21017375098E+04  0.50400001928E-02 0.  1.
</event>
<event>
 5   0  0.5584205E-06  0.2723293E+04  0.7818609E-02  0.8327487E-01
       -2   -1    0    0    0  501  0.00000000000E+00  0.00000000000E+00  0.11214823306E+04  0.11214823306E+04  0.25500000920E-02 0.  1.
        2   -1    0    0  501    0  0.00000000000E+00  0.00000000000E+00 -0.16532412093E+04  0.16532412093E+04  0.25500000920E-02 0. -1.
    10030    2    1    2    0    0  0.00000000000E+00  0.00000000000E+00 -0.53175887874E+03  0.27747235399E+04  0.27232927161E+04 0.  0.
        1    1    3    3  502    0  0.13276462297E+04 -0.25543408385E+03 -0.10099076018E+03  0.13557618581E+04  0.50400001928E-02 0. -1.
       -1    1    3    3    0  502 -0.13276462297E+04  0.25543408385E+03 -0.43076811856E+03  0.14189616818E+04  0.50400001928E-02 0.  1.
</event>
<event>
 5   0  0.5916603E-06  0.2790585E+04  0.7818609E-02  0.8306197E-01
        2   -1    0    0  501    0  0.00000000000E+00  0.00000000000E+00  0.14500499314E+04  0.14500499314E+04  0.25500000920E-02 0.  1.
       -2   -1    0    0    0  501  0.00000000000E+00  0.00000000000E+00 -0.13426024108E+04  0.13426024108E+04  0.25500000920E-02 0. -1.
    10030    2    1    2    0    0  0.00000000000E+00  0.00000000000E+00  0.10744752059E+03  0.27926523422E+04  0.27905845507E+04 0.  0.
        2    1    3    3  502    0 -0.39595778258E+03 -0.39305908599E+03  0.13335625344E+04  0.14455680696E+04  0.25500000920E-02 0.  1.
       -2    1    3    3    0  502  0.39595778258E+03  0.39305908599E+03 -0.12261150138E+04  0.13470842727E+04  0.25500000920E-02 0. -1.
</event>
<event>
 5   0  0.1901375E-06  0.2797132E+04  0.7818609E-02  0.8304159E-01
        3   -1    0    0  501    0  0.00000000000E+00  0.00000000000E+00  0.24653439682E+04  0.24653439703E+04  0.10100000352E+00 0.  1.
       -3   -1    0    0    0  501  0.00000000000E+00  0.00000000000E+00 -0.79339316315E+03  0.79339316957E+03  0.10100000352E+00 0. -1.
    10030    2    1    2    0    0  0.00000000000E+00  0.00000000000E+00  0.16719508051E+04  0.32587371399E+04  0.27971321478E+04 0.  0.
        4    1    3    3  502    0  0.11743465682E+04 -0.58068908942E+03  0.26559245913E+03  0.13367238488E+04  0.12699999809E+01 0.  1.
       -4    1    3    3    0  502 -0.11743465682E+04  0.58068908942E+03  0.14063583460E+04  0.19220132910E+04  0.12699999809E+01 0. -1.
</event>
<event>
 5   0  0.2234068E-06  0.2799678E+04  0.7818609E-02  0.8303368E-01
       -1   -1    0    0    0  501  0.00000000000E+00  0.00000000000E+00  0.15484969891E+04  0.15484969891E+04  0.50400001928E-02 0. -1.
        1   -1    0    0  501    0  0.00000000000E+00  0.00000000000E+00 -0.12654525647E+04  0.12654525647E+04  0.50400001928E-02 0.  1.
    10030    2    1    2    0    0  0.00000000000E+00  0.00000000000E+00  0.28304442445E+03  0.28139495538E+04  0.27996781860E+04 0.  0.
        3    1    3    3  502    0  0.43267488737E+03 -0.55809185910E+03  0.13563501787E+04  0.15291696763E+04  0.10100000352E+00 0. -1.
       -3    1    3    3    0  502 -0.43267488737E+03  0.55809185910E+03 -0.10733057542E+04  0.12847798775E+04  0.10100000352E+00 0.  1.
</event>
<event>
 5   0  0.5625245E-06  0.2801709E+04  0.7818609E-02  0.8302738E-01
        2   -1    0    0  501    0  0.00000000000E+00  0.00000000000E+00  0.11306859200E+04  0.11306859200E+04  0.25500000920E-02 0. -1.
       -2   -1    0    0    0  501  0.00000000000E+00  0.00000000000E+00 -0.17355783144E+04  0.17355783144E+04  0.25500000920E-02 0.  1.
    10030    2    1    2    0    0  0.00000000000E+00  0.00000000000E+00 -0.60489239441E+03  0.28662642343E+04  0.28017094518E+04 0.  0.
        3    1    3    3  502    0 -0.39058344856E+03 -0.82613288570E+03  0.78378222225E+03  0.12038959910E+04  0.10100000352E+00 0. -1.
       -3    1    3    3    0  502  0.39058344856E+03  0.82613288570E+03 -0.13886746167E+04  0.16623682433E+04  0.10100000352E+00 0.  1.
</event>
<event>
 5   0  0.5866136E-06  0.2796777E+04  0.7818609E-02  0.8304270E-01
       -2   -1    0    0    0  501  0.00000000000E+00  0.00000000000E+00  0.10721613310E+04  0.10721613310E+04  0.25500000920E-02 0. -1.
        2   -1    0    0  501    0  0.00000000000E+00  0.00000000000E+00 -0.18238766745E+04  0.18238766745E+04  0.25500000920E-02 0.  1.
    10030    2    1    2    0    0  0.00000000000E+00  0.00000000000E+00 -0.75171534350E+03  0.28960380056E+04  0.27967767469E+04 0.  0.
        5    1    3    3  502    0  0.50707528571E+03  0.32623832963E+03 -0.16823470115E+04  0.17871402715E+04  0.46999998093E+01 0.  1.
       -5    1    3    3    0  502 -0.50707528571E+03 -0.32623832963E+03  0.93063166797E+03  0.11088977340E+04  0.46999998093E+01 0. -1.
</event>
<event>
 5   0  0.1901375E-06  0.2805602E+04  0.7818609E-02  0.8301531E-01
       -3   -1    0    0    0  501  0.00000000000E+00  0.00000000000E+00  0.22485532840E+04  0.22485532863E+04  0.10100000352E+00 0. -1.
        3   -1    0    0  501    0  0.00000000000E+00  0.00000000000E+00 -0.87516310482E+03  0.87516311065E+03  0.10100000352E+00 0.  1.
    10030    2    1    2    0    0  0.00000000000E+00  0.00000000000E+00  0.13733901792E+04  0.31237163969E+04  0.28056021714E+04 0.  0.
        4    1    3    3  502    0 -0.10458587258E+04  0.81881810212E+03  0.18435501565E+03  0.13409966232E+04  0.12699999809E+01 0.  1.
       -4    1    3    3    0  502  0.10458587258E+04 -0.81881810212E+03  0.11890351636E+04  0.17827197738E+04  0.12699999809E+01 0. -1.
</event>
<event>
 5   0  0.5584205E-06  0.2773148E+04  0.7818609E-02  0.8311653E-01
        2   -1    0    0  501    0  0.00000000000E+00  0.00000000000E+00  0.20754960441E+04  0.20754960441E+04  0.25500000920E-02 0.  1.
       -2   -1    0    0    0  501  0.00000000000E+00  0.00000000000E+00 -0.92632705997E+03  0.92632705998E+03  0.25500000920E-02 0. -1.
    10030    2    1    2    0    0  0.00000000000E+00  0.00000000000E+00  0.11491689841E+04  0.30018231041E+04  0.27731484984E+04 0.  0.
        1    1    3    3  502    0 -0.89660963125E+03 -0.31728975360E+03 -0.51757798526E+03  0.10828058872E+04  0.50400001928E-02 0. -1.
       -1    1    3    3    0  502  0.89660963125E+03  0.31728975360E+03  0.16667469694E+04  0.19190172168E+04  0.50400001928E-02 0.  1.
</event>
<event>
 5   0  0.2277133E-06  0.2839399E+04  0.7818609E-02  0.8291140E-01
        1   -1    0    0  501    0  0.00000000000E+00  0.00000000000E+00  0.15712506340E+04  0.15712506340E+04  0.50400001928E-02 0. -1.
       -1   -1    0    0    0  501  0.00000000000E+00  0.00000000000E+00 -0.12827654501E+04  0.12827654501E+04  0.50400001928E-02 0.  1.
    10030    2    1    2    0    0  0.00000000000E+00  0.00000000000E+00  0.28848518392E+03  0.28540160841E+04  0.28393985467E+04 0.  0.
        1    1    3    3  502    0 -0.36843588198E+02 -0.92426700217E+03  0.12267824804E+04  0.15364316436E+04  0.50400001928E-02 0. -1.
       -1    1    3    3    0  502  0.36843588198E+02  0.92426700217E+03 -0.93829729646E+03  0.13175844405E+04  0.50400001928E-02 0.  1.
</event>
<event>
 5   0  0.5625245E-06  0.2795447E+04  0.7818609E-02  0.8304683E-01
       -2   -1    0    0    0  501  0.00000000000E+00  0.00000000000E+00  0.11756585708E+04  0.11756585708E+04  0.25500000920E-02 0. -1.
        2   -1    0    0  501    0  0.00000000000E+00  0.00000000000E+00 -0.16617329799E+04  0.16617329799E+04  0.25500000920E-02 0.  1.
    10030    2    1    2    0    0  0.00000000000E+00  0.00000000000E+00 -0.48607440913E+03  0.28373915507E+04  0.27954467408E+04 0.  0.
        3    1    3    3  502    0 -0.89137697193E+03 -0.22893847180E+03  0.82472885629E+03  0.12357764468E+04  0.10100000352E+00 0. -1.
       -3    1    3    3    0  502  0.89137697193E+03  0.22893847180E+03 -0.13108032654E+04  0.16016151038E+04  0.10100000352E+00 0.  1.
</event>
<event>
 5   0  0.5546570E-06  0.2939866E+04  0.7818609E-02  0.8261114E-01
       -2   -1    0    0    0  501  0.00000000000E+00  0.00000000000E+00  0.94019465898E+03  0.94019465898E+03  0.25500000920E-02 0.  1.
        2   -1    0    0  501    0  0.00000000000E+00  0.00000000000E+00 -0.22981447714E+04  0.22981447714E+04  0.25500000920E-02 0. -1.
    10030    2    1    2    0    0  0.00000000000E+00  0.00000000000E+00 -0.13579501124E+04  0.32383394304E+04  0.29398662824E+04 0.  0.
        4    1    3    3  502    0 -0.62516365140E+02  0.20185589824E+01  0.93872748033E+03  0.94080989882E+03  0.12699999809E+01 0.  1.
       -4    1    3    3    0  502  0.62516365140E+02 -0.20185589824E+01 -0.22966775928E+04  0.22975295316E+04  0.12699999809E+01 0. -1.
</event>
<event>
 5   0  0.5916603E-06  0.2836901E+04  0.7818609E-02  0.8291903E-01
        2   -1    0    0  501    0  0.00000000000E+00  0.00000000000E+00  0.23482191148E+04  0.23482191148E+04  0.25500000920E-02 0.  1.
       -2   -1    0    0    0  501  0.00000000000E+00  0.00000000000E+00 -0.85682035167E+03  0.85682035167E+03  0.25500000920E-02 0. -1.
    10030    2    1    2    0    0  0.00000000000E+00  0.00000000000E+00  0.14913987631E+04  0.32050394664E+04  0.28369010753E+04 0.  0.
        2    1    3    3  502    0  0.10359572284E+04 -0.81748649083E+03  0.13332985355E+04  0.18759468347E+04  0.25500000920E-02 0.  1.
       -2    1    3    3    0  502 -0.10359572284E+04  0.81748649083E+03  0.15810022764E+03  0.13290926318E+04  0.25500000920E-02 0. -1.
</event>
<event>
 5   0  0.5546570E-06  0.2817227E+04  0.7818609E-02  0.8297940E-01
        2   -1    0    0  501    0  0.00000000000E+00  0.00000000000E+00  0.12301241714E+04  0.12301241714E+04  0.25500000920E-02 0.  1.
       -2   -1    0    0    0  501  0.00000000000E+00  0.00000000000E+00 -0.16130013686E+04  0.16130013686E+04  0.25500000920E-02 0. -1.
    10030    2    1    2    0    0  0.00000000000E+00  0.00000000000E+00 -0.38287719725E+03  0.28431255400E+04  0.28172269855E+04 0.  0.
        4    1    3    3  502    0 -0.69102297987E+03  0.10906773860E+04  0.37685481054E+03  0.13450319997E+04  0.12699999809E+01 0.  1.
       -4    1    3    3    0  502  0.69102297987E+03 -0.10906773860E+04 -0.75973200780E+03  0.14980935403E+04  0.12699999809E+01 0. -1.
</event>
<event>
 5   0  0.5584205E-06  0.2803893E+04  0.7818609E-02  0.8302061E-01
        2   -1    0    0  501    0  0.00000000000E+00  0.00000000000E+00  0.10874753042E+04  0.10874753042E+04  0.25500000920E-02 0. -1.
       -2   -1    0    0    0  501  0.00000000000E+00  0.00000000000E+00 -0.18073555627E+04  0.18073555627E+04  0.25500000920E-02 0.  1.
    10030    2    1    2    0    0  0.00000000000E+00  0.00000000000E+00 -0.71988025849E+03  0.28948308668E+04  0.28038933933E+04 0.  0.
        1    1    3    3  502    0 -0.74593005783E+03  0.83887851576E+03 -0.12270149192E+04  0.16630377107E+04  0.50400001928E-02 0.  1.
       -1    1    3    3    0  502  0.74593005783E+03 -0.83887851576E+03  0.50713466069E+03  0.12317931561E+04  0.50400001928E-02 0. -1.
</event>
<event>
 5   0  0.1901375E-06  0.2811837E+04  0.7818609E-02  0.8299603E-01
        3   -1    0    0  501    0  0.00000000000E+00  0.00000000000E+00  0.80809611473E+03  0.80809612104E+03  0.10100000352E+00 0. -1.
       -3   -1    0    0    0  501  0.00000000000E+00  0.00000000000E+00 -0.24460044803E+04  0.24460044824E+04  0.10100000352E+00 0.  1.
    10030    2    1    2    0    0  0.00000000000E+00  0.00000000000E+00 -0.16379083656E+04  0.32541006035E+04  0.28118369304E+04 0.  0.
        4    1    3    3  502    0  0.44369966530E+03  0.59422804346E+03  0.56332679594E+03  0.93129751022E+03  0.12699999809E+01 0. -1.
       -4    1    3    3    0  502 -0.44369966530E+03 -0.59422804346E+03 -0.22012351615E+04  0.23228030932E+04  0.12699999809E+01 0.  1.
</event>
<event>
 5   0  0.2277133E-06  0.2759794E+04  0.7818609E-02  0.8315861E-01
        1   -1    0    0  501    0  0.00000000000E+00  0.00000000000E+00  0.14903047223E+04  0.14903047223E+04  0.50400001928E-02 0.  1.
       -1   -1    0    0    0  501  0.00000000000E+00  0.00000000000E+00 -0.12776687348E+04  0.12776687348E+04  0.50400001928E-02 0. -1.
    10030    2    1    2    0    0  0.00000000000E+00  0.00000000000E+00  0.21263598755E+03  0.27679734571E+04  0.27597940134E+04 0.  0.
        1    1    3    3  502    0  0.63973449579E+03 -0.11818546456E+04  0.42041563740E+03  0.14081157398E+04  0.50400001928E-02 0.  1.
       -1    1    3    3    0  502 -0.63973449579E+03  0.11818546456E+04 -0.20777964985E+03  0.13598577173E+04  0.50400001928E-02 0. -1.
</event>
<event>
 5   0  0.5584205E-06  0.2788282E+04  0.7818609E-02  0.8306915E-01
       -2   -1    0    0    0  501  0.00000000000E+00  0.00000000000E+00  0.11484468263E+04  0.11484468263E+04  0.25500000920E-02 0.  1.
        2   -1    0    0  501    0  0.00000000000E+00  0.00000000000E+00 -0.16923985114E+04  0.16923985114E+04  0.25500000920E-02 0. -1.
    10030    2    1    2    0    0  0.00000000000E+00  0.00000000000E+00 -0.54395168514E+03  0.28408453377E+04  0.27882824098E+04 0.  0.
        1    1    3    3  502    0  0.39192595472E+03  0.88754407511E+03  0.74804106302E+03  0.12251146360E+04  0.50400001928E-02 0.  1.
       -1    1    3    3    0  502 -0.39192595472E+03 -0.88754407511E+03 -0.12919927482E+04  0.16157307017E+04  0.50400001928E-02 0. -1.
</event>
<event>
 5   0  0.2190865E-06  0.2791353E+04  0.7818609E-02  0.8305958E-01
       -1   -1    0    0    0  501  0.00000000000E+00  0.00000000000E+00  0.15341019591E+04  0.15341019591E+04  0.50400001928E-02 0. -1.
        1   -1    0    0  501    0  0.00000000000E+00  0.00000000000E+00 -0.12697412254E+04  0.12697412254E+04  0.50400001928E-02 0.  1.
    10030    2    1    2    0    0  0.00000000000E+00  0.00000000000E+00  0.26436073371E+03  0.28038431845E+04  0.27913527197E+04 0.  0.
        2    1    3    3  502    0  0.65493579206E+03  0.45125103193E+03 -0.10198361228E+04  0.12933035618E+04  0.25500000920E-02 0.  1.
       -2    1    3    3    0  502 -0.65493579206E+03 -0.45125103193E+03  0.12841968565E+04  0.15105396227E+04  0.25500000920E-02 0. -1.
</event>
<event>
 5   0  0.2234068E-06  0.2815797E+04  0.7818609E-02  0.8298381E-01
       -1   -1    0    0    0  501  0.00000000000E+00  0.00000000000E+00  0.78396857724E+03  0.78396857726E+03  0.50400001928E-02 0.  1.
        1   -1    0    0  501    0  0.00000000000E+00  0.00000000000E+00 -0.25283904793E+04  0.25283904793E+04  0.50400001928E-02 0. -1.
    10030    2    1    2    0    0  0.00000000000E+00  0.00000000000E+00 -0.17444219020E+04  0.33123590565E+04  0.28157973555E+04 0.  0.
        3    1    3    3  502    0 -0.15949462321E+03 -0.92364774198E+03 -0.21080013207E+04  0.23069965896E+04  0.10100000352E+00 0. -1.
       -3    1    3    3    0  502  0.15949462321E+03  0.92364774198E+03  0.36357941866E+03  0.10053624670E+04  0.10100000352E+00 0.  1.
</event>
<event>
 5   0  0.2267565E-06  0.2783691E+04  0.7818609E-02  0.8308349E-01
       -1   -1    0    0    0  501  0.00000000000E+00  0.00000000000E+00  0.12142595498E+04  0.12142595498E+04  0.50400001928E-02 0.  1.
        1   -1    0    0  501    0  0.00000000000E+00  0.00000000000E+00 -0.15954039940E+04  0.15954039940E+04  0.50400001928E-02 0. -1.
    10030    2    1    2    0    0  0.00000000000E+00  0.00000000000E+00 -0.38114444422E+03  0.28096635439E+04  0.27836914596E+04 0.  0.
        4    1    3    3  502    0  0.42998103211E+03  0.84157930401E+03 -0.12219147286E+04  0.15447383694E+04  0.12699999809E+01 0. -1.
       -4    1    3    3    0  502 -0.42998103211E+03 -0.84157930401E+03  0.84077028442E+03  0.12649251745E+04  0.12699999809E+01 0.  1.
</event>
<event>
 5   0  0.5584205E-06  0.2886340E+04  0.7818609E-02  0.8276953E-01
        2   -1    0    0  501    0  0.00000000000E+00  0.00000000000E+00  0.22466065599E+04  0.22466065599E+04  0.25500000920E-02 0.  1.
       -2   -1    0    0    0  501  0.00000000000E+00  0.00000000000E+00 -0.92706029369E+03  0.92706029369E+03  0.25500000920E-02 0. -1.
    10030    2    1    2    0    0  0.00000000000E+00  0.00000000000E+00  0.13195462662E+04  0.31736668536E+04  0.28863400612E+04 0.  0.
        1    1    3    3  502    0 -0.43153286333E+02  0.11573708978E+03 -0.92123737106E+03  0.92948134674E+03  0.50400001928E-02 0. -1.
       -1    1    3    3    0  502  0.43153286333E+02 -0.11573708978E+03  0.22407836373E+04  0.22441855069E+04  0.50400001928E-02 0.  1.
</event>
<event>
 5   0  0.2190865E-06  0.2770241E+04  0.7818609E-02  0.8312567E-01
       -1   -1    0    0    0  501  0.00000000000E+00  0.00000000000E+00  0.11248181394E+04  0.11248181394E+04  0.50400001928E-02 0.  1.
        1   -1    0    0  501    0  0.00000000000E+00  0.00000000000E+00 -0.17056619085E+04  0.17056619085E+04  0.50400001928E-02 0. -1.
    10030    2    1    2    0    0  0.00000000000E+00  0.00000000000E+00 -0.58084376909E+03  0.28304800480E+04  0.27702414728E+04 0.  0.
        2    1    3    3  502    0 -0.85186754276E+03  0.96186316662E+03  0.23822658022E+03  0.13067558935E+04  0.25500000920E-02 0. -1.
       -2    1    3    3    0  502  0.85186754276E+03 -0.96186316662E+03 -0.81907034931E+03  0.15237241544E+04  0.25500000920E-02 0.  1.
</event>
<event>
 5   0  0.2206967E-06  0.2812813E+04  0.7818609E-02  0.8299301E-01
        1   -1    0    0  501    0  0.00000000000E+00  0.00000000000E+00  0.18781577460E+04  0.18781577460E+04  0.50400001928E-02 0.  1.
       -1   -1    0    0    0  501  0.00000000000E+00  0.00000000000E+00 -0.10531489766E+04  0.10531489766E+04  0.50400001928E-02 0. -1.
    10030    2    1    2    0    0  0.00000000000E+00  0.00000000000E+00  0.82500876935E+03  0.29313067226E+04  0.28128134727E+04 0.  0.
        5    1    3    3  502    0  0.68113997445E+03  0.79754265265E+03  0.13889560219E+04  0.17404731737E+04  0.46999998093E+01 0.  1.
       -5    1    3    3    0  502 -0.68113997445E+03 -0.79754265265E+03 -0.56394725251E+03  0.11908335489E+04  0.46999998093E+01 0. -1.
</event>
<event>
 5   0  0.2206967E-06  0.2870239E+04  0.7818609E-02  0.8281788E-01
        1   -1    0    0  501    0  0.00000000000E+00  0.00000000000E+00  0.11836617868E+04  0.11836617868E+04  0.50400001928E-02 0. -1.
       -1   -1    0    0    0  501  0.00000000000E+00  0.00000000000E+00 -0.17399969181E+04  0.17399969181E+04  0.50400001928E-02 0.  1.
    10030    2    1    2    0    0  0.00000000000E+00  0.00000000000E+00 -0.55633513129E+03  0.29236587049E+04  0.28702389177E+04 0.  0.
        5    1    3    3  502    0  0.44589472303E+03  0.10927815075E+04 -0.11097890917E+04  0.16200763702E+04  0.46999998093E+01 0.  1.
       -5    1    3    3    0  502 -0.44589472303E+03 -0.10927815075E+04  0.55345396041E+03  0.13035823347E+04  0.46999998093E+01 0. -1.
</event>
<event>
 5   0  0.5584205E-06  0.2803750E+04  0.7818609E-02  0.8302105E-01
       -2   -1    0    0    0  501  0.00000000000E+00  0.00000000000E+00  0.15594395925E+04  0.15594395925E+04  0.25500000920E-02 0.  1.
        2   -1    0    0  501    0  0.00000000000E+00  0.00000000000E+00 -0.12602302974E+04  0.12602302974E+04  0.25500000920E-02 0. -1.
    10030    2    1    2    0    0  0.00000000000E+00  0.00000000000E+00  0.29920929511E+03  0.28196698898E+04  0.28037496474E+04 0.  0.
        1    1    3    3  502    0  0.91864589772E+03  0.10483733282E+04 -0.42724021917E+00  0.13939143098E+04  0.50400001928E-02 0. -1.
       -1    1    3    3    0  502 -0.91864589772E+03 -0.10483733282E+04  0.29963653533E+03  0.14257555800E+04  0.50400001928E-02 0.  1.
</event>
<event>
 5   0  0.2206967E-06  0.2797558E+04  0.7818609E-02  0.8304027E-01
       -1   -1    0    0    0  501  0.00000000000E+00  0.00000000000E+00  0.13809162656E+04  0.13809162656E+04  0.50400001928E-02 0.  1.
        1   -1    0    0  501    0  0.00000000000E+00  0.00000000000E+00 -0.14168730388E+04  0.14168730388E+04  0.50400001928E-02 0. -1.
    10030    2    1    2    0    0  0.00000000000E+00  0.00000000000E+00 -0.35956773150E+02  0.27977893044E+04  0.27975582393E+04 0.  0.
        5    1    3    3  502    0 -0.10684130198E+03 -0.91932850762E+03  0.10309080138E+04  0.13854145198E+04  0.46999998093E+01 0.  1.
       -5    1    3    3    0  502  0.10684130198E+03  0.91932850762E+03 -0.10668647869E+04  0.14123747846E+04  0.46999998093E+01 0. -1.
</event>
<event>
 5   0  0.5916603E-06  0.2789838E+04  0.7818609E-02  0.8306430E-01
        2   -1    0    0  501    0  0.00000000000E+00  0.00000000000E+00  0.17097240399E+04  0.17097240399E+04  0.25500000920E-02 0. -1.
       -2   -1    0    0    0  501  0.00000000000E+00  0.00000000000E+00 -0.11380779475E+04  0.11380779475E+04  0.25500000920E-02 0.  1.
    10030    2    1    2    0    0  0.00000000000E+00  0.00000000000E+00  0.57164609235E+03  0.28478019874E+04  0.27898381502E+04 0.  0.
        2    1    3    3  502    0 -0.13079922463E+04  0.17316732772E+03 -0.17631788256E+03  0.13311343417E+04  0.25500000920E-02 0. -1.
       -2    1    3    3    0  502  0.13079922463E+04 -0.17316732772E+03  0.74796397490E+03  0.15166676457E+04  0.25500000920E-02 0.  1.
</event>
<event>
 5   0  0.2190865E-06  0.2781214E+04  0.7818609E-02  0.8309125E-01
       -1   -1    0    0    0  501  0.00000000000E+00  0.00000000000E+00  0.10934078971E+04  0.10934078971E+04  0.50400001928E-02 0. -1.
        1   -1    0    0  501    0  0.00000000000E+00  0.00000000000E+00 -0.17685875348E+04  0.17685875348E+04  0.50400001928E-02 0.  1.
    10030    2    1    2    0    0  0.00000000000E+00  0.00000000000E+00 -0.67517963776E+03  0.28619954319E+04  0.27812138194E+04 0.  0.
        2    1    3    3  502    0  0.97645501396E+03  0.21722419543E+03 -0.13316375159E+04  0.16655056947E+04  0.25500000920E-02 0.  1.
       -2    1    3    3    0  502 -0.97645501396E+03 -0.21722419543E+03  0.65645787815E+03  0.11964897372E+04  0.25500000920E-02 0. -1.
</event>
<event>
 5   0  0.5866136E-06  0.2805368E+04  0.7818609E-02  0.8301604E-01
       -2   -1    0    0    0  501  0.00000000000E+00  0.00000000000E+00  0.11012023787E+04  0.11012023787E+04  0.25500000920E-02 0.  1.
        2   -1    0    0  501    0  0.00000000000E+00  0.00000000000E+00 -0.17867031132E+04  0.17867031132E+04  0.25500000920E-02 0. -1.
    10030    2    1    2    0    0  0.00000000000E+00  0.00000000000E+00 -0.68550073456E+03  0.28879054919E+04  0.28053675113E+04 0.  0.
        5    1    3    3  502    0 -0.46258447574E+03  0.39219809343E+01 -0.17059080008E+04  0.17675248164E+04  0.46999998093E+01 0. -1.
       -5    1    3    3    0  502  0.46258447574E+03 -0.39219809343E+01  0.10204072663E+04  0.11203806756E+04  0.46999998093E+01 0.  1.
</event>
<event>
 5   0  0.5546570E-06  0.2779672E+04  0.7818609E-02  0.8309607E-01
        2   -1    0    0  501    0  0.00000000000E+00  0.00000000000E+00  0.17924271791E+04  0.17924271791E+04  0.25500000920E-02 0. -1.
       -2   -1    0    0    0  501  0.00000000000E+00  0.00000000000E+00 -0.10776696872E+04  0.10776696872E+04  0.25500000920E-02 0.  1.
    10030    2    1    2    0    0  0.00000000000E+00  0.00000000000E+00  0.71475749190E+03  0.28700968663E+04  0.27796722378E+04 0.  0.
        4    1    3    3  502    0  0.38908328445E+03  0.88941546046E+03  0.13843171506E+04  0.16907930831E+04  0.12699999809E+01 0. -1.
       -4    1    3    3    0  502 -0.38908328445E+03 -0.88941546046E+03 -0.66955965870E+03  0.11793037832E+04  0.12699999809E+01 0.  1.
</event>
<event>
 5   0  0.5546570E-06  0.2792797E+04  0.7818609E-02  0.8305508E-01
       -2   -1    0    0    0  501  0.00000000000E+00  0.00000000000E+00  0.76919532831E+03  0.76919532832E+03  0.25500000920E-02 0.  1.
        2   -1    0    0  501    0  0.00000000000E+00  0.00000000000E+00 -0.25350237922E+04  0.25350237922E+04  0.25500000920E-02 0. -1.
    10030    2    1    2    0    0  0.00000000000E+00  0.00000000000E+00 -0.17658284638E+04  0.33042191205E+04  0.27927967761E+04 0.  0.
        4    1    3    3  502    0 -0.36255518884E+03  0.23753457314E+03 -0.24534202099E+04  0.24914135099E+04  0.12699999809E+01 0. -1.
       -4    1    3    3    0  502  0.36255518884E+03 -0.23753457314E+03  0.68759174604E+03  0.81280561053E+03  0.12699999809E+01 0.  1.
</event>
<event>
 5   0  0.1901375E-06  0.2785473E+04  0.7818609E-02  0.8307793E-01
        3   -1    0    0  501    0  0.00000000000E+00  0.00000000000E+00  0.25700154634E+04  0.25700154654E+04  0.10100000352E+00 0.  1.
       -3   -1    0    0    0  501  0.00000000000E+00  0.00000000000E+00 -0.75474843400E+03  0.75474844076E+03  0.10100000352E+00 0. -1.
    10030    2    1    2    0    0  0.00000000000E+00  0.00000000000E+00  0.18152670294E+04  0.33247639061E+04  0.27854731454E+04 0.  0.
        4    1    3    3  502    0  0.13222550098E+04  0.37183911093E+03  0.63260866847E+03  0.15122228592E+04  0.12699999809E+01 0. -1.
       -4    1    3    3    0  502 -0.13222550098E+04 -0.37183911093E+03  0.11826583609E+04  0.18125410470E+04  0.12699999809E+01 0.  1.
</event>
<event>
 5   0  0.1901375E-06  0.2799841E+04  0.7818609E-02  0.8303318E-01
        3   -1    0    0  501    0  0.00000000000E+00  0.00000000000E+00  0.19358567547E+04  0.19358567574E+04  0.10100000352E+00 0.  1.
       -3   -1    0    0    0  501  0.00000000000E+00  0.00000000000E+00 -0.10123566043E+04  0.10123566093E+04  0.10100000352E+00 0. -1.
    10030    2    1    2    0    0  0.00000000000E+00  0.00000000000E+00  0.92350015044E+03  0.29482133667E+04  0.27998409826E+04 0.  0.
        5    1    3    3  502    0  0.66831482505E+03  0.12297941364E+04  0.48994530619E+03  0.14829385747E+04  0.46999998093E+01 0. -1.
       -5    1    3    3    0  502 -0.66831482505E+03 -0.12297941364E+04  0.43355484425E+03  0.14652747920E+04  0.46999998093E+01 0.  1.
</event>
<event>
 5   0  0.2206967E-06  0.2820248E+04  0.7818609E-02  0.8297010E-01
        1   -1    0    0  501    0  0.00000000000E+00  0.00000000000E+00  0.14656583464E+04  0.14656583464E+04  0.50400001928E-02 0. -1.
       -1   -1    0    0    0  501  0.00000000000E+00  0.00000000000E+00 -0.13566939972E+04  0.13566939972E+04  0.50400001928E-02 0.  1.
    10030    2    1    2    0    0  0.00000000000E+00  0.00000000000E+00  0.10896434924E+03  0.28223523436E+04  0.28202481313E+04 0.  0.
        5    1    3    3  502    0  0.19790375009E+03  0.13036272139E+04  0.55467304349E+03  0.14304873583E+04  0.46999998093E+01 0.  1.
       -5    1    3    3    0  502 -0.19790375009E+03 -0.13036272139E+04 -0.44570869425E+03  0.13918649853E+04  0.46999998093E+01 0. -1.
</event>
<event>
 5   0  0.5546570E-06  0.2796788E+04  0.7818609E-02  0.8304266E-01
        2   -1    0    0  501    0  0.00000000000E+00  0.00000000000E+00  0.20124859085E+04  0.20124859085E+04  0.25500000920E-02 0. -1.
       -2   -1    0    0    0  501  0.00000000000E+00  0.00000000000E+00 -0.97168678577E+03  0.97168678578E+03  0.25500000920E-02 0.  1.
    10030    2    1    2    0    0  0.00000000000E+00  0.00000000000E+00  0.10407991227E+04  0.29841726943E+04  0.27967881320E+04 0.  0.
        4    1    3    3  502    0  0.32221520034E+03 -0.13607629756E+04  0.52297804000E+03  0.14929856511E+04  0.12699999809E+01 0.  1.
       -4    1    3    3    0  502 -0.32221520034E+03  0.13607629756E+04  0.51782108271E+03  0.14911870432E+04  0.12699999809E+01 0. -1.
</event>
<event>
 5   0  0.5866136E-06  0.2724720E+04  0.7818609E-02  0.8327029E-01
        2   -1    0    0  501    0  0.00000000000E+00  0.00000000000E+00  0.12315362717E+04  0.12315362717E+04  0.25500000920E-02 0.  1.
       -2   -1    0    0    0  501  0.00000000000E+00  0.00000000000E+00 -0.15070806409E+04  0.15070806409E+04  0.25500000920E-02 0. -1.
    10030    2    1    2    0    0  0.00000000000E+00  0.00000000000E+00 -0.27554436929E+03  0.27386169126E+04  0.27247197828E+04 0.  0.
        5    1    3    3  502    0  0.10204447336E+03 -0.49029681503E+03  0.11356540483E+04  0.12411834065E+04  0.46999998093E+01 0.  1.
       -5    1    3    3    0  502 -0.10204447336E+03  0.49029681503E+03 -0.14111984175E+04  0.14974335061E+04  0.46999998093E+01 0. -1.
</event>
<event>
 5   0  0.2206967E-06  0.2785356E+04  0.7818609E-02  0.8307829E-01
        1   -1    0    0  501    0  0.00000000000E+00  0.00000000000E+00  0.23050464155E+04  0.23050464155E+04  0.50400001928E-02 0. -1.
       -1   -1    0    0    0  501  0.00000000000E+00  0.00000000000E+00 -0.84143739125E+03  0.84143739127E+03  0.50400001928E-02 0.  1.
    10030    2    1    2    0    0  0.00000000000E+00  0.00000000000E+00  0.14636090242E+04  0.31464838067E+04  0.27853561658E+04 0.  0.
        5    1    3    3  502    0 -0.37176453483E+03 -0.16697921919E+03 -0.77255944330E+03  0.87347645213E+03  0.46999998093E+01 0.  1.
       -5    1    3    3    0  502  0.37176453483E+03  0.16697921919E+03  0.22361684675E+04  0.22730073546E+04  0.46999998093E+01 0. -1.
</event>
<event>
 5   0  0.5546570E-06  0.2697821E+04  0.7818609E-02  0.8335712E-01
       -2   -1    0    0    0  501  0.00000000000E+00  0.00000000000E+00  0.11295338124E+04  0.11295338124E+04  0.25500000920E-02 0.  1.
        2   -1    0    0  501    0  0.00000000000E+00  0.00000000000E+00 -0.16108941471E+04  0.16108941471E+04  0.25500000920E-02 0. -1.
    10030    2    1    2    0    0  0.00000000000E+00  0.00000000000E+00 -0.48136033470E+03  0.27404279596E+04  0.26978209040E+04 0.  0.
        4    1    3    3  502    0  0.36544803005E+03  0.10682890291E+04 -0.99041813937E+03  0.15019065937E+04  0.12699999809E+01 0. -1.
       -4    1    3    3    0  502 -0.36544803005E+03 -0.10682890291E+04  0.50905780466E+03  0.12385213659E+04  0.12699999809E+01 0.  1.
</event>
<event>
 5   0  0.5584205E-06  0.2868081E+04  0.7818609E-02  0.8282438E-01
       -2   -1    0    0    0  501  0.00000000000E+00  0.00000000000E+00  0.16182304220E+04  0.16182304220E+04  0.25500000920E-02 0.  1.
        2   -1    0    0  501    0  0.00000000000E+00  0.00000000000E+00 -0.12708149770E+04  0.12708149770E+04  0.25500000920E-02 0. -1.
    10030    2    1    2    0    0  0.00000000000E+00  0.00000000000E+00  0.34741544500E+03  0.28890453991E+04  0.28680805125E+04 0.  0.
        1    1    3    3  502    0 -0.38550331190E+03 -0.13570332340E+04 -0.85700358835E+02  0.14133281831E+04  0.50400001928E-02 0. -1.
       -1    1    3    3    0  502  0.38550331190E+03  0.13570332340E+04  0.43311580384E+03  0.14757172159E+04  0.50400001928E-02 0.  1.
</event>
<event>
 5   0  0.2234068E-06  0.2845754E+04  0.7818609E-02  0.8289203E-01
       -1   -1    0    0    0  501  0.00000000000E+00  0.00000000000E+00  0.10712150138E+04  0.10712150138E+04  0.50400001928E-02 0.  1.
        1   -1    0    0  501    0  0.00000000000E+00  0.00000000000E+00 -0.18899839742E+04  0.18899839742E+04  0.50400001928E-02 0. -1.
    10030    2    1    2    0    0  0.00000000000E+00  0.00000000000E+00 -0.81876896041E+03  0.29611989880E+04  0.28457541770E+04 0.  0.
        3    1    3    3  502    0  0.50437953290E+03 -0.90549223827E+02  0.97186097062E+03  0.10986863208E+04  0.10100000352E+00 0.  1.
       -3    1    3    3    0  502 -0.50437953290E+03  0.90549223827E+02 -0.17906299310E+04  0.18625126671E+04  0.10100000352E+00 0. -1.
</event>
<event>
 5   0  0.5625245E-06  0.2800845E+04  0.7818609E-02  0.8303006E-01
       -2   -1    0    0    0  501  0.00000000000E+00  0.00000000000E+00  0.11106185548E+04  0.11106185548E+04  0.25500000920E-02 0. -1.
        2   -1    0    0  501    0  0.00000000000E+00  0.00000000000E+00 -0.17658473344E+04  0.17658473344E+04  0.25500000920E-02 0.  1.
    10030    2    1    2    0    0  0.00000000000E+00  0.00000000000E+00 -0.65522877957E+03  0.28764658892E+04  0.28008447401E+04 0.  0.
        3    1    3    3  502    0  0.29722300482E+03 -0.37603011534E+02 -0.17325508195E+04  0.17582627373E+04  0.10100000352E+00 0.  1.
       -3    1    3    3    0  502 -0.29722300482E+03  0.37603011534E+02  0.10773220399E+04  0.11182031519E+04  0.10100000352E+00 0. -1.
</event>
<event>
 5   0  0.2234068E-06  0.2799022E+04  0.7818609E-02  0.8303572E-01
       -1   -1    0    0    0  501  0.00000000000E+00  0.00000000000E+00  0.10645203422E+04  0.10645203422E+04  0.50400001928E-02 0. -1.
        1   -1    0    0  501    0  0.00000000000E+00  0.00000000000E+00 -0.18399193274E+04  0.18399193274E+04  0.50400001928E-02 0.  1.
    10030    2    1    2    0    0  0.00000000000E+00  0.00000000000E+00 -0.77539898513E+03  0.29044396696E+04  0.27990223665E+04 0.  0.
        3    1    3    3  502    0 -0.95048661437E+03  0.14660311621E+03 -0.14427086894E+04  0.17338759040E+04  0.10100000352E+00 0.  1.
       -3    1    3    3    0  502  0.95048661437E+03 -0.14660311621E+03  0.66730970427E+03  0.11705637656E+04  0.10100000352E+00 0. -1.
</event>
<event>
 5   0  0.2206967E-06  0.2830868E+04  0.7818609E-02  0.8293749E-01
       -1   -1    0    0    0  501  0.00000000000E+00  0.00000000000E+00  0.13846151174E+04  0.13846151174E+04  0.50400001928E-02 0.  1.
        1   -1    0    0  501    0  0.00000000000E+00  0.00000000000E+00 -0.14469392479E+04  0.14469392480E+04  0.50400001928E-02 0. -1.
    10030    2    1    2    0    0  0.00000000000E+00  0.00000000000E+00 -0.62324130560E+02  0.28315543653E+04  0.28308683874E+04 0.  0.
        5    1    3    3  502    0  0.66833773682E+03 -0.76769133128E+03 -0.10149686815E+04  0.14374313288E+04  0.46999998093E+01 0. -1.
       -5    1    3    3    0  502 -0.66833773682E+03  0.76769133128E+03  0.95264455094E+03  0.13941230365E+04  0.46999998093E+01 0.  1.
</event>
<event>
 5   0  0.2277133E-06  0.2806045E+04  0.7818609E-02  0.8301394E-01
        1   -1    0    0  501    0  0.00000000000E+00  0.00000000000E+00  0.12045206048E+04  0.12045206048E+04  0.50400001928E-02 0.  1.
       -1   -1    0    0    0  501  0.00000000000E+00  0.00000000000E+00 -0.16342368640E+04  0.16342368640E+04  0.50400001928E-02 0. -1.
    10030    2    1    2    0    0  0.00000000000E+00  0.00000000000E+00 -0.42971625922E+03  0.28387574688E+04  0.28060448862E+04 0.  0.
        1    1    3    3  502    0  0.89086602484E+03  0.91988122296E+03 -0.79481985020E+03  0.15071703065E+04  0.50400001928E-02 0. -1.
       -1    1    3    3    0  502 -0.89086602484E+03 -0.91988122296E+03  0.36510359098E+03  0.13315871623E+04  0.50400001928E-02 0.  1.
</event>
<event>
 5   0  0.2277133E-06  0.2852990E+04  0.7818609E-02  0.8287003E-01
        1   -1    0    0  501    0  0.00000000000E+00  0.00000000000E+00  0.15171194828E+04  0.15171194828E+04  0.50400001928E-02 0.  1.
       -1   -1    0    0    0  501  0.00000000000E+00  0.00000000000E+00 -0.13412837790E+04  0.13412837790E+04  0.50400001928E-02 0. -1.
    10030    2    1    2    0    0  0.00000000000E+00  0.00000000000E+00  0.17583570379E+03  0.28584032618E+04  0.28529898374E+04 0.  0.
        1    1    3    3  502    0  0.11181245672E+04 -0.71788888760E+03 -0.43202807678E+03  0.13972169703E+04  0.50400001928E-02 0. -1.
       -1    1    3    3    0  502 -0.11181245672E+04  0.71788888760E+03  0.60786378057E+03  0.14611862915E+04  0.50400001928E-02 0.  1.
</event>
<event>
 5   0  0.5625245E-06  0.2802609E+04  0.7818609E-02  0.8302459E-01
       -2   -1    0    0    0  501  0.00000000000E+00  0.00000000000E+00  0.13417057583E+04  0.13417057583E+04  0.25500000920E-02 0. -1.
        2   -1    0    0  501    0  0.00000000000E+00  0.00000000000E+00 -0.14635503833E+04  0.14635503833E+04  0.25500000920E-02 0.  1.
    10030    2    1    2    0    0  0.00000000000E+00  0.00000000000E+00 -0.12184462499E+03  0.28052561417E+04  0.28026087682E+04 0.  0.
        3    1    3    3  502    0  0.35791770775E+03 -0.11254935726E+04  0.69398709956E+03  0.13698390314E+04  0.10100000352E+00 0. -1.
       -3    1    3    3    0  502 -0.35791770775E+03  0.11254935726E+04 -0.81583172455E+03  0.14354171103E+04  0.10100000352E+00 0.  1.
</event>
<event>
 5   0  0.2277133E-06  0.2799202E+04  0.7818609E-02  0.8303516E-01
       -1   -1    0    0    0  501  0.00000000000E+00  0.00000000000E+00  0.16096927651E+04  0.16096927651E+04  0.50400001928E-02 0.  1.
        1   -1    0    0  501    0  0.00000000000E+00  0.00000000000E+00 -0.12169295045E+04  0.12169295045E+04  0.50400001928E-02 0. -1.
    10030    2    1    2    0    0  0.00000000000E+00  0.00000000000E+00  0.39276326064E+03  0.28266222696E+04  0.27992017569E+04 0.  0.
        1    1    3    3  502    0 -0.80569493159E+03 -0.71034437191E+03  0.11024724887E+04  0.15392137727E+04  0.50400001928E-02 0.  1.
       -1    1    3    3    0  502  0.80569493159E+03  0.71034437191E+03 -0.70970922809E+03  0.12874084969E+04  0.50400001928E-02 0. -1.
</event>
<event>
 5   0  0.2190865E-06  0.2797068E+04  0.7818609E-02  0.8304179E-01
       -1   -1    0    0    0  501  0.00000000000E+00  0.00000000000E+00  0.11618050755E+04  0.11618050755E+04  0.50400001928E-02 0. -1.
        1   -1    0    0  501    0  0.00000000000E+00  0.00000000000E+00 -0.16834991398E+04  0.16834991398E+04  0.50400001928E-02 0.  1.
    10030    2    1    2    0    0  0.00000000000E+00  0.00000000000E+00 -0.52169406432E+03  0.28453042153E+04  0.27970683547E+04 0.  0.
        2    1    3    3  502    0 -0.12422994849E+03  0.71453156705E+03  0.95556270738E+03  0.11996201599E+04  0.25500000920E-02 0. -1.
       -2    1    3    3    0  502  0.12422994849E+03 -0.71453156705E+03 -0.14772567717E+04  0.16456840553E+04  0.25500000920E-02 0.  1.
</event>
<event>
 5   0  0.2206967E-06  0.2798227E+04  0.7818609E-02  0.8303819E-01
        1   -1    0    0  501    0  0.00000000000E+00  0.00000000000E+00  0.23066372293E+04  0.23066372293E+04  0.50400001928E-02 0.  1.
       -1   -1    0    0    0  501  0.00000000000E+00  0.00000000000E+00 -0.84864634334E+03  0.84864634335E+03  0.50400001928E-02 0. -1.
    10030    2    1    2    0    0  0.00000000000E+00  0.00000000000E+00  0.14579908860E+04  0.31552835727E+04  0.27982274747E+04 0.  0.
        5    1    3    3  502    0 -0.10810464514E+04 -0.46061825395E+03 -0.12728842419E+03  0.11819708283E+04  0.46999998093E+01 0. -1.
       -5    1    3    3    0  502  0.10810464514E+04  0.46061825395E+03  0.15852793102E+04  0.19733127444E+04  0.46999998093E+01 0.  1.
</event>
<event>
 5   0  0.5584205E-06  0.2824949E+04  0.7818609E-02  0.8295564E-01
       -2   -1    0    0    0  501  0.00000000000E+00  0.00000000000E+00  0.11543806759E+04  0.11543806760E+04  0.25500000920E-02 0. -1.
        2   -1    0    0  501    0  0.00000000000E+00  0.00000000000E+00 -0.17282724426E+04  0.17282724426E+04  0.25500000920E-02 0.  1.
    10030    2    1    2    0    0  0.00000000000E+00  0.00000000000E+00 -0.57389176664E+03  0.28826531185E+04  0.28249490689E+04 0.  0.
        1    1    3    3  502    0  0.50228469409E+03 -0.12390678025E+04  0.17788656883E+03  0.13487855888E+04  0.50400001928E-02 0.  1.
       -1    1    3    3    0  502 -0.50228469409E+03  0.12390678025E+04 -0.75177833547E+03  0.15338675298E+04  0.50400001928E-02 0. -1.
</event>
<event>
 5   0  0.5625245E-06  0.2682200E+04  0.7818609E-02  0.8340804E-01
       -2   -1    0    0    0  501  0.00000000000E+00  0.00000000000E+00  0.84590679023E+03  0.84590679023E+03  0.25500000920E-02 0. -1.
        2   -1    0    0  501    0  0.00000000000E+00  0.00000000000E+00 -0.21261792896E+04  0.21261792896E+04  0.25500000920E-02 0.  1.
    10030    2    1    2    0    0  0.00000000000E+00  0.00000000000E+00 -0.12802724994E+04  0.29720860798E+04  0.26822002150E+04 0.  0.
        3    1    3    3  502    0  0.46205307994E+03  0.45117713981E+03 -0.19425379307E+04  0.20470729060E+04  0.10100000352E+00 0.  1.
       -3    1    3    3    0  502 -0.46205307994E+03 -0.45117713981E+03  0.66226543127E+03  0.92501317387E+03  0.10100000352E+00 0. -1.
</event>
<event>
 5   0  0.2277133E-06  0.2787558E+04  0.7818609E-02  0.8307142E-01
        1   -1    0    0  501    0  0.00000000000E+00  0.00000000000E+00  0.13624676017E+04  0.13624676017E+04  0.50400001928E-02 0. -1.
       -1   -1    0    0    0  501  0.00000000000E+00  0.00000000000E+00 -0.14258099825E+04  0.14258099825E+04  0.50400001928E-02 0.  1.
    10030    2    1    2    0    0  0.00000000000E+00  0.00000000000E+00 -0.63342380827E+02  0.27882775843E+04  0.27875580047E+04 0.  0.
        1    1    3    3  502    0 -0.57773950969E+02  0.10512601777E+04 -0.94521638288E+03  0.14148921518E+04  0.50400001928E-02 0.  1.
       -1    1    3    3    0  502  0.57773950969E+02 -0.10512601777E+04  0.88187400205E+03  0.13733854325E+04  0.50400001928E-02 0. -1.
</event>
<event>
 5   0  0.2190865E-06  0.2804031E+04  0.7818609E-02  0.8302018E-01
        1   -1    0    0  501    0  0.00000000000E+00  0.00000000000E+00  0.20393337329E+04  0.20393337329E+04  0.50400001928E-02 0. -1.
       -1   -1    0    0    0  501  0.00000000000E+00  0.00000000000E+00 -0.96386715812E+03  0.96386715814E+03  0.50400001928E-02 0.  1.
    10030    2    1    2    0    0  0.00000000000E+00  0.00000000000E+00  0.10754665748E+04  0.30032008911E+04  0.28040305345E+04 0.  0.
        2    1    3    3  502    0 -0.58682597214E+03 -0.48718800083E+03 -0.72223234163E+03  0.10503982221E+04  0.25500000920E-02 0.  1.
       -2    1    3    3    0  502  0.58682597214E+03  0.48718800083E+03  0.17976989164E+04  0.19528026690E+04  0.25500000920E-02 0. -1.
</event>
<event>
 5   0  0.2267565E-06  0.2811651E+04  0.7818609E-02  0.8299660E-01
        1   -1    0    0  501    0  0.00000000000E+00  0.00000000000E+00  0.18037814245E+04  0.18037814245E+04  0.50400001928E-02 0.  1.
       -1   -1    0    0    0  501  0.00000000000E+00  0.00000000000E+00 -0.10956682183E+04  0.10956682183E+04  0.50400001928E-02 0. -1.
    10030    2    1    2    0    0  0.00000000000E+00  0.00000000000E+00  0.70811320621E+03  0.28994496428E+04  0.28116514575E+04 0.  0.
        4    1    3    3  502    0  0.23671549462E+03 -0.11483176752E+04  0.11539565523E+04  0.16450790394E+04  0.12699999809E+01 0.  1.
       -4    1    3    3    0  502 -0.23671549462E+03  0.11483176752E+04 -0.44584334612E+03  0.12543706034E+04  0.12699999809E+01 0. -1.
</event>
<event>
 5   0  0.2234068E-06  0.2820675E+04  0.7818609E-02  0.8296878E-01
       -1   -1    0    0    0  501  0.00000000000E+00  0.00000000000E+00  0.84142153659E+03  0.84142153660E+03  0.50400001928E-02 0. -1.
        1   -1    0    0  501    0  0.00000000000E+00  0.00000000000E+00 -0.23639181882E+04  0.23639181882E+04  0.50400001928E-02 0.  1.
    10030    2    1    2    0    0  0.00000000000E+00  0.00000000000E+00 -0.15224966516E+04  0.32053397248E+04  0.28206748656E+04 0.  0.
        3    1    3    3  502    0 -0.30438605341E+03 -0.65492386804E+03 -0.21378442207E+04  0.22565358549E+04  0.10100000352E+00 0.  1.
       -3    1    3    3    0  502  0.30438605341E+03  0.65492386804E+03  0.61534756911E+03  0.94880386985E+03  0.10100000352E+00 0. -1.
</event>
<event>
 5   0  0.2277133E-06  0.2778119E+04  0.7818609E-02  0.8310094E-01
        1   -1    0    0  501    0  0.00000000000E+00  0.00000000000E+00  0.13281488409E+04  0.13281488409E+04  0.50400001928E-02 0.  1.
       -1   -1    0    0    0  501  0.00000000000E+00  0.00000000000E+00 -0.14527631676E+04  0.14527631676E+04  0.50400001928E-02 0. -1.
    10030    2    1    2    0    0  0.00000000000E+00  0.00000000000E+00 -0.12461432668E+03  0.27809120085E+04  0.27781185843E+04 0.  0.
        1    1    3    3  502    0 -0.11759594471E+04  0.49902747556E+03 -0.60836156328E+03  0.14149250278E+04  0.50400001928E-02 0. -1.
       -1    1    3    3    0  502  0.11759594471E+04 -0.49902747556E+03  0.48374723659E+03  0.13659869807E+04  0.50400001928E-02 0.  1.
</event>
<event>
 5   0  0.5546570E-06  0.2780740E+04  0.7818609E-02  0.8309273E-01
        2   -1    0    0  501    0  0.00000000000E+00  0.00000000000E+00  0.22882486482E+04  0.22882486482E+04  0.25500000920E-02 0.  1.
       -2   -1    0    0    0  501  0.00000000000E+00  0.00000000000E+00 -0.84480685936E+03  0.84480685936E+03  0.25500000920E-02 0. -1.
    10030    2    1    2    0    0  0.00000000000E+00  0.00000000000E+00  0.14434417888E+04  0.31330555076E+04  0.27807395807E+04 0.  0.
        4    1    3    3  502    0 -0.77940833950E+03  0.11033724955E+04  0.35107588280E+03  0.13957664962E+04  0.12699999809E+01 0.  1.
       -4    1    3    3    0  502  0.77940833950E+03 -0.11033724955E+04  0.10923659061E+04  0.17372890114E+04  0.12699999809E+01 0. -1.
</event>
<event>
 5   0  0.5546570E-06  0.2802170E+04  0.7818609E-02  0.8302595E-01
        2   -1    0    0  501    0  0.00000000000E+00  0.00000000000E+00  0.22089994054E+04  0.22089994054E+04  0.25500000920E-02 0. -1.
       -2   -1    0    0    0  501  0.00000000000E+00  0.00000000000E+00 -0.88865550570E+03  0.88865550571E+03  0.25500000920E-02 0.  1.
    10030    2    1    2    0    0  0.00000000000E+00  0.00000000000E+00  0.13203438997E+04  0.30976549111E+04  0.28021702187E+04 0.  0.
        4    1    3    3  502    0  0.42912348990E+03 -0.88866797834E+03 -0.43926877971E+03  0.10802020270E+04  0.12699999809E+01 0.  1.
       -4    1    3    3    0  502 -0.42912348990E+03  0.88866797834E+03  0.17596126794E+04  0.20174528841E+04  0.12699999809E+01 0. -1.
</event>
<event>
 5   0  0.2277133E-06  0.2796694E+04  0.7818609E-02  0.8304295E-01
       -1   -1    0    0    0  501  0.00000000000E+00  0.00000000000E+00  0.20001621310E+04  0.20001621310E+04  0.50400001928E-02 0. -1.
        1   -1    0    0  501    0  0.00000000000E+00  0.00000000000E+00 -0.97760812110E+03  0.97760812111E+03  0.50400001928E-02 0.  1.
    10030    2    1    2    0    0  0.00000000000E+00  0.00000000000E+00  0.10225540099E+04  0.29777702521E+04  0.27966942935E+04 0.  0.
        1    1    3    3  502    0 -0.44995643962E+03  0.13238474134E+04  0.49158721946E+03  0.14821237350E+04  0.50400001928E-02 0.  1.
       -1    1    3    3    0  502  0.44995643962E+03 -0.13238474134E+04  0.53096679041E+03  0.14956465171E+04  0.50400001928E-02 0. -1.
</event>
<event>
 5   0  0.2267565E-06  0.2789624E+04  0.7818609E-02  0.8306497E-01
        1   -1    0    0  501    0  0.00000000000E+00  0.00000000000E+00  0.13128693223E+04  0.13128693223E+04  0.50400001928E-02 0.  1.
       -1   -1    0    0    0  501  0.00000000000E+00  0.00000000000E+00 -0.14818689235E+04  0.14818689235E+04  0.50400001928E-02 0. -1.
    10030    2    1    2    0    0  0.00000000000E+00  0.00000000000E+00 -0.16899960120E+03  0.27947382458E+04  0.27896238093E+04 0.  0.
        4    1    3    3  502    0  0.74358353714E+03 -0.53578010140E+03  0.96886587132E+03  0.13336714300E+04  0.12699999809E+01 0.  1.
       -4    1    3    3    0  502 -0.74358353714E+03  0.53578010140E+03 -0.11378654725E+04  0.14610668158E+04  0.12699999809E+01 0. -1.
</event>
<event>
 5   0  0.5546570E-06  0.2786127E+04  0.7818609E-02  0.8307588E-01
        2   -1    0    0  501    0  0.00000000000E+00  0.00000000000E+00  0.19323300186E+04  0.19323300186E+04  0.25500000920E-02 0.  1.
       -2   -1    0    0    0  501  0.00000000000E+00  0.00000000000E+00 -0.10042935114E+04  0.10042935114E+04  0.25500000920E-02 0. -1.
    10030    2    1    2    0    0  0.00000000000E+00  0.00000000000E+00  0.92803650721E+03  0.29366235301E+04  0.27861274197E+04 0.  0.
        4    1    3    3  502    0  0.65261651099E+03 -0.93010836634E+03 -0.38550510192E+03  0.11998440232E+04  0.12699999809E+01 0. -1.
       -4    1    3    3    0  502 -0.65261651099E+03  0.93010836634E+03  0.13135416091E+04  0.17367795068E+04  0.12699999809E+01 0.  1.
</event>
<event>
 5   0  0.5546570E-06  0.2787693E+04  0.7818609E-02  0.8307099E-01
       -2   -1    0    0    0  501  0.00000000000E+00  0.00000000000E+00  0.18516126496E+04  0.18516126496E+04  0.25500000920E-02 0. -1.
        2   -1    0    0  501    0  0.00000000000E+00  0.00000000000E+00 -0.10492522486E+04  0.10492522486E+04  0.25500000920E-02 0.  1.
    10030    2    1    2    0    0  0.00000000000E+00  0.00000000000E+00  0.80236040100E+03  0.29008648982E+04  0.27876934811E+04 0.  0.
        4    1    3    3  502    0 -0.68355648585E+03  0.50506145922E+03 -0.74841817188E+03  0.11324610015E+04  0.12699999809E+01 0. -1.
       -4    1    3    3    0  502  0.68355648585E+03 -0.50506145922E+03  0.15507785729E+04  0.17684038967E+04  0.12699999809E+01 0.  1.
</event>
<event>
 5   0  0.5866136E-06  0.2829545E+04  0.7818609E-02  0.8294154E-01
       -2   -1    0    0    0  501  0.00000000000E+00  0.00000000000E+00  0.12519270895E+04  0.12519270895E+04  0.25500000920E-02 0. -1.
        2   -1    0    0  501    0  0.00000000000E+00  0.00000000000E+00 -0.15988006324E+04  0.15988006324E+04  0.25500000920E-02 0.  1.
    10030    2    1    2    0    0  0.00000000000E+00  0.00000000000E+00 -0.34687354296E+03  0.28507277219E+04  0.28295454210E+04 0.  0.
        5    1    3    3  502    0 -0.84013335264E+03 -0.11381782779E+04 -0.19047162365E+03  0.14274366438E+04  0.46999998093E+01 0.  1.
       -5    1    3    3    0  502  0.84013335264E+03  0.11381782779E+04 -0.15640191931E+03  0.14232910781E+04  0.46999998093E+01 0. -1.
</event>
<event>
 5   0  0.5584205E-06  0.2801155E+04  0.7818609E-02  0.8302910E-01
        2   -1    0    0  501    0  0.00000000000E+00  0.00000000000E+00  0.17117452695E+04  0.17117452695E+04  0.25500000920E-02 0.  1.
       -2   -1    0    0    0  501  0.00000000000E+00  0.00000000000E+00 -0.11459750642E+04  0.11459750642E+04  0.25500000920E-02 0. -1.
    10030    2    1    2    0    0  0.00000000000E+00  0.00000000000E+00  0.56577020527E+03  0.28577203337E+04  0.28011550439E+04 0.  0.
        1    1    3    3  502    0  0.71424050583E+03  0.30708016087E+03  0.14713907508E+04  0.16641599884E+04  0.50400001928E-02 0.  1.
       -1    1    3    3    0  502 -0.71424050583E+03 -0.30708016087E+03 -0.90562054551E+03  0.11935603453E+04  0.50400001928E-02 0. -1.
</event>
<event>
 5   0  0.1901375E-06  0.2795339E+04  0.7818609E-02  0.8304717E-01
       -3   -1    0    0    0  501  0.00000000000E+00  0.00000000000E+00  0.10985615728E+04  0.10985615774E+04  0.10100000352E+00 0. -1.
        3   -1    0    0  501    0  0.00000000000E+00  0.00000000000E+00 -0.17782156196E+04  0.17782156225E+04  0.10100000352E+00 0.  1.
    10030    2    1    2    0    0  0.00000000000E+00  0.00000000000E+00 -0.67965404684E+03  0.28767771999E+04  0.27953385188E+04 0.  0.
        4    1    3    3  502    0 -0.97034034883E+03  0.61718710694E+03  0.47766893385E+03  0.12452507943E+04  0.12699999809E+01 0. -1.
       -4    1    3    3    0  502  0.97034034883E+03 -0.61718710694E+03 -0.11573229807E+04  0.16315264056E+04  0.12699999809E+01 0.  1.
</event>
<event>
 5   0  0.5866136E-06  0.2798082E+04  0.7818609E-02  0.8303864E-01
       -2   -1    0    0    0  501  0.00000000000E+00  0.00000000000E+00  0.95903505257E+03  0.95903505257E+03  0.25500000920E-02 0. -1.
        2   -1    0    0  501    0  0.00000000000E+00  0.00000000000E+00 -0.20409215932E+04  0.20409215932E+04  0.25500000920E-02 0.  1.
    10030    2    1    2    0    0  0.00000000000E+00  0.00000000000E+00 -0.10818865406E+04  0.29999566457E+04  0.27980817339E+04 0.  0.
        5    1    3    3  502    0 -0.14283967922E+02  0.12269993945E+04 -0.12614086844E+04  0.17598026892E+04  0.46999998093E+01 0.  1.
       -5    1    3    3    0  502  0.14283967922E+02 -0.12269993945E+04  0.17952214378E+03  0.12401539565E+04  0.46999998093E+01 0. -1.
</event>
<event>
 5   0  0.2190865E-06  0.2798130E+04  0.7818609E-02  0.8303849E-01
        1   -1    0    0  501    0  0.00000000000E+00  0.00000000000E+00  0.77174009000E+03  0.77174009001E+03  0.50400001928E-02 0. -1.
       -1   -1    0    0    0  501  0.00000000000E+00  0.00000000000E+00 -0.25363239834E+04  0.25363239834E+04  0.50400001928E-02 0.  1.
    10030    2    1    2    0    0  0.00000000000E+00  0.00000000000E+00 -0.17645838934E+04  0.33080640735E+04  0.27981300179E+04 0.  0.
        2    1    3    3  502    0  0.10547965744E+04  0.79858881999E+03 -0.14202349705E+04  0.19409810118E+04  0.25500000920E-02 0.  1.
       -2    1    3    3    0  502 -0.10547965744E+04 -0.79858881999E+03 -0.34434892296E+03  0.13670830617E+04  0.25500000920E-02 0. -1.
</event>
<event>
 5   0  0.5866136E-06  0.2805211E+04  0.7818609E-02  0.8301652E-01
        2   -1    0    0  501    0  0.00000000000E+00  0.00000000000E+00  0.20790899238E+04  0.20790899238E+04  0.25500000920E-02 0.  1.
       -2   -1    0    0    0  501  0.00000000000E+00  0.00000000000E+00 -0.94623267033E+03  0.94623267034E+03  0.25500000920E-02 0. -1.
    10030    2    1    2    0    0  0.00000000000E+00  0.00000000000E+00  0.11328572535E+04  0.30253225942E+04  0.28052114434E+04 0.  0.
        5    1    3    3  502    0 -0.75564372987E+02  0.91507615359E+03  0.17099100450E+04  0.19408474421E+04  0.46999998093E+01 0.  1.
       -5    1    3    3    0  502  0.75564372987E+02 -0.91507615359E+03 -0.57705279151E+03  0.10844751521E+04  0.46999998093E+01 0. -1.
</event>
<event>
 5   0  0.2234068E-06  0.2786832E+04  0.7818609E-02  0.8307368E-01
       -1   -1    0    0    0  501  0.00000000000E+00  0.00000000000E+00  0.62683500679E+03  0.62683500681E+03  0.50400001928E-02 0. -1.
        1   -1    0    0  501    0  0.00000000000E+00  0.00000000000E+00 -0.30974790920E+04  0.30974790920E+04  0.50400001928E-02 0.  1.
    10030    2    1    2    0    0  0.00000000000E+00  0.00000000000E+00 -0.24706440852E+04  0.37243140988E+04  0.27868321282E+04 0.  0.
        3    1    3    3  502    0  0.28485968466E+03 -0.94566519473E+03  0.78282533650E+02  0.99073501288E+03  0.10100000352E+00 0. -1.
       -3    1    3    3    0  502 -0.28485968466E+03  0.94566519473E+03 -0.25489266189E+04  0.27335790859E+04  0.10100000352E+00 0.  1.
</event>
<event>
 5   0  0.2267565E-06  0.2794578E+04  0.7818609E-02  0.8304953E-01
        1   -1    0    0  501    0  0.00000000000E+00  0.00000000000E+00  0.17387015286E+04  0.17387015286E+04  0.50400001928E-02 0.  1.
       -1   -1    0    0    0  501  0.00000000000E+00  0.00000000000E+00 -0.11229168382E+04  0.11229168382E+04  0.50400001928E-02 0. -1.
    10030    2    1    2    0    0  0.00000000000E+00  0.00000000000E+00  0.61578469036E+03  0.28616183668E+04  0.27945784821E+04 0.  0.
        4    1    3    3  502    0  0.32896624039E+03  0.49748358267E+03  0.16018140738E+04  0.17092450504E+04  0.12699999809E+01 0.  1.
       -4    1    3    3    0  502 -0.32896624039E+03 -0.49748358267E+03 -0.98602938349E+03  0.11523733164E+04  0.12699999809E+01 0. -1.
</event>
<event>
 5   0  0.2234068E-06  0.2793171E+04  0.7818609E-02  0.8305392E-01
        1   -1    0    0  501    0  0.00000000000E+00  0.00000000000E+00  0.11358736960E+04  0.11358736960E+04  0.50400001928E-02 0. -1.
       -1   -1    0    0    0  501  0.00000000000E+00  0.00000000000E+00 -0.17171368217E+04  0.17171368218E+04  0.50400001928E-02 0.  1.
    10030    2    1    2    0    0  0.00000000000E+00  0.00000000000E+00 -0.58126312572E+03  0.28530105178E+04  0.27931706345E+04 0.  0.
        3    1    3    3  502    0  0.42499590310E+03 -0.11169018242E+04  0.44759655983E+03  0.12761010513E+04  0.10100000352E+00 0. -1.
       -3    1    3    3    0  502 -0.42499590310E+03  0.11169018242E+04 -0.10288596855E+04  0.15769094665E+04  0.10100000352E+00 0.  1.
</event>
<event>
 5   0  0.2234068E-06  0.2806956E+04  0.7818609E-02  0.8301112E-01
        1   -1    0    0  501    0  0.00000000000E+00  0.00000000000E+00  0.61044839756E+03  0.61044839758E+03  0.50400001928E-02 0.  1.
       -1   -1    0    0    0  501  0.00000000000E+00  0.00000000000E+00 -0.32267272135E+04  0.32267272135E+04  0.50400001928E-02 0. -1.
    10030    2    1    2    0    0  0.00000000000E+00  0.00000000000E+00 -0.26162788160E+04  0.38371756111E+04  0.28069559718E+04 0.  0.
        3    1    3    3  502    0 -0.27255556860E+03  0.37222783375E+03  0.50383005933E+03  0.68314335032E+03  0.10100000352E+00 0.  1.
       -3    1    3    3    0  502  0.27255556860E+03 -0.37222783375E+03 -0.31201088753E+04  0.31540322608E+04  0.10100000352E+00 0. -1.
</event>
<event>
 5   0  0.5916603E-06  0.2808941E+04  0.7818609E-02  0.8300498E-01
       -2   -1    0    0    0  501  0.00000000000E+00  0.00000000000E+00  0.12917416722E+04  0.12917416722E+04  0.25500000920E-02 0. -1.
        2   -1    0    0  501    0  0.00000000000E+00  0.00000000000E+00 -0.15270375574E+04  0.15270375574E+04  0.25500000920E-02 0.  1.
    10030    2    1    2    0    0  0.00000000000E+00  0.00000000000E+00 -0.23529588519E+03  0.28187792297E+04  0.28089414718E+04 0.  0.
        2    1    3    3  502    0  0.10113545149E+04  0.44571459976E+03  0.75201206405E+03  0.13367952737E+04  0.25500000920E-02 0. -1.
       -2    1    3    3    0  502 -0.10113545149E+04 -0.44571459976E+03 -0.98730794924E+03  0.14819839560E+04  0.25500000920E-02 0.  1.
</event>
<event>
 5   0  0.2206967E-06  0.2795096E+04  0.7818609E-02  0.8304792E-01
        1   -1    0    0  501    0  0.00000000000E+00  0.00000000000E+00  0.20674483537E+04  0.20674483537E+04  0.50400001928E-02 0.  1.
       -1   -1    0    0    0  501  0.00000000000E+00  0.00000000000E+00 -0.94471084090E+03  0.94471084091E+03  0.50400001928E-02 0. -1.
    10030    2    1    2    0    0  0.00000000000E+00  0.00000000000E+00  0.11227375128E+04  0.30121591946E+04  0.27950963294E+04 0.  0.
        5    1    3    3  502    0 -0.68291778770E+03  0.10038279470E+04  0.13072699853E+04  0.17841031799E+04  0.46999998093E+01 0.  1.
       -5    1    3    3    0  502  0.68291778770E+03 -0.10038279470E+04 -0.18453247257E+03  0.12280560147E+04  0.46999998093E+01 0. -1.
</event>
<event>
 5   0  0.2190865E-06  0.2761691E+04  0.7818609E-02  0.8315261E-01
        1   -1    0    0  501    0  0.00000000000E+00  0.00000000000E+00  0.21521883575E+04  0.21521883575E+04  0.50400001928E-02 0.  1.
       -1   -1    0    0    0  501  0.00000000000E+00  0.00000000000E+00 -0.88595148180E+03  0.88595148181E+03  0.50400001928E-02 0. -1.
    10030    2    1    2    0    0  0.00000000000E+00  0.00000000000E+00  0.12662368757E+04  0.30381398393E+04  0.27616911228E+04 0.  0.
        2    1    3    3  502    0  0.11759864589E+04  0.35688593604E+03 -0.59528528023E+02  0.12303882999E+04  0.25500000920E-02 0. -1.
       -2    1    3    3    0  502 -0.11759864589E+04 -0.35688593604E+03  0.13257654037E+04  0.18077515395E+04  0.25500000920E-02 0.  1.
</event>
<event>
 5   0  0.2234068E-06  0.2806231E+04  0.7818609E-02  0.8301337E-01
       -1   -1    0    0    0  501  0.00000000000E+00  0.00000000000E+00  0.15025361830E+04  0.15025361830E+04  0.50400001928E-02 0.  1.
        1   -1    0    0  501    0  0.00000000000E+00  0.00000000000E+00 -0.13102732483E+04  0.13102732483E+04  0.50400001928E-02 0. -1.
    10030    2    1    2    0    0  0.00000000000E+00  0.00000000000E+00  0.19226293469E+03  0.28128094314E+04  0.28062308995E+04 0.  0.
        3    1    3    3  502    0  0.60991724029E+01  0.34647991553E+03  0.14589685813E+04  0.14995582227E+04  0.10100000352E+00 0.  1.
       -3    1    3    3    0  502 -0.60991724029E+01 -0.34647991553E+03 -0.12667056466E+04  0.13132512087E+04  0.10100000352E+00 0. -1.
</event>
<event>
 5   0  0.5584205E-06  0.2774591E+04  0.7818609E-02  0.8311200E-01
       -2   -1    0    0    0  501  0.00000000000E+00  0.00000000000E+00  0.98006219999E+03  0.98006220000E+03  0.25500000920E-02 0. -1.
        2   -1    0    0  501    0  0.00000000000E+00  0.00000000000E+00 -0.19637415879E+04  0.19637415879E+04  0.25500000920E-02 0.  1.
    10030    2    1    2    0    0  0.00000000000E+00  0.00000000000E+00 -0.98367938791E+03  0.29438037879E+04  0.27745910696E+04 0.  0.
        1    1    3    3  502    0  0.50999720393E+03 -0.10220686168E+04  0.34349266887E+03  0.11927734987E+04  0.50400001928E-02 0. -1.
       -1    1    3    3    0  502 -0.50999720393E+03  0.10220686168E+04 -0.13271720568E+04  0.17510302892E+04  0.50400001928E-02 0.  1.
</event>
<event>
 5   0  0.5916603E-06  0.2802064E+04  0.7818609E-02  0.8302628E-01
       -2   -1    0    0    0  501  0.00000000000E+00  0.00000000000E+00  0.14069971113E+04  0.14069971113E+04  0.25500000920E-02 0. -1.
        2   -1    0    0  501    0  0.00000000000E+00  0.00000000000E+00 -0.13950923123E+04  0.13950923123E+04  0.25500000920E-02 0.  1.
    10030    2    1    2    0    0  0.00000000000E+00  0.00000000000E+00  0.11904798952E+02  0.28020894236E+04  0.28020641344E+04 0.  0.
        2    1    3    3  502    0  0.62873543500E+03 -0.24870031501E+03 -0.12211408890E+04  0.13958313525E+04  0.25500000920E-02 0.  1.
       -2    1    3    3    0  502 -0.62873543500E+03  0.24870031501E+03  0.12330456879E+04  0.14062580711E+04  0.25500000920E-02 0. -1.
</event>
<event>
 5   0  0.2234068E-06  0.2771567E+04  0.7818609E-02  0.8312150E-01
        1   -1    0    0  501    0  0.00000000000E+00  0.00000000000E+00  0.16809737907E+04  0.16809737908E+04  0.50400001928E-02 0. -1.
       -1   -1    0    0    0  501  0.00000000000E+00  0.00000000000E+00 -0.11424304839E+04  0.11424304839E+04  0.50400001928E-02 0.  1.
    10030    2    1    2    0    0  0.00000000000E+00  0.00000000000E+00  0.53854330684E+03  0.28234042747E+04  0.27715668502E+04 0.  0.
        3    1    3    3  502    0  0.10629211236E+04  0.69566599314E+03 -0.29483910220E+03  0.13041022182E+04  0.10100000352E+00 0. -1.
       -3    1    3    3    0  502 -0.10629211236E+04 -0.69566599314E+03  0.83338240904E+03  0.15193020565E+04  0.10100000352E+00 0.  1.
</event>
<event>
 5   0  0.5584205E-06  0.2806164E+04  0.7818609E-02  0.8301357E-01
       -2   -1    0    0    0  501  0.00000000000E+00  0.00000000000E+00  0.18683532083E+04  0.18683532083E+04  0.25500000920E-02 0. -1.
        2   -1    0    0  501    0  0.00000000000E+00  0.00000000000E+00 -0.10536763581E+04  0.10536763581E+04  0.25500000920E-02 0.  1.
    10030    2    1    2    0    0  0.00000000000E+00  0.00000000000E+00  0.81467685025E+03  0.29220295664E+04  0.28061643603E+04 0.  0.
        1    1    3    3  502    0  0.13241866089E+04 -0.46283429497E+03  0.37517885302E+03  0.14520485294E+04  0.50400001928E-02 0. -1.
       -1    1    3    3    0  502 -0.13241866089E+04  0.46283429497E+03  0.43949799723E+03  0.14699810371E+04  0.50400001928E-02 0.  1.
</event>
<event>
 5   0  0.2277133E-06  0.2798536E+04  0.7818609E-02  0.8303723E-01
        1   -1    0    0  501    0  0.00000000000E+00  0.00000000000E+00  0.11342237421E+04  0.11342237421E+04  0.50400001928E-02 0. -1.
       -1   -1    0    0    0  501  0.00000000000E+00  0.00000000000E+00 -0.17262471623E+04  0.17262471623E+04  0.50400001928E-02 0.  1.
    10030    2    1    2    0    0  0.00000000000E+00  0.00000000000E+00 -0.59202342020E+03  0.28604709045E+04  0.27985357002E+04 0.  0.
        1    1    3    3  502    0 -0.82946234703E+02 -0.88413234964E+03 -0.14013229677E+04  0.16589985381E+04  0.50400001928E-02 0.  1.
       -1    1    3    3    0  502  0.82946234703E+02  0.88413234964E+03  0.80929954752E+03  0.12014723664E+04  0.50400001928E-02 0. -1.
</event>
<event>
 5   0  0.2234068E-06  0.2809467E+04  0.7818609E-02  0.8300335E-01
        1   -1    0    0  501    0  0.00000000000E+00  0.00000000000E+00  0.23959806911E+04  0.23959806911E+04  0.50400001928E-02 0.  1.
       -1   -1    0    0    0  501  0.00000000000E+00  0.00000000000E+00 -0.82357792614E+03  0.82357792616E+03  0.50400001928E-02 0. -1.
    10030    2    1    2    0    0  0.00000000000E+00  0.00000000000E+00  0.15724027650E+04  0.32195586173E+04  0.28094674290E+04 0.  0.
        3    1    3    3  502    0  0.86158610676E+03 -0.29741369038E+03  0.20110961550E+04  0.22080066299E+04  0.10100000352E+00 0.  1.
       -3    1    3    3    0  502 -0.86158610676E+03  0.29741369038E+03 -0.43869339004E+03  0.10115519874E+04  0.10100000352E+00 0. -1.
</event>
<event>
 5   0  0.5546570E-06  0.2712830E+04  0.7818609E-02  0.8330854E-01
       -2   -1    0    0    0  501  0.00000000000E+00  0.00000000000E+00  0.12198519253E+04  0.12198519253E+04  0.25500000920E-02 0.  1.
        2   -1    0    0  501    0  0.00000000000E+00  0.00000000000E+00 -0.15082663530E+04  0.15082663530E+04  0.25500000920E-02 0. -1.
    10030    2    1    2    0    0  0.00000000000E+00  0.00000000000E+00 -0.28841442775E+03  0.27281182783E+04  0.27128299722E+04 0.  0.
        4    1    3    3  502    0  0.48056617637E+03  0.88561345766E+03 -0.10574023517E+04  0.14606013804E+04  0.12699999809E+01 0. -1.
       -4    1    3    3    0  502 -0.48056617637E+03 -0.88561345766E+03  0.76898792394E+03  0.12675168978E+04  0.12699999809E+01 0.  1.
</event>
<event>
 5   0  0.1901375E-06  0.2809537E+04  0.7818609E-02  0.8300314E-01
        4   -1    0    0  501    0  0.00000000000E+00  0.00000000000E+00  0.10405069736E+04  0.10405077487E+04  0.12699999809E+01 0.  1.
       -4   -1    0    0    0  501  0.00000000000E+00  0.00000000000E+00 -0.18965490444E+04  0.18965494696E+04  0.12699999809E+01 0. -1.
    10030    2    1    2    0    0  0.00000000000E+00  0.00000000000E+00 -0.85604207078E+03  0.29370572182E+04  0.28095368081E+04 0.  0.
        2    1    3    3  502    0 -0.53870758655E+03 -0.52742829953E+03  0.81110064794E+03  0.11073710923E+04  0.25500000920E-02 0.  1.
       -2    1    3    3    0  502  0.53870758655E+03  0.52742829953E+03 -0.16671427187E+04  0.18296861260E+04  0.25500000920E-02 0. -1.
</event>
<event>
 5   0  0.5584205E-06  0.2799853E+04  0.7818609E-02  0.8303314E-01
        2   -1    0    0  501    0  0.00000000000E+00  0.00000000000E+00  0.18803719207E+04  0.18803719207E+04  0.25500000920E-02 0.  1.
       -2   -1    0    0    0  501  0.00000000000E+00  0.00000000000E+00 -0.10422372747E+04  0.10422372747E+04  0.25500000920E-02 0. -1.
    10030    2    1    2    0    0  0.00000000000E+00  0.00000000000E+00  0.83813464601E+03  0.29226091954E+04  0.27998526433E+04 0.  0.
        1    1    3    3  502    0  0.17727975426E+03  0.86547997851E+03  0.15526405036E+04  0.17863863630E+04  0.50400001928E-02 0.  1.
       -1    1    3    3    0  502 -0.17727975426E+03 -0.86547997851E+03 -0.71450585756E+03  0.11362228324E+04  0.50400001928E-02 0. -1.
</event>
<event>
 5   0  0.5866136E-06  0.2724504E+04  0.7818609E-02  0.8327098E-01
       -2   -1    0    0    0  501  0.00000000000E+00  0.00000000000E+00  0.13505812119E+04  0.13505812119E+04  0.25500000920E-02 0. -1.
        2   -1    0    0  501    0  0.00000000000E+00  0.00000000000E+00 -0.13740231941E+04  0.13740231941E+04  0.25500000920E-02 0.  1.
    10030    2    1    2    0    0  0.00000000000E+00  0.00000000000E+00 -0.23441982240E+02  0.27246044060E+04  0.27245035590E+04 0.  0.
        5    1    3    3  502    0  0.42720579337E+02 -0.12837107579E+04  0.44213439455E+03  0.13583973169E+04  0.46999998093E+01 0. -1.
       -5    1    3    3    0  502 -0.42720579337E+02  0.12837107579E+04 -0.46557637679E+03  0.13662070891E+04  0.46999998093E+01 0.  1.
</event>
<event>
 5   0  0.5546570E-06  0.2799755E+04  0.7818609E-02  0.8303344E-01
       -2   -1    0    0    0  501  0.00000000000E+00  0.00000000000E+00  0.11384348709E+04  0.11384348709E+04  0.25500000920E-02 0. -1.
        2   -1    0    0  501    0  0.00000000000E+00  0.00000000000E+00 -0.17213611698E+04  0.17213611698E+04  0.25500000920E-02 0.  1.
    10030    2    1    2    0    0  0.00000000000E+00  0.00000000000E+00 -0.58292629897E+03  0.28597960407E+04  0.27997554044E+04 0.  0.
        4    1    3    3  502    0  0.46552129726E+03  0.10313492197E+04 -0.11333127002E+04  0.16014963567E+04  0.12699999809E+01 0.  1.
       -4    1    3    3    0  502 -0.46552129726E+03 -0.10313492197E+04  0.55038640123E+03  0.12582996840E+04  0.12699999809E+01 0. -1.
</event>
<event>
 5   0  0.2234068E-06  0.2739740E+04  0.7818609E-02  0.8322225E-01
        1   -1    0    0  501    0  0.00000000000E+00  0.00000000000E+00  0.18556907051E+04  0.18556907052E+04  0.50400001928E-02 0. -1.
       -1   -1    0    0    0  501  0.00000000000E+00  0.00000000000E+00 -0.10112372167E+04  0.10112372167E+04  0.50400001928E-02 0.  1.
    10030    2    1    2    0    0  0.00000000000E+00  0.00000000000E+00  0.84445348847E+03  0.28669279218E+04  0.27397397714E+04 0.  0.
        3    1    3    3  502    0  0.19818683374E+03 -0.24461930476E+03 -0.97286680501E+03  0.10225392197E+04  0.10100000352E+00 0.  1.
       -3    1    3    3    0  502 -0.19818683374E+03  0.24461930476E+03  0.18173202935E+04  0.18443887021E+04  0.10100000352E+00 0. -1.
</event>
<event>
 5   0  0.2234068E-06  0.2800133E+04  0.7818609E-02  0.8303227E-01
       -1   -1    0    0    0  501  0.00000000000E+00  0.00000000000E+00  0.11204912926E+04  0.11204912926E+04  0.50400001928E-02 0. -1.
        1   -1    0    0  501    0  0.00000000000E+00  0.00000000000E+00 -0.17493983138E+04  0.17493983138E+04  0.50400001928E-02 0.  1.
    10030    2    1    2    0    0  0.00000000000E+00  0.00000000000E+00 -0.62890702125E+03  0.28698896064E+04  0.28001325525E+04 0.  0.
        3    1    3    3  502    0 -0.11986217591E+02  0.22010627418E+03 -0.17315015003E+04  0.17454764098E+04  0.10100000352E+00 0.  1.
       -3    1    3    3    0  502  0.11986217591E+02 -0.22010627418E+03  0.11025944790E+04  0.11244131966E+04  0.10100000352E+00 0. -1.
</event>
<event>
 5   0  0.5625245E-06  0.2798590E+04  0.7818609E-02  0.8303706E-01
       -2   -1    0    0    0  501  0.00000000000E+00  0.00000000000E+00  0.16087228742E+04  0.16087228742E+04  0.25500000920E-02 0. -1.
        2   -1    0    0  501    0  0.00000000000E+00  0.00000000000E+00 -0.12171306312E+04  0.12171306312E+04  0.25500000920E-02 0.  1.
    10030    2    1    2    0    0  0.00000000000E+00  0.00000000000E+00  0.39159224297E+03  0.28258535054E+04  0.27985895643E+04 0.  0.
        3    1    3    3  502    0  0.44212870529E+03  0.47382137394E+03  0.14480559387E+04  0.15864584767E+04  0.10100000352E+00 0. -1.
       -3    1    3    3    0  502 -0.44212870529E+03 -0.47382137394E+03 -0.10564636958E+04  0.12393950287E+04  0.10100000352E+00 0.  1.
</event>
<event>
 5   0  0.5546570E-06  0.2787092E+04  0.7818609E-02  0.8307287E-01
       -2   -1    0    0    0  501  0.00000000000E+00  0.00000000000E+00  0.99509346105E+03  0.99509346105E+03  0.25500000920E-02 0. -1.
        2   -1    0    0  501    0  0.00000000000E+00  0.00000000000E+00 -0.19515454668E+04  0.19515454668E+04  0.25500000920E-02 0.  1.
    10030    2    1    2    0    0  0.00000000000E+00  0.00000000000E+00 -0.95645200579E+03  0.29466389279E+04  0.27870917696E+04 0.  0.
        4    1    3    3  502    0  0.92021413792E+03 -0.83558776950E+03  0.18789503667E+03  0.12571026759E+04  0.12699999809E+01 0.  1.
       -4    1    3    3    0  502 -0.92021413792E+03  0.83558776950E+03 -0.11443470425E+04  0.16895362519E+04  0.12699999809E+01 0. -1.
</event>
<event>
 5   0  0.2190865E-06  0.2769710E+04  0.7818609E-02  0.8312734E-01
       -1   -1    0    0    0  501  0.00000000000E+00  0.00000000000E+00  0.12896616216E+04  0.12896616216E+04  0.50400001928E-02 0. -1.
        1   -1    0    0  501    0  0.00000000000E+00  0.00000000000E+00 -0.14870746783E+04  0.14870746783E+04  0.50400001928E-02 0.  1.
    10030    2    1    2    0    0  0.00000000000E+00  0.00000000000E+00 -0.19741305668E+03  0.27767362999E+04  0.27697098340E+04 0.  0.
        2    1    3    3  502    0  0.68535250994E+03 -0.63048472890E+03 -0.11262966183E+04  0.14614250336E+04  0.25500000920E-02 0.  1.
       -2    1    3    3    0  502 -0.68535250994E+03  0.63048472890E+03  0.92888356166E+03  0.13153112663E+04  0.25500000920E-02 0. -1.
</event>
<event>
 5   0  0.2277133E-06  0.2803998E+04  0.7818609E-02  0.8302028E-01
       -1   -1    0    0    0  501  0.00000000000E+00  0.00000000000E+00  0.11019339508E+04  0.11019339509E+04  0.50400001928E-02 0.  1.
        1   -1    0    0  501    0  0.00000000000E+00  0.00000000000E+00 -0.17837742643E+04  0.17837742643E+04  0.50400001928E-02 0. -1.
    10030    2    1    2    0    0  0.00000000000E+00  0.00000000000E+00 -0.68184031349E+03  0.28857082152E+04  0.28039981616E+04 0.  0.
        1    1    3    3  502    0 -0.52053439789E+03 -0.11567128133E+04  0.27369377389E+03  0.12976320256E+04  0.50400001928E-02 0.  1.
       -1    1    3    3    0  502  0.52053439789E+03  0.11567128133E+04 -0.95553408738E+03  0.15880761896E+04  0.50400001928E-02 0. -1.
</event>
<event>
 5   0  0.2190865E-06  0.2860730E+04  0.7818609E-02  0.8284658E-01
       -1   -1    0    0    0  501  0.00000000000E+00  0.00000000000E+00  0.97731116628E+03  0.97731116629E+03  0.50400001928E-02 0. -1.
        1   -1    0    0  501    0  0.00000000000E+00  0.00000000000E+00 -0.20934424646E+04  0.20934424646E+04  0.50400001928E-02 0.  1.
    10030    2    1    2    0    0  0.00000000000E+00  0.00000000000E+00 -0.11161312983E+04  0.30707536309E+04  0.28607304638E+04 0.  0.
        2    1    3    3  502    0  0.35044525224E+03  0.56815587771E+03  0.79985077134E+03  0.10418129547E+04  0.25500000920E-02 0. -1.
       -2    1    3    3    0  502 -0.35044525224E+03 -0.56815587771E+03 -0.19159820697E+04  0.20289406762E+04  0.25500000920E-02 0.  1.
</event>
<event>
 5   0  0.5546570E-06  0.2808394E+04  0.7818609E-02  0.8300667E-01
       -2   -1    0    0    0  501  0.00000000000E+00  0.00000000000E+00  0.68771553612E+03  0.68771553612E+03  0.25500000920E-02 0.  1.
        2   -1    0    0  501    0  0.00000000000E+00  0.00000000000E+00 -0.28671288704E+04  0.28671288704E+04  0.25500000920E-02 0. -1.
    10030    2    1    2    0    0  0.00000000000E+00  0.00000000000E+00 -0.21794133343E+04  0.35548444066E+04  0.28083938956E+04 0.  0.
        4    1    3    3  502    0 -0.13078485523E+04 -0.23865306378E+01 -0.17367408602E+04  0.21741076237E+04  0.12699999809E+01 0. -1.
       -4    1    3    3    0  502  0.13078485523E+04  0.23865306378E+01 -0.44267247415E+03  0.13807367828E+04  0.12699999809E+01 0.  1.
</event>
<event>
 5   0  0.5546570E-06  0.2451408E+04  0.7818609E-02  0.8420504E-01
        2   -1    0    0  501    0  0.00000000000E+00  0.00000000000E+00  0.11509963405E+04  0.11509963405E+04  0.25500000920E-02 0. -1.
       -2   -1    0    0    0  501  0.00000000000E+00  0.00000000000E+00 -0.13052611171E+04  0.13052611171E+04  0.25500000920E-02 0.  1.
    10030    2    1    2    0    0  0.00000000000E+00  0.00000000000E+00 -0.15426477657E+03  0.24562574576E+04  0.24514083863E+04 0.  0.
        4    1    3    3  502    0  0.70969719383E+03  0.34209052610E+03 -0.10179535850E+04  0.12872168229E+04  0.12699999809E+01 0.  1.
       -4    1    3    3    0  502 -0.70969719383E+03 -0.34209052610E+03  0.86368880841E+03  0.11690406347E+04  0.12699999809E+01 0. -1.
</event>
<event>
 5   0  0.5866136E-06  0.2761899E+04  0.7818609E-02  0.8315196E-01
       -2   -1    0    0    0  501  0.00000000000E+00  0.00000000000E+00  0.11862488900E+04  0.11862488900E+04  0.25500000920E-02 0. -1.
        2   -1    0    0  501    0  0.00000000000E+00  0.00000000000E+00 -0.16076065450E+04  0.16076065450E+04  0.25500000920E-02 0.  1.
    10030    2    1    2    0    0  0.00000000000E+00  0.00000000000E+00 -0.42135765501E+03  0.27938554350E+04  0.27618989696E+04 0.  0.
        5    1    3    3  502    0 -0.80710604409E+03 -0.99890924011E+03  0.30289576155E+03  0.13194725343E+04  0.46999998093E+01 0. -1.
       -5    1    3    3    0  502  0.80710604409E+03  0.99890924011E+03 -0.72425341657E+03  0.14743829007E+04  0.46999998093E+01 0.  1.
</event>
<event>
 5   0  0.2234068E-06  0.2744560E+04  0.7818609E-02  0.8320690E-01
        1   -1    0    0  501    0  0.00000000000E+00  0.00000000000E+00  0.80049438558E+03  0.80049438560E+03  0.50400001928E-02 0.  1.
       -1   -1    0    0    0  501  0.00000000000E+00  0.00000000000E+00 -0.23524869181E+04  0.23524869181E+04  0.50400001928E-02 0. -1.
    10030    2    1    2    0    0  0.00000000000E+00  0.00000000000E+00 -0.15519925325E+04  0.31529813037E+04  0.27445601251E+04 0.  0.
        3    1    3    3  502    0 -0.76559693599E+03  0.42140498717E+03  0.43948271231E+03  0.97819522398E+03  0.10100000352E+00 0.  1.
       -3    1    3    3    0  502  0.76559693599E+03 -0.42140498717E+03 -0.19914752448E+04  0.21747860797E+04  0.10100000352E+00 0. -1.
</event>
<event>
 5   0  0.2190865E-06  0.2770167E+04  0.7818609E-02  0.8312591E-01
        1   -1    0    0  501    0  0.00000000000E+00  0.00000000000E+00  0.19690113021E+04  0.19690113021E+04  0.50400001928E-02 0. -1.
       -1   -1    0    0    0  501  0.00000000000E+00  0.00000000000E+00 -0.97432449307E+03  0.97432449308E+03  0.50400001928E-02 0.  1.
    10030    2    1    2    0    0  0.00000000000E+00  0.00000000000E+00  0.99468680902E+03  0.29433357952E+04  0.27701667378E+04 0.  0.
        2    1    3    3  502    0  0.94493065506E+03  0.95957966935E+03  0.84125751802E+03  0.15878920922E+04  0.25500000920E-02 0. -1.
       -2    1    3    3    0  502 -0.94493065506E+03 -0.95957966935E+03  0.15342929100E+03  0.13554437030E+04  0.25500000920E-02 0.  1.
</event>
<event>
 5   0  0.5584205E-06  0.2791128E+04  0.7818609E-02  0.8306028E-01
        2   -1    0    0  501    0  0.00000000000E+00  0.00000000000E+00  0.22025194438E+04  0.22025194438E+04  0.25500000920E-02 0.  1.
       -2   -1    0    0    0  501  0.00000000000E+00  0.00000000000E+00 -0.88425968101E+03  0.88425968101E+03  0.25500000920E-02 0. -1.
    10030    2    1    2    0    0  0.00000000000E+00  0.00000000000E+00  0.13182597628E+04  0.30867791248E+04  0.27911281882E+04 0.  0.
        1    1    3    3  502    0 -0.59040065092E+03  0.33248050143E+03  0.20083962666E+04  0.21196159501E+04  0.50400001928E-02 0.  1.
       -1    1    3    3    0  502  0.59040065092E+03 -0.33248050143E+03 -0.69013650383E+03  0.96716317464E+03  0.50400001928E-02 0. -1.
</event>
<event>
 5   0  0.2267565E-06  0.2799416E+04  0.7818609E-02  0.8303450E-01
       -1   -1    0    0    0  501  0.00000000000E+00  0.00000000000E+00  0.12957527731E+04  0.12957527731E+04  0.50400001928E-02 0.  1.
        1   -1    0    0  501    0  0.00000000000E+00  0.00000000000E+00 -0.15120035397E+04  0.15120035397E+04  0.50400001928E-02 0. -1.
    10030    2    1    2    0    0  0.00000000000E+00  0.00000000000E+00 -0.21625076664E+03  0.28077563128E+04  0.27994162102E+04 0.  0.
        4    1    3    3  502    0 -0.59930344604E+02  0.19341347914E+03  0.12809848255E+04  0.12968901866E+04  0.12699999809E+01 0.  1.
       -4    1    3    3    0  502  0.59930344604E+02 -0.19341347914E+03 -0.14972355921E+04  0.15108661262E+04  0.12699999809E+01 0. -1.
</event>
<event>
 5   0  0.5546570E-06  0.2797691E+04  0.7818609E-02  0.8303986E-01
        2   -1    0    0  501    0  0.00000000000E+00  0.00000000000E+00  0.18537111388E+04  0.18537111388E+04  0.25500000920E-02 0.  1.
       -2   -1    0    0    0  501  0.00000000000E+00  0.00000000000E+00 -0.10555953404E+04  0.10555953404E+04  0.25500000920E-02 0. -1.
    10030    2    1    2    0    0  0.00000000000E+00  0.00000000000E+00  0.79811579838E+03  0.29093064792E+04  0.27976910770E+04 0.  0.
        4    1    3    3  502    0  0.10176575685E+03  0.13483516581E+04  0.77162326568E+03  0.15568598332E+04  0.12699999809E+01 0. -1.
       -4    1    3    3    0  502 -0.10176575685E+03 -0.13483516581E+04  0.26492532704E+02  0.13524466460E+04  0.12699999809E+01 0.  1.
</event>
<event>
 5   0  0.5916603E-06  0.2793836E+04  0.7818609E-02  0.8305185E-01
       -2   -1    0    0    0  501  0.00000000000E+00  0.00000000000E+00  0.13450920604E+04  0.13450920604E+04  0.25500000920E-02 0. -1.
        2   -1    0    0  501    0  0.00000000000E+00  0.00000000000E+00 -0.14507405288E+04  0.14507405288E+04  0.25500000920E-02 0.  1.
    10030    2    1    2    0    0  0.00000000000E+00  0.00000000000E+00 -0.10564846843E+03  0.27958325892E+04  0.27938357625E+04 0.  0.
        2    1    3    3  502    0 -0.11455327601E+04 -0.73045213348E+03  0.27232943705E+03  0.13856294404E+04  0.25500000920E-02 0.  1.
       -2    1    3    3    0  502  0.11455327601E+04  0.73045213348E+03 -0.37797790548E+03  0.14102031488E+04  0.25500000920E-02 0. -1.
</event>
<event>
 5   0  0.2267565E-06  0.2728446E+04  0.7818609E-02  0.8325834E-01
       -1   -1    0    0    0  501  0.00000000000E+00  0.00000000000E+00  0.10866380777E+04  0.10866380777E+04  0.50400001928E-02 0.  1.
        1   -1    0    0  501    0  0.00000000000E+00  0.00000000000E+00 -0.17127178596E+04  0.17127178596E+04  0.50400001928E-02 0. -1.
    10030    2    1    2    0    0  0.00000000000E+00  0.00000000000E+00 -0.62607978192E+03  0.27993559372E+04  0.27284460358E+04 0.  0.
        4    1    3    3  502    0 -0.11041133603E+04 -0.29601637213E+03  0.45089897272E+03  0.12288219975E+04  0.12699999809E+01 0.  1.
       -4    1    3    3    0  502  0.11041133603E+04  0.29601637213E+03 -0.10769787546E+04  0.15705339397E+04  0.12699999809E+01 0. -1.
</event>
<event>
 5   0  0.5546570E-06  0.2783681E+04  0.7818609E-02  0.8308353E-01
       -2   -1    0    0    0  501  0.00000000000E+00  0.00000000000E+00  0.21939749910E+04  0.21939749910E+04  0.25500000920E-02 0.  1.
        2   -1    0    0  501    0  0.00000000000E+00  0.00000000000E+00 -0.88297261141E+03  0.88297261141E+03  0.25500000920E-02 0. -1.
    10030    2    1    2    0    0  0.00000000000E+00  0.00000000000E+00  0.13110023796E+04  0.30769476024E+04  0.27836808920E+04 0.  0.
        4    1    3    3  502    0  0.90152578650E+03  0.48081676202E+03  0.17002108318E+04  0.19835957219E+04  0.12699999809E+01 0.  1.
       -4    1    3    3    0  502 -0.90152578650E+03 -0.48081676202E+03 -0.38920845227E+03  0.10933518805E+04  0.12699999809E+01 0. -1.
</event>
<event>
 5   0  0.2234068E-06  0.2682899E+04  0.7818609E-02  0.8340575E-01
       -1   -1    0    0    0  501  0.00000000000E+00  0.00000000000E+00  0.90571192996E+03  0.90571192997E+03  0.50400001928E-02 0. -1.
        1   -1    0    0  501    0  0.00000000000E+00  0.00000000000E+00 -0.19868195371E+04  0.19868195371E+04  0.50400001928E-02 0.  1.
    10030    2    1    2    0    0  0.00000000000E+00  0.00000000000E+00 -0.10811076071E+04  0.28925314671E+04  0.26828985500E+04 0.  0.
        3    1    3    3  502    0 -0.40798970072E+03 -0.39200835897E+03  0.77077251306E+03  0.95614665532E+03  0.10100000352E+00 0. -1.
       -3    1    3    3    0  502  0.40798970072E+03  0.39200835897E+03 -0.18518801202E+04  0.19363848118E+04  0.10100000352E+00 0.  1.
</event>
<event>
 5   0  0.5866136E-06  0.2819349E+04  0.7818609E-02  0.8297286E-01
       -2   -1    0    0    0  501  0.00000000000E+00  0.00000000000E+00  0.15779797297E+04  0.15779797297E+04  0.25500000920E-02 0.  1.
        2   -1    0    0  501    0  0.00000000000E+00  0.00000000000E+00 -0.12593203591E+04  0.12593203591E+04  0.25500000920E-02 0. -1.
    10030    2    1    2    0    0  0.00000000000E+00  0.00000000000E+00  0.31865937056E+03  0.28373000888E+04  0.28193488609E+04 0.  0.
        5    1    3    3  502    0 -0.11242504857E+04  0.43286699089E+03 -0.57734682886E+03  0.13359133345E+04  0.46999998093E+01 0. -1.
       -5    1    3    3    0  502  0.11242504857E+04 -0.43286699089E+03  0.89600619942E+03  0.15013867543E+04  0.46999998093E+01 0.  1.
</event>
<event>
 5   0  0.5866136E-06  0.2842051E+04  0.7818609E-02  0.8290331E-01
        2   -1    0    0  501    0  0.00000000000E+00  0.00000000000E+00  0.16922689382E+04  0.16922689382E+04  0.25500000920E-02 0.  1.
       -2   -1    0    0    0  501  0.00000000000E+00  0.00000000000E+00 -0.11932581223E+04  0.11932581223E+04  0.25500000920E-02 0. -1.
    10030    2    1    2    0    0  0.00000000000E+00  0.00000000000E+00  0.49901081589E+03  0.28855270605E+04  0.28420511295E+04 0.  0.
        5    1    3    3  502    0 -0.28134069210E+03 -0.31467325903E+03 -0.11281299466E+04  0.12045211129E+04  0.46999998093E+01 0. -1.
       -5    1    3    3    0  502  0.28134069210E+03  0.31467325903E+03  0.16271407625E+04  0.16810059476E+04  0.46999998093E+01 0.  1.
</event>
<event>
 5   0  0.5584205E-06  0.2773030E+04  0.7818609E-02  0.8311691E-01
       -2   -1    0    0    0  501  0.00000000000E+00  0.00000000000E+00  0.78667369793E+03  0.78667369793E+03  0.25500000920E-02 0. -1.
        2   -1    0    0  501    0  0.00000000000E+00  0.00000000000E+00 -0.24437369144E+04  0.24437369144E+04  0.25500000920E-02 0.  1.
    10030    2    1    2    0    0  0.00000000000E+00  0.00000000000E+00 -0.16570632165E+04  0.32304106124E+04  0.27730297908E+04 0.  0.
        1    1    3    3  502    0  0.43598637501E+03  0.11667899717E+04 -0.15380364720E+04  0.19791511176E+04  0.50400001928E-02 0.  1.
       -1    1    3    3    0  502 -0.43598637501E+03 -0.11667899717E+04 -0.11902674447E+03  0.12512594947E+04  0.50400001928E-02 0. -1.
</event>
<event>
 5   0  0.2267565E-06  0.2792497E+04  0.7818609E-02  0.8305602E-01
        1   -1    0    0  501    0  0.00000000000E+00  0.00000000000E+00  0.14287750472E+04  0.14287750472E+04  0.50400001928E-02 0.  1.
       -1   -1    0    0    0  501  0.00000000000E+00  0.00000000000E+00 -0.13644622618E+04  0.13644622619E+04  0.50400001928E-02 0. -1.
    10030    2    1    2    0    0  0.00000000000E+00  0.00000000000E+00  0.64312785352E+02  0.27932373091E+04  0.27924968273E+04 0.  0.
        4    1    3    3  502    0  0.66185691564E+02  0.12641126961E+04 -0.55719129287E+03  0.13830492413E+04  0.12699999809E+01 0. -1.
       -4    1    3    3    0  502 -0.66185691564E+02 -0.12641126961E+04  0.62150407822E+03  0.14101880677E+04  0.12699999809E+01 0.  1.
</event>
<event>
 5   0  0.2234068E-06  0.2794667E+04  0.7818609E-02  0.8304926E-01
        1   -1    0    0  501    0  0.00000000000E+00  0.00000000000E+00  0.16640050953E+04  0.16640050953E+04  0.50400001928E-02 0.  1.
       -1   -1    0    0    0  501  0.00000000000E+00  0.00000000000E+00 -0.11733985327E+04  0.11733985327E+04  0.50400001928E-02 0. -1.
    10030    2    1    2    0    0  0.00000000000E+00  0.00000000000E+00  0.49060656264E+03  0.28374036280E+04  0.27946671624E+04 0.  0.
        3    1    3    3  502    0  0.28456065863E+03  0.96048816848E+03 -0.74377515185E+03  0.12476833641E+04  0.10100000352E+00 0. -1.
       -3    1    3    3    0  502 -0.28456065863E+03 -0.96048816848E+03  0.12343817145E+04  0.15897202639E+04  0.10100000352E+00 0.  1.
</event>
<event>
 5   0  0.2234068E-06  0.2761393E+04  0.7818609E-02  0.8315355E-01
       -1   -1    0    0    0  501  0.00000000000E+00  0.00000000000E+00  0.98814248603E+03  0.98814248604E+03  0.50400001928E-02 0.  1.
        1   -1    0    0  501    0  0.00000000000E+00  0.00000000000E+00 -0.19291984708E+04  0.19291984708E+04  0.50400001928E-02 0. -1.
    10030    2    1    2    0    0  0.00000000000E+00  0.00000000000E+00 -0.94105598481E+03  0.29173409569E+04  0.27613931071E+04 0.  0.
        3    1    3    3  502    0  0.12822199558E+03  0.13675397133E+04 -0.32217997636E+03  0.14108173854E+04  0.10100000352E+00 0.  1.
       -3    1    3    3    0  502 -0.12822199558E+03 -0.13675397133E+04 -0.61887600845E+03  0.15065235715E+04  0.10100000352E+00 0. -1.
</event>
<event>
 5   0  0.5546570E-06  0.2806279E+04  0.7818609E-02  0.8301322E-01
       -2   -1    0    0    0  501  0.00000000000E+00  0.00000000000E+00  0.85196685379E+03  0.85196685380E+03  0.25500000920E-02 0.  1.
        2   -1    0    0  501    0  0.00000000000E+00  0.00000000000E+00 -0.23108882634E+04  0.23108882634E+04  0.25500000920E-02 0. -1.
    10030    2    1    2    0    0  0.00000000000E+00  0.00000000000E+00 -0.14589214096E+04  0.31628551172E+04  0.28062788196E+04 0.  0.
        4    1    3    3  502    0 -0.11721638626E+04 -0.49499016916E+03 -0.13960645575E+04  0.18889100693E+04  0.12699999809E+01 0. -1.
       -4    1    3    3    0  502  0.11721638626E+04  0.49499016916E+03 -0.62856852143E+02  0.12739450479E+04  0.12699999809E+01 0.  1.
</event>
<event>
 5   0  0.2206967E-06  0.2777222E+04  0.7818609E-02  0.8310375E-01
       -1   -1    0    0    0  501  0.00000000000E+00  0.00000000000E+00  0.12497007795E+04  0.12497007795E+04  0.50400001928E-02 0. -1.
        1   -1    0    0  501    0  0.00000000000E+00  0.00000000000E+00 -0.15429620596E+04  0.15429620596E+04  0.50400001928E-02 0.  1.
    10030    2    1    2    0    0  0.00000000000E+00  0.00000000000E+00 -0.29326128008E+03  0.27926628390E+04  0.27772222731E+04 0.  0.
        5    1    3    3  502    0  0.12258746949E+04  0.10071022346E+02 -0.80244417124E+03  0.14651992803E+04  0.46999998093E+01 0.  1.
       -5    1    3    3    0  502 -0.12258746949E+04 -0.10071022346E+02  0.50918289116E+03  0.13274635587E+04  0.46999998093E+01 0. -1.
</event>
<event>
 5   0  0.2267565E-06  0.2751589E+04  0.7818609E-02  0.8318458E-01
        1   -1    0    0  501    0  0.00000000000E+00  0.00000000000E+00  0.10541551565E+04  0.10541551565E+04  0.50400001928E-02 0.  1.
       -1   -1    0    0    0  501  0.00000000000E+00  0.00000000000E+00 -0.17955713849E+04  0.17955713850E+04  0.50400001928E-02 0. -1.
    10030    2    1    2    0    0  0.00000000000E+00  0.00000000000E+00 -0.74141622842E+03  0.28497265415E+04  0.27515892385E+04 0.  0.
        4    1    3    3  502    0  0.81116005889E+03  0.77780158259E+03 -0.11926465360E+04  0.16387078189E+04  0.12699999809E+01 0. -1.
       -4    1    3    3    0  502 -0.81116005889E+03 -0.77780158259E+03  0.45123030760E+03  0.12110187226E+04  0.12699999809E+01 0.  1.
</event>
<event>
 5   0  0.2190865E-06  0.2817090E+04  0.7818609E-02  0.8297982E-01
       -1   -1    0    0    0  501  0.00000000000E+00  0.00000000000E+00  0.84044533592E+03  0.84044533594E+03  0.50400001928E-02 0.  1.
        1   -1    0    0  501    0  0.00000000000E+00  0.00000000000E+00 -0.23606515381E+04  0.23606515381E+04  0.50400001928E-02 0. -1.
    10030    2    1    2    0    0  0.00000000000E+00  0.00000000000E+00 -0.15202062022E+04  0.32010968741E+04  0.28170896862E+04 0.  0.
        2    1    3    3  502    0 -0.60216713463E+03  0.11975515965E+04 -0.12518308321E+04  0.18340707501E+04  0.25500000920E-02 0. -1.
       -2    1    3    3    0  502  0.60216713463E+03 -0.11975515965E+04 -0.26837537010E+03  0.13670261239E+04  0.25500000920E-02 0.  1.
</event>
<event>
 5   0  0.5625245E-06  0.2798376E+04  0.7818609E-02  0.8303773E-01
        2   -1    0    0  501    0  0.00000000000E+00  0.00000000000E+00  0.20819342576E+04  0.20819342576E+04  0.25500000920E-02 0.  1.
       -2   -1    0    0    0  501  0.00000000000E+00  0.00000000000E+00 -0.94034036127E+03  0.94034036128E+03  0.25500000920E-02 0. -1.
    10030    2    1    2    0    0  0.00000000000E+00  0.00000000000E+00  0.11415938963E+04  0.30222746189E+04  0.27983758232E+04 0.  0.
        3    1    3    3  502    0 -0.98970078312E+03  0.81315064220E+03 -0.37283547358E+02  0.12814490548E+04  0.10100000352E+00 0.  1.
       -3    1    3    3    0  502  0.98970078312E+03 -0.81315064220E+03  0.11788774437E+04  0.17408255641E+04  0.10100000352E+00 0. -1.
</event>
<event>
 5   0  0.5546570E-06  0.2801771E+04  0.7818609E-02  0.8302719E-01
        2   -1    0    0  501    0  0.00000000000E+00  0.00000000000E+00  0.18958799840E+04  0.18958799840E+04  0.25500000920E-02 0.  1.
       -2   -1    0    0    0  501  0.00000000000E+00  0.00000000000E+00 -0.10351291141E+04  0.10351291141E+04  0.25500000920E-02 0. -1.
    10030    2    1    2    0    0  0.00000000000E+00  0.00000000000E+00  0.86075086994E+03  0.29310090981E+04  0.28017712742E+04 0.  0.
        4    1    3    3  502    0 -0.65008093615E+03  0.10899400842E+04 -0.19020317548E+03  0.12832589262E+04  0.12699999809E+01 0.  1.
       -4    1    3    3    0  502  0.65008093615E+03 -0.10899400842E+04  0.10509540454E+04  0.16477501720E+04  0.12699999809E+01 0. -1.
</event>
<event>
 5   0  0.5584205E-06  0.2780602E+04  0.7818609E-02  0.8309316E-01
        2   -1    0    0  501    0  0.00000000000E+00  0.00000000000E+00  0.14364342071E+04  0.14364342071E+04  0.25500000920E-02 0. -1.
       -2   -1    0    0    0  501  0.00000000000E+00  0.00000000000E+00 -0.13456492455E+04  0.13456492455E+04  0.25500000920E-02 0.  1.
    10030    2    1    2    0    0  0.00000000000E+00  0.00000000000E+00  0.90784961568E+02  0.27820834527E+04  0.27806018104E+04 0.  0.
        1    1    3    3  502    0 -0.66711527633E+03 -0.52809749093E+03 -0.10547418909E+04  0.13551421358E+04  0.50400001928E-02 0.  1.
       -1    1    3    3    0  502  0.66711527633E+03  0.52809749093E+03  0.11455268525E+04  0.14269413168E+04  0.50400001928E-02 0. -1.
</event>
<event>
 5   0  0.5625245E-06  0.2796651E+04  0.7818609E-02  0.8304309E-01
        2   -1    0    0  501    0  0.00000000000E+00  0.00000000000E+00  0.30327672402E+04  0.30327672402E+04  0.25500000920E-02 0. -1.
       -2   -1    0    0    0  501  0.00000000000E+00  0.00000000000E+00 -0.64472933650E+03  0.64472933650E+03  0.25500000920E-02 0.  1.
    10030    2    1    2    0    0  0.00000000000E+00  0.00000000000E+00  0.23880379037E+04  0.36774965767E+04  0.27966508617E+04 0.  0.
        3    1    3    3  502    0  0.55480626144E+03  0.12470058968E+04  0.15939072118E+04  0.20984217652E+04  0.10100000352E+00 0. -1.
       -3    1    3    3    0  502 -0.55480626144E+03 -0.12470058968E+04  0.79413069186E+03  0.15790748115E+04  0.10100000352E+00 0.  1.
</event>
<event>
 5   0  0.2206967E-06  0.2766716E+04  0.7818609E-02  0.8313677E-01
       -1   -1    0    0    0  501  0.00000000000E+00  0.00000000000E+00  0.13696654625E+04  0.13696654625E+04  0.50400001928E-02 0.  1.
        1   -1    0    0  501    0  0.00000000000E+00  0.00000000000E+00 -0.13971879025E+04  0.13971879025E+04  0.50400001928E-02 0. -1.
    10030    2    1    2    0    0  0.00000000000E+00  0.00000000000E+00 -0.27522439985E+02  0.27668533651E+04  0.27667164761E+04 0.  0.
        5    1    3    3  502    0 -0.13243531345E+03  0.11319839932E+04 -0.79784787543E+03  0.13912261482E+04  0.46999998093E+01 0. -1.
       -5    1    3    3    0  502  0.13243531345E+03 -0.11319839932E+04  0.77032543545E+03  0.13756272168E+04  0.46999998093E+01 0.  1.
</event>
<event>
 5   0  0.2267565E-06  0.2825331E+04  0.7818609E-02  0.8295447E-01
       -1   -1    0    0    0  501  0.00000000000E+00  0.00000000000E+00  0.20350925787E+04  0.20350925787E+04  0.50400001928E-02 0.  1.
        1   -1    0    0  501    0  0.00000000000E+00  0.00000000000E+00 -0.98060611879E+03  0.98060611881E+03  0.50400001928E-02 0. -1.
    10030    2    1    2    0    0  0.00000000000E+00  0.00000000000E+00  0.10544864599E+04  0.30156986975E+04  0.28253312974E+04 0.  0.
        4    1    3    3  502    0 -0.54405273344E+03 -0.50806146753E+03 -0.75427949486E+03  0.10597447810E+04  0.12699999809E+01 0. -1.
       -4    1    3    3    0  502  0.54405273344E+03  0.50806146753E+03  0.18087659548E+04  0.19559539165E+04  0.12699999809E+01 0.  1.
</event>
<event>
 5   0  0.2206967E-06  0.2803128E+04  0.7818609E-02  0.8302298E-01
        1   -1    0    0  501    0  0.00000000000E+00  0.00000000000E+00  0.22379892670E+04  0.22379892670E+04  0.50400001928E-02 0. -1.
       -1   -1    0    0    0  501  0.00000000000E+00  0.00000000000E+00 -0.87774380144E+03  0.87774380146E+03  0.50400001928E-02 0.  1.
    10030    2    1    2    0    0  0.00000000000E+00  0.00000000000E+00  0.13602454656E+04  0.31157330685E+04  0.28031276866E+04 0.  0.
        5    1    3    3  502    0  0.10051708353E+04 -0.60373976689E+03  0.15335277983E+04  0.19304402898E+04  0.46999998093E+01 0. -1.
       -5    1    3    3    0  502 -0.10051708353E+04  0.60373976689E+03 -0.17328233271E+03  0.11852927787E+04  0.46999998093E+01 0.  1.
</event>
<event>
 5   0  0.2234068E-06  0.2797032E+04  0.7818609E-02  0.8304191E-01
       -1   -1    0    0    0  501  0.00000000000E+00  0.00000000000E+00  0.16075165038E+04  0.16075165038E+04  0.50400001928E-02 0.  1.
        1   -1    0    0  501    0  0.00000000000E+00  0.00000000000E+00 -0.12166882036E+04  0.12166882036E+04  0.50400001928E-02 0. -1.
    10030    2    1    2    0    0  0.00000000000E+00  0.00000000000E+00  0.39082830017E+03  0.28242047074E+04  0.27970315460E+04 0.  0.
        3    1    3    3  502    0  0.86918915253E+03  0.10541445604E+04  0.49687084969E+03  0.14538195172E+04  0.10100000352E+00 0. -1.
       -3    1    3    3    0  502 -0.86918915253E+03 -0.10541445604E+04 -0.10604254952E+03  0.13703851902E+04  0.10100000352E+00 0.  1.
</event>
<event>
 5   0  0.5546570E-06  0.2950065E+04  0.7818609E-02  0.8258136E-01
        2   -1    0    0  501    0  0.00000000000E+00  0.00000000000E+00  0.13057465229E+04  0.13057465229E+04  0.25500000920E-02 0. -1.
       -2   -1    0    0    0  501  0.00000000000E+00  0.00000000000E+00 -0.16662659736E+04  0.16662659736E+04  0.25500000920E-02 0.  1.
    10030    2    1    2    0    0  0.00000000000E+00  0.00000000000E+00 -0.36051945072E+03  0.29720124965E+04  0.29500650849E+04 0.  0.
        4    1    3    3  502    0 -0.79080500281E+03  0.97542362867E+03  0.59938112726E+03  0.13914320524E+04  0.12699999809E+01 0. -1.
       -4    1    3    3    0  502  0.79080500281E+03 -0.97542362867E+03 -0.95990057798E+03  0.15805804441E+04  0.12699999809E+01 0.  1.
</event>
<event>
 5   0  0.5584205E-06  0.2789917E+04  0.7818609E-02  0.8306405E-01
        2   -1    0    0  501    0  0.00000000000E+00  0.00000000000E+00  0.16734944383E+04  0.16734944383E+04  0.25500000920E-02 0.  1.
       -2   -1    0    0    0  501  0.00000000000E+00  0.00000000000E+00 -0.11627824030E+04  0.11627824030E+04  0.25500000920E-02 0. -1.
    10030    2    1    2    0    0  0.00000000000E+00  0.00000000000E+00  0.51071203529E+03  0.28362768413E+04  0.27899174786E+04 0.  0.
        1    1    3    3  502    0  0.12549953158E+04 -0.15598221049E+03  0.85383700487E+03  0.15259034451E+04  0.50400001928E-02 0.  1.
       -1    1    3    3    0  502 -0.12549953158E+04  0.15598221049E+03 -0.34312496958E+03  0.13103733962E+04  0.50400001928E-02 0. -1.
</event>
<event>
 5   0  0.5916603E-06  0.2811325E+04  0.7818609E-02  0.8299761E-01
       -2   -1    0    0    0  501  0.00000000000E+00  0.00000000000E+00  0.13970498620E+04  0.13970498620E+04  0.25500000920E-02 0. -1.
        2   -1    0    0  501    0  0.00000000000E+00  0.00000000000E+00 -0.14143285680E+04  0.14143285680E+04  0.25500000920E-02 0.  1.
    10030    2    1    2    0    0  0.00000000000E+00  0.00000000000E+00 -0.17278705948E+02  0.28113784300E+04  0.28113253321E+04 0.  0.
        2    1    3    3  502    0 -0.63074003943E+03 -0.73626271560E+03  0.10092068439E+04  0.13994335417E+04  0.25500000920E-02 0. -1.
       -2    1    3    3    0  502  0.63074003943E+03  0.73626271560E+03 -0.10264855498E+04  0.14119448884E+04  0.25500000920E-02 0.  1.
</event>
<event>
 5   0  0.2234068E-06  0.2825051E+04  0.7818609E-02  0.8295533E-01
        1   -1    0    0  501    0  0.00000000000E+00  0.00000000000E+00  0.20457082251E+04  0.20457082251E+04  0.50400001928E-02 0. -1.
       -1   -1    0    0    0  501  0.00000000000E+00  0.00000000000E+00 -0.97532427587E+03  0.97532427589E+03  0.50400001928E-02 0.  1.
    10030    2    1    2    0    0  0.00000000000E+00  0.00000000000E+00  0.10703839493E+04  0.30210325010E+04  0.28250514285E+04 0.  0.
        3    1    3    3  502    0 -0.11736418715E+04 -0.12246371842E+03 -0.29506841771E+03  0.12163461622E+04  0.10100000352E+00 0.  1.
       -3    1    3    3    0  502  0.11736418715E+04  0.12246371842E+03  0.13654523670E+04  0.18046863388E+04  0.10100000352E+00 0. -1.
</event>
<event>
 5   0  0.5625245E-06  0.2790820E+04  0.7818609E-02  0.8306124E-01
        2   -1    0    0  501    0  0.00000000000E+00  0.00000000000E+00  0.78745221885E+03  0.78745221885E+03  0.25500000920E-02 0. -1.
       -2   -1    0    0    0  501  0.00000000000E+00  0.00000000000E+00 -0.24727461014E+04  0.24727461014E+04  0.25500000920E-02 0.  1.
    10030    2    1    2    0    0  0.00000000000E+00  0.00000000000E+00 -0.16852938825E+04  0.32601983202E+04  0.27908202408E+04 0.  0.
        3    1    3    3  502    0 -0.18453696506E+03 -0.91504930662E+03  0.36900527068E+03  0.10037599439E+04  0.10100000352E+00 0. -1.
       -3    1    3    3    0  502  0.18453696506E+03  0.91504930662E+03 -0.20542991532E+04  0.22564383763E+04  0.10100000352E+00 0.  1.
</event>
<event>
 5   0  0.5866136E-06  0.2572887E+04  0.7818609E-02  0.8377470E-01
       -2   -1    0    0    0  501  0.00000000000E+00  0.00000000000E+00  0.17872677283E+04  0.17872677283E+04  0.25500000920E-02 0. -1.
        2   -1    0    0  501    0  0.00000000000E+00  0.00000000000E+00 -0.92595892006E+03  0.92595892006E+03  0.25500000920E-02 0.  1.
    10030    2    1    2    0    0  0.00000000000E+00  0.00000000000E+00  0.86130880823E+03  0.27132266484E+04  0.25728867022E+04 0.  0.
        5    1    3    3  502    0  0.12378023058E+04  0.19154674027E+03  0.12127559387E+03  0.12584015900E+04  0.46999998093E+01 0.  1.
       -5    1    3    3    0  502 -0.12378023058E+04 -0.19154674027E+03  0.74003321436E+03  0.14548250584E+04  0.46999998093E+01 0. -1.
</event>
<event>
 5   0  0.5584205E-06  0.2812819E+04  0.7818609E-02  0.8299300E-01
        2   -1    0    0  501    0  0.00000000000E+00  0.00000000000E+00  0.14262633896E+04  0.14262633896E+04  0.25500000920E-02 0.  1.
       -2   -1    0    0    0  501  0.00000000000E+00  0.00000000000E+00 -0.13868322065E+04  0.13868322065E+04  0.25500000920E-02 0. -1.
    10030    2    1    2    0    0  0.00000000000E+00  0.00000000000E+00  0.39431183145E+02  0.28130955960E+04  0.28128192289E+04 0.  0.
        1    1    3    3  502    0 -0.61347045433E+03  0.94461610971E+03  0.86202302180E+03  0.14183544279E+04  0.50400001928E-02 0.  1.
       -1    1    3    3    0  502  0.61347045433E+03 -0.94461610971E+03 -0.82259183865E+03  0.13947411681E+04  0.50400001928E-02 0. -1.
</event>
<event>
 5   0  0.2234068E-06  0.2806429E+04  0.7818609E-02  0.8301275E-01
       -1   -1    0    0    0  501  0.00000000000E+00  0.00000000000E+00  0.17586601461E+04  0.17586601461E+04  0.50400001928E-02 0. -1.
        1   -1    0    0  501    0  0.00000000000E+00  0.00000000000E+00 -0.11196083505E+04  0.11196083505E+04  0.50400001928E-02 0.  1.
    10030    2    1    2    0    0  0.00000000000E+00  0.00000000000E+00  0.63905179563E+03  0.28782684966E+04  0.28064287522E+04 0.  0.
        3    1    3    3  502    0 -0.34420625150E+03 -0.87098088294E+03 -0.75217519743E+03  0.12011882366E+04  0.10100000352E+00 0.  1.
       -3    1    3    3    0  502  0.34420625150E+03  0.87098088294E+03  0.13912269931E+04  0.16770802600E+04  0.10100000352E+00 0. -1.
</event>
<event>
 5   0  0.2267565E-06  0.2757873E+04  0.7818609E-02  0.8316468E-01
        1   -1    0    0  501    0  0.00000000000E+00  0.00000000000E+00  0.13490202873E+04  0.13490202873E+04  0.50400001928E-02 0. -1.
       -1   -1    0    0    0  501  0.00000000000E+00  0.00000000000E+00 -0.14095157380E+04  0.14095157380E+04  0.50400001928E-02 0.  1.
    10030    2    1    2    0    0  0.00000000000E+00  0.00000000000E+00 -0.60495450693E+02  0.27585360253E+04  0.27578726046E+04 0.  0.
        4    1    3    3  502    0 -0.47126851369E+02  0.13632963045E+04  0.17145880903E+03  0.13748445331E+04  0.12699999809E+01 0. -1.
       -4    1    3    3    0  502  0.47126851369E+02 -0.13632963045E+04 -0.23195425972E+03  0.13836914922E+04  0.12699999809E+01 0.  1.
</event>
<event>
 5   0  0.2234068E-06  0.2802979E+04  0.7818609E-02  0.8302344E-01
       -1   -1    0    0    0  501  0.00000000000E+00  0.00000000000E+00  0.20467489103E+04  0.20467489103E+04  0.50400001928E-02 0. -1.
        1   -1    0    0  501    0  0.00000000000E+00  0.00000000000E+00 -0.95965494476E+03  0.95965494477E+03  0.50400001928E-02 0.  1.
    10030    2    1    2    0    0  0.00000000000E+00  0.00000000000E+00  0.10870939655E+04  0.30064038550E+04  0.28029789242E+04 0.  0.
        3    1    3    3  502    0 -0.82550763722E+03 -0.98130598067E+03  0.11500482153E+04  0.17225084019E+04  0.10100000352E+00 0. -1.
       -3    1    3    3    0  502  0.82550763722E+03  0.98130598067E+03 -0.62954249840E+02  0.12838954531E+04  0.10100000352E+00 0.  1.
</event>
<event>
 5   0  0.5546570E-06  0.2793490E+04  0.7818609E-02  0.8305292E-01
       -2   -1    0    0    0  501  0.00000000000E+00  0.00000000000E+00  0.80367760403E+03  0.80367760403E+03  0.25500000920E-02 0. -1.
        2   -1    0    0  501    0  0.00000000000E+00  0.00000000000E+00 -0.24274621963E+04  0.24274621963E+04  0.25500000920E-02 0.  1.
    10030    2    1    2    0    0  0.00000000000E+00  0.00000000000E+00 -0.16237845922E+04  0.32311398003E+04  0.27934902912E+04 0.  0.
        4    1    3    3  502    0 -0.31219744315E+03  0.57210907237E+03  0.61701098230E+03  0.89748548700E+03  0.12699999809E+01 0.  1.
       -4    1    3    3    0  502  0.31219744315E+03 -0.57210907237E+03 -0.22407955745E+04  0.23336543133E+04  0.12699999809E+01 0. -1.
</event>
<event>
 5   0  0.5866136E-06  0.2791892E+04  0.7818609E-02  0.8305790E-01
        2   -1    0    0  501    0  0.00000000000E+00  0.00000000000E+00  0.12270364847E+04  0.12270364847E+04  0.25500000920E-02 0.  1.
       -2   -1    0    0    0  501  0.00000000000E+00  0.00000000000E+00 -0.15881069930E+04  0.15881069930E+04  0.25500000920E-02 0. -1.
    10030    2    1    2    0    0  0.00000000000E+00  0.00000000000E+00 -0.36107050830E+03  0.28151434778E+04  0.27918919909E+04 0.  0.
        5    1    3    3  502    0  0.60347607744E+03 -0.11704302604E+04  0.28652076753E+03  0.13476670994E+04  0.46999998093E+01 0. -1.
       -5    1    3    3    0  502 -0.60347607744E+03  0.11704302604E+04 -0.64759127583E+03  0.14674763784E+04  0.46999998093E+01 0.  1.
</event>
<event>
 5   0  0.5916603E-06  0.2697886E+04  0.7818609E-02  0.8335691E-01
       -2   -1    0    0    0  501  0.00000000000E+00  0.00000000000E+00  0.18608002769E+04  0.18608002769E+04  0.25500000920E-02 0. -1.
        2   -1    0    0  501    0  0.00000000000E+00  0.00000000000E+00 -0.97788415788E+03  0.97788415789E+03  0.25500000920E-02 0.  1.
    10030    2    1    2    0    0  0.00000000000E+00  0.00000000000E+00  0.88291611901E+03  0.28386844348E+04  0.26978859218E+04 0.  0.
        2    1    3    3  502    0  0.65151886280E+03 -0.12959024557E+03  0.16767724154E+04  0.18035620847E+04  0.25500000920E-02 0. -1.
       -2    1    3    3    0  502 -0.65151886280E+03  0.12959024557E+03 -0.79385629638E+03  0.10351223501E+04  0.25500000920E-02 0.  1.
</event>
<event>
 5   0  0.5625245E-06  0.2795605E+04  0.7818609E-02  0.8304634E-01
       -2   -1    0    0    0  501  0.00000000000E+00  0.00000000000E+00  0.18292140904E+04  0.18292140904E+04  0.25500000920E-02 0. -1.
        2   -1    0    0  501    0  0.00000000000E+00  0.00000000000E+00 -0.10681375507E+04  0.10681375507E+04  0.25500000920E-02 0.  1.
    10030    2    1    2    0    0  0.00000000000E+00  0.00000000000E+00  0.76107653971E+03  0.28973516410E+04  0.27956053070E+04 0.  0.
        3    1    3    3  502    0  0.20811361737E+02  0.12270823517E+04  0.10739849858E+04  0.16308304543E+04  0.10100000352E+00 0. -1.
       -3    1    3    3    0  502 -0.20811361737E+02 -0.12270823517E+04 -0.31290844607E+03  0.12665211868E+04  0.10100000352E+00 0.  1.
</event>
<event>
 5   0  0.5916603E-06  0.2795585E+04  0.7818609E-02  0.8304640E-01
        2   -1    0    0  501    0  0.00000000000E+00  0.00000000000E+00  0.14323645090E+04  0.14323645090E+04  0.25500000920E-02 0. -1.
       -2   -1    0    0    0  501  0.00000000000E+00  0.00000000000E+00 -0.13640547198E+04  0.13640547198E+04  0.25500000920E-02 0.  1.
    10030    2    1    2    0    0  0.00000000000E+00  0.00000000000E+00  0.68309789180E+02  0.27964192288E+04  0.27955847825E+04 0.  0.
        2    1    3    3  502    0 -0.40002343688E+02  0.13904540279E+04 -0.10322137325E+03  0.13948538429E+04  0.25500000920E-02 0. -1.
       -2    1    3    3    0  502  0.40002343688E+02 -0.13904540279E+04  0.17153116243E+03  0.14015653859E+04  0.25500000920E-02 0.  1.
</event>
<event>
 5   0  0.5625245E-06  0.2790416E+04  0.7818609E-02  0.8306250E-01
        2   -1    0    0  501    0  0.00000000000E+00  0.00000000000E+00  0.11264631721E+04  0.11264631721E+04  0.25500000920E-02 0. -1.
       -2   -1    0    0    0  501  0.00000000000E+00  0.00000000000E+00 -0.17280687577E+04  0.17280687577E+04  0.25500000920E-02 0.  1.
    10030    2    1    2    0    0  0.00000000000E+00  0.00000000000E+00 -0.60160558552E+03  0.28545319298E+04  0.27904163234E+04 0.  0.
        3    1    3    3  502    0 -0.11745562246E+04  0.17344728672E+03 -0.10504010805E+04  0.15852472129E+04  0.10100000352E+00 0.  1.
       -3    1    3    3    0  502  0.11745562246E+04 -0.17344728672E+03  0.44879549503E+03  0.12692847169E+04  0.10100000352E+00 0. -1.
</event>
<event>
 5   0  0.5625245E-06  0.2800346E+04  0.7818609E-02  0.8303161E-01
        2   -1    0    0  501    0  0.00000000000E+00  0.00000000000E+00  0.92552175370E+03  0.92552175371E+03  0.25500000920E-02 0. -1.
       -2   -1    0    0    0  501  0.00000000000E+00  0.00000000000E+00 -0.21182482589E+04  0.21182482589E+04  0.25500000920E-02 0.  1.
    10030    2    1    2    0    0  0.00000000000E+00  0.00000000000E+00 -0.11927265052E+04  0.30437700126E+04  0.28003462952E+04 0.  0.
        3    1    3    3  502    0 -0.35455461007E+03  0.12003415076E+04  0.85856081654E+02  0.12545517062E+04  0.10100000352E+00 0. -1.
       -3    1    3    3    0  502  0.35455461007E+03 -0.12003415076E+04 -0.12785825868E+04  0.17892183064E+04  0.10100000352E+00 0.  1.
</event>
<event>
 5   0  0.5546570E-06  0.2732532E+04  0.7818609E-02  0.8324526E-01
        2   -1    0    0  501    0  0.00000000000E+00  0.00000000000E+00  0.16359451161E+04  0.16359451161E+04  0.25500000920E-02 0.  1.
       -2   -1    0    0    0  501  0.00000000000E+00  0.00000000000E+00 -0.11410424327E+04  0.11410424327E+04  0.25500000920E-02 0. -1.
    10030    2    1    2    0    0  0.00000000000E+00  0.00000000000E+00  0.49490268335E+03  0.27769875488E+04  0.27325320090E+04 0.  0.
        4    1    3    3  502    0 -0.77956248862E+02 -0.73074795175E+01 -0.11387599051E+04  0.11414492149E+04  0.12699999809E+01 0. -1.
       -4    1    3    3    0  502  0.77956248862E+02  0.73074795175E+01  0.16336625884E+04  0.16355383339E+04  0.12699999809E+01 0.  1.
</event>
<event>
 5   0  0.2206967E-06  0.2767395E+04  0.7818609E-02  0.8313463E-01
       -1   -1    0    0    0  501  0.00000000000E+00  0.00000000000E+00  0.90818105350E+03  0.90818105351E+03  0.50400001928E-02 0.  1.
        1   -1    0    0  501    0  0.00000000000E+00  0.00000000000E+00 -0.21081906286E+04  0.21081906286E+04  0.50400001928E-02 0. -1.
    10030    2    1    2    0    0  0.00000000000E+00  0.00000000000E+00 -0.12000095751E+04  0.30163716821E+04  0.27673950105E+04 0.  0.
        5    1    3    3  502    0 -0.19423033075E+03 -0.40038116186E+03  0.82804707420E+03  0.94006092528E+03  0.46999998093E+01 0.  1.
       -5    1    3    3    0  502  0.19423033075E+03  0.40038116186E+03 -0.20280566493E+04  0.20763107569E+04  0.46999998093E+01 0. -1.
</event>
<event>
 5   0  0.2190865E-06  0.2797079E+04  0.7818609E-02  0.8304176E-01
       -1   -1    0    0    0  501  0.00000000000E+00  0.00000000000E+00  0.14249775080E+04  0.14249775080E+04  0.50400001928E-02 0.  1.
        1   -1    0    0  501    0  0.00000000000E+00  0.00000000000E+00 -0.13725921866E+04  0.13725921866E+04  0.50400001928E-02 0. -1.
    10030    2    1    2    0    0  0.00000000000E+00  0.00000000000E+00  0.52385321372E+02  0.27975696946E+04  0.27970791863E+04 0.  0.
        2    1    3    3  502    0 -0.19671707530E+03  0.39455342581E+03 -0.13012714098E+04  0.13739276893E+04  0.25500000920E-02 0. -1.
       -2    1    3    3    0  502  0.19671707530E+03 -0.39455342581E+03  0.13536567312E+04  0.14236420053E+04  0.25500000920E-02 0.  1.
</event>
<event>
 5   0  0.2190865E-06  0.2810699E+04  0.7818609E-02  0.8299954E-01
       -1   -1    0    0    0  501  0.00000000000E+00  0.00000000000E+00  0.99042914865E+03  0.99042914866E+03  0.50400001928E-02 0.  1.
        1   -1    0    0  501    0  0.00000000000E+00  0.00000000000E+00 -0.19940929628E+04  0.19940929628E+04  0.50400001928E-02 0. -1.
    10030    2    1    2    0    0  0.00000000000E+00  0.00000000000E+00 -0.10036638141E+04  0.29845221115E+04  0.28106994115E+04 0.  0.
        2    1    3    3  502    0  0.24795603087E+03 -0.12959022313E+04 -0.10156620092E+04  0.16650567868E+04  0.25500000920E-02 0. -1.
       -2    1    3    3    0  502 -0.24795603087E+03  0.12959022313E+04  0.11998195044E+02  0.13194653247E+04  0.25500000920E-02 0.  1.
</event>
<event>
 5   0  0.2234068E-06  0.2800942E+04  0.7818609E-02  0.8302976E-01
        1   -1    0    0  501    0  0.00000000000E+00  0.00000000000E+00  0.23219963337E+04  0.23219963337E+04  0.50400001928E-02 0.  1.
       -1   -1    0    0    0  501  0.00000000000E+00  0.00000000000E+00 -0.84466919653E+03  0.84466919654E+03  0.50400001928E-02 0. -1.
    10030    2    1    2    0    0  0.00000000000E+00  0.00000000000E+00  0.14773271372E+04  0.31666655302E+04  0.28009418256E+04 0.  0.
        3    1    3    3  502    0 -0.44738765773E+03  0.12606981083E+04  0.12072760971E+04  0.18019520031E+04  0.10100000352E+00 0.  1.
       -3    1    3    3    0  502  0.44738765773E+03 -0.12606981083E+04  0.27005104001E+03  0.13647135271E+04  0.10100000352E+00 0. -1.
</event>
<event>
 5   0  0.5584205E-06  0.2834303E+04  0.7818609E-02  0.8292697E-01
        2   -1    0    0  501    0  0.00000000000E+00  0.00000000000E+00  0.20523391736E+04  0.20523391736E+04  0.25500000920E-02 0. -1.
       -2   -1    0    0    0  501  0.00000000000E+00  0.00000000000E+00 -0.97855064406E+03  0.97855064406E+03  0.25500000920E-02 0.  1.
    10030    2    1    2    0    0  0.00000000000E+00  0.00000000000E+00  0.10737885296E+04  0.30308898177E+04  0.28343026092E+04 0.  0.
        1    1    3    3  502    0  0.36949703555E+03  0.52885837859E+03  0.18861954725E+04  0.19934775154E+04  0.50400001928E-02 0. -1.
       -1    1    3    3    0  502 -0.36949703555E+03 -0.52885837859E+03 -0.81240694297E+03  0.10374123023E+04  0.50400001928E-02 0.  1.
</event>
<event>
 5   0  0.2234068E-06  0.2792574E+04  0.7818609E-02  0.8305578E-01
       -1   -1    0    0    0  501  0.00000000000E+00  0.00000000000E+00  0.11523160090E+04  0.11523160090E+04  0.50400001928E-02 0. -1.
        1   -1    0    0  501    0  0.00000000000E+00  0.00000000000E+00 -0.16919120120E+04  0.16919120120E+04  0.50400001928E-02 0.  1.
    10030    2    1    2    0    0  0.00000000000E+00  0.00000000000E+00 -0.53959600302E+03  0.28442280210E+04  0.27925739361E+04 0.  0.
        3    1    3    3  502    0 -0.74395808773E+03 -0.55619759742E+03  0.79197609108E+03  0.12206783126E+04  0.10100000352E+00 0. -1.
       -3    1    3    3    0  502  0.74395808773E+03  0.55619759742E+03 -0.13315720941E+04  0.16235497084E+04  0.10100000352E+00 0.  1.
</event>
<event>
 5   0  0.5625245E-06  0.2763048E+04  0.7818609E-02  0.8314833E-01
       -2   -1    0    0    0  501  0.00000000000E+00  0.00000000000E+00  0.11921602447E+04  0.11921602447E+04  0.25500000920E-02 0. -1.
        2   -1    0    0  501    0  0.00000000000E+00  0.00000000000E+00 -0.16009668600E+04  0.16009668600E+04  0.25500000920E-02 0.  1.
    10030    2    1    2    0    0  0.00000000000E+00  0.00000000000E+00 -0.40880661534E+03  0.27931271047E+04  0.27630483481E+04 0.  0.
        3    1    3    3  502    0  0.12592060943E+04 -0.48935315243E+03 -0.49658704930E+03  0.14393280389E+04  0.10100000352E+00 0.  1.
       -3    1    3    3    0  502 -0.12592060943E+04  0.48935315243E+03  0.87780433956E+02  0.13537990658E+04  0.10100000352E+00 0. -1.
</event>
<event>
 5   0  0.2277133E-06  0.2808594E+04  0.7818609E-02  0.8300605E-01
       -1   -1    0    0    0  501  0.00000000000E+00  0.00000000000E+00  0.12620690624E+04  0.12620690624E+04  0.50400001928E-02 0.  1.
        1   -1    0    0  501    0  0.00000000000E+00  0.00000000000E+00 -0.15625536099E+04  0.15625536099E+04  0.50400001928E-02 0. -1.
    10030    2    1    2    0    0  0.00000000000E+00  0.00000000000E+00 -0.30048454746E+03  0.28246226724E+04  0.28085943598E+04 0.  0.
        1    1    3    3  502    0 -0.76803359985E+03 -0.47189782216E+03 -0.12331823826E+04  0.15275149603E+04  0.50400001928E-02 0. -1.
       -1    1    3    3    0  502  0.76803359985E+03  0.47189782216E+03  0.93269783514E+03  0.12971077121E+04  0.50400001928E-02 0.  1.
</event>
<event>
 5   0  0.5546570E-06  0.2794501E+04  0.7818609E-02  0.8304978E-01
       -2   -1    0    0    0  501  0.00000000000E+00  0.00000000000E+00  0.15748040794E+04  0.15748040794E+04  0.25500000920E-02 0.  1.
        2   -1    0    0  501    0  0.00000000000E+00  0.00000000000E+00 -0.12397150271E+04  0.12397150271E+04  0.25500000920E-02 0. -1.
    10030    2    1    2    0    0  0.00000000000E+00  0.00000000000E+00  0.33508905228E+03  0.28145191065E+04  0.27945005149E+04 0.  0.
        4    1    3    3  502    0 -0.29091729719E+03  0.36629799837E+03  0.14936005618E+04  0.15651362076E+04  0.12699999809E+01 0.  1.
       -4    1    3    3    0  502  0.29091729719E+03 -0.36629799837E+03 -0.11585115095E+04  0.12493828989E+04  0.12699999809E+01 0. -1.
</event>
<event>
 5   0  0.5546570E-06  0.2827943E+04  0.7818609E-02  0.8294645E-01
       -2   -1    0    0    0  501  0.00000000000E+00  0.00000000000E+00  0.17946095409E+04  0.17946095409E+04  0.25500000920E-02 0. -1.
        2   -1    0    0  501    0  0.00000000000E+00  0.00000000000E+00 -0.11140669570E+04  0.11140669570E+04  0.25500000920E-02 0.  1.
    10030    2    1    2    0    0  0.00000000000E+00  0.00000000000E+00  0.68054258391E+03  0.29086764979E+04  0.28279428497E+04 0.  0.
        4    1    3    3  502    0  0.94373330810E+02  0.89847166816E+03  0.14590540963E+04  0.17160996862E+04  0.12699999809E+01 0. -1.
       -4    1    3    3    0  502 -0.94373330810E+02 -0.89847166816E+03 -0.77851151242E+03  0.11925768117E+04  0.12699999809E+01 0.  1.
</event>
<event>
 5   0  0.2206967E-06  0.2811482E+04  0.7818609E-02  0.8299712E-01
        1   -1    0    0  501    0  0.00000000000E+00  0.00000000000E+00  0.99876497080E+03  0.99876497081E+03  0.50400001928E-02 0.  1.
       -1   -1    0    0    0  501  0.00000000000E+00  0.00000000000E+00 -0.19785517471E+04  0.19785517471E+04  0.50400001928E-02 0. -1.
    10030    2    1    2    0    0  0.00000000000E+00  0.00000000000E+00 -0.97978677634E+03  0.29773167180E+04  0.28114822980E+04 0.  0.
        5    1    3    3  502    0  0.11654621141E+04 -0.56898610752E+03  0.84344865372E+02  0.12996858375E+04  0.46999998093E+01 0. -1.
       -5    1    3    3    0  502 -0.11654621141E+04  0.56898610752E+03 -0.10641316417E+04  0.16776308804E+04  0.46999998093E+01 0.  1.
</event>
<event>
 5   0  0.2234068E-06  0.2811648E+04  0.7818609E-02  0.8299661E-01
        1   -1    0    0  501    0  0.00000000000E+00  0.00000000000E+00  0.14029064622E+04  0.14029064622E+04  0.50400001928E-02 0.  1.
       -1   -1    0    0    0  501  0.00000000000E+00  0.00000000000E+00 -0.14087471784E+04  0.14087471784E+04  0.50400001928E-02 0. -1.
    10030    2    1    2    0    0  0.00000000000E+00  0.00000000000E+00 -0.58407162771E+01  0.28116536406E+04  0.28116475741E+04 0.  0.
        3    1    3    3  502    0  0.40681537701E+03  0.60347751352E+03 -0.12056933593E+04  0.14083253698E+04  0.10100000352E+00 0. -1.
       -3    1    3    3    0  502 -0.40681537701E+03 -0.60347751352E+03  0.11998526431E+04  0.14033282708E+04  0.10100000352E+00 0.  1.
</event>
<event>
 5   0  0.2190865E-06  0.2833950E+04  0.7818609E-02  0.8292805E-01
       -1   -1    0    0    0  501  0.00000000000E+00  0.00000000000E+00  0.15316398782E+04  0.15316398782E+04  0.50400001928E-02 0. -1.
        1   -1    0    0  501    0  0.00000000000E+00  0.00000000000E+00 -0.13108946002E+04  0.13108946002E+04  0.50400001928E-02 0.  1.
    10030    2    1    2    0    0  0.00000000000E+00  0.00000000000E+00  0.22074527804E+03  0.28425344784E+04  0.28339502083E+04 0.  0.
        2    1    3    3  502    0  0.10359110332E+04 -0.19915732388E+03  0.10593055499E+04  0.14949593829E+04  0.25500000920E-02 0. -1.
       -2    1    3    3    0  502 -0.10359110332E+04  0.19915732388E+03 -0.83856027189E+03  0.13475750955E+04  0.25500000920E-02 0.  1.
</event>
<event>
 5   0  0.5546570E-06  0.2689069E+04  0.7818609E-02  0.8338560E-01
        2   -1    0    0  501    0  0.00000000000E+00  0.00000000000E+00  0.13793084520E+04  0.13793084520E+04  0.25500000920E-02 0. -1.
       -2   -1    0    0    0  501  0.00000000000E+00  0.00000000000E+00 -0.13106371252E+04  0.13106371252E+04  0.25500000920E-02 0.  1.
    10030    2    1    2    0    0  0.00000000000E+00  0.00000000000E+00  0.68671326845E+02  0.26899455772E+04  0.26890688829E+04 0.  0.
        4    1    3    3  502    0  0.51189912990E+03 -0.62633821556E+03 -0.10399935138E+04  0.13175463564E+04  0.12699999809E+01 0.  1.
       -4    1    3    3    0  502 -0.51189912990E+03  0.62633821556E+03  0.11086648407E+04  0.13723992208E+04  0.12699999809E+01 0. -1.
</event>
<event>
 5   0  0.2234068E-06  0.2779025E+04  0.7818609E-02  0.8309810E-01
       -1   -1    0    0    0  501  0.00000000000E+00  0.00000000000E+00  0.84286312070E+03  0.84286312071E+03  0.50400001928E-02 0. -1.
        1   -1    0    0  501    0  0.00000000000E+00  0.00000000000E+00 -0.22906989627E+04  0.22906989627E+04  0.50400001928E-02 0.  1.
    10030    2    1    2    0    0  0.00000000000E+00  0.00000000000E+00 -0.14478358420E+04  0.31335620834E+04  0.27790254956E+04 0.  0.
        3    1    3    3  502    0 -0.11089162725E+04 -0.81345703689E+02 -0.16635568989E+04  0.20009332795E+04  0.10100000352E+00 0.  1.
       -3    1    3    3    0  502  0.11089162725E+04  0.81345703689E+02  0.21572105690E+03  0.11326288039E+04  0.10100000352E+00 0. -1.
</event>
<event>
 5   0  0.5916603E-06  0.2794185E+04  0.7818609E-02  0.8305076E-01
       -2   -1    0    0    0  501  0.00000000000E+00  0.00000000000E+00  0.90704822361E+03  0.90704822361E+03  0.25500000920E-02 0.  1.
        2   -1    0    0  501    0  0.00000000000E+00  0.00000000000E+00 -0.21518898428E+04  0.21518898428E+04  0.25500000920E-02 0. -1.
    10030    2    1    2    0    0  0.00000000000E+00  0.00000000000E+00 -0.12448416192E+04  0.30589380664E+04  0.27941852904E+04 0.  0.
        2    1    3    3  502    0 -0.80837282083E+03 -0.39354747654E+02 -0.18691173797E+04  0.20368149628E+04  0.25500000920E-02 0. -1.
       -2    1    3    3    0  502  0.80837282083E+03  0.39354747654E+02  0.62427576056E+03  0.10221231036E+04  0.25500000920E-02 0.  1.
</event>
<event>
 5   0  0.5546570E-06  0.2792228E+04  0.7818609E-02  0.8305685E-01
       -2   -1    0    0    0  501  0.00000000000E+00  0.00000000000E+00  0.98101270113E+03  0.98101270114E+03  0.25500000920E-02 0.  1.
        2   -1    0    0  501    0  0.00000000000E+00  0.00000000000E+00 -0.19868595352E+04  0.19868595352E+04  0.25500000920E-02 0. -1.
    10030    2    1    2    0    0  0.00000000000E+00  0.00000000000E+00 -0.10058468340E+04  0.29678722363E+04  0.27922280991E+04 0.  0.
        4    1    3    3  502    0  0.75994189651E+03 -0.58725252489E+03  0.57410670730E+03  0.11189179319E+04  0.12699999809E+01 0.  1.
       -4    1    3    3    0  502 -0.75994189651E+03  0.58725252489E+03 -0.15799535413E+04  0.18489543044E+04  0.12699999809E+01 0. -1.
</event>
<event>
 5   0  0.2206967E-06  0.2792582E+04  0.7818609E-02  0.8305575E-01
        1   -1    0    0  501    0  0.00000000000E+00  0.00000000000E+00  0.19444478837E+04  0.19444478837E+04  0.50400001928E-02 0. -1.
       -1   -1    0    0    0  501  0.00000000000E+00  0.00000000000E+00 -0.10026645463E+04  0.10026645463E+04  0.50400001928E-02 0.  1.
    10030    2    1    2    0    0  0.00000000000E+00  0.00000000000E+00  0.94178333739E+03  0.29471124301E+04  0.27925822854E+04 0.  0.
        5    1    3    3  502    0 -0.62685734271E+03  0.84254695736E+03  0.14420136985E+04  0.17838893183E+04  0.46999998093E+01 0. -1.
       -5    1    3    3    0  502  0.62685734271E+03 -0.84254695736E+03 -0.50023036109E+03  0.11632231117E+04  0.46999998093E+01 0.  1.
</event>
<event>
 5   0  0.2190865E-06  0.2803569E+04  0.7818609E-02  0.8302161E-01
        1   -1    0    0  501    0  0.00000000000E+00  0.00000000000E+00  0.18564712049E+04  0.18564712049E+04  0.50400001928E-02 0.  1.
       -1   -1    0    0    0  501  0.00000000000E+00  0.00000000000E+00 -0.10584597721E+04  0.10584597721E+04  0.50400001928E-02 0. -1.
    10030    2    1    2    0    0  0.00000000000E+00  0.00000000000E+00  0.79801143276E+03  0.29149309770E+04  0.28035692169E+04 0.  0.
        2    1    3    3  502    0  0.65422525767E+03 -0.14337329501E+03 -0.88134420031E+03  0.11069481419E+04  0.25500000920E-02 0. -1.
       -2    1    3    3    0  502 -0.65422525767E+03  0.14337329501E+03  0.16793556331E+04  0.18079828350E+04  0.25500000920E-02 0.  1.
</event>
<event>
 5   0  0.5916603E-06  0.2802141E+04  0.7818609E-02  0.8302604E-01
        2   -1    0    0  501    0  0.00000000000E+00  0.00000000000E+00  0.20054723141E+04  0.20054723141E+04  0.25500000920E-02 0.  1.
       -2   -1    0    0    0  501  0.00000000000E+00  0.00000000000E+00 -0.97882102117E+03  0.97882102117E+03  0.25500000920E-02 0. -1.
    10030    2    1    2    0    0  0.00000000000E+00  0.00000000000E+00  0.10266512930E+04  0.29842933353E+04  0.28021409375E+04 0.  0.
        2    1    3    3  502    0  0.20457150386E+03 -0.13859899432E+04  0.49900398496E+03  0.14872197551E+04  0.25500000920E-02 0.  1.
       -2    1    3    3    0  502 -0.20457150386E+03  0.13859899432E+04  0.52764730799E+03  0.14970735802E+04  0.25500000920E-02 0. -1.
</event>
<event>
 5   0  0.5625245E-06  0.2669113E+04  0.7818609E-02  0.8345097E-01
       -2   -1    0    0    0  501  0.00000000000E+00  0.00000000000E+00  0.10315292325E+04  0.10315292325E+04  0.25500000920E-02 0. -1.
        2   -1    0    0  501    0  0.00000000000E+00  0.00000000000E+00 -0.17266030742E+04  0.17266030742E+04  0.25500000920E-02 0.  1.
    10030    2    1    2    0    0  0.00000000000E+00  0.00000000000E+00 -0.69507384171E+03  0.27581323067E+04  0.26691133688E+04 0.  0.
        3    1    3    3  502    0 -0.90786072788E+03 -0.67353315326E+03  0.38547541070E+03  0.11943405344E+04  0.10100000352E+00 0. -1.
       -3    1    3    3    0  502  0.90786072788E+03  0.67353315326E+03 -0.10805492524E+04  0.15637917722E+04  0.10100000352E+00 0.  1.
</event>
<event>
 5   0  0.5866136E-06  0.2828230E+04  0.7818609E-02  0.8294557E-01
       -2   -1    0    0    0  501  0.00000000000E+00  0.00000000000E+00  0.19802095649E+04  0.19802095649E+04  0.25500000920E-02 0.  1.
        2   -1    0    0  501    0  0.00000000000E+00  0.00000000000E+00 -0.10098534929E+04  0.10098534929E+04  0.25500000920E-02 0. -1.
    10030    2    1    2    0    0  0.00000000000E+00  0.00000000000E+00  0.97035607205E+03  0.29900630578E+04  0.28282302210E+04 0.  0.
        5    1    3    3  502    0  0.11115768689E+03  0.92524882505E+03 -0.63928822024E+03  0.11301119140E+04  0.46999998093E+01 0. -1.
       -5    1    3    3    0  502 -0.11115768689E+03 -0.92524882505E+03  0.16096442923E+04  0.18599511438E+04  0.46999998093E+01 0.  1.
</event>
<event>
 5   0  0.2190865E-06  0.2793663E+04  0.7818609E-02  0.8305238E-01
        1   -1    0    0  501    0  0.00000000000E+00  0.00000000000E+00  0.12347276699E+04  0.12347276699E+04  0.50400001928E-02 0.  1.
       -1   -1    0    0    0  501  0.00000000000E+00  0.00000000000E+00 -0.15802172918E+04  0.15802172918E+04  0.50400001928E-02 0. -1.
    10030    2    1    2    0    0  0.00000000000E+00  0.00000000000E+00 -0.34548962192E+03  0.28149449617E+04  0.27936628391E+04 0.  0.
        2    1    3    3  502    0  0.33672999927E+03 -0.13244738455E+04 -0.46394459087E+03  0.14432126119E+04  0.25500000920E-02 0. -1.
       -2    1    3    3    0  502 -0.33672999927E+03  0.13244738455E+04  0.11845496895E+03  0.13717323498E+04  0.25500000920E-02 0.  1.
</event>
<event>
 5   0  0.5916603E-06  0.2797273E+04  0.7818609E-02  0.8304115E-01
       -2   -1    0    0    0  501  0.00000000000E+00  0.00000000000E+00  0.13127364157E+04  0.13127364157E+04  0.25500000920E-02 0. -1.
        2   -1    0    0  501    0  0.00000000000E+00  0.00000000000E+00 -0.14901576166E+04  0.14901576166E+04  0.25500000920E-02 0.  1.
    10030    2    1    2    0    0  0.00000000000E+00  0.00000000000E+00 -0.17742120084E+03  0.28028940323E+04  0.27972730782E+04 0.  0.
        2    1    3    3  502    0  0.10122013127E+04  0.26639480583E+03  0.84087472118E+03  0.13426049257E+04  0.25500000920E-02 0. -1.
       -2    1    3    3    0  502 -0.10122013127E+04 -0.26639480583E+03 -0.10182959220E+04  0.14602891066E+04  0.25500000920E-02 0.  1.
</event>
<event>
 5   0  0.2190865E-06  0.2807087E+04  0.7818609E-02  0.8301072E-01
        1   -1    0    0  501    0  0.00000000000E+00  0.00000000000E+00  0.18605794590E+04  0.18605794590E+04  0.50400001928E-02 0. -1.
       -1   -1    0    0    0  501  0.00000000000E+00  0.00000000000E+00 -0.10587746079E+04  0.10587746079E+04  0.50400001928E-02 0.  1.
    10030    2    1    2    0    0  0.00000000000E+00  0.00000000000E+00  0.80180485110E+03  0.29193540669E+04  0.28070869507E+04 0.  0.
        2    1    3    3  502    0 -0.12738376842E+04  0.47146484575E+03  0.76858521396E+03  0.15606616474E+04  0.25500000920E-02 0. -1.
       -2    1    3    3    0  502  0.12738376842E+04 -0.47146484575E+03  0.33219637136E+02  0.13586924195E+04  0.25500000920E-02 0.  1.
</event>
<event>
 5   0  0.5866136E-06  0.2790640E+04  0.7818609E-02  0.8306180E-01
        2   -1    0    0  501    0  0.00000000000E+00  0.00000000000E+00  0.20005854058E+04  0.20005854058E+04  0.25500000920E-02 0.  1.
       -2   -1    0    0    0  501  0.00000000000E+00  0.00000000000E+00 -0.97317410849E+03  0.97317410849E+03  0.25500000920E-02 0. -1.
    10030    2    1    2    0    0  0.00000000000E+00  0.00000000000E+00  0.10274112973E+04  0.29737595143E+04  0.27906400117E+04 0.  0.
        5    1    3    3  502    0  0.15097876019E+03 -0.59694982657E+03 -0.82055516077E+03  0.10259027943E+04  0.46999998093E+01 0. -1.
       -5    1    3    3    0  502 -0.15097876019E+03  0.59694982657E+03  0.18479664581E+04  0.19478567200E+04  0.46999998093E+01 0.  1.
</event>
<event>
 5   0  0.2277133E-06  0.2802437E+04  0.7818609E-02  0.8302512E-01
        1   -1    0    0  501    0  0.00000000000E+00  0.00000000000E+00  0.23409586357E+04  0.23409586357E+04  0.50400001928E-02 0.  1.
       -1   -1    0    0    0  501  0.00000000000E+00  0.00000000000E+00 -0.83872174617E+03  0.83872174619E+03  0.50400001928E-02 0. -1.
    10030    2    1    2    0    0  0.00000000000E+00  0.00000000000E+00  0.15022368895E+04  0.31796803819E+04  0.28024367359E+04 0.  0.
        1    1    3    3  502    0  0.15478445019E+03 -0.13892772420E+04  0.64132783117E+03  0.15379697228E+04  0.50400001928E-02 0. -1.
       -1    1    3    3    0  502 -0.15478445019E+03  0.13892772420E+04  0.86090905835E+03  0.16417106590E+04  0.50400001928E-02 0.  1.
</event>
<event>
 5   0  0.2190865E-06  0.2802807E+04  0.7818609E-02  0.8302398E-01
        1   -1    0    0  501    0  0.00000000000E+00  0.00000000000E+00  0.14580262556E+04  0.14580262556E+04  0.50400001928E-02 0.  1.
       -1   -1    0    0    0  501  0.00000000000E+00  0.00000000000E+00 -0.13469792598E+04  0.13469792598E+04  0.50400001928E-02 0. -1.
    10030    2    1    2    0    0  0.00000000000E+00  0.00000000000E+00  0.11104699582E+03  0.28050055154E+04  0.28028065410E+04 0.  0.
        2    1    3    3  502    0 -0.44373094694E+03  0.12348289464E+04 -0.43703277945E+03  0.13830030118E+04  0.25500000920E-02 0. -1.
       -2    1    3    3    0  502  0.44373094694E+03 -0.12348289464E+04  0.54807977528E+03  0.14220025036E+04  0.25500000920E-02 0.  1.
</event>
<event>
 5   0  0.2277133E-06  0.2722819E+04  0.7818609E-02  0.8327639E-01
        1   -1    0    0  501    0  0.00000000000E+00  0.00000000000E+00  0.15937670920E+04  0.15937670920E+04  0.50400001928E-02 0. -1.
       -1   -1    0    0    0  501  0.00000000000E+00  0.00000000000E+00 -0.11629276462E+04  0.11629276462E+04  0.50400001928E-02 0.  1.
    10030    2    1    2    0    0  0.00000000000E+00  0.00000000000E+00  0.43083944579E+03  0.27566947381E+04  0.27228189898E+04 0.  0.
        1    1    3    3  502    0  0.11779412499E+04 -0.61946339089E+02  0.90362142945E+03  0.14859053216E+04  0.50400001928E-02 0. -1.
       -1    1    3    3    0  502 -0.11779412499E+04  0.61946339089E+02 -0.47278198366E+03  0.12707894165E+04  0.50400001928E-02 0.  1.
</event>
<event>
 5   0  0.5866136E-06  0.2773180E+04  0.7818609E-02  0.8311644E-01
       -2   -1    0    0    0  501  0.00000000000E+00  0.00000000000E+00  0.12572513797E+04  0.12572513797E+04  0.25500000920E-02 0.  1.
        2   -1    0    0  501    0  0.00000000000E+00  0.00000000000E+00 -0.15292337367E+04  0.15292337367E+04  0.25500000920E-02 0. -1.
    10030    2    1    2    0    0  0.00000000000E+00  0.00000000000E+00 -0.27198235703E+03  0.27864851164E+04  0.27731795652E+04 0.  0.
        5    1    3    3  502    0  0.21942419422E+03 -0.76182384698E+03  0.10070461245E+04  0.12816733350E+04  0.46999998093E+01 0.  1.
       -5    1    3    3    0  502 -0.21942419422E+03  0.76182384698E+03 -0.12790284815E+04  0.15048117814E+04  0.46999998093E+01 0. -1.
</event>
<event>
 5   0  0.2206967E-06  0.2663690E+04  0.7818609E-02  0.8346883E-01
        1   -1    0    0  501    0  0.00000000000E+00  0.00000000000E+00  0.25590763236E+04  0.25590763236E+04  0.50400001928E-02 0. -1.
       -1   -1    0    0    0  501  0.00000000000E+00  0.00000000000E+00 -0.69314506734E+03  0.69314506736E+03  0.50400001928E-02 0.  1.
    10030    2    1    2    0    0  0.00000000000E+00  0.00000000000E+00  0.18659312563E+04  0.32522213910E+04  0.26636900200E+04 0.  0.
        5    1    3    3  502    0  0.29997122147E+02 -0.10657227051E+04 -0.41594216880E+02  0.10669662040E+04  0.46999998093E+01 0.  1.
       -5    1    3    3    0  502 -0.29997122147E+02  0.10657227051E+04  0.19075254731E+04  0.21852551870E+04  0.46999998093E+01 0. -1.
</event>
<event>
 5   0  0.2234068E-06  0.2790706E+04  0.7818609E-02  0.8306159E-01
       -1   -1    0    0    0  501  0.00000000000E+00  0.00000000000E+00  0.17641831625E+04  0.17641831625E+04  0.50400001928E-02 0. -1.
        1   -1    0    0  501    0  0.00000000000E+00  0.00000000000E+00 -0.11036329057E+04  0.11036329057E+04  0.50400001928E-02 0.  1.
    10030    2    1    2    0    0  0.00000000000E+00  0.00000000000E+00  0.66055025680E+03  0.28678160682E+04  0.27907064266E+04 0.  0.
        3    1    3    3  502    0  0.72574335574E+03 -0.10751519755E+04 -0.19808644737E+03  0.13122093734E+04  0.10100000352E+00 0.  1.
       -3    1    3    3    0  502 -0.72574335574E+03  0.10751519755E+04  0.85863670418E+03  0.15556066948E+04  0.10100000352E+00 0. -1.
</event>
<event>
 5   0  0.5584205E-06  0.2809378E+04  0.7818609E-02  0.8300363E-01
       -2   -1    0    0    0  501  0.00000000000E+00  0.00000000000E+00  0.87572613815E+03  0.87572613815E+03  0.25500000920E-02 0. -1.
        2   -1    0    0  501    0  0.00000000000E+00  0.00000000000E+00 -0.22531595230E+04  0.22531595230E+04  0.25500000920E-02 0.  1.
    10030    2    1    2    0    0  0.00000000000E+00  0.00000000000E+00 -0.13774333848E+04  0.31288856611E+04  0.28093776447E+04 0.  0.
        1    1    3    3  502    0 -0.27595877470E+03  0.12450040180E+04 -0.32691071633E+02  0.12756398223E+04  0.50400001928E-02 0. -1.
       -1    1    3    3    0  502  0.27595877470E+03 -0.12450040180E+04 -0.13447423132E+04  0.18532458388E+04  0.50400001928E-02 0.  1.
</event>
<event>
 5   0  0.2234068E-06  0.2812271E+04  0.7818609E-02  0.8299469E-01
       -1   -1    0    0    0  501  0.00000000000E+00  0.00000000000E+00  0.10596255757E+04  0.10596255757E+04  0.50400001928E-02 0.  1.
        1   -1    0    0  501    0  0.00000000000E+00  0.00000000000E+00 -0.18659585751E+04  0.18659585752E+04  0.50400001928E-02 0. -1.
    10030    2    1    2    0    0  0.00000000000E+00  0.00000000000E+00 -0.80633299948E+03  0.29255841508E+04  0.28122712738E+04 0.  0.
        3    1    3    3  502    0 -0.21725437377E+03  0.11400180223E+04 -0.12291198457E+04  0.16904366772E+04  0.10100000352E+00 0. -1.
       -3    1    3    3    0  502  0.21725437377E+03 -0.11400180223E+04  0.42278684624E+03  0.12351474737E+04  0.10100000352E+00 0.  1.
</event>
<event>
 5   0  0.5625245E-06  0.2802016E+04  0.7818609E-02  0.8302643E-01
       -2   -1    0    0    0  501  0.00000000000E+00  0.00000000000E+00  0.13140355808E+04  0.13140355808E+04  0.25500000920E-02 0. -1.
        2   -1    0    0  501    0  0.00000000000E+00  0.00000000000E+00 -0.14937370453E+04  0.14937370453E+04  0.25500000920E-02 0.  1.
    10030    2    1    2    0    0  0.00000000000E+00  0.00000000000E+00 -0.17970146441E+03  0.28077726261E+04  0.28020161498E+04 0.  0.
        3    1    3    3  502    0 -0.42630046063E+02  0.76279619408E+03  0.10869333348E+04  0.13285704494E+04  0.10100000352E+00 0. -1.
       -3    1    3    3    0  502  0.42630046063E+02 -0.76279619408E+03 -0.12666347993E+04  0.14792021767E+04  0.10100000352E+00 0.  1.
</event>
<event>
 5   0  0.2277133E-06  0.2708826E+04  0.7818609E-02  0.8332147E-01
        1   -1    0    0  501    0  0.00000000000E+00  0.00000000000E+00  0.16389466853E+04  0.16389466853E+04  0.50400001928E-02 0. -1.
       -1   -1    0    0    0  501  0.00000000000E+00  0.00000000000E+00 -0.11192765719E+04  0.11192765719E+04  0.50400001928E-02 0.  1.
    10030    2    1    2    0    0  0.00000000000E+00  0.00000000000E+00  0.51967011336E+03  0.27582232572E+04  0.27088260391E+04 0.  0.
        1    1    3    3  502    0  0.11873264022E+04 -0.65152785419E+03  0.24535972556E+03  0.13763843668E+04  0.50400001928E-02 0. -1.
       -1    1    3    3    0  502 -0.11873264022E+04  0.65152785419E+03  0.27431038780E+03  0.13818388904E+04  0.50400001928E-02 0.  1.
</event>
<event>
 5   0  0.2277133E-06  0.2826711E+04  0.7818609E-02  0.8295023E-01
        1   -1    0    0  501    0  0.00000000000E+00  0.00000000000E+00  0.17626945465E+04  0.17626945465E+04  0.50400001928E-02 0.  1.
       -1   -1    0    0    0  501  0.00000000000E+00  0.00000000000E+00 -0.11332498389E+04  0.11332498389E+04  0.50400001928E-02 0. -1.
    10030    2    1    2    0    0  0.00000000000E+00  0.00000000000E+00  0.62944470760E+03  0.28959443855E+04  0.28267106756E+04 0.  0.
        1    1    3    3  502    0 -0.62895388998E+03 -0.70571427820E+03 -0.76170585248E+03  0.12140063607E+04  0.50400001928E-02 0. -1.
       -1    1    3    3    0  502  0.62895388998E+03  0.70571427820E+03  0.13911505601E+04  0.16819380247E+04  0.50400001928E-02 0.  1.
</event>
<event>
 5   0  0.5584205E-06  0.2804600E+04  0.7818609E-02  0.8301842E-01
        2   -1    0    0  501    0  0.00000000000E+00  0.00000000000E+00  0.25922996222E+04  0.25922996222E+04  0.25500000920E-02 0. -1.
       -2   -1    0    0    0  501  0.00000000000E+00  0.00000000000E+00 -0.75857179564E+03  0.75857179564E+03  0.25500000920E-02 0.  1.
    10030    2    1    2    0    0  0.00000000000E+00  0.00000000000E+00  0.18337278266E+04  0.33508714179E+04  0.28046000637E+04 0.  0.
        1    1    3    3  502    0  0.98725889284E+03  0.76521047580E+03  0.16783579461E+04  0.20921550107E+04  0.50400001928E-02 0. -1.
       -1    1    3    3    0  502 -0.98725889284E+03 -0.76521047580E+03  0.15536988050E+03  0.12587164071E+04  0.50400001928E-02 0.  1.
</event>
<event>
 5   0  0.2234068E-06  0.2791239E+04  0.7818609E-02  0.8305993E-01
        1   -1    0    0  501    0  0.00000000000E+00  0.00000000000E+00  0.19655692535E+04  0.19655692535E+04  0.50400001928E-02 0.  1.
       -1   -1    0    0    0  501  0.00000000000E+00  0.00000000000E+00 -0.99093655945E+03  0.99093655946E+03  0.50400001928E-02 0. -1.
    10030    2    1    2    0    0  0.00000000000E+00  0.00000000000E+00  0.97463269408E+03  0.29565058130E+04  0.27912394619E+04 0.  0.
        3    1    3    3  502    0 -0.86177314390E+03  0.10959605609E+04  0.42056163482E+03  0.14562467516E+04  0.10100000352E+00 0.  1.
       -3    1    3    3    0  502  0.86177314390E+03 -0.10959605609E+04  0.55407105926E+03  0.15002590614E+04  0.10100000352E+00 0. -1.
</event>
<event>
 5   0  0.2277133E-06  0.2799354E+04  0.7818609E-02  0.8303469E-01
        1   -1    0    0  501    0  0.00000000000E+00  0.00000000000E+00  0.19452682460E+04  0.19452682460E+04  0.50400001928E-02 0.  1.
       -1   -1    0    0    0  501  0.00000000000E+00  0.00000000000E+00 -0.10071083591E+04  0.10071083592E+04  0.50400001928E-02 0. -1.
    10030    2    1    2    0    0  0.00000000000E+00  0.00000000000E+00  0.93815988686E+03  0.29523766052E+04  0.27993541479E+04 0.  0.
        1    1    3    3  502    0 -0.72091847880E+03  0.66025279224E+03  0.15255552138E+04  0.18118984279E+04  0.50400001928E-02 0.  1.
       -1    1    3    3    0  502  0.72091847880E+03 -0.66025279224E+03 -0.58739532690E+03  0.11404781773E+04  0.50400001928E-02 0. -1.
</event>
<event>
 5   0  0.5625245E-06  0.2831632E+04  0.7818609E-02  0.8293515E-01
        2   -1    0    0  501    0  0.00000000000E+00  0.00000000000E+00  0.23437840979E+04  0.23437840979E+04  0.25500000920E-02 0.  1.
       -2   -1    0    0    0  501  0.00000000000E+00  0.00000000000E+00 -0.85525550734E+03  0.85525550735E+03  0.25500000920E-02 0. -1.
    10030    2    1    2    0    0  0.00000000000E+00  0.00000000000E+00  0.14885285906E+04  0.31990396053E+04  0.28316315140E+04 0.  0.
        3    1    3    3  502    0  0.83296471989E+03 -0.47537561979E+03 -0.43237165281E+03  0.10520254088E+04  0.10100000352E+00 0. -1.
       -3    1    3    3    0  502 -0.83296471989E+03  0.47537561979E+03  0.19209002434E+04  0.21470141964E+04  0.10100000352E+00 0.  1.
</event>
<event>
 5   0  0.5866136E-06  0.2801874E+04  0.7818609E-02  0.8302687E-01
       -2   -1    0    0    0  501  0.00000000000E+00  0.00000000000E+00  0.70035060194E+03  0.70035060194E+03  0.25500000920E-02 0. -1.
        2   -1    0    0  501    0  0.00000000000E+00  0.00000000000E+00 -0.28023464823E+04  0.28023464823E+04  0.25500000920E-02 0.  1.
    10030    2    1    2    0    0  0.00000000000E+00  0.00000000000E+00 -0.21019958804E+04  0.35026970843E+04  0.28018744053E+04 0.  0.
        5    1    3    3  502    0  0.83685027293E+03 -0.32540730960E+03  0.29333535649E+03  0.94460363000E+03  0.46999998093E+01 0. -1.
       -5    1    3    3    0  502 -0.83685027293E+03  0.32540730960E+03 -0.23953312369E+04  0.25580934543E+04  0.46999998093E+01 0.  1.
</event>
<event>
 5   0  0.5916603E-06  0.2807679E+04  0.7818609E-02  0.8300888E-01
        2   -1    0    0  501    0  0.00000000000E+00  0.00000000000E+00  0.14976948350E+04  0.14976948350E+04  0.25500000920E-02 0. -1.
       -2   -1    0    0    0  501  0.00000000000E+00  0.00000000000E+00 -0.13158661502E+04  0.13158661502E+04  0.25500000920E-02 0.  1.
    10030    2    1    2    0    0  0.00000000000E+00  0.00000000000E+00  0.18182868489E+03  0.28135609852E+04  0.28076794238E+04 0.  0.
        2    1    3    3  502    0  0.79961719161E+03 -0.10808688770E+04  0.49561769185E+03  0.14329347783E+04  0.25500000920E-02 0. -1.
       -2    1    3    3    0  502 -0.79961719161E+03  0.10808688770E+04 -0.31378900696E+03  0.13806262069E+04  0.25500000920E-02 0.  1.
</event>
<event>
 5   0  0.5916603E-06  0.2796754E+04  0.7818609E-02  0.8304277E-01
        2   -1    0    0  501    0  0.00000000000E+00  0.00000000000E+00  0.89268868895E+03  0.89268868895E+03  0.25500000920E-02 0.  1.
       -2   -1    0    0    0  501  0.00000000000E+00  0.00000000000E+00 -0.21905265512E+04  0.21905265512E+04  0.25500000920E-02 0. -1.
    10030    2    1    2    0    0  0.00000000000E+00  0.00000000000E+00 -0.12978378622E+04  0.30832152401E+04  0.27967540293E+04 0.  0.
        2    1    3    3  502    0 -0.96925527105E+03 -0.15180115053E+03  0.44961938441E+03  0.10791927356E+04  0.25500000920E-02 0.  1.
       -2    1    3    3    0  502  0.96925527105E+03  0.15180115053E+03 -0.17474572466E+04  0.20040225045E+04  0.25500000920E-02 0. -1.
</event>
<event>
 5   0  0.5625245E-06  0.2985695E+04  0.7818609E-02  0.8247828E-01
       -2   -1    0    0    0  501  0.00000000000E+00  0.00000000000E+00  0.18987111024E+04  0.18987111024E+04  0.25500000920E-02 0.  1.
        2   -1    0    0  501    0  0.00000000000E+00  0.00000000000E+00 -0.11737399988E+04  0.11737399988E+04  0.25500000920E-02 0. -1.
    10030    2    1    2    0    0  0.00000000000E+00  0.00000000000E+00  0.72497110364E+03  0.30724511012E+04  0.29856946709E+04 0.  0.
        3    1    3    3  502    0 -0.10527337392E+04  0.96684224868E+03  0.80577033036E+03  0.16408223837E+04  0.10100000352E+00 0. -1.
       -3    1    3    3    0  502  0.10527337392E+04 -0.96684224868E+03 -0.80799226719E+02  0.14316287175E+04  0.10100000352E+00 0.  1.
</event>
<event>
 5   0  0.2190865E-06  0.2817937E+04  0.7818609E-02  0.8297721E-01
       -1   -1    0    0    0  501  0.00000000000E+00  0.00000000000E+00  0.11211558427E+04  0.11211558427E+04  0.50400001928E-02 0.  1.
        1   -1    0    0  501    0  0.00000000000E+00  0.00000000000E+00 -0.17706654535E+04  0.17706654535E+04  0.50400001928E-02 0. -1.
    10030    2    1    2    0    0  0.00000000000E+00  0.00000000000E+00 -0.64950961082E+03  0.28918212962E+04  0.28179367762E+04 0.  0.
        2    1    3    3  502    0 -0.46934867105E+02  0.91329290114E+03 -0.14247188970E+04  0.16929650736E+04  0.25500000920E-02 0. -1.
       -2    1    3    3    0  502  0.46934867105E+02 -0.91329290114E+03  0.77520928616E+03  0.11988562226E+04  0.25500000920E-02 0.  1.
</event>
<event>
 5   0  0.5584205E-06  0.2784902E+04  0.7818609E-02  0.8307971E-01
        2   -1    0    0  501    0  0.00000000000E+00  0.00000000000E+00  0.12540361318E+04  0.12540361318E+04  0.25500000920E-02 0.  1.
       -2   -1    0    0    0  501  0.00000000000E+00  0.00000000000E+00 -0.15461439866E+04  0.15461439866E+04  0.25500000920E-02 0. -1.
    10030    2    1    2    0    0  0.00000000000E+00  0.00000000000E+00 -0.29210785476E+03  0.28001801183E+04  0.27849024572E+04 0.  0.
        1    1    3    3  502    0 -0.13820266050E+04 -0.16430024460E+03 -0.19020742971E+03  0.14046960432E+04  0.50400001928E-02 0.  1.
       -1    1    3    3    0  502  0.13820266050E+04  0.16430024460E+03 -0.10190042505E+03  0.13954840752E+04  0.50400001928E-02 0. -1.
</event>
<event>
 5   0  0.2234068E-06  0.2793538E+04  0.7818609E-02  0.8305277E-01
       -1   -1    0    0    0  501  0.00000000000E+00  0.00000000000E+00  0.96591342821E+03  0.96591342822E+03  0.50400001928E-02 0.  1.
        1   -1    0    0  501    0  0.00000000000E+00  0.00000000000E+00 -0.20198115170E+04  0.20198115170E+04  0.50400001928E-02 0. -1.
    10030    2    1    2    0    0  0.00000000000E+00  0.00000000000E+00 -0.10538980888E+04  0.29857249452E+04  0.27935375900E+04 0.  0.
        3    1    3    3  502    0  0.18090024507E+03 -0.10721549016E+04  0.41013801186E+03  0.11620904572E+04  0.10100000352E+00 0.  1.
       -3    1    3    3    0  502 -0.18090024507E+03  0.10721549016E+04 -0.14640361006E+04  0.18236344880E+04  0.10100000352E+00 0. -1.
</event>
<event>
 5   0  0.2234068E-06  0.2781316E+04  0.7818609E-02  0.8309093E-01
        1   -1    0    0  501    0  0.00000000000E+00  0.00000000000E+00  0.14191627043E+04  0.14191627043E+04  0.50400001928E-02 0. -1.
       -1   -1    0    0    0  501  0.00000000000E+00  0.00000000000E+00 -0.13627259871E+04  0.13627259871E+04  0.50400001928E-02 0.  1.
    10030    2    1    2    0    0  0.00000000000E+00  0.00000000000E+00  0.56436717192E+02  0.27818886914E+04  0.27813161611E+04 0.  0.
        3    1    3    3  502    0  0.58724577377E+03 -0.71628706938E+03  0.10657385542E+04  0.14119927198E+04  0.10100000352E+00 0. -1.
       -3    1    3    3    0  502 -0.58724577377E+03  0.71628706938E+03 -0.10093018370E+04  0.13698959716E+04  0.10100000352E+00 0.  1.
</event>
<event>
 5   0  0.2267565E-06  0.2813220E+04  0.7818609E-02  0.8299176E-01
       -1   -1    0    0    0  501  0.00000000000E+00  0.00000000000E+00  0.10914188571E+04  0.10914188571E+04  0.50400001928E-02 0. -1.
        1   -1    0    0  501    0  0.00000000000E+00  0.00000000000E+00 -0.18128256199E+04  0.18128256199E+04  0.50400001928E-02 0.  1.
    10030    2    1    2    0    0  0.00000000000E+00  0.00000000000E+00 -0.72140676280E+03  0.29042444770E+04  0.28132202660E+04 0.  0.
        4    1    3    3  502    0  0.78575730923E+02  0.28232074627E+03  0.10595539297E+04  0.10993340221E+04  0.12699999809E+01 0. -1.
       -4    1    3    3    0  502 -0.78575730923E+02 -0.28232074627E+03 -0.17809606925E+04  0.18049104549E+04  0.12699999809E+01 0.  1.
</event>
<event>
 5   0  0.5546570E-06  0.2803193E+04  0.7818609E-02  0.8302278E-01
       -2   -1    0    0    0  501  0.00000000000E+00  0.00000000000E+00  0.12203918910E+04  0.12203918910E+04  0.25500000920E-02 0. -1.
        2   -1    0    0  501    0  0.00000000000E+00  0.00000000000E+00 -0.16097068464E+04  0.16097068464E+04  0.25500000920E-02 0.  1.
    10030    2    1    2    0    0  0.00000000000E+00  0.00000000000E+00 -0.38931495542E+03  0.28300987375E+04  0.28031933093E+04 0.  0.
        4    1    3    3  502    0  0.12477164565E+04 -0.27038268400E+03 -0.77862811516E+03  0.14953817259E+04  0.12699999809E+01 0.  1.
       -4    1    3    3    0  502 -0.12477164565E+04  0.27038268400E+03  0.38931315974E+03  0.13347170115E+04  0.12699999809E+01 0. -1.
</event>
<event>
 5   0  0.2234068E-06  0.2796326E+04  0.7818609E-02  0.8304410E-01
        1   -1    0    0  501    0  0.00000000000E+00  0.00000000000E+00  0.15811829814E+04  0.15811829814E+04  0.50400001928E-02 0. -1.
       -1   -1    0    0    0  501  0.00000000000E+00  0.00000000000E+00 -0.12363274954E+04  0.12363274955E+04  0.50400001928E-02 0.  1.
    10030    2    1    2    0    0  0.00000000000E+00  0.00000000000E+00  0.34485548599E+03  0.28175104769E+04  0.27963261579E+04 0.  0.
        3    1    3    3  502    0  0.11364400413E+04 -0.80166172253E+03  0.31740140619E+03  0.14264996137E+04  0.10100000352E+00 0. -1.
       -3    1    3    3    0  502 -0.11364400413E+04  0.80166172253E+03  0.27454079794E+02  0.13910108632E+04  0.10100000352E+00 0.  1.
</event>
<event>
 5   0  0.5866136E-06  0.2800478E+04  0.7818609E-02  0.8303120E-01
       -2   -1    0    0    0  501  0.00000000000E+00  0.00000000000E+00  0.13285078379E+04  0.13285078379E+04  0.25500000920E-02 0.  1.
        2   -1    0    0  501    0  0.00000000000E+00  0.00000000000E+00 -0.14758430379E+04  0.14758430379E+04  0.25500000920E-02 0. -1.
    10030    2    1    2    0    0  0.00000000000E+00  0.00000000000E+00 -0.14733520006E+03  0.28043508758E+04  0.28004778474E+04 0.  0.
        5    1    3    3  502    0  0.12229919230E+04  0.99164062273E+02 -0.74921469435E+03  0.14376673826E+04  0.46999998093E+01 0. -1.
       -5    1    3    3    0  502 -0.12229919230E+04 -0.99164062273E+02  0.60187949429E+03  0.13666834932E+04  0.46999998093E+01 0.  1.
</event>
<event>
 5   0  0.2234068E-06  0.2789732E+04  0.7818609E-02  0.8306463E-01
       -1   -1    0    0    0  501  0.00000000000E+00  0.00000000000E+00  0.10832517857E+04  0.10832517857E+04  0.50400001928E-02 0.  1.
        1   -1    0    0  501    0  0.00000000000E+00  0.00000000000E+00 -0.17961204874E+04  0.17961204874E+04  0.50400001928E-02 0. -1.
    10030    2    1    2    0    0  0.00000000000E+00  0.00000000000E+00 -0.71286870172E+03  0.28793722731E+04  0.27897316898E+04 0.  0.
        3    1    3    3  502    0 -0.76559809755E+03 -0.11452211473E+04 -0.13035544802E+03  0.13837140153E+04  0.10100000352E+00 0. -1.
       -3    1    3    3    0  502  0.76559809755E+03  0.11452211473E+04 -0.58251325370E+03  0.14956582578E+04  0.10100000352E+00 0.  1.
</event>
<event>
 5   0  0.5584205E-06  0.2800586E+04  0.7818609E-02  0.8303086E-01
       -2   -1    0    0    0  501  0.00000000000E+00  0.00000000000E+00  0.91939411609E+03  0.91939411609E+03  0.25500000920E-02 0. -1.
        2   -1    0    0  501    0  0.00000000000E+00  0.00000000000E+00 -0.21327314075E+04  0.21327314075E+04  0.25500000920E-02 0.  1.
    10030    2    1    2    0    0  0.00000000000E+00  0.00000000000E+00 -0.12133372915E+04  0.30521255236E+04  0.28005861581E+04 0.  0.
        1    1    3    3  502    0  0.61876318074E+03  0.10238722793E+04  0.18645916910E+03  0.12107639489E+04  0.50400001928E-02 0. -1.
       -1    1    3    3    0  502 -0.61876318074E+03 -0.10238722793E+04 -0.13997964606E+04  0.18413615748E+04  0.50400001928E-02 0.  1.
</event>
<event>
 5   0  0.2234068E-06  0.2784507E+04  0.7818609E-02  0.8308094E-01
        1   -1    0    0  501    0  0.00000000000E+00  0.00000000000E+00  0.28616025544E+04  0.28616025544E+04  0.50400001928E-02 0. -1.
       -1   -1    0    0    0  501  0.00000000000E+00  0.00000000000E+00 -0.67737224576E+03  0.67737224578E+03  0.50400001928E-02 0.  1.
    10030    2    1    2    0    0  0.00000000000E+00  0.00000000000E+00  0.21842303086E+04  0.35389748002E+04  0.27845072446E+04 0.  0.
        3    1    3    3  502    0  0.13362817261E+04 -0.39079448055E+03  0.10933610308E+04  0.17702563463E+04  0.10100000352E+00 0. -1.
       -3    1    3    3    0  502 -0.13362817261E+04  0.39079448055E+03  0.10908692779E+04  0.17687184539E+04  0.10100000352E+00 0.  1.
</event>
<event>
 5   0  0.5866136E-06  0.2795567E+04  0.7818609E-02  0.8304646E-01
       -2   -1    0    0    0  501  0.00000000000E+00  0.00000000000E+00  0.10547360297E+04  0.10547360297E+04  0.25500000920E-02 0.  1.
        2   -1    0    0  501    0  0.00000000000E+00  0.00000000000E+00 -0.18524051159E+04  0.18524051159E+04  0.25500000920E-02 0. -1.
    10030    2    1    2    0    0  0.00000000000E+00  0.00000000000E+00 -0.79766908620E+03  0.29071411456E+04  0.27955667886E+04 0.  0.
        5    1    3    3  502    0  0.31629941057E+03  0.44391863028E+03 -0.17373207194E+04  0.18208279544E+04  0.46999998093E+01 0. -1.
       -5    1    3    3    0  502 -0.31629941057E+03 -0.44391863028E+03  0.93965163324E+03  0.10863131912E+04  0.46999998093E+01 0.  1.
</event>
<event>
 5   0  0.5625245E-06  0.2772149E+04  0.7818609E-02  0.8311967E-01
        2   -1    0    0  501    0  0.00000000000E+00  0.00000000000E+00  0.11476427701E+04  0.11476427701E+04  0.25500000920E-02 0.  1.
       -2   -1    0    0    0  501  0.00000000000E+00  0.00000000000E+00 -0.16740423827E+04  0.16740423827E+04  0.25500000920E-02 0. -1.
    10030    2    1    2    0    0  0.00000000000E+00  0.00000000000E+00 -0.52639961264E+03  0.28216851528E+04  0.27721490850E+04 0.  0.
        3    1    3    3  502    0  0.12806164791E+04 -0.29479394708E+02 -0.80214691114E+03  0.15113858801E+04  0.10100000352E+00 0. -1.
       -3    1    3    3    0  502 -0.12806164791E+04  0.29479394708E+02  0.27574729849E+03  0.13102992727E+04  0.10100000352E+00 0.  1.
</event>
<event>
 5   0  0.5625245E-06  0.2813845E+04  0.7818609E-02  0.8298983E-01
        2   -1    0    0  501    0  0.00000000000E+00  0.00000000000E+00  0.24677479407E+04  0.24677479407E+04  0.25500000920E-02 0.  1.
       -2   -1    0    0    0  501  0.00000000000E+00  0.00000000000E+00 -0.80212055273E+03  0.80212055274E+03  0.25500000920E-02 0. -1.
    10030    2    1    2    0    0  0.00000000000E+00  0.00000000000E+00  0.16656273880E+04  0.32698684935E+04  0.28138452994E+04 0.  0.
        3    1    3    3  502    0  0.12339167986E+03  0.30875030648E+03 -0.75580866350E+03  0.82571121128E+03  0.10100000352E+00 0. -1.
       -3    1    3    3    0  502 -0.12339167986E+03 -0.30875030648E+03  0.24214360515E+04  0.24441572822E+04  0.10100000352E+00 0.  1.
</event>
<event>
 5   0  0.2277133E-06  0.2837846E+04  0.7818609E-02  0.8291614E-01
        1   -1    0    0  501    0  0.00000000000E+00  0.00000000000E+00  0.11022701005E+04  0.11022701005E+04  0.50400001928E-02 0. -1.
       -1   -1    0    0    0  501  0.00000000000E+00  0.00000000000E+00 -0.18265417802E+04  0.18265417802E+04  0.50400001928E-02 0.  1.
    10030    2    1    2    0    0  0.00000000000E+00  0.00000000000E+00 -0.72427167974E+03  0.29288118808E+04  0.28378459378E+04 0.  0.
        1    1    3    3  502    0 -0.64637367442E+03  0.88576447986E+03  0.56726626533E+03  0.12345722565E+04  0.50400001928E-02 0.  1.
       -1    1    3    3    0  502  0.64637367442E+03 -0.88576447986E+03 -0.12915379451E+04  0.16942396242E+04  0.50400001928E-02 0. -1.
</event>
<event>
 5   0  0.2267565E-06  0.2807731E+04  0.7818609E-02  0.8300872E-01
       -1   -1    0    0    0  501  0.00000000000E+00  0.00000000000E+00  0.10095315358E+04  0.10095315358E+04  0.50400001928E-02 0. -1.
        1   -1    0    0  501    0  0.00000000000E+00  0.00000000000E+00 -0.19522300632E+04  0.19522300632E+04  0.50400001928E-02 0.  1.
    10030    2    1    2    0    0  0.00000000000E+00  0.00000000000E+00 -0.94269852745E+03  0.29617615990E+04  0.28077306238E+04 0.  0.
        4    1    3    3  502    0 -0.19263385834E+03 -0.56047637045E+03 -0.18137983509E+04  0.19081686602E+04  0.12699999809E+01 0.  1.
       -4    1    3    3    0  502  0.19263385834E+03  0.56047637045E+03  0.87109982347E+03  0.10535929387E+04  0.12699999809E+01 0. -1.
</event>
<event>
 5   0  0.2277133E-06  0.2692647E+04  0.7818609E-02  0.8337395E-01
        1   -1    0    0  501    0  0.00000000000E+00  0.00000000000E+00  0.12452598335E+04  0.12452598335E+04  0.50400001928E-02 0. -1.
       -1   -1    0    0    0  501  0.00000000000E+00  0.00000000000E+00 -0.14555892421E+04  0.14555892421E+04  0.50400001928E-02 0.  1.
    10030    2    1    2    0    0  0.00000000000E+00  0.00000000000E+00 -0.21032940861E+03  0.27008490756E+04  0.26926468890E+04 0.  0.
        1    1    3    3  502    0 -0.94401785018E+03  0.94093298109E+03  0.85314367845E+02  0.13355909245E+04  0.50400001928E-02 0.  1.
       -1    1    3    3    0  502  0.94401785018E+03 -0.94093298109E+03 -0.29564377646E+03  0.13652581510E+04  0.50400001928E-02 0. -1.
</event>
<event>
 5   0  0.1901375E-06  0.2804757E+04  0.7818609E-02  0.8301793E-01
       -3   -1    0    0    0  501  0.00000000000E+00  0.00000000000E+00  0.13937560741E+04  0.13937560778E+04  0.10100000352E+00 0.  1.
        3   -1    0    0  501    0  0.00000000000E+00  0.00000000000E+00 -0.14110543390E+04  0.14110543426E+04  0.10100000352E+00 0. -1.
    10030    2    1    2    0    0  0.00000000000E+00  0.00000000000E+00 -0.17298264840E+02  0.28048104204E+04  0.28047570776E+04 0.  0.
        5    1    3    3  502    0  0.41971369755E+03 -0.86265743468E+03 -0.10315596064E+04  0.14087138634E+04  0.46999998093E+01 0. -1.
       -5    1    3    3    0  502 -0.41971369755E+03  0.86265743468E+03  0.10142613415E+04  0.13960965570E+04  0.46999998093E+01 0.  1.
</event>
<event>
 5   0  0.2206967E-06  0.2793497E+04  0.7818609E-02  0.8305290E-01
        1   -1    0    0  501    0  0.00000000000E+00  0.00000000000E+00  0.14961024493E+04  0.14961024494E+04  0.50400001928E-02 0.  1.
       -1   -1    0    0    0  501  0.00000000000E+00  0.00000000000E+00 -0.13039920626E+04  0.13039920626E+04  0.50400001928E-02 0. -1.
    10030    2    1    2    0    0  0.00000000000E+00  0.00000000000E+00  0.19211038674E+03  0.28000945120E+04  0.27934965322E+04 0.  0.
        5    1    3    3  502    0 -0.50892538711E+03 -0.10650127734E+04  0.84456277918E+03  0.14514012661E+04  0.46999998093E+01 0.  1.
       -5    1    3    3    0  502  0.50892538711E+03  0.10650127734E+04 -0.65245239244E+03  0.13486932459E+04  0.46999998093E+01 0. -1.
</event>
<event>
 5   0  0.2267565E-06  0.2726808E+04  0.7818609E-02  0.8326359E-01
       -1   -1    0    0    0  501  0.00000000000E+00  0.00000000000E+00  0.11471142329E+04  0.11471142329E+04  0.50400001928E-02 0. -1.
        1   -1    0    0  501    0  0.00000000000E+00  0.00000000000E+00 -0.16204753900E+04  0.16204753900E+04  0.50400001928E-02 0.  1.
    10030    2    1    2    0    0  0.00000000000E+00  0.00000000000E+00 -0.47336115705E+03  0.27675896229E+04  0.27268079389E+04 0.  0.
        4    1    3    3  502    0 -0.33785952225E+03  0.37229224620E+03 -0.15229616987E+04  0.16037969080E+04  0.12699999809E+01 0.  1.
       -4    1    3    3    0  502  0.33785952225E+03 -0.37229224620E+03  0.10496005416E+04  0.11637927149E+04  0.12699999809E+01 0. -1.
</event>
<event>
 5   0  0.2190865E-06  0.2807042E+04  0.7818609E-02  0.8301085E-01
        1   -1    0    0  501    0  0.00000000000E+00  0.00000000000E+00  0.97023848260E+03  0.97023848261E+03  0.50400001928E-02 0.  1.
       -1   -1    0    0    0  501  0.00000000000E+00  0.00000000000E+00 -0.20302956140E+04  0.20302956140E+04  0.50400001928E-02 0. -1.
    10030    2    1    2    0    0  0.00000000000E+00  0.00000000000E+00 -0.10600571314E+04  0.30005340966E+04  0.28070418136E+04 0.  0.
        2    1    3    3  502    0  0.10345264368E+04 -0.82097110325E+03 -0.10377791706E+04  0.16796499956E+04  0.25500000920E-02 0.  1.
       -2    1    3    3    0  502 -0.10345264368E+04  0.82097110325E+03 -0.22277960827E+02  0.13208841010E+04  0.25500000920E-02 0. -1.
</event>
<event>
 5   0  0.5916603E-06  0.2789050E+04  0.7818609E-02  0.8306676E-01
        2   -1    0    0  501    0  0.00000000000E+00  0.00000000000E+00  0.20794941682E+04  0.20794941682E+04  0.25500000920E-02 0. -1.
       -2   -1    0    0    0  501  0.00000000000E+00  0.00000000000E+00 -0.93517950072E+03  0.93517950072E+03  0.25500000920E-02 0.  1.
    10030    2    1    2    0    0  0.00000000000E+00  0.00000000000E+00  0.11443146675E+04  0.30146736689E+04  0.27890502455E+04 0.  0.
        2    1    3    3  502    0 -0.12863061949E+02  0.13422589825E+04  0.16359048028E+03  0.13522523728E+04  0.25500000920E-02 0.  1.
       -2    1    3    3    0  502  0.12863061949E+02 -0.13422589825E+04  0.98072418719E+03  0.16624212961E+04  0.25500000920E-02 0. -1.
</event>
<event>
 5   0  0.2206967E-06  0.2831276E+04  0.7818609E-02  0.8293624E-01
       -1   -1    0    0    0  501  0.00000000000E+00  0.00000000000E+00  0.78525193896E+03  0.78525193897E+03  0.50400001928E-02 0.  1.
        1   -1    0    0  501    0  0.00000000000E+00  0.00000000000E+00 -0.25520872826E+04  0.25520872826E+04  0.50400001928E-02 0. -1.
    10030    2    1    2    0    0  0.00000000000E+00  0.00000000000E+00 -0.17668353437E+04  0.33373392216E+04  0.28312763815E+04 0.  0.
        5    1    3    3  502    0  0.54667601416E+03 -0.70376485144E+03 -0.21799620862E+04  0.23550788559E+04  0.46999998093E+01 0. -1.
       -5    1    3    3    0  502 -0.54667601416E+03  0.70376485144E+03  0.41312674250E+03  0.98226036566E+03  0.46999998093E+01 0.  1.
</event>
<event>
 5   0  0.2234068E-06  0.2799979E+04  0.7818609E-02  0.8303275E-01
        1   -1    0    0  501    0  0.00000000000E+00  0.00000000000E+00  0.17202697461E+04  0.17202697461E+04  0.50400001928E-02 0.  1.
       -1   -1    0    0    0  501  0.00000000000E+00  0.00000000000E+00 -0.11393392740E+04  0.11393392740E+04  0.50400001928E-02 0. -1.
    10030    2    1    2    0    0  0.00000000000E+00  0.00000000000E+00  0.58093047212E+03  0.28596090201E+04  0.27999792025E+04 0.  0.
        3    1    3    3  502    0 -0.64341839759E+03  0.81042270196E+03 -0.67259013616E+03  0.12341595082E+04  0.10100000352E+00 0. -1.
       -3    1    3    3    0  502  0.64341839759E+03 -0.81042270196E+03  0.12535206083E+04  0.16254495119E+04  0.10100000352E+00 0.  1.
</event>
<event>
 5   0  0.5916603E-06  0.2806357E+04  0.7818609E-02  0.8301298E-01
        2   -1    0    0  501    0  0.00000000000E+00  0.00000000000E+00  0.17341603976E+04  0.17341603976E+04  0.25500000920E-02 0.  1.
       -2   -1    0    0    0  501  0.00000000000E+00  0.00000000000E+00 -0.11353677629E+04  0.11353677629E+04  0.25500000920E-02 0. -1.
    10030    2    1    2    0    0  0.00000000000E+00  0.00000000000E+00  0.59879263463E+03  0.28695281605E+04  0.28063569346E+04 0.  0.
        2    1    3    3  502    0 -0.31031416520E+03  0.37425788700E+03 -0.10464949228E+04  0.11539131122E+04  0.25500000920E-02 0. -1.
       -2    1    3    3    0  502  0.31031416520E+03 -0.37425788700E+03  0.16452875575E+04  0.17156150483E+04  0.25500000920E-02 0.  1.
</event>
<event>
 5   0  0.2190865E-06  0.2758598E+04  0.7818609E-02  0.8316239E-01
        1   -1    0    0  501    0  0.00000000000E+00  0.00000000000E+00  0.18210535446E+04  0.18210535446E+04  0.50400001928E-02 0. -1.
       -1   -1    0    0    0  501  0.00000000000E+00  0.00000000000E+00 -0.10447059536E+04  0.10447059536E+04  0.50400001928E-02 0.  1.
    10030    2    1    2    0    0  0.00000000000E+00  0.00000000000E+00  0.77634759093E+03  0.28657594982E+04  0.27585978176E+04 0.  0.
        2    1    3    3  502    0 -0.14386691630E+03 -0.76465167085E+03 -0.79496037933E+03  0.11123631925E+04  0.25500000920E-02 0.  1.
       -2    1    3    3    0  502  0.14386691630E+03  0.76465167085E+03  0.15713079703E+04  0.17533963057E+04  0.25500000920E-02 0. -1.
</event>
<event>
 5   0  0.2206967E-06  0.2803579E+04  0.7818609E-02  0.8302158E-01
        1   -1    0    0  501    0  0.00000000000E+00  0.00000000000E+00  0.12578089633E+04  0.12578089634E+04  0.50400001928E-02 0.  1.
       -1   -1    0    0    0  501  0.00000000000E+00  0.00000000000E+00 -0.15622512032E+04  0.15622512032E+04  0.50400001928E-02 0. -1.
    10030    2    1    2    0    0  0.00000000000E+00  0.00000000000E+00 -0.30444223984E+03  0.28200601665E+04  0.28035788317E+04 0.  0.
        5    1    3    3  502    0 -0.90399159800E+03  0.57195280667E+03  0.75900761824E+03  0.13116575303E+04  0.46999998093E+01 0.  1.
       -5    1    3    3    0  502  0.90399159800E+03 -0.57195280667E+03 -0.10634498581E+04  0.15084026362E+04  0.46999998093E+01 0. -1.
</event>
<event>
 5   0  0.5584205E-06  0.2669191E+04  0.7818609E-02  0.8345071E-01
       -2   -1    0    0    0  501  0.00000000000E+00  0.00000000000E+00  0.10580220584E+04  0.10580220584E+04  0.25500000920E-02 0. -1.
        2   -1    0    0  501    0  0.00000000000E+00  0.00000000000E+00 -0.16834666487E+04  0.16834666487E+04  0.25500000920E-02 0.  1.
    10030    2    1    2    0    0  0.00000000000E+00  0.00000000000E+00 -0.62544459038E+03  0.27414887071E+04  0.26691907754E+04 0.  0.
        1    1    3    3  502    0 -0.36063623141E+03  0.51804878742E+03  0.89501556922E+03  0.10952104395E+04  0.50400001928E-02 0. -1.
       -1    1    3    3    0  502  0.36063623141E+03 -0.51804878742E+03 -0.15204601596E+04  0.16462782676E+04  0.50400001928E-02 0.  1.
</event>
<event>
 5   0  0.5916603E-06  0.2804734E+04  0.7818609E-02  0.8301800E-01
        2   -1    0    0  501    0  0.00000000000E+00  0.00000000000E+00  0.23114073024E+04  0.23114073024E+04  0.25500000920E-02 0. -1.
       -2   -1    0    0    0  501  0.00000000000E+00  0.00000000000E+00 -0.85083799773E+03  0.85083799773E+03  0.25500000920E-02 0.  1.
    10030    2    1    2    0    0  0.00000000000E+00  0.00000000000E+00  0.14605693047E+04  0.31622453001E+04  0.28047339704E+04 0.  0.
        2    1    3    3  502    0 -0.78215819855E+03 -0.11639415991E+04  0.74165292950E+03  0.15863733992E+04  0.25500000920E-02 0. -1.
       -2    1    3    3    0  502  0.78215819855E+03  0.11639415991E+04  0.71891637519E+03  0.15758719010E+04  0.25500000920E-02 0.  1.
</event>
<event>
 5   0  0.5546570E-06  0.2824907E+04  0.7818609E-02  0.8295577E-01
        2   -1    0    0  501    0  0.00000000000E+00  0.00000000000E+00  0.24600390204E+04  0.24600390205E+04  0.25500000920E-02 0.  1.
       -2   -1    0    0    0  501  0.00000000000E+00  0.00000000000E+00 -0.81097311554E+03  0.81097311554E+03  0.25500000920E-02 0. -1.
    10030    2    1    2    0    0  0.00000000000E+00  0.00000000000E+00  0.16490659049E+04  0.32710121360E+04  0.28249074383E+04 0.  0.
        4    1    3    3  502    0  0.82197642487E+03  0.39330731747E+03 -0.42510076558E+03  0.10055089074E+04  0.12699999809E+01 0. -1.
       -4    1    3    3    0  502 -0.82197642487E+03 -0.39330731747E+03  0.20741666705E+04  0.22655032286E+04  0.12699999809E+01 0.  1.
</event>
<event>
 5   0  0.5866136E-06  0.2795361E+04  0.7818609E-02  0.8304710E-01
       -2   -1    0    0    0  501  0.00000000000E+00  0.00000000000E+00  0.14976565941E+04  0.14976565941E+04  0.25500000920E-02 0.  1.
        2   -1    0    0  501    0  0.00000000000E+00  0.00000000000E+00 -0.13043786413E+04  0.13043786413E+04  0.25500000920E-02 0. -1.
    10030    2    1    2    0    0  0.00000000000E+00  0.00000000000E+00  0.19327795287E+03  0.28020352354E+04  0.27953613529E+04 0.  0.
        5    1    3    3  502    0 -0.29802861412E+00  0.13779299219E+04 -0.13801011710E+03  0.13848320623E+04  0.46999998093E+01 0. -1.
       -5    1    3    3    0  502  0.29802861412E+00 -0.13779299219E+04  0.33128806997E+03  0.14172031731E+04  0.46999998093E+01 0.  1.
</event>
<event>
 5   0  0.5546570E-06  0.2812471E+04  0.7818609E-02  0.8299407E-01
       -2   -1    0    0    0  501  0.00000000000E+00  0.00000000000E+00  0.11105544981E+04  0.11105544981E+04  0.25500000920E-02 0.  1.
        2   -1    0    0  501    0  0.00000000000E+00  0.00000000000E+00 -0.17806400225E+04  0.17806400225E+04  0.25500000920E-02 0. -1.
    10030    2    1    2    0    0  0.00000000000E+00  0.00000000000E+00 -0.67008552433E+03  0.28911945206E+04  0.28124706480E+04 0.  0.
        4    1    3    3  502    0  0.26896055824E+03 -0.10382996616E+04  0.59985851295E+03  0.12289173355E+04  0.12699999809E+01 0.  1.
       -4    1    3    3    0  502 -0.26896055824E+03  0.10382996616E+04 -0.12699440373E+04  0.16622771850E+04  0.12699999809E+01 0. -1.
</event>
<event>
 5   0  0.5584205E-06  0.2792817E+04  0.7818609E-02  0.8305502E-01
        2   -1    0    0  501    0  0.00000000000E+00  0.00000000000E+00  0.26862090673E+04  0.26862090673E+04  0.25500000920E-02 0. -1.
       -2   -1    0    0    0  501  0.00000000000E+00  0.00000000000E+00 -0.72591401479E+03  0.72591401479E+03  0.25500000920E-02 0.  1.
    10030    2    1    2    0    0  0.00000000000E+00  0.00000000000E+00  0.19602950525E+04  0.34121230821E+04  0.27928170786E+04 0.  0.
        1    1    3    3  502    0  0.51896386826E+03 -0.62150639874E+03  0.23701329954E+04  0.25046205533E+04  0.50400001928E-02 0. -1.
       -1    1    3    3    0  502 -0.51896386826E+03  0.62150639874E+03 -0.40983794290E+03  0.90750252876E+03  0.50400001928E-02 0.  1.
</event>
<event>
 5   0  0.2267565E-06  0.2805680E+04  0.7818609E-02  0.8301507E-01
        1   -1    0    0  501    0  0.00000000000E+00  0.00000000000E+00  0.13307252609E+04  0.13307252609E+04  0.50400001928E-02 0. -1.
       -1   -1    0    0    0  501  0.00000000000E+00  0.00000000000E+00 -0.14788629995E+04  0.14788629995E+04  0.50400001928E-02 0.  1.
    10030    2    1    2    0    0  0.00000000000E+00  0.00000000000E+00 -0.14813773862E+03  0.28095882604E+04  0.28056802033E+04 0.  0.
        4    1    3    3  502    0 -0.12064647788E+03  0.12979648832E+04 -0.59314436560E+03  0.14321627917E+04  0.12699999809E+01 0.  1.
       -4    1    3    3    0  502  0.12064647788E+03 -0.12979648832E+04  0.44500662698E+03  0.13774254686E+04  0.12699999809E+01 0. -1.
</event>
<event>
 5   0  0.5916603E-06  0.2801982E+04  0.7818609E-02  0.8302653E-01
        2   -1    0    0  501    0  0.00000000000E+00  0.00000000000E+00  0.16812235782E+04  0.16812235782E+04  0.25500000920E-02 0. -1.
       -2   -1    0    0    0  501  0.00000000000E+00  0.00000000000E+00 -0.11674683056E+04  0.11674683056E+04  0.25500000920E-02 0.  1.
    10030    2    1    2    0    0  0.00000000000E+00  0.00000000000E+00  0.51375527263E+03  0.28486918838E+04  0.28019816147E+04 0.  0.
        2    1    3    3  502    0  0.61055383699E+03  0.10517821343E+04  0.96399630019E+03  0.15518732270E+04  0.25500000920E-02 0.  1.
       -2    1    3    3    0  502 -0.61055383699E+03 -0.10517821343E+04 -0.45024102756E+03  0.12968186569E+04  0.25500000920E-02 0. -1.
</event>
<event>
 5   0  0.5625245E-06  0.2919380E+04  0.7818609E-02  0.8267135E-01
        2   -1    0    0  501    0  0.00000000000E+00  0.00000000000E+00  0.10688863452E+04  0.10688863452E+04  0.25500000920E-02 0. -1.
       -2   -1    0    0    0  501  0.00000000000E+00  0.00000000000E+00 -0.19933777350E+04  0.19933777350E+04  0.25500000920E-02 0.  1.
    10030    2    1    2    0    0  0.00000000000E+00  0.00000000000E+00 -0.92449138980E+03  0.30622640802E+04  0.29193795517E+04 0.  0.
        3    1    3    3  502    0 -0.14064402704E+03  0.92110283564E+03 -0.16408414087E+04  0.18869477245E+04  0.10100000352E+00 0.  1.
       -3    1    3    3    0  502  0.14064402704E+03 -0.92110283564E+03  0.71635001894E+03  0.11753163557E+04  0.10100000352E+00 0. -1.
</event>
<event>
 5   0  0.5866136E-06  0.2735017E+04  0.7818609E-02  0.8323732E-01
        2   -1    0    0  501    0  0.00000000000E+00  0.00000000000E+00  0.17401528790E+04  0.17401528790E+04  0.25500000920E-02 0. -1.
       -2   -1    0    0    0  501  0.00000000000E+00  0.00000000000E+00 -0.10746642473E+04  0.10746642473E+04  0.25500000920E-02 0.  1.
    10030    2    1    2    0    0  0.00000000000E+00  0.00000000000E+00  0.66548863168E+03  0.28148171264E+04  0.27350174288E+04 0.  0.
        5    1    3    3  502    0  0.95606852990E+03  0.58290649452E+03  0.11406390965E+04  0.15984137930E+04  0.46999998093E+01 0. -1.
       -5    1    3    3    0  502 -0.95606852990E+03 -0.58290649452E+03 -0.47515046480E+03  0.12164033334E+04  0.46999998093E+01 0.  1.
</event>
<event>
 5   0  0.5584205E-06  0.2772610E+04  0.7818609E-02  0.8311822E-01
       -2   -1    0    0    0  501  0.00000000000E+00  0.00000000000E+00  0.96153266132E+03  0.96153266132E+03  0.25500000920E-02 0.  1.
        2   -1    0    0  501    0  0.00000000000E+00  0.00000000000E+00 -0.19987278913E+04  0.19987278913E+04  0.25500000920E-02 0. -1.
    10030    2    1    2    0    0  0.00000000000E+00  0.00000000000E+00 -0.10371952300E+04  0.29602605526E+04  0.27726104296E+04 0.  0.
        1    1    3    3  502    0 -0.58406147604E+03 -0.74891435203E+03  0.55962256096E+03  0.11023510898E+04  0.50400001928E-02 0.  1.
       -1    1    3    3    0  502  0.58406147604E+03  0.74891435203E+03 -0.15968177910E+04  0.18579094628E+04  0.50400001928E-02 0. -1.
</event>
<event>
 5   0  0.2277133E-06  0.2798919E+04  0.7818609E-02  0.8303604E-01
        1   -1    0    0  501    0  0.00000000000E+00  0.00000000000E+00  0.15465074857E+04  0.15465074858E+04  0.50400001928E-02 0. -1.
       -1   -1    0    0    0  501  0.00000000000E+00  0.00000000000E+00 -0.12663929756E+04  0.12663929756E+04  0.50400001928E-02 0.  1.
    10030    2    1    2    0    0  0.00000000000E+00  0.00000000000E+00  0.28011451013E+03  0.28129004614E+04  0.27989185174E+04 0.  0.
        1    1    3    3  502    0 -0.90625936013E+03 -0.10484969267E+04 -0.55425045044E+02  0.13869836945E+04  0.50400001928E-02 0.  1.
       -1    1    3    3    0  502  0.90625936013E+03  0.10484969267E+04  0.33553955517E+03  0.14259167669E+04  0.50400001928E-02 0. -1.
</event>
<event>
 5   0  0.5916603E-06  0.2803721E+04  0.7818609E-02  0.8302114E-01
       -2   -1    0    0    0  501  0.00000000000E+00  0.00000000000E+00  0.19149307011E+04  0.19149307011E+04  0.25500000920E-02 0.  1.
        2   -1    0    0  501    0  0.00000000000E+00  0.00000000000E+00 -0.10262581352E+04  0.10262581352E+04  0.25500000920E-02 0. -1.
    10030    2    1    2    0    0  0.00000000000E+00  0.00000000000E+00  0.88867256587E+03  0.29411888363E+04  0.28037212489E+04 0.  0.
        2    1    3    3  502    0  0.11873295664E+03 -0.46984404028E+03  0.18242648157E+04  0.18875362394E+04  0.25500000920E-02 0.  1.
       -2    1    3    3    0  502 -0.11873295664E+03  0.46984404028E+03 -0.93559224980E+03  0.10536525970E+04  0.25500000920E-02 0. -1.
</event>
<event>
 5   0  0.2206967E-06  0.2778238E+04  0.7818609E-02  0.8310056E-01
        1   -1    0    0  501    0  0.00000000000E+00  0.00000000000E+00  0.16242861623E+04  0.16242861623E+04  0.50400001928E-02 0. -1.
       -1   -1    0    0    0  501  0.00000000000E+00  0.00000000000E+00 -0.11880001134E+04  0.11880001134E+04  0.50400001928E-02 0.  1.
    10030    2    1    2    0    0  0.00000000000E+00  0.00000000000E+00  0.43628604891E+03  0.28122862757E+04  0.27782383951E+04 0.  0.
        5    1    3    3  502    0 -0.11962287082E+04  0.65108092016E+03 -0.58631628555E+02  0.13632055035E+04  0.46999998093E+01 0.  1.
       -5    1    3    3    0  502  0.11962287082E+04 -0.65108092016E+03  0.49491767747E+03  0.14490807722E+04  0.46999998093E+01 0. -1.
</event>
<event>
 5   0  0.5866136E-06  0.2819050E+04  0.7818609E-02  0.8297378E-01
        2   -1    0    0  501    0  0.00000000000E+00  0.00000000000E+00  0.15181521925E+04  0.15181521925E+04  0.25500000920E-02 0. -1.
       -2   -1    0    0    0  501  0.00000000000E+00  0.00000000000E+00 -0.13086700376E+04  0.13086700376E+04  0.25500000920E-02 0.  1.
    10030    2    1    2    0    0  0.00000000000E+00  0.00000000000E+00  0.20948215494E+03  0.28268222301E+04  0.28190496887E+04 0.  0.
        5    1    3    3  502    0 -0.93844492574E+03  0.97804604928E+03  0.49244029910E+03  0.14421416336E+04  0.46999998093E+01 0. -1.
       -5    1    3    3    0  502  0.93844492574E+03 -0.97804604928E+03 -0.28295814416E+03  0.13846805966E+04  0.46999998093E+01 0.  1.
</event>
<event>
 5   0  0.2267565E-06  0.3012088E+04  0.7818609E-02  0.8240287E-01
       -1   -1    0    0    0  501  0.00000000000E+00  0.00000000000E+00  0.11457552476E+04  0.11457552476E+04  0.50400001928E-02 0. -1.
        1   -1    0    0  501    0  0.00000000000E+00  0.00000000000E+00 -0.19796277187E+04  0.19796277187E+04  0.50400001928E-02 0.  1.
    10030    2    1    2    0    0  0.00000000000E+00  0.00000000000E+00 -0.83387247115E+03  0.31253829663E+04  0.30120882105E+04 0.  0.
        4    1    3    3  502    0 -0.13667296543E+03 -0.11299304404E+04 -0.14403118015E+04  0.18357347298E+04  0.12699999809E+01 0.  1.
       -4    1    3    3    0  502  0.13667296543E+03  0.11299304404E+04  0.60643933035E+03  0.12896482365E+04  0.12699999809E+01 0. -1.
</event>
<event>
 5   0  0.5546570E-06  0.2807268E+04  0.7818609E-02  0.8301016E-01
       -2   -1    0    0    0  501  0.00000000000E+00  0.00000000000E+00  0.94947746221E+03  0.94947746222E+03  0.25500000920E-02 0.  1.
        2   -1    0    0  501    0  0.00000000000E+00  0.00000000000E+00 -0.20750237825E+04  0.20750237825E+04  0.25500000920E-02 0. -1.
    10030    2    1    2    0    0  0.00000000000E+00  0.00000000000E+00 -0.11255463203E+04  0.30245012448E+04  0.28072679353E+04 0.  0.
        4    1    3    3  502    0  0.12478495869E+04 -0.20744892363E+03 -0.12181397454E+04  0.17561405694E+04  0.12699999809E+01 0. -1.
       -4    1    3    3    0  502 -0.12478495869E+04  0.20744892363E+03  0.92593425051E+02  0.12683606753E+04  0.12699999809E+01 0.  1.
</event>
<event>
 5   0  0.2277133E-06  0.2809668E+04  0.7818609E-02  0.8300273E-01
        1   -1    0    0  501    0  0.00000000000E+00  0.00000000000E+00  0.21768399977E+04  0.21768399977E+04  0.50400001928E-02 0. -1.
       -1   -1    0    0    0  501  0.00000000000E+00  0.00000000000E+00 -0.90661617492E+03  0.90661617494E+03  0.50400001928E-02 0.  1.
    10030    2    1    2    0    0  0.00000000000E+00  0.00000000000E+00  0.12702238227E+04  0.30834561726E+04  0.28096678467E+04 0.  0.
        1    1    3    3  502    0  0.63983202697E+03  0.11040452703E+04  0.12799553388E+04  0.18073700924E+04  0.50400001928E-02 0. -1.
       -1    1    3    3    0  502 -0.63983202697E+03 -0.11040452703E+04 -0.97315160694E+01  0.12760860802E+04  0.50400001928E-02 0.  1.
</event>
<event>
 5   0  0.5584205E-06  0.2752510E+04  0.7818609E-02  0.8318166E-01
        2   -1    0    0  501    0  0.00000000000E+00  0.00000000000E+00  0.16328208464E+04  0.16328208464E+04  0.25500000920E-02 0. -1.
       -2   -1    0    0    0  501  0.00000000000E+00  0.00000000000E+00 -0.11600035169E+04  0.11600035169E+04  0.25500000920E-02 0.  1.
    10030    2    1    2    0    0  0.00000000000E+00  0.00000000000E+00  0.47281732951E+03  0.27928243632E+04  0.27525100720E+04 0.  0.
        1    1    3    3  502    0  0.71530826937E+02 -0.37632623316E+03  0.15776390880E+04  0.16234787295E+04  0.50400001928E-02 0. -1.
       -1    1    3    3    0  502 -0.71530826937E+02  0.37632623316E+03 -0.11048217585E+04  0.11693456337E+04  0.50400001928E-02 0.  1.
</event>
<event>
 5   0  0.2267565E-06  0.2791428E+04  0.7818609E-02  0.8305935E-01
        1   -1    0    0  501    0  0.00000000000E+00  0.00000000000E+00  0.13694054903E+04  0.13694054903E+04  0.50400001928E-02 0. -1.
       -1   -1    0    0    0  501  0.00000000000E+00  0.00000000000E+00 -0.14225275527E+04  0.14225275527E+04  0.50400001928E-02 0.  1.
    10030    2    1    2    0    0  0.00000000000E+00  0.00000000000E+00 -0.53122062373E+02  0.27919330430E+04  0.27914276210E+04 0.  0.
        4    1    3    3  502    0 -0.96181337622E+03 -0.94861475702E+03  0.32430228577E+03  0.13892906511E+04  0.12699999809E+01 0. -1.
       -4    1    3    3    0  502  0.96181337622E+03  0.94861475702E+03 -0.37742434814E+03  0.14026423918E+04  0.12699999809E+01 0.  1.
</event>
<event>
 5   0  0.5625245E-06  0.2799709E+04  0.7818609E-02  0.8303359E-01
        2   -1    0    0  501    0  0.00000000000E+00  0.00000000000E+00  0.15179741730E+04  0.15179741730E+04  0.25500000920E-02 0.  1.
       -2   -1    0    0    0  501  0.00000000000E+00  0.00000000000E+00 -0.12909262399E+04  0.12909262399E+04  0.25500000920E-02 0. -1.
    10030    2    1    2    0    0  0.00000000000E+00  0.00000000000E+00  0.22704793308E+03  0.28089004130E+04  0.27997090503E+04 0.  0.
        3    1    3    3  502    0 -0.57236588197E+03 -0.65895450579E+03  0.12115432413E+04  0.14932048685E+04  0.10100000352E+00 0.  1.
       -3    1    3    3    0  502  0.57236588197E+03  0.65895450579E+03 -0.98449530825E+03  0.13156955445E+04  0.10100000352E+00 0. -1.
</event>
<event>
 5   0  0.2234068E-06  0.2794199E+04  0.7818609E-02  0.8305072E-01
       -1   -1    0    0    0  501  0.00000000000E+00  0.00000000000E+00  0.11497123798E+04  0.11497123798E+04  0.50400001928E-02 0. -1.
        1   -1    0    0  501    0  0.00000000000E+00  0.00000000000E+00 -0.16977178617E+04  0.16977178617E+04  0.50400001928E-02 0.  1.
    10030    2    1    2    0    0  0.00000000000E+00  0.00000000000E+00 -0.54800548190E+03  0.28474302416E+04  0.27941991648E+04 0.  0.
        3    1    3    3  502    0  0.10756503631E+04  0.38752311794E+02 -0.11816798314E+04  0.15984031655E+04  0.10100000352E+00 0.  1.
       -3    1    3    3    0  502 -0.10756503631E+04 -0.38752311794E+02  0.63367434951E+03  0.12490270761E+04  0.10100000352E+00 0. -1.
</event>
<event>
 5   0  0.5584205E-06  0.2794198E+04  0.7818609E-02  0.8305072E-01
       -2   -1    0    0    0  501  0.00000000000E+00  0.00000000000E+00  0.73820014025E+03  0.73820014026E+03  0.25500000920E-02 0. -1.
        2   -1    0    0  501    0  0.00000000000E+00  0.00000000000E+00 -0.26441146554E+04  0.26441146554E+04  0.25500000920E-02 0.  1.
    10030    2    1    2    0    0  0.00000000000E+00  0.00000000000E+00 -0.19059145152E+04  0.33823147957E+04  0.27941981386E+04 0.  0.
        1    1    3    3  502    0  0.30305047300E+03 -0.12438265589E+04 -0.27580153474E+03  0.13095841265E+04  0.50400001928E-02 0. -1.
       -1    1    3    3    0  502 -0.30305047300E+03  0.12438265589E+04 -0.16301129804E+04  0.20727306692E+04  0.50400001928E-02 0.  1.
</event>
<event>
 5   0  0.2267565E-06  0.2813324E+04  0.7818609E-02  0.8299144E-01
       -1   -1    0    0    0  501  0.00000000000E+00  0.00000000000E+00  0.10623622932E+04  0.10623622932E+04  0.50400001928E-02 0.  1.
        1   -1    0    0  501    0  0.00000000000E+00  0.00000000000E+00 -0.18625455245E+04  0.18625455245E+04  0.50400001928E-02 0. -1.
    10030    2    1    2    0    0  0.00000000000E+00  0.00000000000E+00 -0.80018323128E+03  0.29249078177E+04  0.28133241083E+04 0.  0.
        4    1    3    3  502    0 -0.13134412911E+04  0.20399647659E+03 -0.87873620750E+03  0.15933993608E+04  0.12699999809E+01 0. -1.
       -4    1    3    3    0  502  0.13134412911E+04 -0.20399647659E+03  0.78552976218E+02  0.13315084569E+04  0.12699999809E+01 0.  1.
</event>
<event>
 5   0  0.5625245E-06  0.2799316E+04  0.7818609E-02  0.8303481E-01
        2   -1    0    0  501    0  0.00000000000E+00  0.00000000000E+00  0.26850813057E+04  0.26850813057E+04  0.25500000920E-02 0.  1.
       -2   -1    0    0    0  501  0.00000000000E+00  0.00000000000E+00 -0.72960266991E+03  0.72960266992E+03  0.25500000920E-02 0. -1.
    10030    2    1    2    0    0  0.00000000000E+00  0.00000000000E+00  0.19554786358E+04  0.34146839756E+04  0.27993159804E+04 0.  0.
        3    1    3    3  502    0 -0.13696720978E+04 -0.18741146291E+03  0.12447612176E+04  0.18602567594E+04  0.10100000352E+00 0. -1.
       -3    1    3    3    0  502  0.13696720978E+04  0.18741146291E+03  0.71071741816E+03  0.15544272162E+04  0.10100000352E+00 0.  1.
</event>
<event>
 5   0  0.2267565E-06  0.2798542E+04  0.7818609E-02  0.8303721E-01
        1   -1    0    0  501    0  0.00000000000E+00  0.00000000000E+00  0.14199876772E+04  0.14199876772E+04  0.50400001928E-02 0.  1.
       -1   -1    0    0    0  501  0.00000000000E+00  0.00000000000E+00 -0.13788569141E+04  0.13788569141E+04  0.50400001928E-02 0. -1.
    10030    2    1    2    0    0  0.00000000000E+00  0.00000000000E+00  0.41130763168E+02  0.27988445913E+04  0.27985423539E+04 0.  0.
        4    1    3    3  502    0 -0.75068550080E+03  0.43083888330E+03 -0.10790111102E+04  0.13832633348E+04  0.12699999809E+01 0. -1.
       -4    1    3    3    0  502  0.75068550080E+03 -0.43083888330E+03  0.11201418734E+04  0.14155812565E+04  0.12699999809E+01 0.  1.
</event>
<event>
 5   0  0.1901375E-06  0.2787381E+04  0.7818609E-02  0.8307197E-01
       -3   -1    0    0    0  501  0.00000000000E+00  0.00000000000E+00  0.10371170312E+04  0.10371170361E+04  0.10100000352E+00 0.  1.
        3   -1    0    0  501    0  0.00000000000E+00  0.00000000000E+00 -0.18728588821E+04  0.18728588849E+04  0.10100000352E+00 0. -1.
    10030    2    1    2    0    0  0.00000000000E+00  0.00000000000E+00 -0.83574185094E+03  0.29099759210E+04  0.27873814628E+04 0.  0.
        5    1    3    3  502    0 -0.22762940789E+03  0.47083087610E+03 -0.17665303061E+04  0.18423214360E+04  0.46999998093E+01 0. -1.
       -5    1    3    3    0  502  0.22762940789E+03 -0.47083087610E+03  0.93078845512E+03  0.10676544850E+04  0.46999998093E+01 0.  1.
</event>
<event>
 5   0  0.2267565E-06  0.2813907E+04  0.7818609E-02  0.8298964E-01
       -1   -1    0    0    0  501  0.00000000000E+00  0.00000000000E+00  0.10154955848E+04  0.10154955848E+04  0.50400001928E-02 0.  1.
        1   -1    0    0  501    0  0.00000000000E+00  0.00000000000E+00 -0.19493123416E+04  0.19493123416E+04  0.50400001928E-02 0. -1.
    10030    2    1    2    0    0  0.00000000000E+00  0.00000000000E+00 -0.93381675682E+03  0.29648079263E+04  0.28139069467E+04 0.  0.
        4    1    3    3  502    0 -0.13684779169E+04  0.25557145248E+03 -0.68146542626E+03  0.15499823600E+04  0.12699999809E+01 0. -1.
       -4    1    3    3    0  502  0.13684779169E+04 -0.25557145248E+03 -0.25235133055E+03  0.14148255663E+04  0.12699999809E+01 0.  1.
</event>
<event>
 5   0  0.2206967E-06  0.2794360E+04  0.7818609E-02  0.8305022E-01
        1   -1    0    0  501    0  0.00000000000E+00  0.00000000000E+00  0.12165533688E+04  0.12165533688E+04  0.50400001928E-02 0. -1.
       -1   -1    0    0    0  501  0.00000000000E+00  0.00000000000E+00 -0.16046247821E+04  0.16046247821E+04  0.50400001928E-02 0.  1.
    10030    2    1    2    0    0  0.00000000000E+00  0.00000000000E+00 -0.38807141326E+03  0.28211781509E+04  0.27943598082E+04 0.  0.
        5    1    3    3  502    0  0.28329010849E+03  0.11430797366E+04  0.56498075081E+03  0.13061814225E+04  0.46999998093E+01 0. -1.
       -5    1    3    3    0  502 -0.28329010849E+03 -0.11430797366E+04 -0.95305216407E+03  0.15149967284E+04  0.46999998093E+01 0.  1.
</event>
<event>
 5   0  0.5916603E-06  0.2764550E+04  0.7818609E-02  0.8314359E-01
        2   -1    0    0  501    0  0.00000000000E+00  0.00000000000E+00  0.24692363458E+04  0.24692363458E+04  0.25500000920E-02 0. -1.
       -2   -1    0    0    0  501  0.00000000000E+00  0.00000000000E+00 -0.77379563937E+03  0.77379563937E+03  0.25500000920E-02 0.  1.
    10030    2    1    2    0    0  0.00000000000E+00  0.00000000000E+00  0.16954407064E+04  0.32430319851E+04  0.27645501022E+04 0.  0.
        2    1    3    3  502    0  0.33835480169E+03 -0.27889425240E+03 -0.69004905370E+03  0.81757793046E+03  0.25500000920E-02 0.  1.
       -2    1    3    3    0  502 -0.33835480169E+03  0.27889425240E+03  0.23854897601E+04  0.24254540547E+04  0.25500000920E-02 0. -1.
</event>
<event>
 5   0  0.5546570E-06  0.2786833E+04  0.7818609E-02  0.8307368E-01
       -2   -1    0    0    0  501  0.00000000000E+00  0.00000000000E+00  0.10994648910E+04  0.10994648910E+04  0.25500000920E-02 0. -1.
        2   -1    0    0  501    0  0.00000000000E+00  0.00000000000E+00 -0.17659590609E+04  0.17659590609E+04  0.25500000920E-02 0.  1.
    10030    2    1    2    0    0  0.00000000000E+00  0.00000000000E+00 -0.66649416992E+03  0.28654239519E+04  0.27868333186E+04 0.  0.
        4    1    3    3  502    0 -0.77478600716E+02  0.13520461122E+04 -0.67048554965E+03  0.15111532378E+04  0.12699999809E+01 0.  1.
       -4    1    3    3    0  502  0.77478600716E+02 -0.13520461122E+04  0.39913797293E+01  0.13542707141E+04  0.12699999809E+01 0. -1.
</event>
<event>
 5   0  0.5866136E-06  0.2784889E+04  0.7818609E-02  0.8307975E-01
       -2   -1    0    0    0  501  0.00000000000E+00  0.00000000000E+00  0.75659753042E+03  0.75659753042E+03  0.25500000920E-02 0.  1.
        2   -1    0    0  501    0  0.00000000000E+00  0.00000000000E+00 -0.25626595100E+04  0.25626595100E+04  0.25500000920E-02 0. -1.
    10030    2    1    2    0    0  0.00000000000E+00  0.00000000000E+00 -0.18060619796E+04  0.33192570404E+04  0.27848891228E+04 0.  0.
        5    1    3    3  502    0 -0.61884344597E+03 -0.78042999809E+03 -0.20628003622E+04  0.22906779819E+04  0.46999998093E+01 0. -1.
       -5    1    3    3    0  502  0.61884344597E+03  0.78042999809E+03  0.25673838260E+03  0.10285790585E+04  0.46999998093E+01 0.  1.
</event>
<event>
 5   0  0.5866136E-06  0.2753480E+04  0.7818609E-02  0.8317858E-01
       -2   -1    0    0    0  501  0.00000000000E+00  0.00000000000E+00  0.18609086952E+04  0.18609086952E+04  0.25500000920E-02 0.  1.
        2   -1    0    0  501    0  0.00000000000E+00  0.00000000000E+00 -0.10185419837E+04  0.10185419837E+04  0.25500000920E-02 0. -1.
    10030    2    1    2    0    0  0.00000000000E+00  0.00000000000E+00  0.84236671150E+03  0.28794506790E+04  0.27534804405E+04 0.  0.
        5    1    3    3  502    0 -0.29550949968E+03 -0.13437719036E+04  0.37056702168E+03  0.14249178225E+04  0.46999998093E+01 0.  1.
       -5    1    3    3    0  502  0.29550949968E+03  0.13437719036E+04  0.47179968982E+03  0.14545328565E+04  0.46999998093E+01 0. -1.
</event>
<event>
 5   0  0.2267565E-06  0.2783949E+04  0.7818609E-02  0.8308269E-01
        1   -1    0    0  501    0  0.00000000000E+00  0.00000000000E+00  0.17974375844E+04  0.17974375844E+04  0.50400001928E-02 0. -1.
       -1   -1    0    0    0  501  0.00000000000E+00  0.00000000000E+00 -0.10779750634E+04  0.10779750634E+04  0.50400001928E-02 0.  1.
    10030    2    1    2    0    0  0.00000000000E+00  0.00000000000E+00  0.71946252100E+03  0.28754126478E+04  0.27839489177E+04 0.  0.
        4    1    3    3  502    0 -0.93968206388E+03 -0.40608931913E+03 -0.61448622341E+03  0.11939454962E+04  0.12699999809E+01 0.  1.
       -4    1    3    3    0  502  0.93968206388E+03  0.40608931913E+03  0.13339487444E+04  0.16814671516E+04  0.12699999809E+01 0. -1.
</event>
<event>
 5   0  0.2277133E-06  0.2791614E+04  0.7818609E-02  0.8305876E-01
       -1   -1    0    0    0  501  0.00000000000E+00  0.00000000000E+00  0.12494700478E+04  0.12494700478E+04  0.50400001928E-02 0.  1.
        1   -1    0    0  501    0  0.00000000000E+00  0.00000000000E+00 -0.15592833327E+04  0.15592833327E+04  0.50400001928E-02 0. -1.
    10030    2    1    2    0    0  0.00000000000E+00  0.00000000000E+00 -0.30981328495E+03  0.28087533805E+04  0.27916144578E+04 0.  0.
        1    1    3    3  502    0  0.43428518361E+03 -0.37253032651E+03  0.11260536222E+04  0.12630832217E+04  0.50400001928E-02 0.  1.
       -1    1    3    3    0  502 -0.43428518361E+03  0.37253032651E+03 -0.14358669071E+04  0.15456701588E+04  0.50400001928E-02 0. -1.
</event>
<event>
 5   0  0.5625245E-06  0.2797864E+04  0.7818609E-02  0.8303932E-01
       -2   -1    0    0    0  501  0.00000000000E+00  0.00000000000E+00  0.18533142930E+04  0.18533142930E+04  0.25500000920E-02 0.  1.
        2   -1    0    0  501    0  0.00000000000E+00  0.00000000000E+00 -0.10559516061E+04  0.10559516061E+04  0.25500000920E-02 0. -1.
    10030    2    1    2    0    0  0.00000000000E+00  0.00000000000E+00  0.79736268694E+03  0.29092658991E+04  0.27978636166E+04 0.  0.
        3    1    3    3  502    0  0.90020929751E+03  0.34729946758E+03  0.14519375986E+04  0.17433061980E+04  0.10100000352E+00 0.  1.
       -3    1    3    3    0  502 -0.90020929751E+03 -0.34729946758E+03 -0.65457491162E+03  0.11659597011E+04  0.10100000352E+00 0. -1.
</event>
<event>
 5   0  0.5584205E-06  0.2804833E+04  0.7818609E-02  0.8301770E-01
        2   -1    0    0  501    0  0.00000000000E+00  0.00000000000E+00  0.90785392561E+03  0.90785392561E+03  0.25500000920E-02 0.  1.
       -2   -1    0    0    0  501  0.00000000000E+00  0.00000000000E+00 -0.21663968130E+04  0.21663968130E+04  0.25500000920E-02 0. -1.
    10030    2    1    2    0    0  0.00000000000E+00  0.00000000000E+00 -0.12585428874E+04  0.30742507386E+04  0.28048328657E+04 0.  0.
        1    1    3    3  502    0  0.11880263275E+04 -0.52516777285E+03 -0.12087975493E+04  0.17743729201E+04  0.50400001928E-02 0. -1.
       -1    1    3    3    0  502 -0.11880263275E+04  0.52516777285E+03 -0.49745338088E+02  0.12998778185E+04  0.50400001928E-02 0.  1.
</event>
<event>
 5   0  0.5866136E-06  0.2801188E+04  0.7818609E-02  0.8302900E-01
       -2   -1    0    0    0  501  0.00000000000E+00  0.00000000000E+00  0.16181006586E+04  0.16181006586E+04  0.25500000920E-02 0. -1.
        2   -1    0    0  501    0  0.00000000000E+00  0.00000000000E+00 -0.12123245457E+04  0.12123245457E+04  0.25500000920E-02 0.  1.
    10030    2    1    2    0    0  0.00000000000E+00  0.00000000000E+00  0.40577611286E+03  0.28304252043E+04  0.28011877094E+04 0.  0.
        5    1    3    3  502    0  0.12511102570E+04  0.39704150398E+03  0.69657983763E+03  0.14859893645E+04  0.46999998093E+01 0.  1.
       -5    1    3    3    0  502 -0.12511102570E+04 -0.39704150398E+03 -0.29080372477E+03  0.13444358399E+04  0.46999998093E+01 0. -1.
</event>
<event>
 5   0  0.2234068E-06  0.2767507E+04  0.7818609E-02  0.8313428E-01
        1   -1    0    0  501    0  0.00000000000E+00  0.00000000000E+00  0.13982694745E+04  0.13982694745E+04  0.50400001928E-02 0. -1.
       -1   -1    0    0    0  501  0.00000000000E+00  0.00000000000E+00 -0.13693881486E+04  0.13693881486E+04  0.50400001928E-02 0.  1.
    10030    2    1    2    0    0  0.00000000000E+00  0.00000000000E+00  0.28881325892E+02  0.27676576230E+04  0.27675069263E+04 0.  0.
        3    1    3    3  502    0 -0.12523213469E+04 -0.95201688325E+02  0.59533502926E+03  0.13898906160E+04  0.10100000352E+00 0. -1.
       -3    1    3    3    0  502  0.12523213469E+04  0.95201688325E+02 -0.56645370337E+03  0.13777670070E+04  0.10100000352E+00 0.  1.
</event>
<event>
 5   0  0.5916603E-06  0.2759115E+04  0.7818609E-02  0.8316075E-01
        2   -1    0    0  501    0  0.00000000000E+00  0.00000000000E+00  0.25957546160E+04  0.25957546160E+04  0.25500000920E-02 0.  1.
       -2   -1    0    0    0  501  0.00000000000E+00  0.00000000000E+00 -0.73318920564E+03  0.73318920565E+03  0.25500000920E-02 0. -1.
    10030    2    1    2    0    0  0.00000000000E+00  0.00000000000E+00  0.18625654104E+04  0.33289438217E+04  0.27591152676E+04 0.  0.
        2    1    3    3  502    0 -0.10177612813E+04  0.85522283885E+02  0.20501864046E+04  0.22905057040E+04  0.25500000920E-02 0.  1.
       -2    1    3    3    0  502  0.10177612813E+04 -0.85522283885E+02 -0.18762099420E+03  0.10384381176E+04  0.25500000920E-02 0. -1.
</event>
<event>
 5   0  0.2277133E-06  0.2828571E+04  0.7818609E-02  0.8294453E-01
        1   -1    0    0  501    0  0.00000000000E+00  0.00000000000E+00  0.16764944272E+04  0.16764944272E+04  0.50400001928E-02 0. -1.
       -1   -1    0    0    0  501  0.00000000000E+00  0.00000000000E+00 -0.11930866687E+04  0.11930866687E+04  0.50400001928E-02 0.  1.
    10030    2    1    2    0    0  0.00000000000E+00  0.00000000000E+00  0.48340775850E+03  0.28695810960E+04  0.28285707708E+04 0.  0.
        1    1    3    3  502    0 -0.49714020073E+03 -0.77353860528E+03 -0.84844216190E+03  0.12511452574E+04  0.50400001928E-02 0. -1.
       -1    1    3    3    0  502  0.49714020073E+03  0.77353860528E+03  0.13318499204E+04  0.16184358386E+04  0.50400001928E-02 0.  1.
</event>
<event>
 5   0  0.5625245E-06  0.2811179E+04  0.7818609E-02  0.8299806E-01
       -2   -1    0    0    0  501  0.00000000000E+00  0.00000000000E+00  0.84970616787E+03  0.84970616787E+03  0.25500000920E-02 0.  1.
        2   -1    0    0  501    0  0.00000000000E+00  0.00000000000E+00 -0.23251356575E+04  0.23251356575E+04  0.25500000920E-02 0. -1.
    10030    2    1    2    0    0  0.00000000000E+00  0.00000000000E+00 -0.14754294896E+04  0.31748418254E+04  0.28111791898E+04 0.  0.
        3    1    3    3  502    0 -0.19853802761E+03  0.10208258201E+04 -0.18056523831E+04  0.20837186092E+04  0.10100000352E+00 0. -1.
       -3    1    3    3    0  502  0.19853802761E+03 -0.10208258201E+04  0.33022289342E+03  0.10911232162E+04  0.10100000352E+00 0.  1.
</event>
<event>
 5   0  0.5916603E-06  0.2792858E+04  0.7818609E-02  0.8305489E-01
        2   -1    0    0  501    0  0.00000000000E+00  0.00000000000E+00  0.20562502697E+04  0.20562502697E+04  0.25500000920E-02 0. -1.
       -2   -1    0    0    0  501  0.00000000000E+00  0.00000000000E+00 -0.94833500738E+03  0.94833500738E+03  0.25500000920E-02 0.  1.
    10030    2    1    2    0    0  0.00000000000E+00  0.00000000000E+00  0.11079152623E+04  0.30045852771E+04  0.27928581165E+04 0.  0.
        2    1    3    3  502    0  0.20331440671E+03  0.98986856656E+03 -0.48286758901E+03  0.11199721584E+04  0.25500000920E-02 0.  1.
       -2    1    3    3    0  502 -0.20331440671E+03 -0.98986856656E+03  0.15907828513E+04  0.18846131187E+04  0.25500000920E-02 0. -1.
</event>
<event>
 5   0  0.2234068E-06  0.2857752E+04  0.7818609E-02  0.8285560E-01
        1   -1    0    0  501    0  0.00000000000E+00  0.00000000000E+00  0.16860040889E+04  0.16860040889E+04  0.50400001928E-02 0.  1.
       -1   -1    0    0    0  501  0.00000000000E+00  0.00000000000E+00 -0.12109615785E+04  0.12109615785E+04  0.50400001928E-02 0. -1.
    10030    2    1    2    0    0  0.00000000000E+00  0.00000000000E+00  0.47504251035E+03  0.28969656674E+04  0.28577516847E+04 0.  0.
        3    1    3    3  502    0 -0.67204317117E+03  0.10876900341E+04  0.88422067782E+03  0.15545281765E+04  0.10100000352E+00 0.  1.
       -3    1    3    3    0  502  0.67204317117E+03 -0.10876900341E+04 -0.40917816747E+03  0.13424374909E+04  0.10100000352E+00 0. -1.
</event>
<event>
 5   0  0.5866136E-06  0.2873917E+04  0.7818609E-02  0.8280681E-01
       -2   -1    0    0    0  501  0.00000000000E+00  0.00000000000E+00  0.14420619844E+04  0.14420619844E+04  0.25500000920E-02 0.  1.
        2   -1    0    0  501    0  0.00000000000E+00  0.00000000000E+00 -0.14318726269E+04  0.14318726269E+04  0.25500000920E-02 0. -1.
    10030    2    1    2    0    0  0.00000000000E+00  0.00000000000E+00  0.10189357538E+02  0.28739346113E+04  0.28739165484E+04 0.  0.
        5    1    3    3  502    0 -0.10885142060E+04  0.35168883220E+03 -0.86455369104E+03  0.14338840211E+04  0.46999998093E+01 0. -1.
       -5    1    3    3    0  502  0.10885142060E+04 -0.35168883220E+03  0.87474304858E+03  0.14400505902E+04  0.46999998093E+01 0.  1.
</event>
<event>
 5   0  0.5916603E-06  0.2803378E+04  0.7818609E-02  0.8302220E-01
        2   -1    0    0  501    0  0.00000000000E+00  0.00000000000E+00  0.12363597948E+04  0.12363597948E+04  0.25500000920E-02 0.  1.
       -2   -1    0    0    0  501  0.00000000000E+00  0.00000000000E+00 -0.15891263130E+04  0.15891263130E+04  0.25500000920E-02 0. -1.
    10030    2    1    2    0    0  0.00000000000E+00  0.00000000000E+00 -0.35276651819E+03  0.28254861078E+04  0.28033778784E+04 0.  0.
        2    1    3    3  502    0  0.45273312736E+03  0.84673203560E+03  0.85285048165E+03  0.12842415539E+04  0.25500000920E-02 0.  1.
       -2    1    3    3    0  502 -0.45273312736E+03 -0.84673203560E+03 -0.12056169998E+04  0.15412445539E+04  0.25500000920E-02 0. -1.
</event>
<event>
 5   0  0.5866136E-06  0.2774917E+04  0.7818609E-02  0.8311098E-01
       -2   -1    0    0    0  501  0.00000000000E+00  0.00000000000E+00  0.14290714228E+04  0.14290714228E+04  0.25500000920E-02 0. -1.
        2   -1    0    0  501    0  0.00000000000E+00  0.00000000000E+00 -0.13470571387E+04  0.13470571387E+04  0.25500000920E-02 0.  1.
    10030    2    1    2    0    0  0.00000000000E+00  0.00000000000E+00  0.82014284020E+02  0.27761285615E+04  0.27749168361E+04 0.  0.
        5    1    3    3  502    0  0.59513277291E+02 -0.94880274960E+03  0.10520177153E+04  0.14179322449E+04  0.46999998093E+01 0. -1.
       -5    1    3    3    0  502 -0.59513277291E+02  0.94880274960E+03 -0.97000343126E+03  0.13581963166E+04  0.46999998093E+01 0.  1.
</event>
<event>
 5   0  0.2277133E-06  0.2784386E+04  0.7818609E-02  0.8308132E-01
       -1   -1    0    0    0  501  0.00000000000E+00  0.00000000000E+00  0.89228584481E+03  0.89228584483E+03  0.50400001928E-02 0. -1.
        1   -1    0    0  501    0  0.00000000000E+00  0.00000000000E+00 -0.21721751624E+04  0.21721751624E+04  0.50400001928E-02 0.  1.
    10030    2    1    2    0    0  0.00000000000E+00  0.00000000000E+00 -0.12798893175E+04  0.30644610072E+04  0.27843858568E+04 0.  0.
        1    1    3    3  502    0  0.12816234017E+04  0.51789530389E+03 -0.45767502933E+03  0.14561045711E+04  0.50400001928E-02 0. -1.
       -1    1    3    3    0  502 -0.12816234017E+04 -0.51789530389E+03 -0.82221428822E+03  0.16083564360E+04  0.50400001928E-02 0.  1.
</event>
<event>
 5   0  0.5546570E-06  0.2800887E+04  0.7818609E-02  0.8302993E-01
       -2   -1    0    0    0  501  0.00000000000E+00  0.00000000000E+00  0.14353847719E+04  0.14353847719E+04  0.25500000920E-02 0. -1.
        2   -1    0    0  501    0  0.00000000000E+00  0.00000000000E+00 -0.13663523191E+04  0.13663523191E+04  0.25500000920E-02 0.  1.
    10030    2    1    2    0    0  0.00000000000E+00  0.00000000000E+00  0.69032452772E+02  0.28017370910E+04  0.28008865110E+04 0.  0.
        4    1    3    3  502    0  0.13451361448E+04  0.12535554073E+03 -0.33455982978E+03  0.13917748209E+04  0.12699999809E+01 0. -1.
       -4    1    3    3    0  502 -0.13451361448E+04 -0.12535554073E+03  0.40359228255E+03  0.14099622701E+04  0.12699999809E+01 0.  1.
</event>
<event>
 5   0  0.5625245E-06  0.2795127E+04  0.7818609E-02  0.8304783E-01
        2   -1    0    0  501    0  0.00000000000E+00  0.00000000000E+00  0.20725328027E+04  0.20725328027E+04  0.25500000920E-02 0. -1.
       -2   -1    0    0    0  501  0.00000000000E+00  0.00000000000E+00 -0.94241390050E+03  0.94241390051E+03  0.25500000920E-02 0.  1.
    10030    2    1    2    0    0  0.00000000000E+00  0.00000000000E+00  0.11301189022E+04  0.30149467032E+04  0.27951269900E+04 0.  0.
        3    1    3    3  502    0  0.13712826760E+04  0.53779335773E+02  0.27993136859E+03  0.14005962930E+04  0.10100000352E+00 0. -1.
       -3    1    3    3    0  502 -0.13712826760E+04 -0.53779335773E+02  0.85018753364E+03  0.16143504103E+04  0.10100000352E+00 0.  1.
</event>
<event>
 5   0  0.5866136E-06  0.2792582E+04  0.7818609E-02  0.8305575E-01
        2   -1    0    0  501    0  0.00000000000E+00  0.00000000000E+00  0.13865284628E+04  0.13865284628E+04  0.25500000920E-02 0. -1.
       -2   -1    0    0    0  501  0.00000000000E+00  0.00000000000E+00 -0.14061227044E+04  0.14061227044E+04  0.25500000920E-02 0.  1.
    10030    2    1    2    0    0  0.00000000000E+00  0.00000000000E+00 -0.19594241593E+02  0.27926511673E+04  0.27925824263E+04 0.  0.
        5    1    3    3  502    0 -0.12245479454E+03 -0.97572162612E+03  0.98147860653E+03  0.13893704378E+04  0.46999998093E+01 0. -1.
       -5    1    3    3    0  502  0.12245479454E+03  0.97572162612E+03 -0.10010728481E+04  0.14032807294E+04  0.46999998093E+01 0.  1.
</event>
<event>
 5   0  0.5625245E-06  0.2787152E+04  0.7818609E-02  0.8307268E-01
        2   -1    0    0  501    0  0.00000000000E+00  0.00000000000E+00  0.19089549267E+04  0.19089549267E+04  0.25500000920E-02 0.  1.
       -2   -1    0    0    0  501  0.00000000000E+00  0.00000000000E+00 -0.10173386277E+04  0.10173386277E+04  0.25500000920E-02 0. -1.
    10030    2    1    2    0    0  0.00000000000E+00  0.00000000000E+00  0.89161629893E+03  0.29262935544E+04  0.27871516539E+04 0.  0.
        3    1    3    3  502    0 -0.10940867807E+04  0.40017289850E+03  0.12487685814E+04  0.17078018657E+04  0.10100000352E+00 0.  1.
       -3    1    3    3    0  502  0.10940867807E+04 -0.40017289850E+03 -0.35715228250E+03  0.12184916887E+04  0.10100000352E+00 0. -1.
</event>
<event>
 5   0  0.2234068E-06  0.2816928E+04  0.7818609E-02  0.8298032E-01
       -1   -1    0    0    0  501  0.00000000000E+00  0.00000000000E+00  0.11743543403E+04  0.11743543403E+04  0.50400001928E-02 0. -1.
        1   -1    0    0  501    0  0.00000000000E+00  0.00000000000E+00 -0.16892440183E+04  0.16892440183E+04  0.50400001928E-02 0.  1.
    10030    2    1    2    0    0  0.00000000000E+00  0.00000000000E+00 -0.51488967805E+03  0.28635983586E+04  0.28169281458E+04 0.  0.
        3    1    3    3  502    0  0.84287189564E+03 -0.10811814202E+04  0.70994250558E+02  0.13727441458E+04  0.10100000352E+00 0.  1.
       -3    1    3    3    0  502 -0.84287189564E+03  0.10811814202E+04 -0.58588392861E+03  0.14908542128E+04  0.10100000352E+00 0. -1.
</event>
<event>
 5   0  0.2234068E-06  0.2800697E+04  0.7818609E-02  0.8303052E-01
        1   -1    0    0  501    0  0.00000000000E+00  0.00000000000E+00  0.12053402796E+04  0.12053402796E+04  0.50400001928E-02 0. -1.
       -1   -1    0    0    0  501  0.00000000000E+00  0.00000000000E+00 -0.16269069244E+04  0.16269069244E+04  0.50400001928E-02 0.  1.
    10030    2    1    2    0    0  0.00000000000E+00  0.00000000000E+00 -0.42156664478E+03  0.28322472041E+04  0.28006973755E+04 0.  0.
        3    1    3    3  502    0 -0.13222004139E+04  0.44854012145E+03 -0.31957899637E+03  0.14323173252E+04  0.10100000352E+00 0. -1.
       -3    1    3    3    0  502  0.13222004139E+04 -0.44854012145E+03 -0.10198764841E+03  0.13999298788E+04  0.10100000352E+00 0.  1.
</event>
<event>
 5   0  0.5546570E-06  0.2798755E+04  0.7818609E-02  0.8303655E-01
        2   -1    0    0  501    0  0.00000000000E+00  0.00000000000E+00  0.20174042252E+04  0.20174042252E+04  0.25500000920E-02 0. -1.
       -2   -1    0    0    0  501  0.00000000000E+00  0.00000000000E+00 -0.97068164346E+03  0.97068164346E+03  0.25500000920E-02 0.  1.
    10030    2    1    2    0    0  0.00000000000E+00  0.00000000000E+00  0.10467225817E+04  0.29880858686E+04  0.27987549009E+04 0.  0.
        4    1    3    3  502    0  0.13605364914E+04 -0.24309204836E+03  0.28920202812E+03  0.14120172501E+04  0.12699999809E+01 0.  1.
       -4    1    3    3    0  502 -0.13605364914E+04  0.24309204836E+03  0.75752055358E+03  0.15760686186E+04  0.12699999809E+01 0. -1.
</event>
<event>
 5   0  0.2206967E-06  0.2524077E+04  0.7818609E-02  0.8394458E-01
        1   -1    0    0  501    0  0.00000000000E+00  0.00000000000E+00  0.17113917340E+04  0.17113917340E+04  0.50400001928E-02 0.  1.
       -1   -1    0    0    0  501  0.00000000000E+00  0.00000000000E+00 -0.93066988046E+03  0.93066988047E+03  0.50400001928E-02 0. -1.
    10030    2    1    2    0    0  0.00000000000E+00  0.00000000000E+00  0.78072185355E+03  0.26420616145E+04  0.25240766554E+04 0.  0.
        5    1    3    3  502    0 -0.52590140928E+03 -0.69285870812E+03  0.13474838964E+04  0.16038579808E+04  0.46999998093E+01 0.  1.
       -5    1    3    3    0  502  0.52590140928E+03  0.69285870812E+03 -0.56676204284E+03  0.10382036336E+04  0.46999998093E+01 0. -1.
</event>
<event>
 5   0  0.2206967E-06  0.2804568E+04  0.7818609E-02  0.8301852E-01
        1   -1    0    0  501    0  0.00000000000E+00  0.00000000000E+00  0.14041799089E+04  0.14041799089E+04  0.50400001928E-02 0.  1.
       -1   -1    0    0    0  501  0.00000000000E+00  0.00000000000E+00 -0.14003908319E+04  0.14003908319E+04  0.50400001928E-02 0. -1.
    10030    2    1    2    0    0  0.00000000000E+00  0.00000000000E+00  0.37890769928E+01  0.28045707408E+04  0.28045681812E+04 0.  0.
        5    1    3    3  502    0 -0.98062164196E+03  0.90089104980E+03 -0.43759999512E+03  0.14016915973E+04  0.46999998093E+01 0. -1.
       -5    1    3    3    0  502  0.98062164196E+03 -0.90089104980E+03  0.44138907211E+03  0.14028791435E+04  0.46999998093E+01 0.  1.
</event>
<event>
 5   0  0.2234068E-06  0.2765504E+04  0.7818609E-02  0.8314059E-01
       -1   -1    0    0    0  501  0.00000000000E+00  0.00000000000E+00  0.11791556096E+04  0.11791556097E+04  0.50400001928E-02 0.  1.
        1   -1    0    0  501    0  0.00000000000E+00  0.00000000000E+00 -0.16215020367E+04  0.16215020367E+04  0.50400001928E-02 0. -1.
    10030    2    1    2    0    0  0.00000000000E+00  0.00000000000E+00 -0.44234642707E+03  0.28006576464E+04  0.27655040934E+04 0.  0.
        3    1    3    3  502    0 -0.72685172199E+03  0.11712000551E+04 -0.11032771202E+03  0.13828214668E+04  0.10100000352E+00 0.  1.
       -3    1    3    3    0  502  0.72685172199E+03 -0.11712000551E+04 -0.33201871505E+03  0.14178361796E+04  0.10100000352E+00 0. -1.
</event>
<event>
 5   0  0.5584205E-06  0.2629472E+04  0.7818609E-02  0.8358259E-01
       -2   -1    0    0    0  501  0.00000000000E+00  0.00000000000E+00  0.11936073520E+04  0.11936073520E+04  0.25500000920E-02 0. -1.
        2   -1    0    0  501    0  0.00000000000E+00  0.00000000000E+00 -0.14481572403E+04  0.14481572403E+04  0.25500000920E-02 0.  1.
    10030    2    1    2    0    0  0.00000000000E+00  0.00000000000E+00 -0.25454988835E+03  0.26417645923E+04  0.26294722884E+04 0.  0.
        1    1    3    3  502    0 -0.10283463723E+04 -0.12920187804E+03 -0.93997039699E+03  0.13991903851E+04  0.50400001928E-02 0.  1.
       -1    1    3    3    0  502  0.10283463723E+04  0.12920187804E+03  0.68542050864E+03  0.12425742072E+04  0.50400001928E-02 0. -1.
</event>
<event>
 5   0  0.2190865E-06  0.2777239E+04  0.7818609E-02  0.8310370E-01
       -1   -1    0    0    0  501  0.00000000000E+00  0.00000000000E+00  0.23698399300E+04  0.23698399300E+04  0.50400001928E-02 0. -1.
        1   -1    0    0  501    0  0.00000000000E+00  0.00000000000E+00 -0.81366863854E+03  0.81366863856E+03  0.50400001928E-02 0.  1.
    10030    2    1    2    0    0  0.00000000000E+00  0.00000000000E+00  0.15561712915E+04  0.31835085686E+04  0.27772392259E+04 0.  0.
        2    1    3    3  502    0 -0.11841537512E+04 -0.35236699798E+03  0.51407810669E+02  0.12365376544E+04  0.25500000920E-02 0. -1.
       -2    1    3    3    0  502  0.11841537512E+04  0.35236699798E+03  0.15047634808E+04  0.19469709142E+04  0.25500000920E-02 0.  1.
</event>
<event>
 5   0  0.2234068E-06  0.2789422E+04  0.7818609E-02  0.8306560E-01
        1   -1    0    0  501    0  0.00000000000E+00  0.00000000000E+00  0.15969047022E+04  0.15969047022E+04  0.50400001928E-02 0. -1.
       -1   -1    0    0    0  501  0.00000000000E+00  0.00000000000E+00 -0.12181178458E+04  0.12181178458E+04  0.50400001928E-02 0.  1.
    10030    2    1    2    0    0  0.00000000000E+00  0.00000000000E+00  0.37878685645E+03  0.28150225480E+04  0.27894215284E+04 0.  0.
        3    1    3    3  502    0 -0.32416199838E+03 -0.31769949993E+03 -0.11414991669E+04  0.12284275850E+04  0.10100000352E+00 0.  1.
       -3    1    3    3    0  502  0.32416199838E+03  0.31769949993E+03  0.15202860234E+04  0.15865949629E+04  0.10100000352E+00 0. -1.
</event>
<event>
 5   0  0.2190865E-06  0.2788637E+04  0.7818609E-02  0.8306805E-01
        1   -1    0    0  501    0  0.00000000000E+00  0.00000000000E+00  0.14712571769E+04  0.14712571769E+04  0.50400001928E-02 0.  1.
       -1   -1    0    0    0  501  0.00000000000E+00  0.00000000000E+00 -0.13214036397E+04  0.13214036397E+04  0.50400001928E-02 0. -1.
    10030    2    1    2    0    0  0.00000000000E+00  0.00000000000E+00  0.14985353717E+03  0.27926608166E+04  0.27886373651E+04 0.  0.
        2    1    3    3  502    0  0.42646243707E+03 -0.44706565123E+03 -0.11768313404E+04  0.13291613561E+04  0.25500000920E-02 0. -1.
       -2    1    3    3    0  502 -0.42646243707E+03  0.44706565123E+03  0.13266848776E+04  0.14634994606E+04  0.25500000920E-02 0.  1.
</event>
<event>
 5   0  0.2234068E-06  0.2758132E+04  0.7818609E-02  0.8316386E-01
        1   -1    0    0  501    0  0.00000000000E+00  0.00000000000E+00  0.15526433352E+04  0.15526433352E+04  0.50400001928E-02 0. -1.
       -1   -1    0    0    0  501  0.00000000000E+00  0.00000000000E+00 -0.12248933621E+04  0.12248933621E+04  0.50400001928E-02 0.  1.
    10030    2    1    2    0    0  0.00000000000E+00  0.00000000000E+00  0.32774997308E+03  0.27775366973E+04  0.27581316248E+04 0.  0.
        3    1    3    3  502    0 -0.14987669256E+03 -0.79718862552E+03 -0.95925179677E+03  0.12562391283E+04  0.10100000352E+00 0.  1.
       -3    1    3    3    0  502  0.14987669256E+03  0.79718862552E+03  0.12870017698E+04  0.15212975690E+04  0.10100000352E+00 0. -1.
</event>
<event>
 5   0  0.5866136E-06  0.2790916E+04  0.7818609E-02  0.8306094E-01
       -2   -1    0    0    0  501  0.00000000000E+00  0.00000000000E+00  0.11540883564E+04  0.11540883564E+04  0.25500000920E-02 0. -1.
        2   -1    0    0  501    0  0.00000000000E+00  0.00000000000E+00 -0.16873081092E+04  0.16873081092E+04  0.25500000920E-02 0.  1.
    10030    2    1    2    0    0  0.00000000000E+00  0.00000000000E+00 -0.53321975279E+03  0.28413964656E+04  0.27909157224E+04 0.  0.
        5    1    3    3  502    0  0.94316602471E+03  0.85759969249E+03  0.31132063898E+03  0.13122431227E+04  0.46999998093E+01 0. -1.
       -5    1    3    3    0  502 -0.94316602471E+03 -0.85759969249E+03 -0.84454039177E+03  0.15291533429E+04  0.46999998093E+01 0.  1.
</event>
<event>
 5   0  0.5584205E-06  0.2801781E+04  0.7818609E-02  0.8302716E-01
        2   -1    0    0  501    0  0.00000000000E+00  0.00000000000E+00  0.19295952927E+04  0.19295952927E+04  0.25500000920E-02 0.  1.
       -2   -1    0    0    0  501  0.00000000000E+00  0.00000000000E+00 -0.10170498133E+04  0.10170498133E+04  0.25500000920E-02 0. -1.
    10030    2    1    2    0    0  0.00000000000E+00  0.00000000000E+00  0.91254547936E+03  0.29466451060E+04  0.28017812421E+04 0.  0.
        1    1    3    3  502    0  0.79759501033E+03 -0.28482175275E+03  0.16298602654E+04  0.18367704582E+04  0.50400001928E-02 0.  1.
       -1    1    3    3    0  502 -0.79759501033E+03  0.28482175275E+03 -0.71731478607E+03  0.11098746477E+04  0.50400001928E-02 0. -1.
</event>
<event>
 5   0  0.2277133E-06  0.2802861E+04  0.7818609E-02  0.8302381E-01
        1   -1    0    0  501    0  0.00000000000E+00  0.00000000000E+00  0.12895556914E+04  0.12895556914E+04  0.50400001928E-02 0.  1.
       -1   -1    0    0    0  501  0.00000000000E+00  0.00000000000E+00 -0.15230105855E+04  0.15230105855E+04  0.50400001928E-02 0. -1.
    10030    2    1    2    0    0  0.00000000000E+00  0.00000000000E+00 -0.23345489410E+03  0.28125662769E+04  0.28028606591E+04 0.  0.
        1    1    3    3  502    0 -0.36069979220E+03  0.62159192188E+03 -0.13240253898E+04  0.15064939728E+04  0.50400001928E-02 0. -1.
       -1    1    3    3    0  502  0.36069979220E+03 -0.62159192188E+03  0.10905704957E+04  0.13060723041E+04  0.50400001928E-02 0.  1.
</event>
<event>
 5   0  0.5916603E-06  0.2820871E+04  0.7818609E-02  0.8296818E-01
        2   -1    0    0  501    0  0.00000000000E+00  0.00000000000E+00  0.19310135943E+04  0.19310135943E+04  0.25500000920E-02 0.  1.
       -2   -1    0    0    0  501  0.00000000000E+00  0.00000000000E+00 -0.10301988777E+04  0.10301988778E+04  0.25500000920E-02 0. -1.
    10030    2    1    2    0    0  0.00000000000E+00  0.00000000000E+00  0.90081471658E+03  0.29612124721E+04  0.28208708143E+04 0.  0.
        2    1    3    3  502    0 -0.41673968511E+03 -0.60932991257E+03  0.17120201180E+04  0.18643947521E+04  0.25500000920E-02 0.  1.
       -2    1    3    3    0  502  0.41673968511E+03  0.60932991257E+03 -0.81120540139E+03  0.10968177199E+04  0.25500000920E-02 0. -1.
</event>
<event>
 5   0  0.5866136E-06  0.2838607E+04  0.7818609E-02  0.8291382E-01
        2   -1    0    0  501    0  0.00000000000E+00  0.00000000000E+00  0.15033290287E+04  0.15033290287E+04  0.25500000920E-02 0. -1.
       -2   -1    0    0    0  501  0.00000000000E+00  0.00000000000E+00 -0.13399745447E+04  0.13399745447E+04  0.25500000920E-02 0.  1.
    10030    2    1    2    0    0  0.00000000000E+00  0.00000000000E+00  0.16335448401E+03  0.28433035734E+04  0.28386071449E+04 0.  0.
        5    1    3    3  502    0 -0.27430781032E+03 -0.50934105261E+03 -0.12165100398E+04  0.13470678712E+04  0.46999998093E+01 0.  1.
       -5    1    3    3    0  502  0.27430781032E+03  0.50934105261E+03  0.13798645238E+04  0.14962357023E+04  0.46999998093E+01 0. -1.
</event>
<event>
 5   0  0.2190865E-06  0.2783404E+04  0.7818609E-02  0.8308439E-01
        1   -1    0    0  501    0  0.00000000000E+00  0.00000000000E+00  0.13536603136E+04  0.13536603136E+04  0.50400001928E-02 0. -1.
       -1   -1    0    0    0  501  0.00000000000E+00  0.00000000000E+00 -0.14308126961E+04  0.14308126962E+04  0.50400001928E-02 0.  1.
    10030    2    1    2    0    0  0.00000000000E+00  0.00000000000E+00 -0.77152382540E+02  0.27844730098E+04  0.27834039326E+04 0.  0.
        2    1    3    3  502    0  0.24127123684E+03  0.91604173173E+03 -0.10585216641E+04  0.14204972289E+04  0.25500000920E-02 0.  1.
       -2    1    3    3    0  502 -0.24127123684E+03 -0.91604173173E+03  0.98136928154E+03  0.13639757809E+04  0.25500000920E-02 0. -1.
</event>
<event>
 5   0  0.5916603E-06  0.2956429E+04  0.7818609E-02  0.8256284E-01
       -2   -1    0    0    0  501  0.00000000000E+00  0.00000000000E+00  0.17165819666E+04  0.17165819666E+04  0.25500000920E-02 0. -1.
        2   -1    0    0  501    0  0.00000000000E+00  0.00000000000E+00 -0.12729468181E+04  0.12729468181E+04  0.25500000920E-02 0.  1.
    10030    2    1    2    0    0  0.00000000000E+00  0.00000000000E+00  0.44363514848E+03  0.29895287848E+04  0.29564286242E+04 0.  0.
        2    1    3    3  502    0  0.13377754874E+04  0.62574730660E+03  0.15855026329E+03  0.14853757546E+04  0.25500000920E-02 0. -1.
       -2    1    3    3    0  502 -0.13377754874E+04 -0.62574730660E+03  0.28508488519E+03  0.15041530302E+04  0.25500000920E-02 0.  1.
</event>
<event>
 5   0  0.5625245E-06  0.2796516E+04  0.7818609E-02  0.8304351E-01
        2   -1    0    0  501    0  0.00000000000E+00  0.00000000000E+00  0.17154861913E+04  0.17154861913E+04  0.25500000920E-02 0.  1.
       -2   -1    0    0    0  501  0.00000000000E+00  0.00000000000E+00 -0.11396916435E+04  0.11396916435E+04  0.25500000920E-02 0. -1.
    10030    2    1    2    0    0  0.00000000000E+00  0.00000000000E+00  0.57579454782E+03  0.28551778349E+04  0.27965158872E+04 0.  0.
        3    1    3    3  502    0 -0.31456550581E+02  0.86303472565E+03  0.14106500113E+04  0.16540108575E+04  0.10100000352E+00 0.  1.
       -3    1    3    3    0  502  0.31456550581E+02 -0.86303472565E+03 -0.83485546350E+03  0.12011669773E+04  0.10100000352E+00 0. -1.
</event>
<event>
 5   0  0.1901375E-06  0.2654367E+04  0.7818609E-02  0.8349965E-01
        3   -1    0    0  501    0  0.00000000000E+00  0.00000000000E+00  0.11231530390E+04  0.11231530436E+04  0.10100000352E+00 0. -1.
       -3   -1    0    0    0  501  0.00000000000E+00  0.00000000000E+00 -0.15682773253E+04  0.15682773286E+04  0.10100000352E+00 0.  1.
    10030    2    1    2    0    0  0.00000000000E+00  0.00000000000E+00 -0.44512428630E+03  0.26914303722E+04  0.26543665568E+04 0.  0.
        5    1    3    3  502    0 -0.93261025544E+03  0.83188617239E+03  0.23043881199E+03  0.12707952740E+04  0.46999998093E+01 0. -1.
       -5    1    3    3    0  502  0.93261025544E+03 -0.83188617239E+03 -0.67556309829E+03  0.14206350982E+04  0.46999998093E+01 0.  1.
</event>
<event>
 5   0  0.2206967E-06  0.2776660E+04  0.7818609E-02  0.8310551E-01
        1   -1    0    0  501    0  0.00000000000E+00  0.00000000000E+00  0.11642705022E+04  0.11642705022E+04  0.50400001928E-02 0. -1.
       -1   -1    0    0    0  501  0.00000000000E+00  0.00000000000E+00 -0.16555091951E+04  0.16555091951E+04  0.50400001928E-02 0.  1.
    10030    2    1    2    0    0  0.00000000000E+00  0.00000000000E+00 -0.49123869292E+03  0.28197796973E+04  0.27766602399E+04 0.  0.
        5    1    3    3  502    0  0.54513362150E+03  0.76701305469E+03 -0.12822348477E+04  0.15904804261E+04  0.46999998093E+01 0.  1.
       -5    1    3    3    0  502 -0.54513362150E+03 -0.76701305469E+03  0.79099615473E+03  0.12292992712E+04  0.46999998093E+01 0. -1.
</event>
<event>
 5   0  0.5584205E-06  0.2719262E+04  0.7818609E-02  0.8328782E-01
        2   -1    0    0  501    0  0.00000000000E+00  0.00000000000E+00  0.24071152959E+04  0.24071152959E+04  0.25500000920E-02 0.  1.
       -2   -1    0    0    0  501  0.00000000000E+00  0.00000000000E+00 -0.76797145044E+03  0.76797145044E+03  0.25500000920E-02 0. -1.
    10030    2    1    2    0    0  0.00000000000E+00  0.00000000000E+00  0.16391438454E+04  0.31750867463E+04  0.27192615359E+04 0.  0.
        1    1    3    3  502    0 -0.74321869107E+03 -0.10195709439E+04  0.22798996358E+03  0.12821381969E+04  0.50400001928E-02 0.  1.
       -1    1    3    3    0  502  0.74321869107E+03  0.10195709439E+04  0.14111538818E+04  0.18929485494E+04  0.50400001928E-02 0. -1.
</event>
<event>
 5   0  0.2267565E-06  0.2796090E+04  0.7818609E-02  0.8304483E-01
        1   -1    0    0  501    0  0.00000000000E+00  0.00000000000E+00  0.15789812420E+04  0.15789812420E+04  0.50400001928E-02 0. -1.
       -1   -1    0    0    0  501  0.00000000000E+00  0.00000000000E+00 -0.12378424742E+04  0.12378424742E+04  0.50400001928E-02 0.  1.
    10030    2    1    2    0    0  0.00000000000E+00  0.00000000000E+00  0.34113876775E+03  0.28168237162E+04  0.27960901611E+04 0.  0.
        4    1    3    3  502    0  0.28371066469E+02  0.48151241479E+03  0.14924997843E+04  0.15685076799E+04  0.12699999809E+01 0. -1.
       -4    1    3    3    0  502 -0.28371066469E+02 -0.48151241479E+03 -0.11513610165E+04  0.12483160362E+04  0.12699999809E+01 0.  1.
</event>
<event>
 5   0  0.2190865E-06  0.2656890E+04  0.7818609E-02  0.8349130E-01
       -1   -1    0    0    0  501  0.00000000000E+00  0.00000000000E+00  0.83309153665E+03  0.83309153667E+03  0.50400001928E-02 0.  1.
        1   -1    0    0  501    0  0.00000000000E+00  0.00000000000E+00 -0.21183334156E+04  0.21183334156E+04  0.50400001928E-02 0. -1.
    10030    2    1    2    0    0  0.00000000000E+00  0.00000000000E+00 -0.12852418789E+04  0.29514249522E+04  0.26568896404E+04 0.  0.
        2    1    3    3  502    0 -0.95038748460E+03  0.80664731063E+03 -0.13253377043E+03  0.12535874341E+04  0.25500000920E-02 0.  1.
       -2    1    3    3    0  502  0.95038748460E+03 -0.80664731063E+03 -0.11527081085E+04  0.16978375181E+04  0.25500000920E-02 0. -1.
</event>
<event>
 5   0  0.5546570E-06  0.2840076E+04  0.7818609E-02  0.8290933E-01
       -2   -1    0    0    0  501  0.00000000000E+00  0.00000000000E+00  0.14158630073E+04  0.14158630073E+04  0.25500000920E-02 0. -1.
        2   -1    0    0  501    0  0.00000000000E+00  0.00000000000E+00 -0.14242251987E+04  0.14242251987E+04  0.25500000920E-02 0.  1.
    10030    2    1    2    0    0  0.00000000000E+00  0.00000000000E+00 -0.83621914114E+01  0.28400882060E+04  0.28400758954E+04 0.  0.
        4    1    3    3  502    0  0.20997365747E+03  0.10467455254E+04  0.93216746591E+03  0.14172871725E+04  0.12699999809E+01 0. -1.
       -4    1    3    3    0  502 -0.20997365747E+03 -0.10467455254E+04 -0.94052965732E+03  0.14228010335E+04  0.12699999809E+01 0.  1.
</event>
<event>
 5   0  0.5916603E-06  0.2791461E+04  0.7818609E-02  0.8305924E-01
        2   -1    0    0  501    0  0.00000000000E+00  0.00000000000E+00  0.15859745566E+04  0.15859745566E+04  0.25500000920E-02 0.  1.
       -2   -1    0    0    0  501  0.00000000000E+00  0.00000000000E+00 -0.12283070098E+04  0.12283070098E+04  0.25500000920E-02 0. -1.
    10030    2    1    2    0    0  0.00000000000E+00  0.00000000000E+00  0.35766754682E+03  0.28142815664E+04  0.27914610263E+04 0.  0.
        2    1    3    3  502    0  0.69248807669E+03  0.19876806099E+03 -0.10263531186E+04  0.12539733659E+04  0.25500000920E-02 0. -1.
       -2    1    3    3    0  502 -0.69248807669E+03 -0.19876806099E+03  0.13840206654E+04  0.15603082005E+04  0.25500000920E-02 0.  1.
</event>
<event>
 5   0  0.5625245E-06  0.2791524E+04  0.7818609E-02  0.8305905E-01
        2   -1    0    0  501    0  0.00000000000E+00  0.00000000000E+00  0.16239024775E+04  0.16239024775E+04  0.25500000920E-02 0.  1.
       -2   -1    0    0    0  501  0.00000000000E+00  0.00000000000E+00 -0.11996731000E+04  0.11996731000E+04  0.25500000920E-02 0. -1.
    10030    2    1    2    0    0  0.00000000000E+00  0.00000000000E+00  0.42422937754E+03  0.28235755775E+04  0.27915244002E+04 0.  0.
        3    1    3    3  502    0  0.96616593045E+03  0.66019300077E+03 -0.55742321806E+03  0.12961682212E+04  0.10100000352E+00 0.  1.
       -3    1    3    3    0  502 -0.96616593045E+03 -0.66019300077E+03  0.98165259560E+03  0.15274073563E+04  0.10100000352E+00 0. -1.
</event>
<event>
 5   0  0.2190865E-06  0.2801724E+04  0.7818609E-02  0.8302733E-01
       -1   -1    0    0    0  501  0.00000000000E+00  0.00000000000E+00  0.10354666146E+04  0.10354666146E+04  0.50400001928E-02 0.  1.
        1   -1    0    0  501    0  0.00000000000E+00  0.00000000000E+00 -0.18951981674E+04  0.18951981674E+04  0.50400001928E-02 0. -1.
    10030    2    1    2    0    0  0.00000000000E+00  0.00000000000E+00 -0.85973155279E+03  0.29306647820E+04  0.28017240624E+04 0.  0.
        2    1    3    3  502    0 -0.10268151175E+04 -0.65755934334E+03  0.29157157167E+03  0.12536935658E+04  0.25500000920E-02 0.  1.
       -2    1    3    3    0  502  0.10268151175E+04  0.65755934334E+03 -0.11513031245E+04  0.16769712162E+04  0.25500000920E-02 0. -1.
</event>
<event>
 5   0  0.5546570E-06  0.2749502E+04  0.7818609E-02  0.8319120E-01
       -2   -1    0    0    0  501  0.00000000000E+00  0.00000000000E+00  0.16942732957E+04  0.16942732957E+04  0.25500000920E-02 0. -1.
        2   -1    0    0  501    0  0.00000000000E+00  0.00000000000E+00 -0.11154871188E+04  0.11154871188E+04  0.25500000920E-02 0.  1.
    10030    2    1    2    0    0  0.00000000000E+00  0.00000000000E+00  0.57878617691E+03  0.28097604146E+04  0.27495018001E+04 0.  0.
        4    1    3    3  502    0  0.10734858887E+04 -0.76798242610E+03  0.68222578716E+03  0.14858003223E+04  0.12699999809E+01 0. -1.
       -4    1    3    3    0  502 -0.10734858887E+04  0.76798242610E+03 -0.10343961025E+03  0.13239600923E+04  0.12699999809E+01 0.  1.
</event>
<event>
 5   0  0.5625245E-06  0.2795979E+04  0.7818609E-02  0.8304518E-01
        2   -1    0    0  501    0  0.00000000000E+00  0.00000000000E+00  0.14229534158E+04  0.14229534158E+04  0.25500000920E-02 0.  1.
       -2   -1    0    0    0  501  0.00000000000E+00  0.00000000000E+00 -0.13734638376E+04  0.13734638376E+04  0.25500000920E-02 0. -1.
    10030    2    1    2    0    0  0.00000000000E+00  0.00000000000E+00  0.49489578115E+02  0.27964172534E+04  0.27959792983E+04 0.  0.
        3    1    3    3  502    0  0.76245272759E+03  0.11126171560E+04 -0.34290488885E+03  0.13917021487E+04  0.10100000352E+00 0. -1.
       -3    1    3    3    0  502 -0.76245272759E+03 -0.11126171560E+04  0.39239446697E+03  0.14047151047E+04  0.10100000352E+00 0.  1.
</event>
<event>
 5   0  0.2234068E-06  0.2813623E+04  0.7818609E-02  0.8299051E-01
        1   -1    0    0  501    0  0.00000000000E+00  0.00000000000E+00  0.17979331917E+04  0.17979331917E+04  0.50400001928E-02 0.  1.
       -1   -1    0    0    0  501  0.00000000000E+00  0.00000000000E+00 -0.11007742972E+04  0.11007742972E+04  0.50400001928E-02 0. -1.
    10030    2    1    2    0    0  0.00000000000E+00  0.00000000000E+00  0.69715889452E+03  0.28987074890E+04  0.28136230349E+04 0.  0.
        3    1    3    3  502    0  0.52506670950E+03  0.12350138348E+03 -0.99000784796E+03  0.11274143827E+04  0.10100000352E+00 0. -1.
       -3    1    3    3    0  502 -0.52506670950E+03 -0.12350138348E+03  0.16871667425E+04  0.17712931063E+04  0.10100000352E+00 0.  1.
</event>
<event>
 5   0  0.5625245E-06  0.2857618E+04  0.7818609E-02  0.8285600E-01
        2   -1    0    0  501    0  0.00000000000E+00  0.00000000000E+00  0.24132014453E+04  0.24132014453E+04  0.25500000920E-02 0. -1.
       -2   -1    0    0    0  501  0.00000000000E+00  0.00000000000E+00 -0.84596983122E+03  0.84596983123E+03  0.25500000920E-02 0.  1.
    10030    2    1    2    0    0  0.00000000000E+00  0.00000000000E+00  0.15672316141E+04  0.32591712765E+04  0.28576183226E+04 0.  0.
        3    1    3    3  502    0  0.14101175841E+04  0.22974402366E+03  0.80275793128E+03  0.16387904758E+04  0.10100000352E+00 0.  1.
       -3    1    3    3    0  502 -0.14101175841E+04 -0.22974402366E+03  0.76447368278E+03  0.16203808007E+04  0.10100000352E+00 0. -1.
</event>
<event>
 5   0  0.2190865E-06  0.2780618E+04  0.7818609E-02  0.8309311E-01
       -1   -1    0    0    0  501  0.00000000000E+00  0.00000000000E+00  0.14804157931E+04  0.14804157932E+04  0.50400001928E-02 0.  1.
        1   -1    0    0  501    0  0.00000000000E+00  0.00000000000E+00 -0.13056869194E+04  0.13056869194E+04  0.50400001928E-02 0. -1.
    10030    2    1    2    0    0  0.00000000000E+00  0.00000000000E+00  0.17472887372E+03  0.27861027126E+04  0.27806183028E+04 0.  0.
        2    1    3    3  502    0  0.88930237745E+03  0.10482376075E+04  0.29585833795E+03  0.14061269347E+04  0.25500000920E-02 0.  1.
       -2    1    3    3    0  502 -0.88930237745E+03 -0.10482376075E+04 -0.12112946423E+03  0.13799757779E+04  0.25500000920E-02 0. -1.
</event>
<event>
 5   0  0.2277133E-06  0.2803639E+04  0.7818609E-02  0.8302139E-01
       -1   -1    0    0    0  501  0.00000000000E+00  0.00000000000E+00  0.12600316641E+04  0.12600316641E+04  0.50400001928E-02 0. -1.
        1   -1    0    0  501    0  0.00000000000E+00  0.00000000000E+00 -0.15595627110E+04  0.15595627110E+04  0.50400001928E-02 0.  1.
    10030    2    1    2    0    0  0.00000000000E+00  0.00000000000E+00 -0.29953104695E+03  0.28195943751E+04  0.28036393477E+04 0.  0.
        1    1    3    3  502    0 -0.10650074199E+04  0.85760827394E+03 -0.46033620686E+03  0.14427897211E+04  0.50400001928E-02 0.  1.
       -1    1    3    3    0  502  0.10650074199E+04 -0.85760827394E+03  0.16080515991E+03  0.13768046540E+04  0.50400001928E-02 0. -1.
</event>
<event>
 5   0  0.5546570E-06  0.2795945E+04  0.7818609E-02  0.8304528E-01
       -2   -1    0    0    0  501  0.00000000000E+00  0.00000000000E+00  0.11166333945E+04  0.11166333945E+04  0.25500000920E-02 0. -1.
        2   -1    0    0  501    0  0.00000000000E+00  0.00000000000E+00 -0.17501964040E+04  0.17501964040E+04  0.25500000920E-02 0.  1.
    10030    2    1    2    0    0  0.00000000000E+00  0.00000000000E+00 -0.63356300955E+03  0.28668297985E+04  0.27959454584E+04 0.  0.
        4    1    3    3  502    0 -0.11872671006E+03 -0.13550018492E+04 -0.64776571335E+03  0.15065616732E+04  0.12699999809E+01 0.  1.
       -4    1    3    3    0  502  0.11872671006E+03  0.13550018492E+04  0.14202703803E+02  0.13602681253E+04  0.12699999809E+01 0. -1.
</event>
<event>
 5   0  0.5546570E-06  0.2793251E+04  0.7818609E-02  0.8305367E-01
       -2   -1    0    0    0  501  0.00000000000E+00  0.00000000000E+00  0.90419269632E+03  0.90419269632E+03  0.25500000920E-02 0. -1.
        2   -1    0    0  501    0  0.00000000000E+00  0.00000000000E+00 -0.21572420368E+04  0.21572420368E+04  0.25500000920E-02 0.  1.
    10030    2    1    2    0    0  0.00000000000E+00  0.00000000000E+00 -0.12530493405E+04  0.30614347331E+04  0.27932507899E+04 0.  0.
        4    1    3    3  502    0  0.88424018667E+03 -0.10797780806E+04 -0.68409886932E+03  0.15542825634E+04  0.12699999809E+01 0.  1.
       -4    1    3    3    0  502 -0.88424018667E+03  0.10797780806E+04 -0.56895047116E+03  0.15071521697E+04  0.12699999809E+01 0. -1.
</event>
<event>
 5   0  0.5546570E-06  0.2799974E+04  0.7818609E-02  0.8303276E-01
        2   -1    0    0  501    0  0.00000000000E+00  0.00000000000E+00  0.10226022158E+04  0.10226022158E+04  0.25500000920E-02 0. -1.
       -2   -1    0    0    0  501  0.00000000000E+00  0.00000000000E+00 -0.19166433420E+04  0.19166433420E+04  0.25500000920E-02 0.  1.
    10030    2    1    2    0    0  0.00000000000E+00  0.00000000000E+00 -0.89404112615E+03  0.29392455578E+04  0.27999740916E+04 0.  0.
        4    1    3    3  502    0  0.13905845050E+04  0.38181614991E+02 -0.28177725868E+03  0.14193601156E+04  0.12699999809E+01 0.  1.
       -4    1    3    3    0  502 -0.13905845050E+04 -0.38181614991E+02 -0.61226386747E+03  0.15198854422E+04  0.12699999809E+01 0. -1.
</event>
<event>
 5   0  0.2234068E-06  0.2513376E+04  0.7818609E-02  0.8398236E-01
        1   -1    0    0  501    0  0.00000000000E+00  0.00000000000E+00  0.21975813862E+04  0.21975813862E+04  0.50400001928E-02 0. -1.
       -1   -1    0    0    0  501  0.00000000000E+00  0.00000000000E+00 -0.71863761644E+03  0.71863761646E+03  0.50400001928E-02 0.  1.
    10030    2    1    2    0    0  0.00000000000E+00  0.00000000000E+00  0.14789437698E+04  0.29162190027E+04  0.25133759363E+04 0.  0.
        3    1    3    3  502    0  0.22172295410E+03  0.79678029626E+03 -0.35835426037E+03  0.90135325762E+03  0.10100000352E+00 0.  1.
       -3    1    3    3    0  502 -0.22172295410E+03 -0.79678029626E+03  0.18372980301E+04  0.20148657450E+04  0.10100000352E+00 0. -1.
</event>
<event>
 5   0  0.5625245E-06  0.2812127E+04  0.7818609E-02  0.8299513E-01
       -2   -1    0    0    0  501  0.00000000000E+00  0.00000000000E+00  0.10927114507E+04  0.10927114507E+04  0.25500000920E-02 0. -1.
        2   -1    0    0  501    0  0.00000000000E+00  0.00000000000E+00 -0.18092737349E+04  0.18092737349E+04  0.25500000920E-02 0.  1.
    10030    2    1    2    0    0  0.00000000000E+00  0.00000000000E+00 -0.71656228419E+03  0.29019851856E+04  0.28121266881E+04 0.  0.
        3    1    3    3  502    0 -0.10596719799E+04  0.47632507746E+03  0.45900020116E+03  0.12491883282E+04  0.10100000352E+00 0. -1.
       -3    1    3    3    0  502  0.10596719799E+04 -0.47632507746E+03 -0.11755624854E+04  0.16527968573E+04  0.10100000352E+00 0.  1.
</event>
<event>
 5   0  0.5584205E-06  0.2826400E+04  0.7818609E-02  0.8295119E-01
        2   -1    0    0  501    0  0.00000000000E+00  0.00000000000E+00  0.17541627809E+04  0.17541627809E+04  0.25500000920E-02 0. -1.
       -2   -1    0    0    0  501  0.00000000000E+00  0.00000000000E+00 -0.11385115048E+04  0.11385115048E+04  0.25500000920E-02 0.  1.
    10030    2    1    2    0    0  0.00000000000E+00  0.00000000000E+00  0.61565127613E+03  0.28926742857E+04  0.28264001892E+04 0.  0.
        1    1    3    3  502    0 -0.54393799359E+03 -0.87093127972E+03 -0.68589183173E+03  0.12348430830E+04  0.50400001928E-02 0. -1.
       -1    1    3    3    0  502  0.54393799359E+03  0.87093127972E+03  0.13015431079E+04  0.16578312027E+04  0.50400001928E-02 0.  1.
</event>
<event>
 5   0  0.2190865E-06  0.2795052E+04  0.7818609E-02  0.8304806E-01
       -1   -1    0    0    0  501  0.00000000000E+00  0.00000000000E+00  0.13797593272E+04  0.13797593272E+04  0.50400001928E-02 0. -1.
        1   -1    0    0  501    0  0.00000000000E+00  0.00000000000E+00 -0.14155214137E+04  0.14155214137E+04  0.50400001928E-02 0.  1.
    10030    2    1    2    0    0  0.00000000000E+00  0.00000000000E+00 -0.35762086578E+02  0.27952807409E+04  0.27950519662E+04 0.  0.
        2    1    3    3  502    0  0.31293514832E+02 -0.12290512460E+04  0.64665255700E+03  0.13891385024E+04  0.25500000920E-02 0. -1.
       -2    1    3    3    0  502 -0.31293514832E+02  0.12290512460E+04 -0.68241464358E+03  0.14061422385E+04  0.25500000920E-02 0.  1.
</event>
<event>
 5   0  0.2277133E-06  0.2787939E+04  0.7818609E-02  0.8307023E-01
        1   -1    0    0  501    0  0.00000000000E+00  0.00000000000E+00  0.18005421052E+04  0.18005421052E+04  0.50400001928E-02 0.  1.
       -1   -1    0    0    0  501  0.00000000000E+00  0.00000000000E+00 -0.10792030163E+04  0.10792030163E+04  0.50400001928E-02 0. -1.
    10030    2    1    2    0    0  0.00000000000E+00  0.00000000000E+00  0.72133908889E+03  0.28797451215E+04  0.27879386442E+04 0.  0.
        1    1    3    3  502    0  0.10071232885E+04  0.49261786888E+03 -0.49496855937E+03  0.12255462283E+04  0.50400001928E-02 0. -1.
       -1    1    3    3    0  502 -0.10071232885E+04 -0.49261786888E+03  0.12163076483E+04  0.16541988932E+04  0.50400001928E-02 0.  1.
</event>
<event>
 5   0  0.2190865E-06  0.2831411E+04  0.7818609E-02  0.8293582E-01
       -1   -1    0    0    0  501  0.00000000000E+00  0.00000000000E+00  0.15789997121E+04  0.15789997121E+04  0.50400001928E-02 0.  1.
        1   -1    0    0  501    0  0.00000000000E+00  0.00000000000E+00 -0.12692983170E+04  0.12692983171E+04  0.50400001928E-02 0. -1.
    10030    2    1    2    0    0  0.00000000000E+00  0.00000000000E+00  0.30970139505E+03  0.28482980292E+04  0.28314107277E+04 0.  0.
        2    1    3    3  502    0  0.43793595407E+03 -0.12580468891E+04 -0.32733244093E+03  0.13717202346E+04  0.25500000920E-02 0. -1.
       -2    1    3    3    0  502 -0.43793595407E+03  0.12580468891E+04  0.63703383598E+03  0.14765777945E+04  0.25500000920E-02 0.  1.
</event>
<event>
 5   0  0.5625245E-06  0.2806799E+04  0.7818609E-02  0.8301161E-01
        2   -1    0    0  501    0  0.00000000000E+00  0.00000000000E+00  0.16128775491E+04  0.16128775491E+04  0.25500000920E-02 0.  1.
       -2   -1    0    0    0  501  0.00000000000E+00  0.00000000000E+00 -0.12211278952E+04  0.12211278952E+04  0.25500000920E-02 0. -1.
    10030    2    1    2    0    0  0.00000000000E+00  0.00000000000E+00  0.39174965385E+03  0.28340054443E+04  0.28067987222E+04 0.  0.
        3    1    3    3  502    0  0.34682094449E+02 -0.99787857721E+03 -0.79987166490E+03  0.12793588992E+04  0.10100000352E+00 0. -1.
       -3    1    3    3    0  502 -0.34682094449E+02  0.99787857721E+03  0.11916213187E+04  0.15546465450E+04  0.10100000352E+00 0.  1.
</event>
<event>
 5   0  0.2190865E-06  0.2790222E+04  0.7818609E-02  0.8306310E-01
        1   -1    0    0  501    0  0.00000000000E+00  0.00000000000E+00  0.15733672506E+04  0.15733672506E+04  0.50400001928E-02 0.  1.
       -1   -1    0    0    0  501  0.00000000000E+00  0.00000000000E+00 -0.12370507651E+04  0.12370507651E+04  0.50400001928E-02 0. -1.
    10030    2    1    2    0    0  0.00000000000E+00  0.00000000000E+00  0.33631648550E+03  0.28104180157E+04  0.27902223289E+04 0.  0.
        2    1    3    3  502    0  0.90593516119E+03  0.10805676661E+03  0.12312312342E+04  0.15324245930E+04  0.25500000920E-02 0.  1.
       -2    1    3    3    0  502 -0.90593516119E+03 -0.10805676661E+03 -0.89491474869E+03  0.12779934227E+04  0.25500000920E-02 0. -1.
</event>
<event>
 5   0  0.5546570E-06  0.2780230E+04  0.7818609E-02  0.8309433E-01
       -2   -1    0    0    0  501  0.00000000000E+00  0.00000000000E+00  0.94722856655E+03  0.94722856656E+03  0.25500000920E-02 0.  1.
        2   -1    0    0  501    0  0.00000000000E+00  0.00000000000E+00 -0.20400770340E+04  0.20400770340E+04  0.25500000920E-02 0. -1.
    10030    2    1    2    0    0  0.00000000000E+00  0.00000000000E+00 -0.10928484675E+04  0.29873056006E+04  0.27802296629E+04 0.  0.
        4    1    3    3  502    0 -0.87134269631E+02 -0.18871131454E+03  0.93043627142E+03  0.95337170571E+03  0.12699999809E+01 0.  1.
       -4    1    3    3    0  502  0.87134269631E+02  0.18871131454E+03 -0.20232847389E+04  0.20339338949E+04  0.12699999809E+01 0. -1.
</event>
<event>
 5   0  0.2234068E-06  0.2781107E+04  0.7818609E-02  0.8309158E-01
       -1   -1    0    0    0  501  0.00000000000E+00  0.00000000000E+00  0.13629470024E+04  0.13629470024E+04  0.50400001928E-02 0.  1.
        1   -1    0    0  501    0  0.00000000000E+00  0.00000000000E+00 -0.14187192788E+04  0.14187192788E+04  0.50400001928E-02 0. -1.
    10030    2    1    2    0    0  0.00000000000E+00  0.00000000000E+00 -0.55772276360E+02  0.27816662812E+04  0.27811071093E+04 0.  0.
        3    1    3    3  502    0  0.17960467829E+03  0.14494603407E+03  0.13436561322E+04  0.13633337835E+04  0.10100000352E+00 0.  1.
       -3    1    3    3    0  502 -0.17960467829E+03 -0.14494603407E+03 -0.13994284086E+04  0.14183324978E+04  0.10100000352E+00 0. -1.
</event>
<event>
 5   0  0.2277133E-06  0.2809419E+04  0.7818609E-02  0.8300350E-01
       -1   -1    0    0    0  501  0.00000000000E+00  0.00000000000E+00  0.82623991835E+03  0.82623991837E+03  0.50400001928E-02 0.  1.
        1   -1    0    0  501    0  0.00000000000E+00  0.00000000000E+00 -0.23881792563E+04  0.23881792563E+04  0.50400001928E-02 0. -1.
    10030    2    1    2    0    0  0.00000000000E+00  0.00000000000E+00 -0.15619393379E+04  0.32144191747E+04  0.28094191811E+04 0.  0.
        1    1    3    3  502    0 -0.13250064406E+04  0.29749097962E+03 -0.11920171890E+04  0.18069443625E+04  0.50400001928E-02 0. -1.
       -1    1    3    3    0  502  0.13250064406E+04 -0.29749097962E+03 -0.36992214897E+03  0.14074748121E+04  0.50400001928E-02 0.  1.
</event>
<event>
 5   0  0.5546570E-06  0.2806789E+04  0.7818609E-02  0.8301164E-01
        2   -1    0    0  501    0  0.00000000000E+00  0.00000000000E+00  0.19395800649E+04  0.19395800649E+04  0.25500000920E-02 0.  1.
       -2   -1    0    0    0  501  0.00000000000E+00  0.00000000000E+00 -0.10154341716E+04  0.10154341716E+04  0.25500000920E-02 0. -1.
    10030    2    1    2    0    0  0.00000000000E+00  0.00000000000E+00  0.92414589332E+03  0.29550142365E+04  0.28067888246E+04 0.  0.
        4    1    3    3  502    0  0.19533280346E+02 -0.13990721697E+04  0.34804934821E+03  0.14418475810E+04  0.12699999809E+01 0.  1.
       -4    1    3    3    0  502 -0.19533280346E+02  0.13990721697E+04  0.57609654511E+03  0.15131666555E+04  0.12699999809E+01 0. -1.
</event>
<event>
 5   0  0.5866136E-06  0.2796740E+04  0.7818609E-02  0.8304281E-01
        2   -1    0    0  501    0  0.00000000000E+00  0.00000000000E+00  0.16856867105E+04  0.16856867105E+04  0.25500000920E-02 0.  1.
       -2   -1    0    0    0  501  0.00000000000E+00  0.00000000000E+00 -0.11600251113E+04  0.11600251113E+04  0.25500000920E-02 0. -1.
    10030    2    1    2    0    0  0.00000000000E+00  0.00000000000E+00  0.52566159922E+03  0.28457118217E+04  0.27967401838E+04 0.  0.
        5    1    3    3  502    0 -0.12351417327E+04 -0.51114139778E+03  0.68060048179E+03  0.15000265778E+04  0.46999998093E+01 0.  1.
       -5    1    3    3    0  502  0.12351417327E+04  0.51114139778E+03 -0.15493888257E+03  0.13456852439E+04  0.46999998093E+01 0. -1.
</event>
<event>
 5   0  0.2190865E-06  0.2795336E+04  0.7818609E-02  0.8304718E-01
        1   -1    0    0  501    0  0.00000000000E+00  0.00000000000E+00  0.15632686214E+04  0.15632686214E+04  0.50400001928E-02 0. -1.
       -1   -1    0    0    0  501  0.00000000000E+00  0.00000000000E+00 -0.12496094742E+04  0.12496094742E+04  0.50400001928E-02 0.  1.
    10030    2    1    2    0    0  0.00000000000E+00  0.00000000000E+00  0.31365914718E+03  0.28128780956E+04  0.27953356006E+04 0.  0.
        2    1    3    3  502    0  0.84350818888E+03 -0.12602371022E+03 -0.95740759588E+03  0.12821923978E+04  0.25500000920E-02 0.  1.
       -2    1    3    3    0  502 -0.84350818888E+03  0.12602371022E+03  0.12710667431E+04  0.15306856978E+04  0.25500000920E-02 0. -1.
</event>
<event>
 5   0  0.2190865E-06  0.2852664E+04  0.7818609E-02  0.8287102E-01
       -1   -1    0    0    0  501  0.00000000000E+00  0.00000000000E+00  0.11064949411E+04  0.11064949411E+04  0.50400001928E-02 0.  1.
        1   -1    0    0  501    0  0.00000000000E+00  0.00000000000E+00 -0.18386196657E+04  0.18386196657E+04  0.50400001928E-02 0. -1.
    10030    2    1    2    0    0  0.00000000000E+00  0.00000000000E+00 -0.73212472459E+03  0.29451146068E+04  0.28526642696E+04 0.  0.
        2    1    3    3  502    0  0.91384670494E+03 -0.10504019393E+04 -0.68588130224E+03  0.15520609508E+04  0.25500000920E-02 0. -1.
       -2    1    3    3    0  502 -0.91384670494E+03  0.10504019393E+04 -0.46243422346E+02  0.13930536560E+04  0.25500000920E-02 0.  1.
</event>
<event>
 5   0  0.2277133E-06  0.2843481E+04  0.7818609E-02  0.8289895E-01
       -1   -1    0    0    0  501  0.00000000000E+00  0.00000000000E+00  0.88329642973E+03  0.88329642974E+03  0.50400001928E-02 0.  1.
        1   -1    0    0  501    0  0.00000000000E+00  0.00000000000E+00 -0.22884116461E+04  0.22884116461E+04  0.50400001928E-02 0. -1.
    10030    2    1    2    0    0  0.00000000000E+00  0.00000000000E+00 -0.14051152163E+04  0.31717080758E+04  0.28434808505E+04 0.  0.
        1    1    3    3  502    0  0.67443885472E+03 -0.92912440352E+03  0.23281394190E+03  0.11714701266E+04  0.50400001928E-02 0.  1.
       -1    1    3    3    0  502 -0.67443885472E+03  0.92912440352E+03 -0.16379291582E+04  0.20002379492E+04  0.50400001928E-02 0. -1.
</event>
<event>
 5   0  0.2206967E-06  0.2483515E+04  0.7818609E-02  0.8408882E-01
       -1   -1    0    0    0  501  0.00000000000E+00  0.00000000000E+00  0.13104351700E+04  0.13104351700E+04  0.50400001928E-02 0.  1.
        1   -1    0    0  501    0  0.00000000000E+00  0.00000000000E+00 -0.11766795619E+04  0.11766795619E+04  0.50400001928E-02 0. -1.
    10030    2    1    2    0    0  0.00000000000E+00  0.00000000000E+00  0.13375560812E+03  0.24871147320E+04  0.24835154776E+04 0.  0.
        5    1    3    3  502    0  0.73211337975E+03 -0.73005781655E+03 -0.62184395956E+03  0.12065183034E+04  0.46999998093E+01 0. -1.
       -5    1    3    3    0  502 -0.73211337975E+03  0.73005781655E+03  0.75559956768E+03  0.12805964286E+04  0.46999998093E+01 0.  1.
</event>
<event>
 5   0  0.2234068E-06  0.2807486E+04  0.7818609E-02  0.8300948E-01
       -1   -1    0    0    0  501  0.00000000000E+00  0.00000000000E+00  0.76158011852E+03  0.76158011854E+03  0.50400001928E-02 0. -1.
        1   -1    0    0  501    0  0.00000000000E+00  0.00000000000E+00 -0.25873764541E+04  0.25873764541E+04  0.50400001928E-02 0.  1.
    10030    2    1    2    0    0  0.00000000000E+00  0.00000000000E+00 -0.18257963356E+04  0.33489565727E+04  0.28074860403E+04 0.  0.
        3    1    3    3  502    0  0.77452184859E+03 -0.52050850916E+02 -0.23080428732E+04  0.24350883556E+04  0.10100000352E+00 0.  1.
       -3    1    3    3    0  502 -0.77452184859E+03  0.52050850916E+02  0.48224653754E+03  0.91386821708E+03  0.10100000352E+00 0. -1.
</event>
<event>
 5   0  0.5584205E-06  0.2808613E+04  0.7818609E-02  0.8300599E-01
        2   -1    0    0  501    0  0.00000000000E+00  0.00000000000E+00  0.13285501458E+04  0.13285501458E+04  0.25500000920E-02 0. -1.
       -2   -1    0    0    0  501  0.00000000000E+00  0.00000000000E+00 -0.14843825601E+04  0.14843825601E+04  0.25500000920E-02 0.  1.
    10030    2    1    2    0    0  0.00000000000E+00  0.00000000000E+00 -0.15583241423E+03  0.28129327059E+04  0.28086129435E+04 0.  0.
        1    1    3    3  502    0  0.11047725140E+04  0.64244192215E+02  0.78795211892E+03  0.13584984967E+04  0.50400001928E-02 0. -1.
       -1    1    3    3    0  502 -0.11047725140E+04 -0.64244192215E+02 -0.94378453316E+03  0.14544342092E+04  0.50400001928E-02 0.  1.
</event>
<event>
 5   0  0.2206967E-06  0.2788924E+04  0.7818609E-02  0.8306715E-01
       -1   -1    0    0    0  501  0.00000000000E+00  0.00000000000E+00  0.12677002343E+04  0.12677002343E+04  0.50400001928E-02 0. -1.
        1   -1    0    0  501    0  0.00000000000E+00  0.00000000000E+00 -0.15338989488E+04  0.15338989488E+04  0.50400001928E-02 0.  1.
    10030    2    1    2    0    0  0.00000000000E+00  0.00000000000E+00 -0.26619871447E+03  0.28015991831E+04  0.27889238475E+04 0.  0.
        5    1    3    3  502    0 -0.21276591174E+03  0.12382805670E+04 -0.74074013876E+03  0.14585356146E+04  0.46999998093E+01 0.  1.
       -5    1    3    3    0  502  0.21276591174E+03 -0.12382805670E+04  0.47454142429E+03  0.13430635686E+04  0.46999998093E+01 0. -1.
</event>
<event>
 5   0  0.2277133E-06  0.2876123E+04  0.7818609E-02  0.8280017E-01
        1   -1    0    0  501    0  0.00000000000E+00  0.00000000000E+00  0.14655649436E+04  0.14655649436E+04  0.50400001928E-02 0. -1.
       -1   -1    0    0    0  501  0.00000000000E+00  0.00000000000E+00 -0.14110740807E+04  0.14110740807E+04  0.50400001928E-02 0.  1.
    10030    2    1    2    0    0  0.00000000000E+00  0.00000000000E+00  0.54490862816E+02  0.28766390243E+04  0.28761228802E+04 0.  0.
        1    1    3    3  502    0  0.13936015214E+04  0.24979027171E+03 -0.22479249927E+03  0.14335452724E+04  0.50400001928E-02 0.  1.
       -1    1    3    3    0  502 -0.13936015214E+04 -0.24979027171E+03  0.27928336208E+03  0.14430937519E+04  0.50400001928E-02 0. -1.
</event>
<event>
 5   0  0.2234068E-06  0.2819718E+04  0.7818609E-02  0.8297173E-01
       -1   -1    0    0    0  501  0.00000000000E+00  0.00000000000E+00  0.17226562491E+04  0.17226562491E+04  0.50400001928E-02 0.  1.
        1   -1    0    0  501    0  0.00000000000E+00  0.00000000000E+00 -0.11538590193E+04  0.11538590193E+04  0.50400001928E-02 0. -1.
    10030    2    1    2    0    0  0.00000000000E+00  0.00000000000E+00  0.56879722986E+03  0.28765152684E+04  0.28197180357E+04 0.  0.
        3    1    3    3  502    0  0.42589844190E+03 -0.54915590783E+03 -0.96698896989E+03  0.11908103846E+04  0.10100000352E+00 0. -1.
       -3    1    3    3    0  502 -0.42589844190E+03  0.54915590783E+03  0.15357861998E+04  0.16857048839E+04  0.10100000352E+00 0.  1.
</event>
<event>
 5   0  0.2267565E-06  0.2817513E+04  0.7818609E-02  0.8297852E-01
       -1   -1    0    0    0  501  0.00000000000E+00  0.00000000000E+00  0.10828104293E+04  0.10828104293E+04  0.50400001928E-02 0.  1.
        1   -1    0    0  501    0  0.00000000000E+00  0.00000000000E+00 -0.18328181385E+04  0.18328181385E+04  0.50400001928E-02 0. -1.
    10030    2    1    2    0    0  0.00000000000E+00  0.00000000000E+00 -0.75000770919E+03  0.29156285678E+04  0.28175128006E+04 0.  0.
        4    1    3    3  502    0 -0.81385526000E+03  0.10626166653E+04 -0.82971245444E+03  0.15747821855E+04  0.12699999809E+01 0. -1.
       -4    1    3    3    0  502  0.81385526000E+03 -0.10626166653E+04  0.79704745254E+02  0.13408463823E+04  0.12699999809E+01 0.  1.
</event>
<event>
 5   0  0.2234068E-06  0.2789885E+04  0.7818609E-02  0.8306415E-01
       -1   -1    0    0    0  501  0.00000000000E+00  0.00000000000E+00  0.79613684285E+03  0.79613684287E+03  0.50400001928E-02 0. -1.
        1   -1    0    0  501    0  0.00000000000E+00  0.00000000000E+00 -0.24441338716E+04  0.24441338716E+04  0.50400001928E-02 0.  1.
    10030    2    1    2    0    0  0.00000000000E+00  0.00000000000E+00 -0.16479970287E+04  0.32402707145E+04  0.27898853196E+04 0.  0.
        3    1    3    3  502    0  0.56814954594E+03  0.24151249993E+03 -0.22768339623E+04  0.23590453781E+04  0.10100000352E+00 0.  1.
       -3    1    3    3    0  502 -0.56814954594E+03 -0.24151249993E+03  0.62883693354E+03  0.88122533631E+03  0.10100000352E+00 0. -1.
</event>
<event>
 5   0  0.5584205E-06  0.2806891E+04  0.7818609E-02  0.8301132E-01
        2   -1    0    0  501    0  0.00000000000E+00  0.00000000000E+00  0.29645783416E+04  0.29645783416E+04  0.25500000920E-02 0. -1.
       -2   -1    0    0    0  501  0.00000000000E+00  0.00000000000E+00 -0.66439792311E+03  0.66439792312E+03  0.25500000920E-02 0.  1.
    10030    2    1    2    0    0  0.00000000000E+00  0.00000000000E+00  0.23001804185E+04  0.36289762647E+04  0.28068913004E+04 0.  0.
        1    1    3    3  502    0 -0.89118597180E+03 -0.85299241459E+03  0.20153079246E+04  0.23628953694E+04  0.50400001928E-02 0. -1.
       -1    1    3    3    0  502  0.89118597180E+03  0.85299241459E+03  0.28487249387E+03  0.12660808953E+04  0.50400001928E-02 0.  1.
</event>
<event>
 5   0  0.5625245E-06  0.2824179E+04  0.7818609E-02  0.8295801E-01
       -2   -1    0    0    0  501  0.00000000000E+00  0.00000000000E+00  0.14407652404E+04  0.14407652404E+04  0.25500000920E-02 0. -1.
        2   -1    0    0  501    0  0.00000000000E+00  0.00000000000E+00 -0.13839846930E+04  0.13839846930E+04  0.25500000920E-02 0.  1.
    10030    2    1    2    0    0  0.00000000000E+00  0.00000000000E+00  0.56780547442E+02  0.28247499334E+04  0.28241792003E+04 0.  0.
        3    1    3    3  502    0 -0.97400259928E+03 -0.90306494548E+01  0.10509639455E+04  0.14329298102E+04  0.10100000352E+00 0. -1.
       -3    1    3    3    0  502  0.97400259928E+03  0.90306494548E+01 -0.99418339808E+03  0.13918201232E+04  0.10100000352E+00 0.  1.
</event>
<event>
 5   0  0.2234068E-06  0.2790259E+04  0.7818609E-02  0.8306299E-01
       -1   -1    0    0    0  501  0.00000000000E+00  0.00000000000E+00  0.10190582173E+04  0.10190582173E+04  0.50400001928E-02 0. -1.
        1   -1    0    0  501    0  0.00000000000E+00  0.00000000000E+00 -0.19099858766E+04  0.19099858766E+04  0.50400001928E-02 0.  1.
    10030    2    1    2    0    0  0.00000000000E+00  0.00000000000E+00 -0.89092765932E+03  0.29290440939E+04  0.27902593446E+04 0.  0.
        3    1    3    3  502    0 -0.55698055725E+03  0.83665238378E+03 -0.14611492486E+04  0.17734631909E+04  0.10100000352E+00 0.  1.
       -3    1    3    3    0  502  0.55698055725E+03 -0.83665238378E+03  0.57022158927E+03  0.11555809031E+04  0.10100000352E+00 0. -1.
</event>
<event>
 5   0  0.1901375E-06  0.2673285E+04  0.7818609E-02  0.8343725E-01
       -4   -1    0    0    0  501  0.00000000000E+00  0.00000000000E+00  0.14932193054E+04  0.14932198454E+04  0.12699999809E+01 0.  1.
        4   -1    0    0  501    0  0.00000000000E+00  0.00000000000E+00 -0.11964829517E+04  0.11964836257E+04  0.12699999809E+01 0. -1.
    10030    2    1    2    0    0  0.00000000000E+00  0.00000000000E+00  0.29673635366E+03  0.26897034712E+04  0.26732849267E+04 0.  0.
        2    1    3    3  502    0  0.48069591819E+03 -0.15261456046E+03  0.13938128435E+04  0.14822530190E+04  0.25500000920E-02 0.  1.
       -2    1    3    3    0  502 -0.48069591819E+03  0.15261456046E+03 -0.10970764898E+04  0.12074504521E+04  0.25500000920E-02 0. -1.
</event>
<event>
 5   0  0.2267565E-06  0.2810716E+04  0.7818609E-02  0.8299949E-01
        1   -1    0    0  501    0  0.00000000000E+00  0.00000000000E+00  0.20464846449E+04  0.20464846449E+04  0.50400001928E-02 0.  1.
       -1   -1    0    0    0  501  0.00000000000E+00  0.00000000000E+00 -0.96508462134E+03  0.96508462135E+03  0.50400001928E-02 0. -1.
    10030    2    1    2    0    0  0.00000000000E+00  0.00000000000E+00  0.10814000235E+04  0.30115692662E+04  0.28107158224E+04 0.  0.
        4    1    3    3  502    0  0.16010132926E+03 -0.85016599199E+03 -0.64597003992E+03  0.10796728926E+04  0.12699999809E+01 0. -1.
       -4    1    3    3    0  502 -0.16010132926E+03  0.85016599199E+03  0.17273700635E+04  0.19318963737E+04  0.12699999809E+01 0.  1.
</event>
<event>
 5   0  0.2190865E-06  0.2800642E+04  0.7818609E-02  0.8303069E-01
        1   -1    0    0  501    0  0.00000000000E+00  0.00000000000E+00  0.17143728151E+04  0.17143728151E+04  0.50400001928E-02 0.  1.
       -1   -1    0    0    0  501  0.00000000000E+00  0.00000000000E+00 -0.11437997330E+04  0.11437997331E+04  0.50400001928E-02 0. -1.
    10030    2    1    2    0    0  0.00000000000E+00  0.00000000000E+00  0.57057308207E+03  0.28581725482E+04  0.28006421894E+04 0.  0.
        2    1    3    3  502    0 -0.37530043315E+03  0.10725499815E+04  0.11204398318E+04  0.15958067849E+04  0.25500000920E-02 0.  1.
       -2    1    3    3    0  502  0.37530043315E+03 -0.10725499815E+04 -0.54986674974E+03  0.12623657633E+04  0.25500000920E-02 0. -1.
</event>
<event>
 5   0  0.2277133E-06  0.2807734E+04  0.7818609E-02  0.8300871E-01
        1   -1    0    0  501    0  0.00000000000E+00  0.00000000000E+00  0.25616038571E+04  0.25616038571E+04  0.50400001928E-02 0. -1.
       -1   -1    0    0    0  501  0.00000000000E+00  0.00000000000E+00 -0.76937853383E+03  0.76937853384E+03  0.50400001928E-02 0.  1.
    10030    2    1    2    0    0  0.00000000000E+00  0.00000000000E+00  0.17922253233E+04  0.33309823910E+04  0.28077343321E+04 0.  0.
        1    1    3    3  502    0 -0.58657559326E+03  0.79892576292E+03  0.20756247676E+04  0.23001242309E+04  0.50400001928E-02 0. -1.
       -1    1    3    3    0  502  0.58657559326E+03 -0.79892576292E+03 -0.28339944433E+03  0.10308581601E+04  0.50400001928E-02 0.  1.
</event>
<event>
 5   0  0.2206967E-06  0.2790870E+04  0.7818609E-02  0.8306108E-01
       -1   -1    0    0    0  501  0.00000000000E+00  0.00000000000E+00  0.90888667855E+03  0.90888667857E+03  0.50400001928E-02 0.  1.
        1   -1    0    0  501    0  0.00000000000E+00  0.00000000000E+00 -0.21424439072E+04  0.21424439072E+04  0.50400001928E-02 0. -1.
    10030    2    1    2    0    0  0.00000000000E+00  0.00000000000E+00 -0.12335572286E+04  0.30513305857E+04  0.27908699194E+04 0.  0.
        5    1    3    3  502    0  0.55290371827E+02 -0.81914056302E+02 -0.21386042143E+04  0.21408916398E+04  0.46999998093E+01 0. -1.
       -5    1    3    3    0  502 -0.55290371827E+02  0.81914056302E+02  0.90504698574E+03  0.91043894591E+03  0.46999998093E+01 0.  1.
</event>
<event>
 5   0  0.5866136E-06  0.2789955E+04  0.7818609E-02  0.8306394E-01
       -2   -1    0    0    0  501  0.00000000000E+00  0.00000000000E+00  0.86429123000E+03  0.86429123000E+03  0.25500000920E-02 0.  1.
        2   -1    0    0  501    0  0.00000000000E+00  0.00000000000E+00 -0.22515123331E+04  0.22515123331E+04  0.25500000920E-02 0. -1.
    10030    2    1    2    0    0  0.00000000000E+00  0.00000000000E+00 -0.13872211031E+04  0.31158035632E+04  0.27899550991E+04 0.  0.
        5    1    3    3  502    0  0.50447177451E+02 -0.61371694365E+03  0.70427711604E+03  0.93553286998E+03  0.46999998093E+01 0.  1.
       -5    1    3    3    0  502 -0.50447177451E+02  0.61371694365E+03 -0.20914982192E+04  0.21802706932E+04  0.46999998093E+01 0. -1.
</event>
<event>
 5   0  0.5546570E-06  0.2809573E+04  0.7818609E-02  0.8300303E-01
       -2   -1    0    0    0  501  0.00000000000E+00  0.00000000000E+00  0.16043220108E+04  0.16043220108E+04  0.25500000920E-02 0. -1.
        2   -1    0    0  501    0  0.00000000000E+00  0.00000000000E+00 -0.12300678562E+04  0.12300678562E+04  0.25500000920E-02 0.  1.
    10030    2    1    2    0    0  0.00000000000E+00  0.00000000000E+00  0.37425415463E+03  0.28343898670E+04  0.28095728760E+04 0.  0.
        4    1    3    3  502    0  0.40747722587E+03  0.12312651805E+04  0.73168359590E+03  0.14890984291E+04  0.12699999809E+01 0. -1.
       -4    1    3    3    0  502 -0.40747722587E+03 -0.12312651805E+04 -0.35742944128E+03  0.13452914378E+04  0.12699999809E+01 0.  1.
</event>
<event>
 5   0  0.2206967E-06  0.2803124E+04  0.7818609E-02  0.8302299E-01
        1   -1    0    0  501    0  0.00000000000E+00  0.00000000000E+00  0.10724230270E+04  0.10724230270E+04  0.50400001928E-02 0. -1.
       -1   -1    0    0    0  501  0.00000000000E+00  0.00000000000E+00 -0.18317181271E+04  0.18317181271E+04  0.50400001928E-02 0.  1.
    10030    2    1    2    0    0  0.00000000000E+00  0.00000000000E+00 -0.75929510018E+03  0.29041411541E+04  0.28031244699E+04 0.  0.
        5    1    3    3  502    0 -0.79502561858E+02 -0.76465309939E+03 -0.15937750845E+04  0.17695073127E+04  0.46999998093E+01 0.  1.
       -5    1    3    3    0  502  0.79502561858E+02  0.76465309939E+03  0.83447998435E+03  0.11346338414E+04  0.46999998093E+01 0. -1.
</event>
<event>
 5   0  0.5584205E-06  0.2815324E+04  0.7818609E-02  0.8298527E-01
        2   -1    0    0  501    0  0.00000000000E+00  0.00000000000E+00  0.18203389221E+04  0.18203389221E+04  0.25500000920E-02 0.  1.
       -2   -1    0    0    0  501  0.00000000000E+00  0.00000000000E+00 -0.10885404225E+04  0.10885404225E+04  0.25500000920E-02 0. -1.
    10030    2    1    2    0    0  0.00000000000E+00  0.00000000000E+00  0.73179849956E+03  0.29088793446E+04  0.28153241372E+04 0.  0.
        1    1    3    3  502    0 -0.30520198390E+03  0.30261086852E+02  0.17853974984E+04  0.18115485673E+04  0.50400001928E-02 0.  1.
       -1    1    3    3    0  502  0.30520198390E+03 -0.30261086852E+02 -0.10535989989E+04  0.10973307773E+04  0.50400001928E-02 0. -1.
</event>
<event>
 5   0  0.5546570E-06  0.2824665E+04  0.7818609E-02  0.8295651E-01
       -2   -1    0    0    0  501  0.00000000000E+00  0.00000000000E+00  0.18521212943E+04  0.18521212943E+04  0.25500000920E-02 0. -1.
        2   -1    0    0  501    0  0.00000000000E+00  0.00000000000E+00 -0.10769722741E+04  0.10769722741E+04  0.25500000920E-02 0.  1.
    10030    2    1    2    0    0  0.00000000000E+00  0.00000000000E+00  0.77514902025E+03  0.29290935684E+04  0.28246651357E+04 0.  0.
        4    1    3    3  502    0  0.86324920047E+03  0.76879026250E+03 -0.45387043224E+03  0.12418686050E+04  0.12699999809E+01 0.  1.
       -4    1    3    3    0  502 -0.86324920047E+03 -0.76879026250E+03  0.12290194525E+04  0.16872249635E+04  0.12699999809E+01 0. -1.
</event>
<event>
 5   0  0.5546570E-06  0.2812420E+04  0.7818609E-02  0.8299423E-01
        2   -1    0    0  501    0  0.00000000000E+00  0.00000000000E+00  0.17731004736E+04  0.17731004736E+04  0.25500000920E-02 0. -1.
       -2   -1    0    0    0  501  0.00000000000E+00  0.00000000000E+00 -0.11152366825E+04  0.11152366825E+04  0.25500000920E-02 0.  1.
    10030    2    1    2    0    0  0.00000000000E+00  0.00000000000E+00  0.65786379114E+03  0.28883371561E+04  0.28124200895E+04 0.  0.
        4    1    3    3  502    0 -0.44039979549E+03  0.57262417282E+02 -0.10413230426E+04  0.11320716657E+04  0.12699999809E+01 0.  1.
       -4    1    3    3    0  502  0.44039979549E+03 -0.57262417282E+02  0.16991868337E+04  0.17562654905E+04  0.12699999809E+01 0. -1.
</event>
<event>
 5   0  0.2277133E-06  0.2803066E+04  0.7818609E-02  0.8302317E-01
        1   -1    0    0  501    0  0.00000000000E+00  0.00000000000E+00  0.25839232467E+04  0.25839232467E+04  0.50400001928E-02 0. -1.
       -1   -1    0    0    0  501  0.00000000000E+00  0.00000000000E+00 -0.76019856668E+03  0.76019856670E+03  0.50400001928E-02 0.  1.
    10030    2    1    2    0    0  0.00000000000E+00  0.00000000000E+00  0.18237246800E+04  0.33441218134E+04  0.28030659989E+04 0.  0.
        1    1    3    3  502    0 -0.98472746088E+03 -0.27199869739E+03  0.20565572267E+04  0.22963229499E+04  0.50400001928E-02 0. -1.
       -1    1    3    3    0  502  0.98472746088E+03  0.27199869739E+03 -0.23283254664E+03  0.10477988635E+04  0.50400001928E-02 0.  1.
</event>
<event>
 5   0  0.2206967E-06  0.2797708E+04  0.7818609E-02  0.8303980E-01
        1   -1    0    0  501    0  0.00000000000E+00  0.00000000000E+00  0.22162241509E+04  0.22162241509E+04  0.50400001928E-02 0.  1.
       -1   -1    0    0    0  501  0.00000000000E+00  0.00000000000E+00 -0.88293987690E+03  0.88293987692E+03  0.50400001928E-02 0. -1.
    10030    2    1    2    0    0  0.00000000000E+00  0.00000000000E+00  0.13332842740E+04  0.30991640278E+04  0.27977081184E+04 0.  0.
        5    1    3    3  502    0  0.30132341484E+03  0.12746711261E+04  0.12261534802E+03  0.13155374923E+04  0.46999998093E+01 0. -1.
       -5    1    3    3    0  502 -0.30132341484E+03 -0.12746711261E+04  0.12106689260E+04  0.17836265355E+04  0.46999998093E+01 0.  1.
</event>
<event>
 5   0  0.2234068E-06  0.2788547E+04  0.7818609E-02  0.8306833E-01
       -1   -1    0    0    0  501  0.00000000000E+00  0.00000000000E+00  0.17559022434E+04  0.17559022434E+04  0.50400001928E-02 0. -1.
        1   -1    0    0  501    0  0.00000000000E+00  0.00000000000E+00 -0.11071224615E+04  0.11071224616E+04  0.50400001928E-02 0.  1.
    10030    2    1    2    0    0  0.00000000000E+00  0.00000000000E+00  0.64877978184E+03  0.28630247049E+04  0.27885471586E+04 0.  0.
        3    1    3    3  502    0 -0.17882890514E+03 -0.22483160399E+03 -0.10764067662E+04  0.11140828353E+04  0.10100000352E+00 0.  1.
       -3    1    3    3    0  502  0.17882890514E+03  0.22483160399E+03  0.17251865480E+04  0.17489418696E+04  0.10100000352E+00 0. -1.
</event>
<event>
 5   0  0.5546570E-06  0.2798563E+04  0.7818609E-02  0.8303715E-01
       -2   -1    0    0    0  501  0.00000000000E+00  0.00000000000E+00  0.85333915040E+03  0.85333915041E+03  0.25500000920E-02 0. -1.
        2   -1    0    0  501    0  0.00000000000E+00  0.00000000000E+00 -0.22945027535E+04  0.22945027535E+04  0.25500000920E-02 0.  1.
    10030    2    1    2    0    0  0.00000000000E+00  0.00000000000E+00 -0.14411636031E+04  0.31478419039E+04  0.27985632244E+04 0.  0.
        4    1    3    3  502    0 -0.32885265311E+03  0.59463534303E+02  0.80779275499E+03  0.87419147061E+03  0.12699999809E+01 0. -1.
       -4    1    3    3    0  502  0.32885265311E+03 -0.59463534303E+02 -0.22489563580E+04  0.22736504333E+04  0.12699999809E+01 0.  1.
</event>
<event>
 5   0  0.2267565E-06  0.2776901E+04  0.7818609E-02  0.8310476E-01
        1   -1    0    0  501    0  0.00000000000E+00  0.00000000000E+00  0.79605099389E+03  0.79605099390E+03  0.50400001928E-02 0.  1.
       -1   -1    0    0    0  501  0.00000000000E+00  0.00000000000E+00 -0.24216976870E+04  0.24216976870E+04  0.50400001928E-02 0. -1.
    10030    2    1    2    0    0  0.00000000000E+00  0.00000000000E+00 -0.16256466931E+04  0.32177486809E+04  0.27769010430E+04 0.  0.
        4    1    3    3  502    0 -0.54607843330E+03 -0.11468098646E+04 -0.14625727850E+04  0.19371358459E+04  0.12699999809E+01 0. -1.
       -4    1    3    3    0  502  0.54607843330E+03  0.11468098646E+04 -0.16307390808E+03  0.12806128351E+04  0.12699999809E+01 0.  1.
</event>
<event>
 5   0  0.5584205E-06  0.2808590E+04  0.7818609E-02  0.8300606E-01
        2   -1    0    0  501    0  0.00000000000E+00  0.00000000000E+00  0.27354542557E+04  0.27354542557E+04  0.25500000920E-02 0. -1.
       -2   -1    0    0    0  501  0.00000000000E+00  0.00000000000E+00 -0.72092034746E+03  0.72092034747E+03  0.25500000920E-02 0.  1.
    10030    2    1    2    0    0  0.00000000000E+00  0.00000000000E+00  0.20145339082E+04  0.34563746032E+04  0.28085901321E+04 0.  0.
        1    1    3    3  502    0  0.79080093817E+03  0.61990066871E+02 -0.41881303405E+03  0.89700236885E+03  0.50400001928E-02 0.  1.
       -1    1    3    3    0  502 -0.79080093817E+03 -0.61990066871E+02  0.24333469423E+04  0.25593722343E+04  0.50400001928E-02 0. -1.
</event>
<event>
 5   0  0.2206967E-06  0.2781198E+04  0.7818609E-02  0.8309129E-01
        1   -1    0    0  501    0  0.00000000000E+00  0.00000000000E+00  0.20788450608E+04  0.20788450608E+04  0.50400001928E-02 0.  1.
       -1   -1    0    0    0  501  0.00000000000E+00  0.00000000000E+00 -0.93021176688E+03  0.93021176689E+03  0.50400001928E-02 0. -1.
    10030    2    1    2    0    0  0.00000000000E+00  0.00000000000E+00  0.11486332939E+04  0.30090568277E+04  0.27811984015E+04 0.  0.
        5    1    3    3  502    0 -0.75881058921E+03  0.92237479683E+03 -0.19619188761E+03  0.12104057679E+04  0.46999998093E+01 0. -1.
       -5    1    3    3    0  502  0.75881058921E+03 -0.92237479683E+03  0.13448251815E+04  0.17986510598E+04  0.46999998093E+01 0.  1.
</event>
<event>
 5   0  0.5625245E-06  0.2796766E+04  0.7818609E-02  0.8304273E-01
        2   -1    0    0  501    0  0.00000000000E+00  0.00000000000E+00  0.18056879725E+04  0.18056879725E+04  0.25500000920E-02 0.  1.
       -2   -1    0    0    0  501  0.00000000000E+00  0.00000000000E+00 -0.10829532299E+04  0.10829532299E+04  0.25500000920E-02 0. -1.
    10030    2    1    2    0    0  0.00000000000E+00  0.00000000000E+00  0.72273474252E+03  0.28886412024E+04  0.27967664343E+04 0.  0.
        3    1    3    3  502    0  0.83262579363E+03 -0.72950477802E+03  0.12438548524E+04  0.16651179650E+04  0.10100000352E+00 0.  1.
       -3    1    3    3    0  502 -0.83262579363E+03  0.72950477802E+03 -0.52112010985E+03  0.12235232374E+04  0.10100000352E+00 0. -1.
</event>
<event>
 5   0  0.5584205E-06  0.2800510E+04  0.7818609E-02  0.8303110E-01
       -2   -1    0    0    0  501  0.00000000000E+00  0.00000000000E+00  0.10817114570E+04  0.10817114570E+04  0.25500000920E-02 0. -1.
        2   -1    0    0  501    0  0.00000000000E+00  0.00000000000E+00 -0.18126033803E+04  0.18126033804E+04  0.25500000920E-02 0.  1.
    10030    2    1    2    0    0  0.00000000000E+00  0.00000000000E+00 -0.73089192335E+03  0.28943148374E+04  0.28005098418E+04 0.  0.
        1    1    3    3  502    0 -0.20738931973E+03  0.58199175826E+03 -0.16641142467E+04  0.17751059018E+04  0.50400001928E-02 0.  1.
       -1    1    3    3    0  502  0.20738931973E+03 -0.58199175826E+03  0.93322232333E+03  0.11192089355E+04  0.50400001928E-02 0. -1.
</event>
<event>
 5   0  0.2206967E-06  0.2744515E+04  0.7818609E-02  0.8320704E-01
        1   -1    0    0  501    0  0.00000000000E+00  0.00000000000E+00  0.23235569866E+04  0.23235569866E+04  0.50400001928E-02 0.  1.
       -1   -1    0    0    0  501  0.00000000000E+00  0.00000000000E+00 -0.81043439329E+03  0.81043439330E+03  0.50400001928E-02 0. -1.
    10030    2    1    2    0    0  0.00000000000E+00  0.00000000000E+00  0.15131225933E+04  0.31339913799E+04  0.27445148910E+04 0.  0.
        5    1    3    3  502    0  0.69258786196E+03  0.11160745566E+04  0.30299400642E+03  0.13480088354E+04  0.46999998093E+01 0. -1.
       -5    1    3    3    0  502 -0.69258786196E+03 -0.11160745566E+04  0.12101285869E+04  0.17859825445E+04  0.46999998093E+01 0.  1.
</event>
<event>
 5   0  0.2190865E-06  0.2803844E+04  0.7818609E-02  0.8302076E-01
        1   -1    0    0  501    0  0.00000000000E+00  0.00000000000E+00  0.11881922808E+04  0.11881922808E+04  0.50400001928E-02 0.  1.
       -1   -1    0    0    0  501  0.00000000000E+00  0.00000000000E+00 -0.16540967127E+04  0.16540967127E+04  0.50400001928E-02 0. -1.
    10030    2    1    2    0    0  0.00000000000E+00  0.00000000000E+00 -0.46590443186E+03  0.28422889935E+04  0.28038437515E+04 0.  0.
        2    1    3    3  502    0 -0.27937269181E+03 -0.27947127661E+03  0.11305677867E+04  0.11976380153E+04  0.25500000920E-02 0.  1.
       -2    1    3    3    0  502  0.27937269181E+03  0.27947127661E+03 -0.15964722186E+04  0.16446509782E+04  0.25500000920E-02 0. -1.
</event>
<event>
 5   0  0.5916603E-06  0.2802270E+04  0.7818609E-02  0.8302564E-01
        2   -1    0    0  501    0  0.00000000000E+00  0.00000000000E+00  0.26419990748E+04  0.26419990748E+04  0.25500000920E-02 0. -1.
       -2   -1    0    0    0  501  0.00000000000E+00  0.00000000000E+00 -0.74306559255E+03  0.74306559256E+03  0.25500000920E-02 0.  1.
    10030    2    1    2    0    0  0.00000000000E+00  0.00000000000E+00  0.18989334822E+04  0.33850646673E+04  0.28022695145E+04 0.  0.
        2    1    3    3  502    0 -0.89287300497E+03  0.74049387239E+03  0.18988019359E+04  0.22250847557E+04  0.25500000920E-02 0. -1.
       -2    1    3    3    0  502  0.89287300497E+03 -0.74049387239E+03  0.13154625857E+00  0.11599799116E+04  0.25500000920E-02 0.  1.
</event>
<event>
 5   0  0.5916603E-06  0.2787303E+04  0.7818609E-02  0.8307221E-01
        2   -1    0    0  501    0  0.00000000000E+00  0.00000000000E+00  0.12352302615E+04  0.12352302615E+04  0.25500000920E-02 0.  1.
       -2   -1    0    0    0  501  0.00000000000E+00  0.00000000000E+00 -0.15723902892E+04  0.15723902892E+04  0.25500000920E-02 0. -1.
    10030    2    1    2    0    0  0.00000000000E+00  0.00000000000E+00 -0.33716002766E+03  0.28076205508E+04  0.27873026877E+04 0.  0.
        2    1    3    3  502    0 -0.68956404133E+02 -0.13917797331E+04 -0.14701703330E+03  0.14012208318E+04  0.25500000920E-02 0. -1.
       -2    1    3    3    0  502  0.68956404133E+02  0.13917797331E+04 -0.19014299435E+03  0.14063997190E+04  0.25500000920E-02 0.  1.
</event>
<event>
 5   0  0.2234068E-06  0.2628848E+04  0.7818609E-02  0.8358468E-01
        1   -1    0    0  501    0  0.00000000000E+00  0.00000000000E+00  0.52063838863E+03  0.52063838865E+03  0.50400001928E-02 0.  1.
       -1   -1    0    0    0  501  0.00000000000E+00  0.00000000000E+00 -0.33184470562E+04  0.33184470562E+04  0.50400001928E-02 0. -1.
    10030    2    1    2    0    0  0.00000000000E+00  0.00000000000E+00 -0.27978086676E+04  0.38390854449E+04  0.26288483624E+04 0.  0.
        3    1    3    3  502    0  0.34186791460E+03  0.12651428004E+04 -0.15467620927E+04  0.20272969586E+04  0.10100000352E+00 0. -1.
       -3    1    3    3    0  502 -0.34186791460E+03 -0.12651428004E+04 -0.12510465748E+04  0.18117884863E+04  0.10100000352E+00 0.  1.
</event>
<event>
 5   0  0.2190865E-06  0.2764606E+04  0.7818609E-02  0.8314342E-01
       -1   -1    0    0    0  501  0.00000000000E+00  0.00000000000E+00  0.96273184214E+03  0.96273184215E+03  0.50400001928E-02 0. -1.
        1   -1    0    0  501    0  0.00000000000E+00  0.00000000000E+00 -0.19847294732E+04  0.19847294732E+04  0.50400001928E-02 0.  1.
    10030    2    1    2    0    0  0.00000000000E+00  0.00000000000E+00 -0.10219976310E+04  0.29474613153E+04  0.27646064905E+04 0.  0.
        2    1    3    3  502    0  0.12184173008E+04 -0.13548403992E+03  0.16988551385E+03  0.12376420047E+04  0.25500000920E-02 0. -1.
       -2    1    3    3    0  502 -0.12184173008E+04  0.13548403992E+03 -0.11918831449E+04  0.17098193106E+04  0.25500000920E-02 0.  1.
</event>
<event>
 5   0  0.5584205E-06  0.2791109E+04  0.7818609E-02  0.8306034E-01
        2   -1    0    0  501    0  0.00000000000E+00  0.00000000000E+00  0.16824818525E+04  0.16824818525E+04  0.25500000920E-02 0. -1.
       -2   -1    0    0    0  501  0.00000000000E+00  0.00000000000E+00 -0.11575589048E+04  0.11575589048E+04  0.25500000920E-02 0.  1.
    10030    2    1    2    0    0  0.00000000000E+00  0.00000000000E+00  0.52492294769E+03  0.28400407574E+04  0.27911086332E+04 0.  0.
        1    1    3    3  502    0  0.74124106447E+03  0.21394813012E+02  0.14654211088E+04  0.16423626517E+04  0.50400001928E-02 0. -1.
       -1    1    3    3    0  502 -0.74124106447E+03 -0.21394813012E+02 -0.94049816109E+03  0.11976781056E+04  0.50400001928E-02 0.  1.
</event>
<event>
 5   0  0.2267565E-06  0.2815796E+04  0.7818609E-02  0.8298381E-01
        1   -1    0    0  501    0  0.00000000000E+00  0.00000000000E+00  0.17835518241E+04  0.17835518241E+04  0.50400001928E-02 0. -1.
       -1   -1    0    0    0  501  0.00000000000E+00  0.00000000000E+00 -0.11113647258E+04  0.11113647258E+04  0.50400001928E-02 0.  1.
    10030    2    1    2    0    0  0.00000000000E+00  0.00000000000E+00  0.67218709825E+03  0.28949165499E+04  0.28157958619E+04 0.  0.
        4    1    3    3  502    0 -0.45154085837E+03  0.12827662641E+04 -0.38558624073E+02  0.13604656613E+04  0.12699999809E+01 0. -1.
       -4    1    3    3    0  502  0.45154085837E+03 -0.12827662641E+04  0.71074572232E+03  0.15344508887E+04  0.12699999809E+01 0.  1.
</event>
<event>
 5   0  0.5584205E-06  0.2807502E+04  0.7818609E-02  0.8300943E-01
        2   -1    0    0  501    0  0.00000000000E+00  0.00000000000E+00  0.19532894508E+04  0.19532894508E+04  0.25500000920E-02 0. -1.
       -2   -1    0    0    0  501  0.00000000000E+00  0.00000000000E+00 -0.10088195848E+04  0.10088195848E+04  0.25500000920E-02 0.  1.
    10030    2    1    2    0    0  0.00000000000E+00  0.00000000000E+00  0.94446986600E+03  0.29621090356E+04  0.28075018452E+04 0.  0.
        1    1    3    3  502    0  0.30536648044E+03 -0.11253225365E+04 -0.35241978985E+03  0.12181129696E+04  0.50400001928E-02 0.  1.
       -1    1    3    3    0  502 -0.30536648044E+03  0.11253225365E+04  0.12968896558E+04  0.17439960659E+04  0.50400001928E-02 0. -1.
</event>
<event>
 5   0  0.2277133E-06  0.2785855E+04  0.7818609E-02  0.8307673E-01
        1   -1    0    0  501    0  0.00000000000E+00  0.00000000000E+00  0.12229437418E+04  0.12229437418E+04  0.50400001928E-02 0. -1.
       -1   -1    0    0    0  501  0.00000000000E+00  0.00000000000E+00 -0.15865384370E+04  0.15865384370E+04  0.50400001928E-02 0.  1.
    10030    2    1    2    0    0  0.00000000000E+00  0.00000000000E+00 -0.36359469516E+03  0.28094821788E+04  0.27858551669E+04 0.  0.
        1    1    3    3  502    0 -0.29385554271E+03 -0.21419415272E+03  0.11742317438E+04  0.12292479014E+04  0.50400001928E-02 0. -1.
       -1    1    3    3    0  502  0.29385554271E+03  0.21419415272E+03 -0.15378264390E+04  0.15802342774E+04  0.50400001928E-02 0.  1.
</event>
<event>
 5   0  0.5546570E-06  0.2800513E+04  0.7818609E-02  0.8303109E-01
        2   -1    0    0  501    0  0.00000000000E+00  0.00000000000E+00  0.18896293370E+04  0.18896293370E+04  0.25500000920E-02 0. -1.
       -2   -1    0    0    0  501  0.00000000000E+00  0.00000000000E+00 -0.10376206862E+04  0.10376206862E+04  0.25500000920E-02 0.  1.
    10030    2    1    2    0    0  0.00000000000E+00  0.00000000000E+00  0.85200865078E+03  0.29272500232E+04  0.28005131597E+04 0.  0.
        4    1    3    3  502    0 -0.71940345703E+03 -0.85017626842E+03 -0.46115531131E+03  0.12054073400E+04  0.12699999809E+01 0.  1.
       -4    1    3    3    0  502  0.71940345703E+03  0.85017626842E+03  0.13131639621E+04  0.17218426832E+04  0.12699999809E+01 0. -1.
</event>
<event>
 5   0  0.5625245E-06  0.2796633E+04  0.7818609E-02  0.8304315E-01
        2   -1    0    0  501    0  0.00000000000E+00  0.00000000000E+00  0.21709644029E+04  0.21709644029E+04  0.25500000920E-02 0. -1.
       -2   -1    0    0    0  501  0.00000000000E+00  0.00000000000E+00 -0.90065433641E+03  0.90065433642E+03  0.25500000920E-02 0.  1.
    10030    2    1    2    0    0  0.00000000000E+00  0.00000000000E+00  0.12703100665E+04  0.30716187393E+04  0.27966326206E+04 0.  0.
        3    1    3    3  502    0 -0.95383361426E+03 -0.37114571541E+03  0.16815913764E+04  0.19685774745E+04  0.10100000352E+00 0. -1.
       -3    1    3    3    0  502  0.95383361426E+03  0.37114571541E+03 -0.41128130992E+03  0.11030412648E+04  0.10100000352E+00 0.  1.
</event>
<event>
 5   0  0.5916603E-06  0.2698491E+04  0.7818609E-02  0.8335495E-01
        2   -1    0    0  501    0  0.00000000000E+00  0.00000000000E+00  0.17822279671E+04  0.17822279671E+04  0.25500000920E-02 0.  1.
       -2   -1    0    0    0  501  0.00000000000E+00  0.00000000000E+00 -0.10214539288E+04  0.10214539288E+04  0.25500000920E-02 0. -1.
    10030    2    1    2    0    0  0.00000000000E+00  0.00000000000E+00  0.76077403829E+03  0.28036818959E+04  0.26984912518E+04 0.  0.
        2    1    3    3  502    0 -0.10237560302E+04 -0.70351703825E+03 -0.16688213316E+03  0.12533404481E+04  0.25500000920E-02 0. -1.
       -2    1    3    3    0  502  0.10237560302E+04  0.70351703825E+03  0.92765617145E+03  0.15503414478E+04  0.25500000920E-02 0.  1.
</event>
<event>
 5   0  0.5584205E-06  0.2795173E+04  0.7818609E-02  0.8304768E-01
       -2   -1    0    0    0  501  0.00000000000E+00  0.00000000000E+00  0.10314425873E+04  0.10314425873E+04  0.25500000920E-02 0. -1.
        2   -1    0    0  501    0  0.00000000000E+00  0.00000000000E+00 -0.18937057014E+04  0.18937057014E+04  0.25500000920E-02 0.  1.
    10030    2    1    2    0    0  0.00000000000E+00  0.00000000000E+00 -0.86226311409E+03  0.29251482887E+04  0.27951734888E+04 0.  0.
        1    1    3    3  502    0  0.10990456812E+04 -0.82161553733E+03 -0.70859257653E+03  0.15443629561E+04  0.50400001928E-02 0.  1.
       -1    1    3    3    0  502 -0.10990456812E+04  0.82161553733E+03 -0.15367053756E+03  0.13807853326E+04  0.50400001928E-02 0. -1.
</event>
<event>
 5   0  0.2267565E-06  0.2767511E+04  0.7818609E-02  0.8313426E-01
       -1   -1    0    0    0  501  0.00000000000E+00  0.00000000000E+00  0.75073676045E+03  0.75073676046E+03  0.50400001928E-02 0. -1.
        1   -1    0    0  501    0  0.00000000000E+00  0.00000000000E+00 -0.25505334337E+04  0.25505334337E+04  0.50400001928E-02 0.  1.
    10030    2    1    2    0    0  0.00000000000E+00  0.00000000000E+00 -0.17997966733E+04  0.33012701942E+04  0.27675109448E+04 0.  0.
        4    1    3    3  502    0  0.50801421737E+03  0.28545226605E+03  0.59723955459E+03  0.83442084089E+03  0.12699999809E+01 0. -1.
       -4    1    3    3    0  502 -0.50801421737E+03 -0.28545226605E+03 -0.23970362279E+04  0.24668493533E+04  0.12699999809E+01 0.  1.
</event>
<event>
 5   0  0.5916603E-06  0.2821476E+04  0.7818609E-02  0.8296632E-01
       -2   -1    0    0    0  501  0.00000000000E+00  0.00000000000E+00  0.78861641839E+03  0.78861641839E+03  0.25500000920E-02 0. -1.
        2   -1    0    0  501    0  0.00000000000E+00  0.00000000000E+00 -0.25236372454E+04  0.25236372454E+04  0.25500000920E-02 0.  1.
    10030    2    1    2    0    0  0.00000000000E+00  0.00000000000E+00 -0.17350208270E+04  0.33122536638E+04  0.28214760433E+04 0.  0.
        2    1    3    3  502    0  0.52009595021E+03 -0.10798163708E+04 -0.17410369057E+04  0.21136964539E+04  0.25500000920E-02 0.  1.
       -2    1    3    3    0  502 -0.52009595021E+03  0.10798163708E+04  0.60160787361E+01  0.11985572099E+04  0.25500000920E-02 0. -1.
</event>
<event>
 5   0  0.2206967E-06  0.2811033E+04  0.7818609E-02  0.8299851E-01
        1   -1    0    0  501    0  0.00000000000E+00  0.00000000000E+00  0.92874318127E+03  0.92874318128E+03  0.50400001928E-02 0.  1.
       -1   -1    0    0    0  501  0.00000000000E+00  0.00000000000E+00 -0.21270429167E+04  0.21270429167E+04  0.50400001928E-02 0. -1.
    10030    2    1    2    0    0  0.00000000000E+00  0.00000000000E+00 -0.11982997354E+04  0.30557860980E+04  0.28110329811E+04 0.  0.
        5    1    3    3  502    0 -0.26022411685E+02  0.89639369764E+03 -0.17756253101E+04  0.19892375823E+04  0.46999998093E+01 0. -1.
       -5    1    3    3    0  502  0.26022411685E+02 -0.89639369764E+03  0.57732557467E+03  0.10665485157E+04  0.46999998093E+01 0.  1.
</event>
<event>
 5   0  0.2267565E-06  0.2775024E+04  0.7818609E-02  0.8311065E-01
        1   -1    0    0  501    0  0.00000000000E+00  0.00000000000E+00  0.14180396916E+04  0.14180396916E+04  0.50400001928E-02 0. -1.
       -1   -1    0    0    0  501  0.00000000000E+00  0.00000000000E+00 -0.13576415476E+04  0.13576415476E+04  0.50400001928E-02 0.  1.
    10030    2    1    2    0    0  0.00000000000E+00  0.00000000000E+00  0.60398143976E+02  0.27756812392E+04  0.27750240370E+04 0.  0.
        4    1    3    3  502    0  0.10738058815E+04 -0.34232239214E+03 -0.77927887820E+03  0.13702265777E+04  0.12699999809E+01 0.  1.
       -4    1    3    3    0  502 -0.10738058815E+04  0.34232239214E+03  0.83967702218E+03  0.14054546616E+04  0.12699999809E+01 0. -1.
</event>
<event>
 5   0  0.2190865E-06  0.2793944E+04  0.7818609E-02  0.8305151E-01
       -1   -1    0    0    0  501  0.00000000000E+00  0.00000000000E+00  0.18554868581E+04  0.18554868581E+04  0.50400001928E-02 0.  1.
        1   -1    0    0  501    0  0.00000000000E+00  0.00000000000E+00 -0.10517622862E+04  0.10517622862E+04  0.50400001928E-02 0. -1.
    10030    2    1    2    0    0  0.00000000000E+00  0.00000000000E+00  0.80372457198E+03  0.29072491443E+04  0.27939442370E+04 0.  0.
        2    1    3    3  502    0 -0.14167263917E+03 -0.12781279923E+04  0.96974996155E+03  0.16106201568E+04  0.25500000920E-02 0.  1.
       -2    1    3    3    0  502  0.14167263917E+03  0.12781279923E+04 -0.16602538958E+03  0.12966289876E+04  0.25500000920E-02 0. -1.
</event>
<event>
 5   0  0.2206967E-06  0.2922233E+04  0.7818609E-02  0.8266293E-01
        1   -1    0    0  501    0  0.00000000000E+00  0.00000000000E+00  0.96343017602E+03  0.96343017604E+03  0.50400001928E-02 0. -1.
       -1   -1    0    0    0  501  0.00000000000E+00  0.00000000000E+00 -0.22158960987E+04  0.22158960987E+04  0.50400001928E-02 0.  1.
    10030    2    1    2    0    0  0.00000000000E+00  0.00000000000E+00 -0.12524659227E+04  0.31793262747E+04  0.29222328233E+04 0.  0.
        5    1    3    3  502    0 -0.13456329616E+04  0.85603568185E+02 -0.13880813028E+02  0.13484327218E+04  0.46999998093E+01 0. -1.
       -5    1    3    3    0  502  0.13456329616E+04 -0.85603568185E+02 -0.12385851097E+04  0.18308935529E+04  0.46999998093E+01 0.  1.
</event>
<event>
 5   0  0.5584205E-06  0.2520236E+04  0.7818609E-02  0.8395812E-01
        2   -1    0    0  501    0  0.00000000000E+00  0.00000000000E+00  0.15067483473E+04  0.15067483473E+04  0.25500000920E-02 0. -1.
       -2   -1    0    0    0  501  0.00000000000E+00  0.00000000000E+00 -0.10538567052E+04  0.10538567052E+04  0.25500000920E-02 0.  1.
    10030    2    1    2    0    0  0.00000000000E+00  0.00000000000E+00  0.45289164213E+03  0.25606050525E+04  0.25202355833E+04 0.  0.
        1    1    3    3  502    0  0.95810624952E+03 -0.33246488503E+03  0.98635427925E+03  0.14147067715E+04  0.50400001928E-02 0. -1.
       -1    1    3    3    0  502 -0.95810624952E+03  0.33246488503E+03 -0.53346263712E+03  0.11458982810E+04  0.50400001928E-02 0.  1.
</event>
<event>
 5   0  0.5546570E-06  0.2788728E+04  0.7818609E-02  0.8306777E-01
       -2   -1    0    0    0  501  0.00000000000E+00  0.00000000000E+00  0.11995992858E+04  0.11995992858E+04  0.25500000920E-02 0. -1.
        2   -1    0    0  501    0  0.00000000000E+00  0.00000000000E+00 -0.16207497980E+04  0.16207497980E+04  0.25500000920E-02 0.  1.
    10030    2    1    2    0    0  0.00000000000E+00  0.00000000000E+00 -0.42115051220E+03  0.28203490838E+04  0.27887275236E+04 0.  0.
        4    1    3    3  502    0 -0.99010618582E+03  0.88681060906E+03  0.21551591251E+03  0.13465481933E+04  0.12699999809E+01 0. -1.
       -4    1    3    3    0  502  0.99010618582E+03 -0.88681060906E+03 -0.63666642471E+03  0.14738008905E+04  0.12699999809E+01 0.  1.
</event>
<event>
 5   0  0.5625245E-06  0.2779584E+04  0.7818609E-02  0.8309635E-01
        2   -1    0    0  501    0  0.00000000000E+00  0.00000000000E+00  0.19037373139E+04  0.19037373139E+04  0.25500000920E-02 0. -1.
       -2   -1    0    0    0  501  0.00000000000E+00  0.00000000000E+00 -0.10145948619E+04  0.10145948619E+04  0.25500000920E-02 0.  1.
    10030    2    1    2    0    0  0.00000000000E+00  0.00000000000E+00  0.88914245203E+03  0.29183321758E+04  0.27795842114E+04 0.  0.
        3    1    3    3  502    0  0.28860891911E+03 -0.41813598563E+03 -0.91359641212E+03  0.10453665506E+04  0.10100000352E+00 0.  1.
       -3    1    3    3    0  502 -0.28860891911E+03  0.41813598563E+03  0.18027388642E+04  0.18729656252E+04  0.10100000352E+00 0. -1.
</event>
<event>
 5   0  0.2190865E-06  0.2807696E+04  0.7818609E-02  0.8300883E-01
       -1   -1    0    0    0  501  0.00000000000E+00  0.00000000000E+00  0.10649992884E+04  0.10649992884E+04  0.50400001928E-02 0.  1.
        1   -1    0    0  501    0  0.00000000000E+00  0.00000000000E+00 -0.18505074540E+04  0.18505074540E+04  0.50400001928E-02 0. -1.
    10030    2    1    2    0    0  0.00000000000E+00  0.00000000000E+00 -0.78550816556E+03  0.29155067424E+04  0.28076959392E+04 0.  0.
        2    1    3    3  502    0 -0.12618704945E+04 -0.54207936969E+03 -0.69482259008E+03  0.15391379469E+04  0.25500000920E-02 0. -1.
       -2    1    3    3    0  502  0.12618704945E+04  0.54207936969E+03 -0.90685575473E+02  0.13763687956E+04  0.25500000920E-02 0.  1.
</event>
<event>
 5   0  0.2190865E-06  0.2789558E+04  0.7818609E-02  0.8306517E-01
       -1   -1    0    0    0  501  0.00000000000E+00  0.00000000000E+00  0.73522044755E+03  0.73522044757E+03  0.50400001928E-02 0. -1.
        1   -1    0    0  501    0  0.00000000000E+00  0.00000000000E+00 -0.26460211063E+04  0.26460211063E+04  0.50400001928E-02 0.  1.
    10030    2    1    2    0    0  0.00000000000E+00  0.00000000000E+00 -0.19108006587E+04  0.33812415539E+04  0.27895582604E+04 0.  0.
        2    1    3    3  502    0  0.78633616930E+02 -0.94010099141E+03 -0.22006506205E+04  0.23943342025E+04  0.25500000920E-02 0.  1.
       -2    1    3    3    0  502 -0.78633616930E+02  0.94010099141E+03  0.28984996178E+03  0.98690735133E+03  0.25500000920E-02 0. -1.
</event>
<event>
 5   0  0.2267565E-06  0.2772059E+04  0.7818609E-02  0.8311996E-01
        1   -1    0    0  501    0  0.00000000000E+00  0.00000000000E+00  0.19561438457E+04  0.19561438457E+04  0.50400001928E-02 0.  1.
       -1   -1    0    0    0  501  0.00000000000E+00  0.00000000000E+00 -0.98207370660E+03  0.98207370661E+03  0.50400001928E-02 0. -1.
    10030    2    1    2    0    0  0.00000000000E+00  0.00000000000E+00  0.97407013909E+03  0.29382175523E+04  0.27720587564E+04 0.  0.
        4    1    3    3  502    0  0.13655882130E+04  0.11909448364E+02  0.73809295714E+03  0.15523388254E+04  0.12699999809E+01 0. -1.
       -4    1    3    3    0  502 -0.13655882130E+04 -0.11909448364E+02  0.23597718195E+03  0.13858787269E+04  0.12699999809E+01 0.  1.
</event>
<event>
 5   0  0.2234068E-06  0.2787496E+04  0.7818609E-02  0.8307161E-01
        1   -1    0    0  501    0  0.00000000000E+00  0.00000000000E+00  0.19031358076E+04  0.19031358076E+04  0.50400001928E-02 0.  1.
       -1   -1    0    0    0  501  0.00000000000E+00  0.00000000000E+00 -0.10207011444E+04  0.10207011444E+04  0.50400001928E-02 0. -1.
    10030    2    1    2    0    0  0.00000000000E+00  0.00000000000E+00  0.88243466317E+03  0.29238369520E+04  0.27874955761E+04 0.  0.
        3    1    3    3  502    0 -0.92463930303E+03  0.26620517695E+03  0.14988563858E+04  0.17811214199E+04  0.10100000352E+00 0.  1.
       -3    1    3    3    0  502  0.92463930303E+03 -0.26620517695E+03 -0.61642172263E+03  0.11427155321E+04  0.10100000352E+00 0. -1.
</event>
<event>
 5   0  0.5546570E-06  0.2804407E+04  0.7818609E-02  0.8301901E-01
       -2   -1    0    0    0  501  0.00000000000E+00  0.00000000000E+00  0.72230602596E+03  0.72230602596E+03  0.25500000920E-02 0.  1.
        2   -1    0    0  501    0  0.00000000000E+00  0.00000000000E+00 -0.27220799969E+04  0.27220799969E+04  0.25500000920E-02 0. -1.
    10030    2    1    2    0    0  0.00000000000E+00  0.00000000000E+00 -0.19997739709E+04  0.34443860229E+04  0.28044070923E+04 0.  0.
        4    1    3    3  502    0  0.43977143733E+03  0.14117442299E+03  0.62619485296E+03  0.77810715301E+03  0.12699999809E+01 0.  1.
       -4    1    3    3    0  502 -0.43977143733E+03 -0.14117442299E+03 -0.26259688239E+04  0.26662788698E+04  0.12699999809E+01 0. -1.
</event>
<event>
 5   0  0.5866136E-06  0.2802521E+04  0.7818609E-02  0.8302486E-01
       -2   -1    0    0    0  501  0.00000000000E+00  0.00000000000E+00  0.93243688515E+03  0.93243688515E+03  0.25500000920E-02 0.  1.
        2   -1    0    0  501    0  0.00000000000E+00  0.00000000000E+00 -0.21058057015E+04  0.21058057015E+04  0.25500000920E-02 0. -1.
    10030    2    1    2    0    0  0.00000000000E+00  0.00000000000E+00 -0.11733688163E+04  0.30382425866E+04  0.28025209430E+04 0.  0.
        5    1    3    3  502    0  0.13090664236E+04 -0.13953657181E+03 -0.66330008530E+02  0.13181605048E+04  0.46999998093E+01 0.  1.
       -5    1    3    3    0  502 -0.13090664236E+04  0.13953657181E+03 -0.11070388078E+04  0.17200820819E+04  0.46999998093E+01 0. -1.
</event>
<event>
 5   0  0.2206967E-06  0.2816264E+04  0.7818609E-02  0.8298237E-01
       -1   -1    0    0    0  501  0.00000000000E+00  0.00000000000E+00  0.10562334757E+04  0.10562334757E+04  0.50400001928E-02 0. -1.
        1   -1    0    0  501    0  0.00000000000E+00  0.00000000000E+00 -0.18772702856E+04  0.18772702856E+04  0.50400001928E-02 0.  1.
    10030    2    1    2    0    0  0.00000000000E+00  0.00000000000E+00 -0.82103680990E+03  0.29335037614E+04  0.28162639924E+04 0.  0.
        5    1    3    3  502    0 -0.25916392408E+02  0.13465923917E+04  0.17477146015E+02  0.13469633512E+04  0.46999998093E+01 0. -1.
       -5    1    3    3    0  502  0.25916392408E+02 -0.13465923917E+04 -0.83851395592E+03  0.15865404102E+04  0.46999998093E+01 0.  1.
</event>
<event>
 5   0  0.5584205E-06  0.2775422E+04  0.7818609E-02  0.8310940E-01
       -2   -1    0    0    0  501  0.00000000000E+00  0.00000000000E+00  0.13243175710E+04  0.13243175710E+04  0.25500000920E-02 0.  1.
        2   -1    0    0  501    0  0.00000000000E+00  0.00000000000E+00 -0.14541387075E+04  0.14541387075E+04  0.25500000920E-02 0. -1.
    10030    2    1    2    0    0  0.00000000000E+00  0.00000000000E+00 -0.12982113647E+03  0.27784562785E+04  0.27754217272E+04 0.  0.
        1    1    3    3  502    0 -0.97619113451E+03  0.41876246654E+03 -0.95887646570E+03  0.14309979773E+04  0.50400001928E-02 0. -1.
       -1    1    3    3    0  502  0.97619113451E+03 -0.41876246654E+03  0.82905532924E+03  0.13474583012E+04  0.50400001928E-02 0.  1.
</event>
<event>
 5   0  0.5916603E-06  0.2794362E+04  0.7818609E-02  0.8305021E-01
        2   -1    0    0  501    0  0.00000000000E+00  0.00000000000E+00  0.17352253533E+04  0.17352253533E+04  0.25500000920E-02 0.  1.
       -2   -1    0    0    0  501  0.00000000000E+00  0.00000000000E+00 -0.11249918510E+04  0.11249918510E+04  0.25500000920E-02 0. -1.
    10030    2    1    2    0    0  0.00000000000E+00  0.00000000000E+00  0.61023350236E+03  0.28602172043E+04  0.27943617390E+04 0.  0.
        2    1    3    3  502    0 -0.17305968342E+03  0.13654720918E+04  0.59352528760E+02  0.13776742758E+04  0.25500000920E-02 0. -1.
       -2    1    3    3    0  502  0.17305968342E+03 -0.13654720918E+04  0.55088097360E+03  0.14825429284E+04  0.25500000920E-02 0.  1.
</event>
<event>
 5   0  0.5916603E-06  0.2595504E+04  0.7818609E-02  0.8369730E-01
       -2   -1    0    0    0  501  0.00000000000E+00  0.00000000000E+00  0.95447053046E+03  0.95447053047E+03  0.25500000920E-02 0.  1.
        2   -1    0    0  501    0  0.00000000000E+00  0.00000000000E+00 -0.17644966544E+04  0.17644966544E+04  0.25500000920E-02 0. -1.
    10030    2    1    2    0    0  0.00000000000E+00  0.00000000000E+00 -0.81002612398E+03  0.27189671849E+04  0.25955038492E+04 0.  0.
        2    1    3    3  502    0 -0.89682284912E+03  0.52421253840E+02 -0.13861101926E+04  0.16517689537E+04  0.25500000920E-02 0. -1.
       -2    1    3    3    0  502  0.89682284912E+03 -0.52421253840E+02  0.57608406858E+03  0.10671982312E+04  0.25500000920E-02 0.  1.
</event>
<event>
 5   0  0.2267565E-06  0.2788783E+04  0.7818609E-02  0.8306759E-01
       -1   -1    0    0    0  501  0.00000000000E+00  0.00000000000E+00  0.69626638954E+03  0.69626638956E+03  0.50400001928E-02 0.  1.
        1   -1    0    0  501    0  0.00000000000E+00  0.00000000000E+00 -0.27925060822E+04  0.27925060822E+04  0.50400001928E-02 0. -1.
    10030    2    1    2    0    0  0.00000000000E+00  0.00000000000E+00 -0.20962396927E+04  0.34887724718E+04  0.27887833388E+04 0.  0.
        4    1    3    3  502    0 -0.15786183877E+03 -0.10717831673E+04 -0.21463589108E+04  0.24042665627E+04  0.12699999809E+01 0. -1.
       -4    1    3    3    0  502  0.15786183877E+03  0.10717831673E+04  0.50119218089E+02  0.10845059091E+04  0.12699999809E+01 0.  1.
</event>
<event>
 5   0  0.2277133E-06  0.2791607E+04  0.7818609E-02  0.8305879E-01
        1   -1    0    0  501    0  0.00000000000E+00  0.00000000000E+00  0.90927082607E+03  0.90927082608E+03  0.50400001928E-02 0. -1.
       -1   -1    0    0    0  501  0.00000000000E+00  0.00000000000E+00 -0.21426708113E+04  0.21426708113E+04  0.50400001928E-02 0.  1.
    10030    2    1    2    0    0  0.00000000000E+00  0.00000000000E+00 -0.12333999852E+04  0.30519416373E+04  0.27916074642E+04 0.  0.
        1    1    3    3  502    0  0.37989841795E+03 -0.40752858164E+03  0.78243950934E+03  0.96052794786E+03  0.50400001928E-02 0. -1.
       -1    1    3    3    0  502 -0.37989841795E+03  0.40752858164E+03 -0.20158394945E+04  0.20914136895E+04  0.50400001928E-02 0.  1.
</event>
<event>
 5   0  0.5866136E-06  0.2812370E+04  0.7818609E-02  0.8299438E-01
       -2   -1    0    0    0  501  0.00000000000E+00  0.00000000000E+00  0.18995421540E+04  0.18995421540E+04  0.25500000920E-02 0. -1.
        2   -1    0    0  501    0  0.00000000000E+00  0.00000000000E+00 -0.10409647945E+04  0.10409647945E+04  0.25500000920E-02 0.  1.
    10030    2    1    2    0    0  0.00000000000E+00  0.00000000000E+00  0.85857735954E+03  0.29405069485E+04  0.28123701804E+04 0.  0.
        5    1    3    3  502    0 -0.66740662683E+03  0.17420366240E+03  0.17104991449E+04  0.18443448529E+04  0.46999998093E+01 0. -1.
       -5    1    3    3    0  502  0.66740662683E+03 -0.17420366240E+03 -0.85192178537E+03  0.10961620956E+04  0.46999998093E+01 0.  1.
</event>
<event>
 5   0  0.2206967E-06  0.2804986E+04  0.7818609E-02  0.8301722E-01
       -1   -1    0    0    0  501  0.00000000000E+00  0.00000000000E+00  0.10110462535E+04  0.10110462535E+04  0.50400001928E-02 0. -1.
        1   -1    0    0  501    0  0.00000000000E+00  0.00000000000E+00 -0.19454961148E+04  0.19454961148E+04  0.50400001928E-02 0.  1.
    10030    2    1    2    0    0  0.00000000000E+00  0.00000000000E+00 -0.93444986132E+03  0.29565423683E+04  0.28049859593E+04 0.  0.
        5    1    3    3  502    0 -0.10603424294E+04 -0.91456266026E+03 -0.55031000161E+03  0.15045311944E+04  0.46999998093E+01 0. -1.
       -5    1    3    3    0  502  0.10603424294E+04  0.91456266026E+03 -0.38413985971E+03  0.14520111738E+04  0.46999998093E+01 0.  1.
</event>
<event>
 5   0  0.5916603E-06  0.2803441E+04  0.7818609E-02  0.8302201E-01
        2   -1    0    0  501    0  0.00000000000E+00  0.00000000000E+00  0.15850091261E+04  0.15850091261E+04  0.25500000920E-02 0.  1.
       -2   -1    0    0    0  501  0.00000000000E+00  0.00000000000E+00 -0.12396273049E+04  0.12396273049E+04  0.25500000920E-02 0. -1.
    10030    2    1    2    0    0  0.00000000000E+00  0.00000000000E+00  0.34538182124E+03  0.28246364310E+04  0.28034411649E+04 0.  0.
        2    1    3    3  502    0 -0.91980418955E+03  0.77224691369E+03  0.90093867011E+03  0.15013645560E+04  0.25500000920E-02 0.  1.
       -2    1    3    3    0  502  0.91980418955E+03 -0.77224691369E+03 -0.55555684887E+03  0.13232718750E+04  0.25500000920E-02 0. -1.
</event>
<event>
 5   0  0.5546570E-06  0.2829067E+04  0.7818609E-02  0.8294301E-01
        2   -1    0    0  501    0  0.00000000000E+00  0.00000000000E+00  0.72347977143E+03  0.72347977144E+03  0.25500000920E-02 0.  1.
       -2   -1    0    0    0  501  0.00000000000E+00  0.00000000000E+00 -0.27656675625E+04  0.27656675625E+04  0.25500000920E-02 0. -1.
    10030    2    1    2    0    0  0.00000000000E+00  0.00000000000E+00 -0.20421877910E+04  0.34891473339E+04  0.28290666559E+04 0.  0.
        4    1    3    3  502    0  0.13735616310E+04 -0.33353054882E+03 -0.10885187990E+04  0.17840372669E+04  0.12699999809E+01 0.  1.
       -4    1    3    3    0  502 -0.13735616310E+04  0.33353054882E+03 -0.95366899203E+03  0.17051100670E+04  0.12699999809E+01 0. -1.
</event>
<event>
 5   0  0.2267565E-06  0.2801080E+04  0.7818609E-02  0.8302933E-01
       -1   -1    0    0    0  501  0.00000000000E+00  0.00000000000E+00  0.12863167580E+04  0.12863167580E+04  0.50400001928E-02 0.  1.
        1   -1    0    0  501    0  0.00000000000E+00  0.00000000000E+00 -0.15249063103E+04  0.15249063103E+04  0.50400001928E-02 0. -1.
    10030    2    1    2    0    0  0.00000000000E+00  0.00000000000E+00 -0.23858955234E+03  0.28112230683E+04  0.28010801783E+04 0.  0.
        4    1    3    3  502    0 -0.90832059984E+02  0.10566381955E+04  0.79877232429E+03  0.13276948363E+04  0.12699999809E+01 0. -1.
       -4    1    3    3    0  502  0.90832059984E+02 -0.10566381955E+04 -0.10373618766E+04  0.14835282321E+04  0.12699999809E+01 0.  1.
</event>
<event>
 5   0  0.5866136E-06  0.2797296E+04  0.7818609E-02  0.8304108E-01
        2   -1    0    0  501    0  0.00000000000E+00  0.00000000000E+00  0.10511907149E+04  0.10511907149E+04  0.25500000920E-02 0. -1.
       -2   -1    0    0    0  501  0.00000000000E+00  0.00000000000E+00 -0.18609524068E+04  0.18609524068E+04  0.25500000920E-02 0.  1.
    10030    2    1    2    0    0  0.00000000000E+00  0.00000000000E+00 -0.80976169192E+03  0.29121431217E+04  0.27972957590E+04 0.  0.
        5    1    3    3  502    0 -0.21549303656E+03  0.84226785529E+03 -0.15454633964E+04  0.17732263219E+04  0.46999998093E+01 0.  1.
       -5    1    3    3    0  502  0.21549303656E+03 -0.84226785529E+03  0.73570170450E+03  0.11389167998E+04  0.46999998093E+01 0. -1.
</event>
<event>
 5   0  0.5625245E-06  0.2805150E+04  0.7818609E-02  0.8301671E-01
        2   -1    0    0  501    0  0.00000000000E+00  0.00000000000E+00  0.15764676418E+04  0.15764676418E+04  0.25500000920E-02 0.  1.
       -2   -1    0    0    0  501  0.00000000000E+00  0.00000000000E+00 -0.12478635070E+04  0.12478635070E+04  0.25500000920E-02 0. -1.
    10030    2    1    2    0    0  0.00000000000E+00  0.00000000000E+00  0.32860413478E+03  0.28243311488E+04  0.28051498642E+04 0.  0.
        3    1    3    3  502    0  0.68477720157E+03 -0.97014844620E+03  0.91580292647E+03  0.14996008915E+04  0.10100000352E+00 0.  1.
       -3    1    3    3    0  502 -0.68477720157E+03  0.97014844620E+03 -0.58719879168E+03  0.13247302573E+04  0.10100000352E+00 0. -1.
</event>
<event>
 5   0  0.5546570E-06  0.2805585E+04  0.7818609E-02  0.8301537E-01
       -2   -1    0    0    0  501  0.00000000000E+00  0.00000000000E+00  0.34068127814E+04  0.34068127814E+04  0.25500000920E-02 0. -1.
        2   -1    0    0  501    0  0.00000000000E+00  0.00000000000E+00 -0.57761521658E+03  0.57761521658E+03  0.25500000920E-02 0.  1.
    10030    2    1    2    0    0  0.00000000000E+00  0.00000000000E+00  0.28291975648E+04  0.39844279979E+04  0.28055850745E+04 0.  0.
        4    1    3    3  502    0 -0.49573281912E+03 -0.20436501715E+03  0.32555282246E+04  0.32993911139E+04  0.12699999809E+01 0. -1.
       -4    1    3    3    0  502  0.49573281912E+03  0.20436501715E+03 -0.42633065980E+03  0.68503688410E+03  0.12699999809E+01 0.  1.
</event>
<event>
 5   0  0.2190865E-06  0.2786293E+04  0.7818609E-02  0.8307536E-01
       -1   -1    0    0    0  501  0.00000000000E+00  0.00000000000E+00  0.67106298139E+03  0.67106298141E+03  0.50400001928E-02 0.  1.
        1   -1    0    0  501    0  0.00000000000E+00  0.00000000000E+00 -0.28922134458E+04  0.28922134458E+04  0.50400001928E-02 0. -1.
    10030    2    1    2    0    0  0.00000000000E+00  0.00000000000E+00 -0.22211504644E+04  0.35632764272E+04  0.27862931488E+04 0.  0.
        2    1    3    3  502    0  0.25584771002E+02  0.39371035861E+03 -0.28192741038E+04  0.28467470733E+04  0.25500000920E-02 0. -1.
       -2    1    3    3    0  502 -0.25584771002E+02 -0.39371035861E+03  0.59812363940E+03  0.71652935390E+03  0.25500000920E-02 0.  1.
</event>
<event>
 5   0  0.5625245E-06  0.2805902E+04  0.7818609E-02  0.8301438E-01
        2   -1    0    0  501    0  0.00000000000E+00  0.00000000000E+00  0.13209075699E+04  0.13209075699E+04  0.25500000920E-02 0. -1.
       -2   -1    0    0    0  501  0.00000000000E+00  0.00000000000E+00 -0.14900900417E+04  0.14900900418E+04  0.25500000920E-02 0.  1.
    10030    2    1    2    0    0  0.00000000000E+00  0.00000000000E+00 -0.16918247185E+03  0.28109976117E+04  0.28059017916E+04 0.  0.
        3    1    3    3  502    0  0.58565429798E+03  0.44411522609E+03 -0.12817685750E+04  0.14775520230E+04  0.10100000352E+00 0.  1.
       -3    1    3    3    0  502 -0.58565429798E+03 -0.44411522609E+03  0.11125861031E+04  0.13334455886E+04  0.10100000352E+00 0. -1.
</event>
<event>
 5   0  0.2206967E-06  0.2793809E+04  0.7818609E-02  0.8305193E-01
       -1   -1    0    0    0  501  0.00000000000E+00  0.00000000000E+00  0.15503702108E+04  0.15503702108E+04  0.50400001928E-02 0.  1.
        1   -1    0    0  501    0  0.00000000000E+00  0.00000000000E+00 -0.12586298061E+04  0.12586298061E+04  0.50400001928E-02 0. -1.
    10030    2    1    2    0    0  0.00000000000E+00  0.00000000000E+00  0.29174040471E+03  0.28090000169E+04  0.27938089826E+04 0.  0.
        5    1    3    3  502    0  0.81995930110E+03  0.82366646925E+03  0.92504224982E+03  0.14854241690E+04  0.46999998093E+01 0.  1.
       -5    1    3    3    0  502 -0.81995930110E+03 -0.82366646925E+03 -0.63330184511E+03  0.13235758479E+04  0.46999998093E+01 0. -1.
</event>
<event>
 5   0  0.5546570E-06  0.2804373E+04  0.7818609E-02  0.8301912E-01
       -2   -1    0    0    0  501  0.00000000000E+00  0.00000000000E+00  0.12064402891E+04  0.12064402891E+04  0.25500000920E-02 0. -1.
        2   -1    0    0  501    0  0.00000000000E+00  0.00000000000E+00 -0.16296922917E+04  0.16296922917E+04  0.25500000920E-02 0.  1.
    10030    2    1    2    0    0  0.00000000000E+00  0.00000000000E+00 -0.42325200258E+03  0.28361325809E+04  0.28043726141E+04 0.  0.
        4    1    3    3  502    0 -0.72996041925E+03 -0.73988235912E+03  0.74023284528E+03  0.12760150458E+04  0.12699999809E+01 0. -1.
       -4    1    3    3    0  502  0.72996041925E+03  0.73988235912E+03 -0.11634848479E+04  0.15601175350E+04  0.12699999809E+01 0.  1.
</event>
<event>
 5   0  0.2277133E-06  0.2799317E+04  0.7818609E-02  0.8303480E-01
       -1   -1    0    0    0  501  0.00000000000E+00  0.00000000000E+00  0.70242424829E+03  0.70242424831E+03  0.50400001928E-02 0.  1.
        1   -1    0    0  501    0  0.00000000000E+00  0.00000000000E+00 -0.27889754784E+04  0.27889754784E+04  0.50400001928E-02 0. -1.
    10030    2    1    2    0    0  0.00000000000E+00  0.00000000000E+00 -0.20865512301E+04  0.34913997267E+04  0.27993170624E+04 0.  0.
        1    1    3    3  502    0  0.37671332341E+03  0.93586310950E+03 -0.22533428686E+04  0.24688675079E+04  0.50400001928E-02 0. -1.
       -1    1    3    3    0  502 -0.37671332341E+03 -0.93586310950E+03  0.16679163856E+03  0.10225322188E+04  0.50400001928E-02 0.  1.
</event>
<event>
 5   0  0.5866136E-06  0.2754606E+04  0.7818609E-02  0.8317502E-01
        2   -1    0    0  501    0  0.00000000000E+00  0.00000000000E+00  0.64797730715E+03  0.64797730715E+03  0.25500000920E-02 0.  1.
       -2   -1    0    0    0  501  0.00000000000E+00  0.00000000000E+00 -0.29275153431E+04  0.29275153431E+04  0.25500000920E-02 0. -1.
    10030    2    1    2    0    0  0.00000000000E+00  0.00000000000E+00 -0.22795380359E+04  0.35754926502E+04  0.27546059672E+04 0.  0.
        5    1    3    3  502    0 -0.16228420235E+03  0.12954357114E+04 -0.57034321967E+03  0.14247116631E+04  0.46999998093E+01 0.  1.
       -5    1    3    3    0  502  0.16228420235E+03 -0.12954357114E+04 -0.17091948163E+04  0.21507809872E+04  0.46999998093E+01 0. -1.
</event>
<event>
 5   0  0.2206967E-06  0.2783042E+04  0.7818609E-02  0.8308553E-01
       -1   -1    0    0    0  501  0.00000000000E+00  0.00000000000E+00  0.98279325085E+03  0.98279325087E+03  0.50400001928E-02 0.  1.
        1   -1    0    0  501    0  0.00000000000E+00  0.00000000000E+00 -0.19702321271E+04  0.19702321271E+04  0.50400001928E-02 0. -1.
    10030    2    1    2    0    0  0.00000000000E+00  0.00000000000E+00 -0.98743887626E+03  0.29530253780E+04  0.27830421033E+04 0.  0.
        5    1    3    3  502    0  0.51254490910E+03  0.13339402757E+03  0.87165881257E+03  0.10199546196E+04  0.46999998093E+01 0.  1.
       -5    1    3    3    0  502 -0.51254490910E+03 -0.13339402757E+03 -0.18590976888E+04  0.19330707584E+04  0.46999998093E+01 0. -1.
</event>
<event>
 5   0  0.2206967E-06  0.2797904E+04  0.7818609E-02  0.8303920E-01
       -1   -1    0    0    0  501  0.00000000000E+00  0.00000000000E+00  0.19298525093E+04  0.19298525093E+04  0.50400001928E-02 0.  1.
        1   -1    0    0  501    0  0.00000000000E+00  0.00000000000E+00 -0.10141013479E+04  0.10141013479E+04  0.50400001928E-02 0. -1.
    10030    2    1    2    0    0  0.00000000000E+00  0.00000000000E+00  0.91575116143E+03  0.29439538572E+04  0.27979035230E+04 0.  0.
        5    1    3    3  502    0 -0.10853106199E+04 -0.71408513975E+03 -0.88080542065E+02  0.13021509131E+04  0.46999998093E+01 0. -1.
       -5    1    3    3    0  502  0.10853106199E+04  0.71408513975E+03  0.10038317035E+04  0.16418029442E+04  0.46999998093E+01 0.  1.
</event>
<event>
 5   0  0.5866136E-06  0.2730438E+04  0.7818609E-02  0.8325196E-01
        2   -1    0    0  501    0  0.00000000000E+00  0.00000000000E+00  0.23557422940E+04  0.23557422940E+04  0.25500000920E-02 0. -1.
       -2   -1    0    0    0  501  0.00000000000E+00  0.00000000000E+00 -0.79118258760E+03  0.79118258760E+03  0.25500000920E-02 0.  1.
    10030    2    1    2    0    0  0.00000000000E+00  0.00000000000E+00  0.15645597064E+04  0.31469248816E+04  0.27304375356E+04 0.  0.
        5    1    3    3  502    0 -0.39641489371E+03 -0.10612763171E+04  0.16602876620E+04  0.20099824377E+04  0.46999998093E+01 0. -1.
       -5    1    3    3    0  502  0.39641489371E+03  0.10612763171E+04 -0.95727955590E+02  0.11369424439E+04  0.46999998093E+01 0.  1.
</event>
<event>
 5   0  0.2267565E-06  0.2808052E+04  0.7818609E-02  0.8300773E-01
       -1   -1    0    0    0  501  0.00000000000E+00  0.00000000000E+00  0.89985262801E+03  0.89985262802E+03  0.50400001928E-02 0.  1.
        1   -1    0    0  501    0  0.00000000000E+00  0.00000000000E+00 -0.21906800064E+04  0.21906800064E+04  0.50400001928E-02 0. -1.
    10030    2    1    2    0    0  0.00000000000E+00  0.00000000000E+00 -0.12908273784E+04  0.30905326344E+04  0.28080521084E+04 0.  0.
        4    1    3    3  502    0 -0.10484024956E+04  0.76407965999E+03 -0.12363859327E+04  0.17920985763E+04  0.12699999809E+01 0. -1.
       -4    1    3    3    0  502  0.10484024956E+04 -0.76407965999E+03 -0.54441445713E+02  0.12984340582E+04  0.12699999809E+01 0.  1.
</event>
<event>
 5   0  0.2267565E-06  0.2824505E+04  0.7818609E-02  0.8295701E-01
        1   -1    0    0  501    0  0.00000000000E+00  0.00000000000E+00  0.14832576108E+04  0.14832576108E+04  0.50400001928E-02 0. -1.
       -1   -1    0    0    0  501  0.00000000000E+00  0.00000000000E+00 -0.13446465313E+04  0.13446465313E+04  0.50400001928E-02 0.  1.
    10030    2    1    2    0    0  0.00000000000E+00  0.00000000000E+00  0.13861107948E+03  0.28279041421E+04  0.28245050550E+04 0.  0.
        4    1    3    3  502    0 -0.13463873370E+04 -0.24845349636E+02  0.49535193393E+03  0.14348349397E+04  0.12699999809E+01 0. -1.
       -4    1    3    3    0  502  0.13463873370E+04  0.24845349636E+02 -0.35674085446E+03  0.13930692025E+04  0.12699999809E+01 0.  1.
</event>
<event>
 5   0  0.2206967E-06  0.2801138E+04  0.7818609E-02  0.8302915E-01
        1   -1    0    0  501    0  0.00000000000E+00  0.00000000000E+00  0.23162129998E+04  0.23162129998E+04  0.50400001928E-02 0.  1.
       -1   -1    0    0    0  501  0.00000000000E+00  0.00000000000E+00 -0.84689678207E+03  0.84689678209E+03  0.50400001928E-02 0. -1.
    10030    2    1    2    0    0  0.00000000000E+00  0.00000000000E+00  0.14693162177E+04  0.31631097819E+04  0.28011378661E+04 0.  0.
        5    1    3    3  502    0 -0.56310478896E+03  0.52859752419E+01 -0.71341653655E+03  0.90890053884E+03  0.46999998093E+01 0. -1.
       -5    1    3    3    0  502  0.56310478896E+03 -0.52859752419E+01  0.21827327543E+04  0.22542092431E+04  0.46999998093E+01 0.  1.
</event>
<event>
 5   0  0.2267565E-06  0.2787643E+04  0.7818609E-02  0.8307115E-01
       -1   -1    0    0    0  501  0.00000000000E+00  0.00000000000E+00  0.17027927232E+04  0.17027927232E+04  0.50400001928E-02 0.  1.
        1   -1    0    0  501    0  0.00000000000E+00  0.00000000000E+00 -0.11409132555E+04  0.11409132556E+04  0.50400001928E-02 0. -1.
    10030    2    1    2    0    0  0.00000000000E+00  0.00000000000E+00  0.56187946763E+03  0.28437059787E+04  0.27876432981E+04 0.  0.
        4    1    3    3  502    0  0.10084561807E+02  0.13918384004E+04  0.20582917107E+03  0.14070121151E+04  0.12699999809E+01 0.  1.
       -4    1    3    3    0  502 -0.10084561807E+02 -0.13918384004E+04  0.35605029656E+03  0.14366938637E+04  0.12699999809E+01 0. -1.
</event>
<event>
 5   0  0.2267565E-06  0.2795655E+04  0.7818609E-02  0.8304619E-01
        1   -1    0    0  501    0  0.00000000000E+00  0.00000000000E+00  0.15214815149E+04  0.15214815149E+04  0.50400001928E-02 0. -1.
       -1   -1    0    0    0  501  0.00000000000E+00  0.00000000000E+00 -0.12842232132E+04  0.12842232132E+04  0.50400001928E-02 0.  1.
    10030    2    1    2    0    0  0.00000000000E+00  0.00000000000E+00  0.23725830167E+03  0.28057047281E+04  0.27956551145E+04 0.  0.
        4    1    3    3  502    0  0.12472905943E+04 -0.20852348633E+03  0.71634071130E+03  0.14533965387E+04  0.12699999809E+01 0. -1.
       -4    1    3    3    0  502 -0.12472905943E+04  0.20852348633E+03 -0.47908240963E+03  0.13523081894E+04  0.12699999809E+01 0.  1.
</event>
<event>
 5   0  0.2267565E-06  0.2877862E+04  0.7818609E-02  0.8279495E-01
       -1   -1    0    0    0  501  0.00000000000E+00  0.00000000000E+00  0.98127414198E+03  0.98127414200E+03  0.50400001928E-02 0. -1.
        1   -1    0    0  501    0  0.00000000000E+00  0.00000000000E+00 -0.21100348484E+04  0.21100348484E+04  0.50400001928E-02 0.  1.
    10030    2    1    2    0    0  0.00000000000E+00  0.00000000000E+00 -0.11287607064E+04  0.30913089904E+04  0.28778621478E+04 0.  0.
        4    1    3    3  502    0  0.54853065019E+03 -0.36678604746E+03  0.80917133400E+03  0.10441157692E+04  0.12699999809E+01 0. -1.
       -4    1    3    3    0  502 -0.54853065019E+03  0.36678604746E+03 -0.19379320404E+04  0.20471932212E+04  0.12699999809E+01 0.  1.
</event>
<event>
 5   0  0.2234068E-06  0.2783269E+04  0.7818609E-02  0.8308482E-01
       -1   -1    0    0    0  501  0.00000000000E+00  0.00000000000E+00  0.12443937553E+04  0.12443937553E+04  0.50400001928E-02 0.  1.
        1   -1    0    0  501    0  0.00000000000E+00  0.00000000000E+00 -0.15562972147E+04  0.15562972147E+04  0.50400001928E-02 0. -1.
    10030    2    1    2    0    0  0.00000000000E+00  0.00000000000E+00 -0.31190345933E+03  0.28006909700E+04  0.27832689668E+04 0.  0.
        3    1    3    3  502    0  0.16791863791E+03  0.33903166640E+03 -0.15035535798E+04  0.15504233348E+04  0.10100000352E+00 0. -1.
       -3    1    3    3    0  502 -0.16791863791E+03 -0.33903166640E+03  0.11916501204E+04  0.12502676352E+04  0.10100000352E+00 0.  1.
</event>
<event>
 5   0  0.5916603E-06  0.2561252E+04  0.7818609E-02  0.8381483E-01
        2   -1    0    0  501    0  0.00000000000E+00  0.00000000000E+00  0.16557358111E+04  0.16557358111E+04  0.25500000920E-02 0. -1.
       -2   -1    0    0    0  501  0.00000000000E+00  0.00000000000E+00 -0.99049817231E+03  0.99049817231E+03  0.25500000920E-02 0.  1.
    10030    2    1    2    0    0  0.00000000000E+00  0.00000000000E+00  0.66523763884E+03  0.26462339835E+04  0.25612522678E+04 0.  0.
        2    1    3    3  502    0 -0.85702199561E+03 -0.50408685407E+03 -0.50126224028E+03  0.11134873555E+04  0.25500000920E-02 0.  1.
       -2    1    3    3    0  502  0.85702199561E+03  0.50408685407E+03  0.11664998791E+04  0.15327466279E+04  0.25500000920E-02 0. -1.
</event>
<event>
 5   0  0.2234068E-06  0.2786088E+04  0.7818609E-02  0.8307601E-01
       -1   -1    0    0    0  501  0.00000000000E+00  0.00000000000E+00  0.17948336385E+04  0.17948336385E+04  0.50400001928E-02 0.  1.
        1   -1    0    0  501    0  0.00000000000E+00  0.00000000000E+00 -0.10811983988E+04  0.10811983988E+04  0.50400001928E-02 0. -1.
    10030    2    1    2    0    0  0.00000000000E+00  0.00000000000E+00  0.71363523976E+03  0.28760320373E+04  0.27860877632E+04 0.  0.
        3    1    3    3  502    0  0.65046378877E+03  0.10540871614E+04 -0.30123234554E+03  0.12747328428E+04  0.10100000352E+00 0. -1.
       -3    1    3    3    0  502 -0.65046378877E+03 -0.10540871614E+04  0.10148675853E+04  0.16012991945E+04  0.10100000352E+00 0.  1.
</event>
<event>
 5   0  0.2277133E-06  0.2801387E+04  0.7818609E-02  0.8302838E-01
        1   -1    0    0  501    0  0.00000000000E+00  0.00000000000E+00  0.12860072233E+04  0.12860072233E+04  0.50400001928E-02 0.  1.
       -1   -1    0    0    0  501  0.00000000000E+00  0.00000000000E+00 -0.15256075238E+04  0.15256075238E+04  0.50400001928E-02 0. -1.
    10030    2    1    2    0    0  0.00000000000E+00  0.00000000000E+00 -0.23960030045E+03  0.28116147471E+04  0.28013870104E+04 0.  0.
        1    1    3    3  502    0  0.25541461340E+03  0.94084794805E+03  0.88961069395E+03  0.13197873590E+04  0.50400001928E-02 0.  1.
       -1    1    3    3    0  502 -0.25541461340E+03 -0.94084794805E+03 -0.11292109944E+04  0.14918273881E+04  0.50400001928E-02 0. -1.
</event>
<event>
 5   0  0.5866136E-06  0.2769224E+04  0.7818609E-02  0.8312887E-01
        2   -1    0    0  501    0  0.00000000000E+00  0.00000000000E+00  0.14241857243E+04  0.14241857243E+04  0.25500000920E-02 0.  1.
       -2   -1    0    0    0  501  0.00000000000E+00  0.00000000000E+00 -0.13461380630E+04  0.13461380630E+04  0.25500000920E-02 0. -1.
    10030    2    1    2    0    0  0.00000000000E+00  0.00000000000E+00  0.78047661325E+02  0.27703237873E+04  0.27692241601E+04 0.  0.
        5    1    3    3  502    0 -0.44019189236E+03 -0.47386959424E+02 -0.12734094960E+04  0.13481870273E+04  0.46999998093E+01 0. -1.
       -5    1    3    3    0  502  0.44019189236E+03  0.47386959424E+02  0.13514571573E+04  0.14221367600E+04  0.46999998093E+01 0.  1.
</event>
<event>
 5   0  0.1901375E-06  0.2864943E+04  0.7818609E-02  0.8283385E-01
       -4   -1    0    0    0  501  0.00000000000E+00  0.00000000000E+00  0.81700642466E+03  0.81700741174E+03  0.12699999809E+01 0. -1.
        4   -1    0    0  501    0  0.00000000000E+00  0.00000000000E+00 -0.25115743295E+04  0.25115746506E+04  0.12699999809E+01 0.  1.
    10030    2    1    2    0    0  0.00000000000E+00  0.00000000000E+00 -0.16945679049E+04  0.33285820624E+04  0.28649429596E+04 0.  0.
        1    1    3    3  502    0  0.22452289890E+03  0.11731899962E+04 -0.17659317467E+04  0.21319709738E+04  0.50400001928E-02 0.  1.
       -1    1    3    3    0  502 -0.22452289890E+03 -0.11731899962E+04  0.71363841805E+02  0.11966110885E+04  0.50400001928E-02 0. -1.
</event>
<event>
 5   0  0.2206967E-06  0.2824426E+04  0.7818609E-02  0.8295725E-01
       -1   -1    0    0    0  501  0.00000000000E+00  0.00000000000E+00  0.61396518679E+03  0.61396518681E+03  0.50400001928E-02 0. -1.
        1   -1    0    0  501    0  0.00000000000E+00  0.00000000000E+00 -0.32483040787E+04  0.32483040787E+04  0.50400001928E-02 0.  1.
    10030    2    1    2    0    0  0.00000000000E+00  0.00000000000E+00 -0.26343388919E+04  0.38622692655E+04  0.28244260447E+04 0.  0.
        5    1    3    3  502    0 -0.54025386917E+02  0.91547345120E+02 -0.32428148247E+04  0.32445600220E+04  0.46999998093E+01 0.  1.
       -5    1    3    3    0  502  0.54025386917E+02 -0.91547345120E+02  0.60847593277E+03  0.61770924357E+03  0.46999998093E+01 0. -1.
</event>
<event>
 5   0  0.2267565E-06  0.2794713E+04  0.7818609E-02  0.8304912E-01
        1   -1    0    0  501    0  0.00000000000E+00  0.00000000000E+00  0.21209200080E+04  0.21209200080E+04  0.50400001928E-02 0.  1.
       -1   -1    0    0    0  501  0.00000000000E+00  0.00000000000E+00 -0.92064051132E+03  0.92064051133E+03  0.50400001928E-02 0. -1.
    10030    2    1    2    0    0  0.00000000000E+00  0.00000000000E+00  0.12002794967E+04  0.30415605193E+04  0.27947127800E+04 0.  0.
        4    1    3    3  502    0 -0.99878585144E+03 -0.77909931692E+03 -0.41912443784E+02  0.12674096372E+04  0.12699999809E+01 0. -1.
       -4    1    3    3    0  502  0.99878585144E+03  0.77909931692E+03  0.12421919405E+04  0.17741508821E+04  0.12699999809E+01 0.  1.
</event>
<event>
 5   0  0.2267565E-06  0.2808735E+04  0.7818609E-02  0.8300562E-01
        1   -1    0    0  501    0  0.00000000000E+00  0.00000000000E+00  0.13529215810E+04  0.13529215810E+04  0.50400001928E-02 0. -1.
       -1   -1    0    0    0  501  0.00000000000E+00  0.00000000000E+00 -0.14577692126E+04  0.14577692126E+04  0.50400001928E-02 0.  1.
    10030    2    1    2    0    0  0.00000000000E+00  0.00000000000E+00 -0.10484763162E+03  0.28106907936E+04  0.28087345391E+04 0.  0.
        4    1    3    3  502    0 -0.11937132044E+04  0.55936996950E+03 -0.53690959023E+03  0.14234182443E+04  0.12699999809E+01 0.  1.
       -4    1    3    3    0  502  0.11937132044E+04 -0.55936996950E+03  0.43206195862E+03  0.13872725493E+04  0.12699999809E+01 0. -1.
</event>
<event>
 5   0  0.5546570E-06  0.2663014E+04  0.7818609E-02  0.8347106E-01
       -2   -1    0    0    0  501  0.00000000000E+00  0.00000000000E+00  0.60791682212E+03  0.60791682212E+03  0.25500000920E-02 0. -1.
        2   -1    0    0  501    0  0.00000000000E+00  0.00000000000E+00 -0.29163718255E+04  0.29163718255E+04  0.25500000920E-02 0.  1.
    10030    2    1    2    0    0  0.00000000000E+00  0.00000000000E+00 -0.23084550034E+04  0.35242886477E+04  0.26630144516E+04 0.  0.
        4    1    3    3  502    0 -0.10556094588E+04 -0.75740464930E+03 -0.15399240569E+04  0.20147805950E+04  0.12699999809E+01 0.  1.
       -4    1    3    3    0  502  0.10556094588E+04  0.75740464930E+03 -0.76853094657E+03  0.15095080526E+04  0.12699999809E+01 0. -1.
</event>
<event>
 5   0  0.2234068E-06  0.2826942E+04  0.7818609E-02  0.8294953E-01
        1   -1    0    0  501    0  0.00000000000E+00  0.00000000000E+00  0.31977711791E+04  0.31977711791E+04  0.50400001928E-02 0.  1.
       -1   -1    0    0    0  501  0.00000000000E+00  0.00000000000E+00 -0.62477884958E+03  0.62477884960E+03  0.50400001928E-02 0. -1.
    10030    2    1    2    0    0  0.00000000000E+00  0.00000000000E+00  0.25729923295E+04  0.38225500287E+04  0.28269416680E+04 0.  0.
        3    1    3    3  502    0 -0.13300075223E+04  0.29534734376E+03  0.77740279136E+03  0.15685997492E+04  0.10100000352E+00 0.  1.
       -3    1    3    3    0  502  0.13300075223E+04 -0.29534734376E+03  0.17955895381E+04  0.22539502795E+04  0.10100000352E+00 0. -1.
</event>
<event>
 5   0  0.5916603E-06  0.2864498E+04  0.7818609E-02  0.8283520E-01
        2   -1    0    0  501    0  0.00000000000E+00  0.00000000000E+00  0.11571222556E+04  0.11571222556E+04  0.25500000920E-02 0. -1.
       -2   -1    0    0    0  501  0.00000000000E+00  0.00000000000E+00 -0.17727916323E+04  0.17727916323E+04  0.25500000920E-02 0.  1.
    10030    2    1    2    0    0  0.00000000000E+00  0.00000000000E+00 -0.61566937676E+03  0.29299138879E+04  0.28644976190E+04 0.  0.
        2    1    3    3  502    0 -0.61810810300E+03  0.58447476011E+02  0.10123236441E+04  0.11875491126E+04  0.25500000920E-02 0. -1.
       -2    1    3    3    0  502  0.61810810300E+03 -0.58447476011E+02 -0.16279930208E+04  0.17423647753E+04  0.25500000920E-02 0.  1.
</event>
<event>
 5   0  0.5866136E-06  0.2791342E+04  0.7818609E-02  0.8305962E-01
       -2   -1    0    0    0  501  0.00000000000E+00  0.00000000000E+00  0.73294203522E+03  0.73294203523E+03  0.25500000920E-02 0.  1.
        2   -1    0    0  501    0  0.00000000000E+00  0.00000000000E+00 -0.26576410554E+04  0.26576410554E+04  0.25500000920E-02 0. -1.
    10030    2    1    2    0    0  0.00000000000E+00  0.00000000000E+00 -0.19246990202E+04  0.33905830907E+04  0.27913415012E+04 0.  0.
        5    1    3    3  502    0 -0.19103449731E+03 -0.13114732290E+04 -0.14937885122E+04  0.19969683069E+04  0.46999998093E+01 0. -1.
       -5    1    3    3    0  502  0.19103449731E+03  0.13114732290E+04 -0.43091050804E+03  0.13936147838E+04  0.46999998093E+01 0.  1.
</event>
<event>
 5   0  0.5625245E-06  0.2782718E+04  0.7818609E-02  0.8308654E-01
        2   -1    0    0  501    0  0.00000000000E+00  0.00000000000E+00  0.63431055267E+03  0.63431055267E+03  0.25500000920E-02 0.  1.
       -2   -1    0    0    0  501  0.00000000000E+00  0.00000000000E+00 -0.30519434853E+04  0.30519434853E+04  0.25500000920E-02 0. -1.
    10030    2    1    2    0    0  0.00000000000E+00  0.00000000000E+00 -0.24176329326E+04  0.36862540380E+04  0.27827180661E+04 0.  0.
        3    1    3    3  502    0  0.66125310308E+03  0.68227149891E+03 -0.25552766511E+04  0.27262041080E+04  0.10100000352E+00 0. -1.
       -3    1    3    3    0  502 -0.66125310308E+03 -0.68227149891E+03  0.13764371850E+03  0.96004992995E+03  0.10100000352E+00 0.  1.
</event>
<event>
 5   0  0.2190865E-06  0.2846685E+04  0.7818609E-02  0.8288919E-01
       -1   -1    0    0    0  501  0.00000000000E+00  0.00000000000E+00  0.15074585101E+04  0.15074585101E+04  0.50400001928E-02 0.  1.
        1   -1    0    0  501    0  0.00000000000E+00  0.00000000000E+00 -0.13439201405E+04  0.13439201405E+04  0.50400001928E-02 0. -1.
    10030    2    1    2    0    0  0.00000000000E+00  0.00000000000E+00  0.16353836960E+03  0.28513786507E+04  0.28466849863E+04 0.  0.
        2    1    3    3  502    0  0.89053534157E+03 -0.11077122714E+04  0.15821134485E+03  0.14300735997E+04  0.25500000920E-02 0.  1.
       -2    1    3    3    0  502 -0.89053534157E+03  0.11077122714E+04  0.53270247508E+01  0.14213050510E+04  0.25500000920E-02 0. -1.
</event>
<event>
 5   0  0.5625245E-06  0.2540347E+04  0.7818609E-02  0.8388751E-01
       -2   -1    0    0    0  501  0.00000000000E+00  0.00000000000E+00  0.13730040788E+04  0.13730040788E+04  0.25500000920E-02 0. -1.
        2   -1    0    0  501    0  0.00000000000E+00  0.00000000000E+00 -0.11750446180E+04  0.11750446180E+04  0.25500000920E-02 0.  1.
    10030    2    1    2    0    0  0.00000000000E+00  0.00000000000E+00  0.19795946083E+03  0.25480486968E+04  0.25403472623E+04 0.  0.
        3    1    3    3  502    0  0.50102049664E+03  0.31694237467E+03 -0.10277543567E+04  0.11864876884E+04  0.10100000352E+00 0.  1.
       -3    1    3    3    0  502 -0.50102049664E+03 -0.31694237467E+03  0.12257138175E+04  0.13615610084E+04  0.10100000352E+00 0. -1.
</event>
<event>
 5   0  0.2206967E-06  0.3065071E+04  0.7818609E-02  0.8225390E-01
       -1   -1    0    0    0  501  0.00000000000E+00  0.00000000000E+00  0.12939479441E+04  0.12939479441E+04  0.50400001928E-02 0. -1.
        1   -1    0    0  501    0  0.00000000000E+00  0.00000000000E+00 -0.18151150959E+04  0.18151150959E+04  0.50400001928E-02 0.  1.
    10030    2    1    2    0    0  0.00000000000E+00  0.00000000000E+00 -0.52116715174E+03  0.31090630400E+04  0.30650706006E+04 0.  0.
        5    1    3    3  502    0 -0.54430167905E+03 -0.67848727068E+03 -0.15404512992E+04  0.17690736529E+04  0.46999998093E+01 0.  1.
       -5    1    3    3    0  502  0.54430167905E+03  0.67848727068E+03  0.10192841474E+04  0.13399893871E+04  0.46999998093E+01 0. -1.
</event>
<event>
 5   0  0.2234068E-06  0.2805510E+04  0.7818609E-02  0.8301560E-01
        1   -1    0    0  501    0  0.00000000000E+00  0.00000000000E+00  0.13381081977E+04  0.13381081977E+04  0.50400001928E-02 0.  1.
       -1   -1    0    0    0  501  0.00000000000E+00  0.00000000000E+00 -0.14705251203E+04  0.14705251203E+04  0.50400001928E-02 0. -1.
    10030    2    1    2    0    0  0.00000000000E+00  0.00000000000E+00 -0.13241692262E+03  0.28086333180E+04  0.28055100915E+04 0.  0.
        3    1    3    3  502    0  0.81227770929E+03  0.91287306573E+03 -0.75587987291E+03  0.14368321766E+04  0.10100000352E+00 0. -1.
       -3    1    3    3    0  502 -0.81227770929E+03 -0.91287306573E+03  0.62346295029E+03  0.13718011415E+04  0.10100000352E+00 0.  1.
</event>
<event>
 5   0  0.2277133E-06  0.2770732E+04  0.7818609E-02  0.8312413E-01
        1   -1    0    0  501    0  0.00000000000E+00  0.00000000000E+00  0.11686164836E+04  0.11686164836E+04  0.50400001928E-02 0. -1.
       -1   -1    0    0    0  501  0.00000000000E+00  0.00000000000E+00 -0.16423172364E+04  0.16423172364E+04  0.50400001928E-02 0.  1.
    10030    2    1    2    0    0  0.00000000000E+00  0.00000000000E+00 -0.47370075286E+03  0.28109337200E+04  0.27707320287E+04 0.  0.
        1    1    3    3  502    0  0.11060754765E+03 -0.12335873074E+04  0.39285465843E+03  0.12993484742E+04  0.50400001928E-02 0. -1.
       -1    1    3    3    0  502 -0.11060754765E+03  0.12335873074E+04 -0.86655541129E+03  0.15115852459E+04  0.50400001928E-02 0.  1.
</event>
<event>
 5   0  0.5546570E-06  0.2792444E+04  0.7818609E-02  0.8305618E-01
        2   -1    0    0  501    0  0.00000000000E+00  0.00000000000E+00  0.21610138028E+04  0.21610138028E+04  0.25500000920E-02 0.  1.
       -2   -1    0    0    0  501  0.00000000000E+00  0.00000000000E+00 -0.90209308209E+03  0.90209308210E+03  0.25500000920E-02 0. -1.
    10030    2    1    2    0    0  0.00000000000E+00  0.00000000000E+00  0.12589207207E+04  0.30631068849E+04  0.27924438056E+04 0.  0.
        4    1    3    3  502    0 -0.12718456676E+04  0.54609360179E+03  0.42831743859E+03  0.14488847660E+04  0.12699999809E+01 0. -1.
       -4    1    3    3    0  502  0.12718456676E+04 -0.54609360179E+03  0.83060328214E+03  0.16142221189E+04  0.12699999809E+01 0.  1.
</event>
<event>
 5   0  0.2267565E-06  0.2774261E+04  0.7818609E-02  0.8311304E-01
       -1   -1    0    0    0  501  0.00000000000E+00  0.00000000000E+00  0.98445694207E+03  0.98445694208E+03  0.50400001928E-02 0. -1.
        1   -1    0    0  501    0  0.00000000000E+00  0.00000000000E+00 -0.19545096479E+04  0.19545096479E+04  0.50400001928E-02 0.  1.
    10030    2    1    2    0    0  0.00000000000E+00  0.00000000000E+00 -0.97005270583E+03  0.29389665900E+04  0.27742606880E+04 0.  0.
        4    1    3    3  502    0  0.25177718526E+03  0.68454666288E+03  0.76490959945E+03  0.10569220373E+04  0.12699999809E+01 0. -1.
       -4    1    3    3    0  502 -0.25177718526E+03 -0.68454666288E+03 -0.17349623053E+04  0.18820445527E+04  0.12699999809E+01 0.  1.
</event>
<event>
 5   0  0.5866136E-06  0.2797138E+04  0.7818609E-02  0.8304157E-01
        2   -1    0    0  501    0  0.00000000000E+00  0.00000000000E+00  0.31091067894E+04  0.31091067894E+04  0.25500000920E-02 0.  1.
       -2   -1    0    0    0  501  0.00000000000E+00  0.00000000000E+00 -0.62911826913E+03  0.62911826914E+03  0.25500000920E-02 0. -1.
    10030    2    1    2    0    0  0.00000000000E+00  0.00000000000E+00  0.24799885203E+04  0.37382250586E+04  0.27971384534E+04 0.  0.
        5    1    3    3  502    0 -0.31774644266E+01  0.12987698013E+04  0.54663662175E+03  0.14091297950E+04  0.46999998093E+01 0.  1.
       -5    1    3    3    0  502  0.31774644266E+01 -0.12987698013E+04  0.19333518985E+04  0.23290952635E+04  0.46999998093E+01 0. -1.
</event>
<event>
 5   0  0.2206967E-06  0.2835997E+04  0.7818609E-02  0.8292179E-01
       -1   -1    0    0    0  501  0.00000000000E+00  0.00000000000E+00  0.16054667719E+04  0.16054667719E+04  0.50400001928E-02 0. -1.
        1   -1    0    0  501    0  0.00000000000E+00  0.00000000000E+00 -0.12524207590E+04  0.12524207590E+04  0.50400001928E-02 0.  1.
    10030    2    1    2    0    0  0.00000000000E+00  0.00000000000E+00  0.35304601290E+03  0.28578875308E+04  0.28359971177E+04 0.  0.
        5    1    3    3  502    0 -0.84998543142E+03 -0.10485953841E+04  0.61423770413E+03  0.14830163722E+04  0.46999998093E+01 0. -1.
       -5    1    3    3    0  502  0.84998543142E+03  0.10485953841E+04 -0.26119169123E+03  0.13748711586E+04  0.46999998093E+01 0.  1.
</event>
<event>
 5   0  0.5916603E-06  0.2745584E+04  0.7818609E-02  0.8320364E-01
        2   -1    0    0  501    0  0.00000000000E+00  0.00000000000E+00  0.17690991164E+04  0.17690991164E+04  0.25500000920E-02 0.  1.
       -2   -1    0    0    0  501  0.00000000000E+00  0.00000000000E+00 -0.10652639545E+04  0.10652639545E+04  0.25500000920E-02 0. -1.
    10030    2    1    2    0    0  0.00000000000E+00  0.00000000000E+00  0.70383516188E+03  0.28343630709E+04  0.27455837417E+04 0.  0.
        2    1    3    3  502    0  0.75340208685E+03  0.45288512299E+03 -0.73661521913E+03  0.11468747186E+04  0.25500000920E-02 0. -1.
       -2    1    3    3    0  502 -0.75340208685E+03 -0.45288512299E+03  0.14404503810E+04  0.16874883523E+04  0.25500000920E-02 0.  1.
</event>
<event>
 5   0  0.5546570E-06  0.2730468E+04  0.7818609E-02  0.8325186E-01
        2   -1    0    0  501    0  0.00000000000E+00  0.00000000000E+00  0.15544698756E+04  0.15544698756E+04  0.25500000920E-02 0.  1.
       -2   -1    0    0    0  501  0.00000000000E+00  0.00000000000E+00 -0.11990354277E+04  0.11990354277E+04  0.25500000920E-02 0. -1.
    10030    2    1    2    0    0  0.00000000000E+00  0.00000000000E+00  0.35543444791E+03  0.27535053033E+04  0.27304684229E+04 0.  0.
        4    1    3    3  502    0 -0.94763077309E+03  0.44977628343E+02 -0.81231716203E+03  0.12489547045E+04  0.12699999809E+01 0. -1.
       -4    1    3    3    0  502  0.94763077309E+03 -0.44977628343E+02  0.11677516099E+04  0.15045505989E+04  0.12699999809E+01 0.  1.
</event>
<event>
 5   0  0.5916603E-06  0.2832993E+04  0.7818609E-02  0.8293098E-01
        2   -1    0    0  501    0  0.00000000000E+00  0.00000000000E+00  0.15439445834E+04  0.15439445834E+04  0.25500000920E-02 0. -1.
       -2   -1    0    0    0  501  0.00000000000E+00  0.00000000000E+00 -0.12995689102E+04  0.12995689102E+04  0.25500000920E-02 0.  1.
    10030    2    1    2    0    0  0.00000000000E+00  0.00000000000E+00  0.24437567320E+03  0.28435134935E+04  0.28329930318E+04 0.  0.
        2    1    3    3  502    0  0.17511727942E+03  0.37545834836E+03  0.14817760451E+04  0.15386017290E+04  0.25500000920E-02 0. -1.
       -2    1    3    3    0  502 -0.17511727942E+03 -0.37545834836E+03 -0.12374003719E+04  0.13049117645E+04  0.25500000920E-02 0.  1.
</event>
<event>
 5   0  0.2267565E-06  0.2774085E+04  0.7818609E-02  0.8311359E-01
       -1   -1    0    0    0  501  0.00000000000E+00  0.00000000000E+00  0.14227137182E+04  0.14227137182E+04  0.50400001928E-02 0. -1.
        1   -1    0    0  501    0  0.00000000000E+00  0.00000000000E+00 -0.13522652644E+04  0.13522652644E+04  0.50400001928E-02 0.  1.
    10030    2    1    2    0    0  0.00000000000E+00  0.00000000000E+00  0.70448453747E+02  0.27749789826E+04  0.27740846002E+04 0.  0.
        4    1    3    3  502    0 -0.29949382552E+03  0.22589789560E+03 -0.13005558100E+04  0.13535780135E+04  0.12699999809E+01 0.  1.
       -4    1    3    3    0  502  0.29949382552E+03 -0.22589789560E+03  0.13710042638E+04  0.14214009691E+04  0.12699999809E+01 0. -1.
</event>
<event>
 5   0  0.5866136E-06  0.2785789E+04  0.7818609E-02  0.8307694E-01
        2   -1    0    0  501    0  0.00000000000E+00  0.00000000000E+00  0.21994706377E+04  0.21994706377E+04  0.25500000920E-02 0. -1.
       -2   -1    0    0    0  501  0.00000000000E+00  0.00000000000E+00 -0.88210115222E+03  0.88210115223E+03  0.25500000920E-02 0.  1.
    10030    2    1    2    0    0  0.00000000000E+00  0.00000000000E+00  0.13173694855E+04  0.30815717899E+04  0.27857893559E+04 0.  0.
        5    1    3    3  502    0  0.76658494810E+03 -0.11598923199E+04  0.56527467804E+03  0.15008531667E+04  0.46999998093E+01 0. -1.
       -5    1    3    3    0  502 -0.76658494810E+03  0.11598923199E+04  0.75209480743E+03  0.15807186232E+04  0.46999998093E+01 0.  1.
</event>
<event>
 5   0  0.2190865E-06  0.2774128E+04  0.7818609E-02  0.8311346E-01
        1   -1    0    0  501    0  0.00000000000E+00  0.00000000000E+00  0.15326319941E+04  0.15326319942E+04  0.50400001928E-02 0. -1.
       -1   -1    0    0    0  501  0.00000000000E+00  0.00000000000E+00 -0.12553218126E+04  0.12553218126E+04  0.50400001928E-02 0.  1.
    10030    2    1    2    0    0  0.00000000000E+00  0.00000000000E+00  0.27731018159E+03  0.27879538067E+04  0.27741278795E+04 0.  0.
        2    1    3    3  502    0  0.62744203298E+03 -0.13271050448E+03 -0.10973732707E+04  0.12710325244E+04  0.25500000920E-02 0.  1.
       -2    1    3    3    0  502 -0.62744203298E+03  0.13271050448E+03  0.13746834523E+04  0.15169212823E+04  0.25500000920E-02 0. -1.
</event>
<event>
 5   0  0.2277133E-06  0.2812259E+04  0.7818609E-02  0.8299472E-01
        1   -1    0    0  501    0  0.00000000000E+00  0.00000000000E+00  0.15351996645E+04  0.15351996645E+04  0.50400001928E-02 0. -1.
       -1   -1    0    0    0  501  0.00000000000E+00  0.00000000000E+00 -0.12879109784E+04  0.12879109785E+04  0.50400001928E-02 0.  1.
    10030    2    1    2    0    0  0.00000000000E+00  0.00000000000E+00  0.24728868608E+03  0.28231106430E+04  0.28122592356E+04 0.  0.
        1    1    3    3  502    0  0.49175983387E+03 -0.12812215753E+04 -0.18387745297E+03  0.13846181339E+04  0.50400001928E-02 0.  1.
       -1    1    3    3    0  502 -0.49175983387E+03  0.12812215753E+04  0.43116613906E+03  0.14384925091E+04  0.50400001928E-02 0. -1.
</event>
<event>
 5   0  0.2206967E-06  0.2853962E+04  0.7818609E-02  0.8286708E-01
        1   -1    0    0  501    0  0.00000000000E+00  0.00000000000E+00  0.11438066752E+04  0.11438066752E+04  0.50400001928E-02 0. -1.
       -1   -1    0    0    0  501  0.00000000000E+00  0.00000000000E+00 -0.17802616817E+04  0.17802616817E+04  0.50400001928E-02 0.  1.
    10030    2    1    2    0    0  0.00000000000E+00  0.00000000000E+00 -0.63645500651E+03  0.29240683570E+04  0.28539622950E+04 0.  0.
        5    1    3    3  502    0  0.84541773052E+03  0.38937153842E+03 -0.14264216329E+04  0.17032445799E+04  0.46999998093E+01 0.  1.
       -5    1    3    3    0  502 -0.84541773052E+03 -0.38937153842E+03  0.78996662639E+03  0.12208237771E+04  0.46999998093E+01 0. -1.
</event>
<event>
 5   0  0.2267565E-06  0.2784040E+04  0.7818609E-02  0.8308240E-01
        1   -1    0    0  501    0  0.00000000000E+00  0.00000000000E+00  0.20699280851E+04  0.20699280851E+04  0.50400001928E-02 0.  1.
       -1   -1    0    0    0  501  0.00000000000E+00  0.00000000000E+00 -0.93612915987E+03  0.93612915989E+03  0.50400001928E-02 0. -1.
    10030    2    1    2    0    0  0.00000000000E+00  0.00000000000E+00  0.11337989252E+04  0.30060572450E+04  0.27840402578E+04 0.  0.
        4    1    3    3  502    0  0.48758446382E+03 -0.27894922008E+03 -0.80831216864E+03  0.98433807791E+03  0.12699999809E+01 0. -1.
       -4    1    3    3    0  502 -0.48758446382E+03  0.27894922008E+03  0.19421110939E+04  0.20217191671E+04  0.12699999809E+01 0.  1.
</event>
<event>
 5   0  0.5584205E-06  0.2801138E+04  0.7818609E-02  0.8302915E-01
       -2   -1    0    0    0  501  0.00000000000E+00  0.00000000000E+00  0.83514734510E+03  0.83514734510E+03  0.25500000920E-02 0. -1.
        2   -1    0    0  501    0  0.00000000000E+00  0.00000000000E+00 -0.23487999563E+04  0.23487999563E+04  0.25500000920E-02 0.  1.
    10030    2    1    2    0    0  0.00000000000E+00  0.00000000000E+00 -0.15136526112E+04  0.31839473014E+04  0.28011383741E+04 0.  0.
        1    1    3    3  502    0 -0.10826119550E+04 -0.95430865218E+02 -0.17609809690E+04  0.20693500594E+04  0.50400001928E-02 0.  1.
       -1    1    3    3    0  502  0.10826119550E+04  0.95430865218E+02  0.24732835779E+03  0.11145972420E+04  0.50400001928E-02 0. -1.
</event>
<event>
 5   0  0.2277133E-06  0.2799432E+04  0.7818609E-02  0.8303445E-01
        1   -1    0    0  501    0  0.00000000000E+00  0.00000000000E+00  0.12935183724E+04  0.12935183724E+04  0.50400001928E-02 0.  1.
       -1   -1    0    0    0  501  0.00000000000E+00  0.00000000000E+00 -0.15146321892E+04  0.15146321893E+04  0.50400001928E-02 0. -1.
    10030    2    1    2    0    0  0.00000000000E+00  0.00000000000E+00 -0.22111381686E+03  0.28081505617E+04  0.27994317739E+04 0.  0.
        1    1    3    3  502    0 -0.12181040736E+04  0.21616008113E+03  0.54623558437E+03  0.13523594302E+04  0.50400001928E-02 0.  1.
       -1    1    3    3    0  502  0.12181040736E+04 -0.21616008113E+03 -0.76734940123E+03  0.14557911314E+04  0.50400001928E-02 0. -1.
</event>
<event>
 5   0  0.5625245E-06  0.2810989E+04  0.7818609E-02  0.8299865E-01
       -2   -1    0    0    0  501  0.00000000000E+00  0.00000000000E+00  0.15157469936E+04  0.15157469936E+04  0.25500000920E-02 0.  1.
        2   -1    0    0  501    0  0.00000000000E+00  0.00000000000E+00 -0.13032616028E+04  0.13032616028E+04  0.25500000920E-02 0. -1.
    10030    2    1    2    0    0  0.00000000000E+00  0.00000000000E+00  0.21248539086E+03  0.28190085964E+04  0.28109890475E+04 0.  0.
        3    1    3    3  502    0 -0.15627539552E+03  0.92858188470E+03  0.11526410515E+04  0.14883775460E+04  0.10100000352E+00 0.  1.
       -3    1    3    3    0  502  0.15627539552E+03 -0.92858188470E+03 -0.94015566059E+03  0.13306310504E+04  0.10100000352E+00 0. -1.
</event>
<event>
 5   0  0.5584205E-06  0.2816227E+04  0.7818609E-02  0.8298248E-01
        2   -1    0    0  501    0  0.00000000000E+00  0.00000000000E+00  0.16134534176E+04  0.16134534176E+04  0.25500000920E-02 0.  1.
       -2   -1    0    0    0  501  0.00000000000E+00  0.00000000000E+00 -0.12289063320E+04  0.12289063320E+04  0.25500000920E-02 0. -1.
    10030    2    1    2    0    0  0.00000000000E+00  0.00000000000E+00  0.38454708561E+03  0.28423597496E+04  0.28162266395E+04 0.  0.
        1    1    3    3  502    0  0.48743574473E+03  0.91805725751E+03  0.11510148811E+04  0.15508894190E+04  0.50400001928E-02 0.  1.
       -1    1    3    3    0  502 -0.48743574473E+03 -0.91805725751E+03 -0.76646779550E+03  0.12914703306E+04  0.50400001928E-02 0. -1.
</event>
<event>
 5   0  0.5584205E-06  0.2877006E+04  0.7818609E-02  0.8279752E-01
        2   -1    0    0  501    0  0.00000000000E+00  0.00000000000E+00  0.24941582216E+04  0.24941582216E+04  0.25500000920E-02 0. -1.
       -2   -1    0    0    0  501  0.00000000000E+00  0.00000000000E+00 -0.82965529404E+03  0.82965529405E+03  0.25500000920E-02 0.  1.
    10030    2    1    2    0    0  0.00000000000E+00  0.00000000000E+00  0.16645029276E+04  0.33238135157E+04  0.28770064809E+04 0.  0.
        1    1    3    3  502    0  0.10697613641E+04 -0.45569419405E+02  0.19420793474E+04  0.22176875658E+04  0.50400001928E-02 0. -1.
       -1    1    3    3    0  502 -0.10697613641E+04  0.45569419405E+02 -0.27757641982E+03  0.11061259498E+04  0.50400001928E-02 0.  1.
</event>
<event>
 5   0  0.5866136E-06  0.2819542E+04  0.7818609E-02  0.8297227E-01
       -2   -1    0    0    0  501  0.00000000000E+00  0.00000000000E+00  0.13893031612E+04  0.13893031612E+04  0.25500000920E-02 0.  1.
        2   -1    0    0  501    0  0.00000000000E+00  0.00000000000E+00 -0.14305404499E+04  0.14305404499E+04  0.25500000920E-02 0. -1.
    10030    2    1    2    0    0  0.00000000000E+00  0.00000000000E+00 -0.41237288674E+02  0.28198436111E+04  0.28195420687E+04 0.  0.
        5    1    3    3  502    0  0.23286356526E+03  0.85109306871E+03  0.10789749203E+04  0.13938413899E+04  0.46999998093E+01 0.  1.
       -5    1    3    3    0  502 -0.23286356526E+03 -0.85109306871E+03 -0.11202122090E+04  0.14260022212E+04  0.46999998093E+01 0. -1.
</event>
<event>
 5   0  0.2206967E-06  0.2796253E+04  0.7818609E-02  0.8304432E-01
       -1   -1    0    0    0  501  0.00000000000E+00  0.00000000000E+00  0.15861826994E+04  0.15861826994E+04  0.50400001928E-02 0.  1.
        1   -1    0    0  501    0  0.00000000000E+00  0.00000000000E+00 -0.12323664306E+04  0.12323664306E+04  0.50400001928E-02 0. -1.
    10030    2    1    2    0    0  0.00000000000E+00  0.00000000000E+00  0.35381626878E+03  0.28185491301E+04  0.27962534303E+04 0.  0.
        5    1    3    3  502    0  0.51401807046E+03 -0.12021721845E+04 -0.32232237044E+03  0.13466054873E+04  0.46999998093E+01 0. -1.
       -5    1    3    3    0  502 -0.51401807046E+03  0.12021721845E+04  0.67613863922E+03  0.14719436428E+04  0.46999998093E+01 0.  1.
</event>
<event>
 5   0  0.5625245E-06  0.2793204E+04  0.7818609E-02  0.8305381E-01
        2   -1    0    0  501    0  0.00000000000E+00  0.00000000000E+00  0.22672360870E+04  0.22672360870E+04  0.25500000920E-02 0.  1.
       -2   -1    0    0    0  501  0.00000000000E+00  0.00000000000E+00 -0.86029754241E+03  0.86029754241E+03  0.25500000920E-02 0. -1.
    10030    2    1    2    0    0  0.00000000000E+00  0.00000000000E+00  0.14069385446E+04  0.31275336294E+04  0.27932043489E+04 0.  0.
        3    1    3    3  502    0 -0.13297244985E+04  0.42308220512E+03  0.63883830518E+03  0.15346922117E+04  0.10100000352E+00 0.  1.
       -3    1    3    3    0  502  0.13297244985E+04 -0.42308220512E+03  0.76810023942E+03  0.15928414178E+04  0.10100000352E+00 0. -1.
</event>
<event>
 5   0  0.2190865E-06  0.2804331E+04  0.7818609E-02  0.8301925E-01
       -1   -1    0    0    0  501  0.00000000000E+00  0.00000000000E+00  0.12844414008E+04  0.12844414008E+04  0.50400001928E-02 0.  1.
        1   -1    0    0  501    0  0.00000000000E+00  0.00000000000E+00 -0.15306798143E+04  0.15306798143E+04  0.50400001928E-02 0. -1.
    10030    2    1    2    0    0  0.00000000000E+00  0.00000000000E+00 -0.24623841346E+03  0.28151212151E+04  0.28043313106E+04 0.  0.
        2    1    3    3  502    0 -0.11950131203E+04  0.50367495097E+03  0.41215253707E+03  0.13607404336E+04  0.25500000920E-02 0.  1.
       -2    1    3    3    0  502  0.11950131203E+04 -0.50367495097E+03 -0.65839095053E+03  0.14543807815E+04  0.25500000920E-02 0. -1.
</event>
<event>
 5   0  0.2277133E-06  0.2789811E+04  0.7818609E-02  0.8306439E-01
       -1   -1    0    0    0  501  0.00000000000E+00  0.00000000000E+00  0.95659455532E+03  0.95659455533E+03  0.50400001928E-02 0.  1.
        1   -1    0    0  501    0  0.00000000000E+00  0.00000000000E+00 -0.20340505772E+04  0.20340505772E+04  0.50400001928E-02 0. -1.
    10030    2    1    2    0    0  0.00000000000E+00  0.00000000000E+00 -0.10774560219E+04  0.29906451325E+04  0.27898112534E+04 0.  0.
        1    1    3    3  502    0  0.13540714851E+04  0.32639366750E+03 -0.45765780303E+03  0.14661149606E+04  0.50400001928E-02 0.  1.
       -1    1    3    3    0  502 -0.13540714851E+04 -0.32639366750E+03 -0.61979821883E+03  0.15245301719E+04  0.50400001928E-02 0. -1.
</event>
<event>
 5   0  0.2234068E-06  0.2786006E+04  0.7818609E-02  0.8307626E-01
        1   -1    0    0  501    0  0.00000000000E+00  0.00000000000E+00  0.19000721713E+04  0.19000721713E+04  0.50400001928E-02 0.  1.
       -1   -1    0    0    0  501  0.00000000000E+00  0.00000000000E+00 -0.10212546030E+04  0.10212546030E+04  0.50400001928E-02 0. -1.
    10030    2    1    2    0    0  0.00000000000E+00  0.00000000000E+00  0.87881756830E+03  0.29213267743E+04  0.27860060667E+04 0.  0.
        3    1    3    3  502    0  0.51372092811E+03 -0.38911864321E+03 -0.85553887593E+03  0.10711065721E+04  0.10100000352E+00 0. -1.
       -3    1    3    3    0  502 -0.51372092811E+03  0.38911864321E+03  0.17343564442E+04  0.18502202021E+04  0.10100000352E+00 0.  1.
</event>
<event>
 5   0  0.2234068E-06  0.2799114E+04  0.7818609E-02  0.8303543E-01
        1   -1    0    0  501    0  0.00000000000E+00  0.00000000000E+00  0.10365743825E+04  0.10365743826E+04  0.50400001928E-02 0. -1.
       -1   -1    0    0    0  501  0.00000000000E+00  0.00000000000E+00 -0.18896472399E+04  0.18896472399E+04  0.50400001928E-02 0.  1.
    10030    2    1    2    0    0  0.00000000000E+00  0.00000000000E+00 -0.85307285738E+03  0.29262216225E+04  0.27991140891E+04 0.  0.
        3    1    3    3  502    0 -0.18936728232E+03  0.14042773860E+02 -0.18761180959E+04  0.18857031280E+04  0.10100000352E+00 0.  1.
       -3    1    3    3    0  502  0.18936728232E+03 -0.14042773860E+02  0.10230452385E+04  0.10405184945E+04  0.10100000352E+00 0. -1.
</event>
<event>
 5   0  0.5916603E-06  0.2804242E+04  0.7818609E-02  0.8301953E-01
        2   -1    0    0  501    0  0.00000000000E+00  0.00000000000E+00  0.24431805416E+04  0.24431805416E+04  0.25500000920E-02 0. -1.
       -2   -1    0    0    0  501  0.00000000000E+00  0.00000000000E+00 -0.80466542264E+03  0.80466542264E+03  0.25500000920E-02 0.  1.
    10030    2    1    2    0    0  0.00000000000E+00  0.00000000000E+00  0.16385151190E+04  0.32478459643E+04  0.28042417179E+04 0.  0.
        2    1    3    3  502    0 -0.46927235479E+02 -0.10461857581E+04 -0.26055619329E+03  0.10791646472E+04  0.25500000920E-02 0.  1.
       -2    1    3    3    0  502  0.46927235479E+02  0.10461857581E+04  0.18990713123E+04  0.21686813171E+04  0.25500000920E-02 0. -1.
</event>
<event>
 5   0  0.2206967E-06  0.2789948E+04  0.7818609E-02  0.8306396E-01
       -1   -1    0    0    0  501  0.00000000000E+00  0.00000000000E+00  0.16800933102E+04  0.16800933102E+04  0.50400001928E-02 0.  1.
        1   -1    0    0  501    0  0.00000000000E+00  0.00000000000E+00 -0.11582407915E+04  0.11582407915E+04  0.50400001928E-02 0. -1.
    10030    2    1    2    0    0  0.00000000000E+00  0.00000000000E+00  0.52185251871E+03  0.28383341017E+04  0.27899481038E+04 0.  0.
        5    1    3    3  502    0  0.87484413724E+03  0.98537630783E+03 -0.20484773433E+03  0.13335304334E+04  0.46999998093E+01 0. -1.
       -5    1    3    3    0  502 -0.87484413724E+03 -0.98537630783E+03  0.72670025304E+03  0.15048036683E+04  0.46999998093E+01 0.  1.
</event>
<event>
 5   0  0.5866136E-06  0.2807325E+04  0.7818609E-02  0.8300998E-01
       -2   -1    0    0    0  501  0.00000000000E+00  0.00000000000E+00  0.18317357509E+04  0.18317357509E+04  0.25500000920E-02 0.  1.
        2   -1    0    0  501    0  0.00000000000E+00  0.00000000000E+00 -0.10756295256E+04  0.10756295256E+04  0.25500000920E-02 0. -1.
    10030    2    1    2    0    0  0.00000000000E+00  0.00000000000E+00  0.75610622524E+03  0.29073652765E+04  0.28073254580E+04 0.  0.
        5    1    3    3  502    0 -0.47111711042E+03  0.12892661846E+03 -0.98477112379E+03  0.10992586870E+04  0.46999998093E+01 0. -1.
       -5    1    3    3    0  502  0.47111711042E+03 -0.12892661846E+03  0.17408773490E+04  0.18081065895E+04  0.46999998093E+01 0.  1.
</event>
<event>
 5   0  0.2190865E-06  0.2528798E+04  0.7818609E-02  0.8392797E-01
        1   -1    0    0  501    0  0.00000000000E+00  0.00000000000E+00  0.11392875208E+04  0.11392875208E+04  0.50400001928E-02 0. -1.
       -1   -1    0    0    0  501  0.00000000000E+00  0.00000000000E+00 -0.14032496888E+04  0.14032496888E+04  0.50400001928E-02 0.  1.
    10030    2    1    2    0    0  0.00000000000E+00  0.00000000000E+00 -0.26396216805E+03  0.25425372096E+04  0.25287980220E+04 0.  0.
        2    1    3    3  502    0 -0.11870291584E+04  0.61967742952E+02 -0.56539929549E+03  0.13162653940E+04  0.25500000920E-02 0.  1.
       -2    1    3    3    0  502  0.11870291584E+04 -0.61967742952E+02  0.30143712744E+03  0.12262718156E+04  0.25500000920E-02 0. -1.
</event>
<event>
 5   0  0.1901375E-06  0.2795282E+04  0.7818609E-02  0.8304735E-01
        4   -1    0    0  501    0  0.00000000000E+00  0.00000000000E+00  0.19144121437E+04  0.19144125649E+04  0.12699999809E+01 0. -1.
       -4   -1    0    0    0  501  0.00000000000E+00  0.00000000000E+00 -0.10203648123E+04  0.10203656027E+04  0.12699999809E+01 0.  1.
    10030    2    1    2    0    0  0.00000000000E+00  0.00000000000E+00  0.89404733138E+03  0.29347781676E+04  0.27952821436E+04 0.  0.
        5    1    3    3  502    0  0.65828952528E+03 -0.51328312738E+03  0.16239346896E+04  0.18259218587E+04  0.46999998093E+01 0. -1.
       -5    1    3    3    0  502 -0.65828952528E+03  0.51328312738E+03 -0.72988735826E+03  0.11088563089E+04  0.46999998093E+01 0.  1.
</event>
<event>
 5   0  0.2277133E-06  0.2791892E+04  0.7818609E-02  0.8305790E-01
        1   -1    0    0  501    0  0.00000000000E+00  0.00000000000E+00  0.23766548096E+04  0.23766548096E+04  0.50400001928E-02 0. -1.
       -1   -1    0    0    0  501  0.00000000000E+00  0.00000000000E+00 -0.81991937154E+03  0.81991937155E+03  0.50400001928E-02 0.  1.
    10030    2    1    2    0    0  0.00000000000E+00  0.00000000000E+00  0.15567354380E+04  0.31965741811E+04  0.27918920594E+04 0.  0.
        1    1    3    3  502    0  0.40007989331E+03 -0.11854972400E+04  0.69610320445E+02  0.12531213923E+04  0.50400001928E-02 0.  1.
       -1    1    3    3    0  502 -0.40007989331E+03  0.11854972400E+04  0.14871251176E+04  0.19434527889E+04  0.50400001928E-02 0. -1.
</event>
<event>
 5   0  0.2190865E-06  0.2803254E+04  0.7818609E-02  0.8302259E-01
       -1   -1    0    0    0  501  0.00000000000E+00  0.00000000000E+00  0.10424272819E+04  0.10424272819E+04  0.50400001928E-02 0.  1.
        1   -1    0    0  501    0  0.00000000000E+00  0.00000000000E+00 -0.18846002792E+04  0.18846002792E+04  0.50400001928E-02 0. -1.
    10030    2    1    2    0    0  0.00000000000E+00  0.00000000000E+00 -0.84217299735E+03  0.29270275611E+04  0.28032543563E+04 0.  0.
        2    1    3    3  502    0 -0.73839928791E+03 -0.95278661821E+03 -0.11678736650E+04  0.16783815852E+04  0.25500000920E-02 0. -1.
       -2    1    3    3    0  502  0.73839928791E+03  0.95278661821E+03  0.32570066767E+03  0.12486459759E+04  0.25500000920E-02 0.  1.
</event>
<event>
 5   0  0.5584205E-06  0.2793070E+04  0.7818609E-02  0.8305423E-01
       -2   -1    0    0    0  501  0.00000000000E+00  0.00000000000E+00  0.95795796456E+03  0.95795796456E+03  0.25500000920E-02 0. -1.
        2   -1    0    0  501    0  0.00000000000E+00  0.00000000000E+00 -0.20359041053E+04  0.20359041053E+04  0.25500000920E-02 0.  1.
    10030    2    1    2    0    0  0.00000000000E+00  0.00000000000E+00 -0.10779461407E+04  0.29938620698E+04  0.27930703913E+04 0.  0.
        1    1    3    3  502    0 -0.95347943817E+03  0.14049765611E+03  0.54435007447E+03  0.11068783285E+04  0.50400001928E-02 0. -1.
       -1    1    3    3    0  502  0.95347943817E+03 -0.14049765611E+03 -0.16222962152E+04  0.18869837414E+04  0.50400001928E-02 0.  1.
</event>
<event>
 5   0  0.5584205E-06  0.2820013E+04  0.7818609E-02  0.8297082E-01
       -2   -1    0    0    0  501  0.00000000000E+00  0.00000000000E+00  0.97652937332E+03  0.97652937332E+03  0.25500000920E-02 0. -1.
        2   -1    0    0  501    0  0.00000000000E+00  0.00000000000E+00 -0.20359027472E+04  0.20359027472E+04  0.25500000920E-02 0.  1.
    10030    2    1    2    0    0  0.00000000000E+00  0.00000000000E+00 -0.10593733739E+04  0.30124321205E+04  0.28200133573E+04 0.  0.
        1    1    3    3  502    0  0.75034441614E+03 -0.97891992073E+03  0.20017378765E+03  0.12495481181E+04  0.50400001928E-02 0. -1.
       -1    1    3    3    0  502 -0.75034441614E+03  0.97891992073E+03 -0.12595471615E+04  0.17628840025E+04  0.50400001928E-02 0.  1.
</event>
<event>
 5   0  0.2267565E-06  0.2799934E+04  0.7818609E-02  0.8303289E-01
       -1   -1    0    0    0  501  0.00000000000E+00  0.00000000000E+00  0.10550068200E+04  0.10550068200E+04  0.50400001928E-02 0.  1.
        1   -1    0    0  501    0  0.00000000000E+00  0.00000000000E+00 -0.18577203445E+04  0.18577203445E+04  0.50400001928E-02 0. -1.
    10030    2    1    2    0    0  0.00000000000E+00  0.00000000000E+00 -0.80271352451E+03  0.29127271645E+04  0.27999340229E+04 0.  0.
        4    1    3    3  502    0 -0.11182171108E+04 -0.74028485617E+03  0.16670346566E+02  0.13411602024E+04  0.12699999809E+01 0. -1.
       -4    1    3    3    0  502  0.11182171108E+04  0.74028485617E+03 -0.81938387108E+03  0.15715669621E+04  0.12699999809E+01 0.  1.
</event>
<event>
 5   0  0.5866136E-06  0.2772151E+04  0.7818609E-02  0.8311967E-01
        2   -1    0    0  501    0  0.00000000000E+00  0.00000000000E+00  0.19474971220E+04  0.19474971220E+04  0.25500000920E-02 0.  1.
       -2   -1    0    0    0  501  0.00000000000E+00  0.00000000000E+00 -0.98649951166E+03  0.98649951166E+03  0.25500000920E-02 0. -1.
    10030    2    1    2    0    0  0.00000000000E+00  0.00000000000E+00  0.96099761030E+03  0.29339966336E+04  0.27721507605E+04 0.  0.
        5    1    3    3  502    0 -0.38496714395E+02 -0.23474953215E+03  0.19257217649E+04  0.19403648486E+04  0.46999998093E+01 0.  1.
       -5    1    3    3    0  502  0.38496714395E+02  0.23474953215E+03 -0.96472415457E+03  0.99363178506E+03  0.46999998093E+01 0. -1.
</event>
<event>
 5   0  0.2206967E-06  0.2764764E+04  0.7818609E-02  0.8314292E-01
        1   -1    0    0  501    0  0.00000000000E+00  0.00000000000E+00  0.18269629585E+04  0.18269629585E+04  0.50400001928E-02 0.  1.
       -1   -1    0    0    0  501  0.00000000000E+00  0.00000000000E+00 -0.10459869159E+04  0.10459869159E+04  0.50400001928E-02 0. -1.
    10030    2    1    2    0    0  0.00000000000E+00  0.00000000000E+00  0.78097604264E+03  0.28729498744E+04  0.27647635345E+04 0.  0.
        5    1    3    3  502    0  0.36235621705E+03 -0.22729433588E+03 -0.97548142333E+03  0.10651529657E+04  0.46999998093E+01 0. -1.
       -5    1    3    3    0  502 -0.36235621705E+03  0.22729433588E+03  0.17564574660E+04  0.18077969086E+04  0.46999998093E+01 0.  1.
</event>
<event>
 5   0  0.2190865E-06  0.2822471E+04  0.7818609E-02  0.8296326E-01
       -1   -1    0    0    0  501  0.00000000000E+00  0.00000000000E+00  0.92171830756E+03  0.92171830757E+03  0.50400001928E-02 0.  1.
        1   -1    0    0  501    0  0.00000000000E+00  0.00000000000E+00 -0.21607314336E+04  0.21607314336E+04  0.50400001928E-02 0. -1.
    10030    2    1    2    0    0  0.00000000000E+00  0.00000000000E+00 -0.12390131260E+04  0.30824497412E+04  0.28224710593E+04 0.  0.
        2    1    3    3  502    0 -0.13552285111E+04  0.66296912100E+01 -0.10493285632E+04  0.17139949544E+04  0.25500000920E-02 0. -1.
       -2    1    3    3    0  502  0.13552285111E+04 -0.66296912100E+01 -0.18968456282E+03  0.13684547868E+04  0.25500000920E-02 0.  1.
</event>
<event>
 5   0  0.5866136E-06  0.2797518E+04  0.7818609E-02  0.8304039E-01
        2   -1    0    0  501    0  0.00000000000E+00  0.00000000000E+00  0.18463528900E+04  0.18463528900E+04  0.25500000920E-02 0.  1.
       -2   -1    0    0    0  501  0.00000000000E+00  0.00000000000E+00 -0.10596708472E+04  0.10596708473E+04  0.25500000920E-02 0. -1.
    10030    2    1    2    0    0  0.00000000000E+00  0.00000000000E+00  0.78668204277E+03  0.29060237373E+04  0.27975177077E+04 0.  0.
        5    1    3    3  502    0 -0.96198078132E+03  0.10152295240E+04  0.37240409365E+03  0.14473440880E+04  0.46999998093E+01 0.  1.
       -5    1    3    3    0  502  0.96198078132E+03 -0.10152295240E+04  0.41427794912E+03  0.14586796493E+04  0.46999998093E+01 0. -1.
</event>
<event>
 5   0  0.5584205E-06  0.2917229E+04  0.7818609E-02  0.8267770E-01
        2   -1    0    0  501    0  0.00000000000E+00  0.00000000000E+00  0.27149004155E+04  0.27149004155E+04  0.25500000920E-02 0. -1.
       -2   -1    0    0    0  501  0.00000000000E+00  0.00000000000E+00 -0.78365888381E+03  0.78365888382E+03  0.25500000920E-02 0.  1.
    10030    2    1    2    0    0  0.00000000000E+00  0.00000000000E+00  0.19312415317E+04  0.34985592993E+04  0.29172287050E+04 0.  0.
        1    1    3    3  502    0 -0.12942483864E+04 -0.22438964014E+03  0.20511946038E+03  0.13294749300E+04  0.50400001928E-02 0.  1.
       -1    1    3    3    0  502  0.12942483864E+04  0.22438964014E+03  0.17261220713E+04  0.21690843694E+04  0.50400001928E-02 0. -1.
</event>
<event>
 5   0  0.2190865E-06  0.2795235E+04  0.7818609E-02  0.8304749E-01
       -1   -1    0    0    0  501  0.00000000000E+00  0.00000000000E+00  0.92046842402E+03  0.92046842403E+03  0.50400001928E-02 0.  1.
        1   -1    0    0  501    0  0.00000000000E+00  0.00000000000E+00 -0.21221087229E+04  0.21221087229E+04  0.50400001928E-02 0. -1.
    10030    2    1    2    0    0  0.00000000000E+00  0.00000000000E+00 -0.12016402989E+04  0.30425771469E+04  0.27952345675E+04 0.  0.
        2    1    3    3  502    0  0.61432519017E+03  0.91740637005E+03 -0.15335617398E+04  0.18896670333E+04  0.25500000920E-02 0. -1.
       -2    1    3    3    0  502 -0.61432519017E+03 -0.91740637005E+03  0.33192144092E+03  0.11529101136E+04  0.25500000920E-02 0.  1.
</event>
<event>
 5   0  0.1901375E-06  0.2812164E+04  0.7818609E-02  0.8299502E-01
        3   -1    0    0  501    0  0.00000000000E+00  0.00000000000E+00  0.12497573028E+04  0.12497573069E+04  0.10100000352E+00 0. -1.
       -3   -1    0    0    0  501  0.00000000000E+00  0.00000000000E+00 -0.15819602716E+04  0.15819602749E+04  0.10100000352E+00 0.  1.
    10030    2    1    2    0    0  0.00000000000E+00  0.00000000000E+00 -0.33220296879E+03  0.28317175818E+04  0.28121638733E+04 0.  0.
        4    1    3    3  502    0  0.16817182450E+03  0.13116515494E+04  0.31508443587E+03  0.13594084611E+04  0.12699999809E+01 0. -1.
       -4    1    3    3    0  502 -0.16817182450E+03 -0.13116515494E+04 -0.64728740466E+03  0.14723091206E+04  0.12699999809E+01 0.  1.
</event>
<event>
 5   0  0.2206967E-06  0.2806937E+04  0.7818609E-02  0.8301118E-01
       -1   -1    0    0    0  501  0.00000000000E+00  0.00000000000E+00  0.16760855286E+04  0.16760855286E+04  0.50400001928E-02 0.  1.
        1   -1    0    0  501    0  0.00000000000E+00  0.00000000000E+00 -0.11751926694E+04  0.11751926694E+04  0.50400001928E-02 0. -1.
    10030    2    1    2    0    0  0.00000000000E+00  0.00000000000E+00  0.50089285924E+03  0.28512781980E+04  0.28069367122E+04 0.  0.
        5    1    3    3  502    0  0.13893147978E+03  0.13074564953E+04  0.74907441584E+03  0.15132346195E+04  0.46999998093E+01 0.  1.
       -5    1    3    3    0  502 -0.13893147978E+03 -0.13074564953E+04 -0.24818155661E+03  0.13380435786E+04  0.46999998093E+01 0. -1.
</event>
<event>
 5   0  0.2234068E-06  0.2860163E+04  0.7818609E-02  0.8284830E-01
        1   -1    0    0  501    0  0.00000000000E+00  0.00000000000E+00  0.18453832281E+04  0.18453832281E+04  0.50400001928E-02 0.  1.
       -1   -1    0    0    0  501  0.00000000000E+00  0.00000000000E+00 -0.11082427638E+04  0.11082427638E+04  0.50400001928E-02 0. -1.
    10030    2    1    2    0    0  0.00000000000E+00  0.00000000000E+00  0.73714046433E+03  0.29536259920E+04  0.28601626591E+04 0.  0.
        3    1    3    3  502    0 -0.19639950862E+03 -0.13651867721E+04 -0.21701186595E+02  0.13794124261E+04  0.10100000352E+00 0.  1.
       -3    1    3    3    0  502  0.19639950862E+03  0.13651867721E+04  0.75884165093E+03  0.15742135659E+04  0.10100000352E+00 0. -1.
</event>
<event>
 5   0  0.2206967E-06  0.2794546E+04  0.7818609E-02  0.8304964E-01
        1   -1    0    0  501    0  0.00000000000E+00  0.00000000000E+00  0.11316756818E+04  0.11316756819E+04  0.50400001928E-02 0.  1.
       -1   -1    0    0    0  501  0.00000000000E+00  0.00000000000E+00 -0.17252046075E+04  0.17252046075E+04  0.50400001928E-02 0. -1.
    10030    2    1    2    0    0  0.00000000000E+00  0.00000000000E+00 -0.59352892562E+03  0.28568802893E+04  0.27945461889E+04 0.  0.
        5    1    3    3  502    0 -0.26182728419E+03  0.53530876284E+03  0.99524584066E+03  0.11600195566E+04  0.46999998093E+01 0.  1.
       -5    1    3    3    0  502  0.26182728419E+03 -0.53530876284E+03 -0.15887747663E+04  0.16968607327E+04  0.46999998093E+01 0. -1.
</event>
<event>
 5   0  0.2267565E-06  0.2793291E+04  0.7818609E-02  0.8305354E-01
        1   -1    0    0  501    0  0.00000000000E+00  0.00000000000E+00  0.26724073244E+04  0.26724073245E+04  0.50400001928E-02 0. -1.
       -1   -1    0    0    0  501  0.00000000000E+00  0.00000000000E+00 -0.72991071315E+03  0.72991071317E+03  0.50400001928E-02 0.  1.
    10030    2    1    2    0    0  0.00000000000E+00  0.00000000000E+00  0.19424966113E+04  0.34023180376E+04  0.27932910597E+04 0.  0.
        4    1    3    3  502    0  0.19748716034E+03  0.71813783520E+03 -0.46783168815E+03  0.87954035165E+03  0.12699999809E+01 0.  1.
       -4    1    3    3    0  502 -0.19748716034E+03 -0.71813783520E+03  0.24103282994E+04  0.25227776860E+04  0.12699999809E+01 0. -1.
</event>
<event>
 5   0  0.2206967E-06  0.2836025E+04  0.7818609E-02  0.8292170E-01
        1   -1    0    0  501    0  0.00000000000E+00  0.00000000000E+00  0.10709426508E+04  0.10709426509E+04  0.50400001928E-02 0.  1.
       -1   -1    0    0    0  501  0.00000000000E+00  0.00000000000E+00 -0.18775608933E+04  0.18775608933E+04  0.50400001928E-02 0. -1.
    10030    2    1    2    0    0  0.00000000000E+00  0.00000000000E+00 -0.80661824248E+03  0.29485035442E+04  0.28360254161E+04 0.  0.
        5    1    3    3  502    0 -0.45301290021E+03 -0.49894262700E+03  0.89379952485E+03  0.11194034632E+04  0.46999998093E+01 0.  1.
       -5    1    3    3    0  502  0.45301290021E+03  0.49894262700E+03 -0.17004177673E+04  0.18291000810E+04  0.46999998093E+01 0. -1.
</event>
<event>
 5   0  0.5546570E-06  0.2800248E+04  0.7818609E-02  0.8303191E-01
       -2   -1    0    0    0  501  0.00000000000E+00  0.00000000000E+00  0.13797866633E+04  0.13797866633E+04  0.25500000920E-02 0.  1.
        2   -1    0    0  501    0  0.00000000000E+00  0.00000000000E+00 -0.14207610562E+04  0.14207610562E+04  0.25500000920E-02 0. -1.
    10030    2    1    2    0    0  0.00000000000E+00  0.00000000000E+00 -0.40974392903E+02  0.28005477195E+04  0.28002479584E+04 0.  0.
        4    1    3    3  502    0 -0.13974438048E+04 -0.80971562991E+02  0.10174894764E+02  0.13998252473E+04  0.12699999809E+01 0. -1.
       -4    1    3    3    0  502  0.13974438048E+04  0.80971562991E+02 -0.51149287667E+02  0.14007224722E+04  0.12699999809E+01 0.  1.
</event>
<event>
 5   0  0.2206967E-06  0.2799038E+04  0.7818609E-02  0.8303567E-01
       -1   -1    0    0    0  501  0.00000000000E+00  0.00000000000E+00  0.15514707266E+04  0.15514707266E+04  0.50400001928E-02 0.  1.
        1   -1    0    0  501    0  0.00000000000E+00  0.00000000000E+00 -0.12624496444E+04  0.12624496445E+04  0.50400001928E-02 0. -1.
    10030    2    1    2    0    0  0.00000000000E+00  0.00000000000E+00  0.28902108215E+03  0.28139203711E+04  0.27990381685E+04 0.  0.
        5    1    3    3  502    0  0.26171963727E+03  0.12863657203E+04 -0.34324705013E+03  0.13568620277E+04  0.46999998093E+01 0. -1.
       -5    1    3    3    0  502 -0.26171963727E+03 -0.12863657203E+04  0.63226813228E+03  0.14570583433E+04  0.46999998093E+01 0.  1.
</event>
<event>
 5   0  0.5625245E-06  0.2807662E+04  0.7818609E-02  0.8300894E-01
       -2   -1    0    0    0  501  0.00000000000E+00  0.00000000000E+00  0.18149442747E+04  0.18149442747E+04  0.25500000920E-02 0. -1.
        2   -1    0    0  501    0  0.00000000000E+00  0.00000000000E+00 -0.10858409725E+04  0.10858409725E+04  0.25500000920E-02 0.  1.
    10030    2    1    2    0    0  0.00000000000E+00  0.00000000000E+00  0.72910330219E+03  0.29007852472E+04  0.28076615581E+04 0.  0.
        3    1    3    3  502    0 -0.11685239194E+04  0.19964838610E+03 -0.41234183754E+03  0.12551228743E+04  0.10100000352E+00 0.  1.
       -3    1    3    3    0  502  0.11685239194E+04 -0.19964838610E+03  0.11414451397E+04  0.16456623729E+04  0.10100000352E+00 0. -1.
</event>
<event>
 5   0  0.5625245E-06  0.2816225E+04  0.7818609E-02  0.8298249E-01
       -2   -1    0    0    0  501  0.00000000000E+00  0.00000000000E+00  0.85060510870E+03  0.85060510871E+03  0.25500000920E-02 0.  1.
        2   -1    0    0  501    0  0.00000000000E+00  0.00000000000E+00 -0.23310241624E+04  0.23310241624E+04  0.25500000920E-02 0. -1.
    10030    2    1    2    0    0  0.00000000000E+00  0.00000000000E+00 -0.14804190537E+04  0.31816292711E+04  0.28162251764E+04 0.  0.
        3    1    3    3  502    0 -0.34674143626E+03 -0.12373398244E+04 -0.13907153705E+04  0.18934964264E+04  0.10100000352E+00 0. -1.
       -3    1    3    3    0  502  0.34674143626E+03  0.12373398244E+04 -0.89703683218E+02  0.12881328448E+04  0.10100000352E+00 0.  1.
</event>
<event>
 5   0  0.2190865E-06  0.2788526E+04  0.7818609E-02  0.8306839E-01
       -1   -1    0    0    0  501  0.00000000000E+00  0.00000000000E+00  0.14512722251E+04  0.14512722251E+04  0.50400001928E-02 0. -1.
        1   -1    0    0  501    0  0.00000000000E+00  0.00000000000E+00 -0.13394933812E+04  0.13394933812E+04  0.50400001928E-02 0.  1.
    10030    2    1    2    0    0  0.00000000000E+00  0.00000000000E+00  0.11177884385E+03  0.27907656063E+04  0.27885261626E+04 0.  0.
        2    1    3    3  502    0  0.16673396573E+03 -0.17755226259E+02  0.14411448234E+04  0.14508665911E+04  0.25500000920E-02 0. -1.
       -2    1    3    3    0  502 -0.16673396573E+03  0.17755226259E+02 -0.13293659795E+04  0.13398990152E+04  0.25500000920E-02 0.  1.
</event>
<event>
 5   0  0.5866136E-06  0.2783812E+04  0.7818609E-02  0.8308312E-01
        2   -1    0    0  501    0  0.00000000000E+00  0.00000000000E+00  0.13779926563E+04  0.13779926563E+04  0.25500000920E-02 0. -1.
       -2   -1    0    0    0  501  0.00000000000E+00  0.00000000000E+00 -0.14059594815E+04  0.14059594815E+04  0.25500000920E-02 0.  1.
    10030    2    1    2    0    0  0.00000000000E+00  0.00000000000E+00 -0.27966825201E+02  0.27839521378E+04  0.27838116607E+04 0.  0.
        5    1    3    3  502    0  0.67337080759E+03 -0.10537660940E+04  0.59721722907E+03  0.13858361137E+04  0.46999998093E+01 0.  1.
       -5    1    3    3    0  502 -0.67337080759E+03  0.10537660940E+04 -0.62518405427E+03  0.13981160242E+04  0.46999998093E+01 0. -1.
</event>
<event>
 5   0  0.2206967E-06  0.2826415E+04  0.7818609E-02  0.8295114E-01
       -1   -1    0    0    0  501  0.00000000000E+00  0.00000000000E+00  0.12141683693E+04  0.12141683693E+04  0.50400001928E-02 0.  1.
        1   -1    0    0  501    0  0.00000000000E+00  0.00000000000E+00 -0.16448751238E+04  0.16448751238E+04  0.50400001928E-02 0. -1.
    10030    2    1    2    0    0  0.00000000000E+00  0.00000000000E+00 -0.43070675443E+03  0.28590434931E+04  0.28264149354E+04 0.  0.
        5    1    3    3  502    0  0.53255782195E+02 -0.11923522515E+04 -0.98078769698E+03  0.15448322455E+04  0.46999998093E+01 0. -1.
       -5    1    3    3    0  502 -0.53255782195E+02  0.11923522515E+04  0.55008094256E+03  0.13142112476E+04  0.46999998093E+01 0.  1.
</event>
<event>
 5   0  0.2190865E-06  0.2802360E+04  0.7818609E-02  0.8302536E-01
        1   -1    0    0  501    0  0.00000000000E+00  0.00000000000E+00  0.21870832676E+04  0.21870832676E+04  0.50400001928E-02 0. -1.
       -1   -1    0    0    0  501  0.00000000000E+00  0.00000000000E+00 -0.89768207736E+03  0.89768207738E+03  0.50400001928E-02 0.  1.
    10030    2    1    2    0    0  0.00000000000E+00  0.00000000000E+00  0.12894011903E+04  0.30847653450E+04  0.28023600419E+04 0.  0.
        2    1    3    3  502    0  0.50138735488E+03  0.10539212609E+04  0.14981847441E+04  0.18991305462E+04  0.25500000920E-02 0. -1.
       -2    1    3    3    0  502 -0.50138735488E+03 -0.10539212609E+04 -0.20878355388E+03  0.11856347988E+04  0.25500000920E-02 0.  1.
</event>
<event>
 5   0  0.5866136E-06  0.2776738E+04  0.7818609E-02  0.8310527E-01
       -2   -1    0    0    0  501  0.00000000000E+00  0.00000000000E+00  0.11764646975E+04  0.11764646975E+04  0.25500000920E-02 0.  1.
        2   -1    0    0  501    0  0.00000000000E+00  0.00000000000E+00 -0.16384414217E+04  0.16384414217E+04  0.25500000920E-02 0. -1.
    10030    2    1    2    0    0  0.00000000000E+00  0.00000000000E+00 -0.46197672422E+03  0.28149061192E+04  0.27767380082E+04 0.  0.
        5    1    3    3  502    0 -0.61520449120E+03  0.39152545124E+03  0.96668152735E+03  0.12108938889E+04  0.46999998093E+01 0.  1.
       -5    1    3    3    0  502  0.61520449120E+03 -0.39152545124E+03 -0.14286582516E+04  0.16040122302E+04  0.46999998093E+01 0. -1.
</event>
<event>
 5   0  0.5584205E-06  0.2854247E+04  0.7818609E-02  0.8286622E-01
       -2   -1    0    0    0  501  0.00000000000E+00  0.00000000000E+00  0.13282098544E+04  0.13282098544E+04  0.25500000920E-02 0.  1.
        2   -1    0    0  501    0  0.00000000000E+00  0.00000000000E+00 -0.15334037557E+04  0.15334037557E+04  0.25500000920E-02 0. -1.
    10030    2    1    2    0    0  0.00000000000E+00  0.00000000000E+00 -0.20519390123E+03  0.28616136101E+04  0.28542473468E+04 0.  0.
        1    1    3    3  502    0 -0.66578845024E+03 -0.12614355980E+04 -0.55700696295E+02  0.14274440780E+04  0.50400001928E-02 0. -1.
       -1    1    3    3    0  502  0.66578845024E+03  0.12614355980E+04 -0.14949320494E+03  0.14341695321E+04  0.50400001928E-02 0.  1.
</event>
<event>
 5   0  0.2190865E-06  0.2793665E+04  0.7818609E-02  0.8305238E-01
        1   -1    0    0  501    0  0.00000000000E+00  0.00000000000E+00  0.12879577647E+04  0.12879577647E+04  0.50400001928E-02 0. -1.
       -1   -1    0    0    0  501  0.00000000000E+00  0.00000000000E+00 -0.15149102647E+04  0.15149102647E+04  0.50400001928E-02 0.  1.
    10030    2    1    2    0    0  0.00000000000E+00  0.00000000000E+00 -0.22695250003E+03  0.28028680294E+04  0.27936645742E+04 0.  0.
        2    1    3    3  502    0  0.66329874720E+03 -0.11541471775E+04 -0.53809564467E+03  0.14358160948E+04  0.25500000920E-02 0. -1.
       -2    1    3    3    0  502 -0.66329874720E+03  0.11541471775E+04  0.31114314464E+03  0.13670519346E+04  0.25500000920E-02 0.  1.
</event>
<event>
 5   0  0.5584205E-06  0.2817666E+04  0.7818609E-02  0.8297805E-01
       -2   -1    0    0    0  501  0.00000000000E+00  0.00000000000E+00  0.10773207786E+04  0.10773207786E+04  0.25500000920E-02 0. -1.
        2   -1    0    0  501    0  0.00000000000E+00  0.00000000000E+00 -0.18423578054E+04  0.18423578054E+04  0.25500000920E-02 0.  1.
    10030    2    1    2    0    0  0.00000000000E+00  0.00000000000E+00 -0.76503702685E+03  0.29196785840E+04  0.28176659457E+04 0.  0.
        1    1    3    3  502    0  0.73348971687E+03  0.10889741185E+04  0.14679704955E+03  0.13211438867E+04  0.50400001928E-02 0. -1.
       -1    1    3    3    0  502 -0.73348971687E+03 -0.10889741185E+04 -0.91183407641E+03  0.15985346973E+04  0.50400001928E-02 0.  1.
</event>
<event>
 5   0  0.2267565E-06  0.2774898E+04  0.7818609E-02  0.8311104E-01
       -1   -1    0    0    0  501  0.00000000000E+00  0.00000000000E+00  0.12270244457E+04  0.12270244457E+04  0.50400001928E-02 0. -1.
        1   -1    0    0  501    0  0.00000000000E+00  0.00000000000E+00 -0.15688483431E+04  0.15688483431E+04  0.50400001928E-02 0.  1.
    10030    2    1    2    0    0  0.00000000000E+00  0.00000000000E+00 -0.34182389743E+03  0.27958727888E+04  0.27748983899E+04 0.  0.
        4    1    3    3  502    0  0.27840866385E+02  0.12925847207E+03  0.12206613937E+04  0.12278023935E+04  0.12699999809E+01 0. -1.
       -4    1    3    3    0  502 -0.27840866385E+02 -0.12925847207E+03 -0.15624852912E+04  0.15680703953E+04  0.12699999809E+01 0.  1.
</event>
<event>
 5   0  0.5625245E-06  0.2803894E+04  0.7818609E-02  0.8302061E-01
       -2   -1    0    0    0  501  0.00000000000E+00  0.00000000000E+00  0.78431742863E+03  0.78431742864E+03  0.25500000920E-02 0. -1.
        2   -1    0    0  501    0  0.00000000000E+00  0.00000000000E+00 -0.25059432454E+04  0.25059432454E+04  0.25500000920E-02 0.  1.
    10030    2    1    2    0    0  0.00000000000E+00  0.00000000000E+00 -0.17216258167E+04  0.32902606740E+04  0.28038936945E+04 0.  0.
        3    1    3    3  502    0 -0.10726104694E+04 -0.77025543727E+03 -0.14132979864E+04  0.19342176368E+04  0.10100000352E+00 0.  1.
       -3    1    3    3    0  502  0.10726104694E+04  0.77025543727E+03 -0.30832783030E+03  0.13560430372E+04  0.10100000352E+00 0. -1.
</event>
<event>
 5   0  0.2267565E-06  0.2701790E+04  0.7818609E-02  0.8334425E-01
        1   -1    0    0  501    0  0.00000000000E+00  0.00000000000E+00  0.12959885271E+04  0.12959885271E+04  0.50400001928E-02 0. -1.
       -1   -1    0    0    0  501  0.00000000000E+00  0.00000000000E+00 -0.14081272837E+04  0.14081272837E+04  0.50400001928E-02 0.  1.
    10030    2    1    2    0    0  0.00000000000E+00  0.00000000000E+00 -0.11213875660E+03  0.27041158107E+04  0.27017896323E+04 0.  0.
        4    1    3    3  502    0 -0.13310628992E+04  0.73562892398E+02 -0.27483306977E+03  0.13611299607E+04  0.12699999809E+01 0.  1.
       -4    1    3    3    0  502  0.13310628992E+04 -0.73562892398E+02  0.16269431317E+03  0.13429858500E+04  0.12699999809E+01 0. -1.
</event>
<event>
 5   0  0.5625245E-06  0.2808986E+04  0.7818609E-02  0.8300484E-01
        2   -1    0    0  501    0  0.00000000000E+00  0.00000000000E+00  0.19559609820E+04  0.19559609820E+04  0.25500000920E-02 0.  1.
       -2   -1    0    0    0  501  0.00000000000E+00  0.00000000000E+00 -0.10085070138E+04  0.10085070138E+04  0.25500000920E-02 0. -1.
    10030    2    1    2    0    0  0.00000000000E+00  0.00000000000E+00  0.94745396821E+03  0.29644679958E+04  0.28089858448E+04 0.  0.
        3    1    3    3  502    0  0.46218539109E+03  0.81535608759E+03 -0.63020291760E+03  0.11294142787E+04  0.10100000352E+00 0. -1.
       -3    1    3    3    0  502 -0.46218539109E+03 -0.81535608759E+03  0.15776568858E+04  0.18350537172E+04  0.10100000352E+00 0.  1.
</event>
<event>
 5   0  0.5546570E-06  0.2618382E+04  0.7818609E-02  0.8361984E-01
       -2   -1    0    0    0  501  0.00000000000E+00  0.00000000000E+00  0.11081868902E+04  0.11081868902E+04  0.25500000920E-02 0.  1.
        2   -1    0    0  501    0  0.00000000000E+00  0.00000000000E+00 -0.15466532134E+04  0.15466532134E+04  0.25500000920E-02 0. -1.
    10030    2    1    2    0    0  0.00000000000E+00  0.00000000000E+00 -0.43846632321E+03  0.26548401037E+04  0.26183818017E+04 0.  0.
        4    1    3    3  502    0 -0.63033363846E+03  0.46257596450E+03  0.84547497811E+03  0.11515756902E+04  0.12699999809E+01 0.  1.
       -4    1    3    3    0  502  0.63033363846E+03 -0.46257596450E+03 -0.12839413013E+04  0.15032644135E+04  0.12699999809E+01 0. -1.
</event>
<event>
 5   0  0.5916603E-06  0.2763241E+04  0.7818609E-02  0.8314772E-01
       -2   -1    0    0    0  501  0.00000000000E+00  0.00000000000E+00  0.12460706607E+04  0.12460706607E+04  0.25500000920E-02 0.  1.
        2   -1    0    0  501    0  0.00000000000E+00  0.00000000000E+00 -0.15319161250E+04  0.15319161250E+04  0.25500000920E-02 0. -1.
    10030    2    1    2    0    0  0.00000000000E+00  0.00000000000E+00 -0.28584546427E+03  0.27779867857E+04  0.27632413851E+04 0.  0.
        2    1    3    3  502    0  0.55301933394E+03  0.27035497822E+03  0.11005906757E+04  0.12610400602E+04  0.25500000920E-02 0.  1.
       -2    1    3    3    0  502 -0.55301933394E+03 -0.27035497822E+03 -0.13864361400E+04  0.15169467255E+04  0.25500000920E-02 0. -1.
</event>
<event>
 5   0  0.5916603E-06  0.2811390E+04  0.7818609E-02  0.8299741E-01
        2   -1    0    0  501    0  0.00000000000E+00  0.00000000000E+00  0.17701735105E+04  0.17701735105E+04  0.25500000920E-02 0. -1.
       -2   -1    0    0    0  501  0.00000000000E+00  0.00000000000E+00 -0.11162624534E+04  0.11162624534E+04  0.25500000920E-02 0.  1.
    10030    2    1    2    0    0  0.00000000000E+00  0.00000000000E+00  0.65391105714E+03  0.28864359639E+04  0.28113898526E+04 0.  0.
        2    1    3    3  502    0  0.36538972537E+03 -0.11398569760E+03 -0.10617309050E+04  0.11286163676E+04  0.25500000920E-02 0.  1.
       -2    1    3    3    0  502 -0.36538972537E+03  0.11398569760E+03  0.17156419622E+04  0.17578195963E+04  0.25500000920E-02 0. -1.
</event>
<event>
 5   0  0.2267565E-06  0.2801781E+04  0.7818609E-02  0.8302716E-01
        1   -1    0    0  501    0  0.00000000000E+00  0.00000000000E+00  0.63073379526E+03  0.63073379528E+03  0.50400001928E-02 0.  1.
       -1   -1    0    0    0  501  0.00000000000E+00  0.00000000000E+00 -0.31114452566E+04  0.31114452566E+04  0.50400001928E-02 0. -1.
    10030    2    1    2    0    0  0.00000000000E+00  0.00000000000E+00 -0.24807114613E+04  0.37421790519E+04  0.28017806306E+04 0.  0.
        4    1    3    3  502    0  0.42169288582E+03  0.11069145247E+04 -0.24138091149E+03  0.12088635209E+04  0.12699999809E+01 0. -1.
       -4    1    3    3    0  502 -0.42169288582E+03 -0.11069145247E+04 -0.22393305498E+04  0.25333155309E+04  0.12699999809E+01 0.  1.
</event>
<event>
 5   0  0.5916603E-06  0.2812259E+04  0.7818609E-02  0.8299473E-01
        2   -1    0    0  501    0  0.00000000000E+00  0.00000000000E+00  0.22963825915E+04  0.22963825915E+04  0.25500000920E-02 0.  1.
       -2   -1    0    0    0  501  0.00000000000E+00  0.00000000000E+00 -0.86100639351E+03  0.86100639351E+03  0.25500000920E-02 0. -1.
    10030    2    1    2    0    0  0.00000000000E+00  0.00000000000E+00  0.14353761980E+04  0.31573889850E+04  0.28122589449E+04 0.  0.
        2    1    3    3  502    0  0.22330899048E+03  0.64219703804E+03 -0.66418155828E+03  0.95048465704E+03  0.25500000920E-02 0. -1.
       -2    1    3    3    0  502 -0.22330899048E+03 -0.64219703804E+03  0.20995577563E+04  0.22069043280E+04  0.25500000920E-02 0.  1.
</event>
<event>
 5   0  0.5866136E-06  0.2810548E+04  0.7818609E-02  0.8300001E-01
        2   -1    0    0  501    0  0.00000000000E+00  0.00000000000E+00  0.17515567901E+04  0.17515567901E+04  0.25500000920E-02 0.  1.
       -2   -1    0    0    0  501  0.00000000000E+00  0.00000000000E+00 -0.11274516346E+04  0.11274516346E+04  0.25500000920E-02 0. -1.
    10030    2    1    2    0    0  0.00000000000E+00  0.00000000000E+00  0.62410515556E+03  0.28790084247E+04  0.28105483921E+04 0.  0.
        5    1    3    3  502    0 -0.16109142389E+03  0.10564909685E+03 -0.11138531080E+04  0.11303994935E+04  0.46999998093E+01 0. -1.
       -5    1    3    3    0  502  0.16109142389E+03 -0.10564909685E+03  0.17379582636E+04  0.17486089313E+04  0.46999998093E+01 0.  1.
</event>
<event>
 5   0  0.5866136E-06  0.2827704E+04  0.7818609E-02  0.8294719E-01
        2   -1    0    0  501    0  0.00000000000E+00  0.00000000000E+00  0.12803702867E+04  0.12803702867E+04  0.25500000920E-02 0. -1.
       -2   -1    0    0    0  501  0.00000000000E+00  0.00000000000E+00 -0.15612490280E+04  0.15612490280E+04  0.25500000920E-02 0.  1.
    10030    2    1    2    0    0  0.00000000000E+00  0.00000000000E+00 -0.28087874126E+03  0.28416193148E+04  0.28277035670E+04 0.  0.
        5    1    3    3  502    0  0.67568483741E+03  0.47141580687E+03  0.10142023899E+04  0.13066795476E+04  0.46999998093E+01 0. -1.
       -5    1    3    3    0  502 -0.67568483741E+03 -0.47141580687E+03 -0.12950811312E+04  0.15349397671E+04  0.46999998093E+01 0.  1.
</event>
<event>
 5   0  0.5625245E-06  0.2780917E+04  0.7818609E-02  0.8309218E-01
        2   -1    0    0  501    0  0.00000000000E+00  0.00000000000E+00  0.17523621159E+04  0.17523621159E+04  0.25500000920E-02 0. -1.
       -2   -1    0    0    0  501  0.00000000000E+00  0.00000000000E+00 -0.11032960312E+04  0.11032960312E+04  0.25500000920E-02 0.  1.
    10030    2    1    2    0    0  0.00000000000E+00  0.00000000000E+00  0.64906608469E+03  0.28556581471E+04  0.27809165163E+04 0.  0.
        3    1    3    3  502    0  0.12066092996E+04 -0.27401606198E+03  0.97591881388E+03  0.15758833541E+04  0.10100000352E+00 0. -1.
       -3    1    3    3    0  502 -0.12066092996E+04  0.27401606198E+03 -0.32685272919E+03  0.12797747930E+04  0.10100000352E+00 0.  1.
</event>
<event>
 5   0  0.2206967E-06  0.2748558E+04  0.7818609E-02  0.8319420E-01
       -1   -1    0    0    0  501  0.00000000000E+00  0.00000000000E+00  0.12582802880E+04  0.12582802881E+04  0.50400001928E-02 0. -1.
        1   -1    0    0  501    0  0.00000000000E+00  0.00000000000E+00 -0.15009709221E+04  0.15009709221E+04  0.50400001928E-02 0.  1.
    10030    2    1    2    0    0  0.00000000000E+00  0.00000000000E+00 -0.24269063406E+03  0.27592512102E+04  0.27485575302E+04 0.  0.
        5    1    3    3  502    0 -0.89406304349E+03  0.64224038331E+03  0.70453313563E+03  0.13069852581E+04  0.46999998093E+01 0. -1.
       -5    1    3    3    0  502  0.89406304349E+03 -0.64224038331E+03 -0.94722376969E+03  0.14522659521E+04  0.46999998093E+01 0.  1.
</event>
<event>
 5   0  0.2277133E-06  0.2844473E+04  0.7818609E-02  0.8289593E-01
       -1   -1    0    0    0  501  0.00000000000E+00  0.00000000000E+00  0.97289581323E+03  0.97289581324E+03  0.50400001928E-02 0. -1.
        1   -1    0    0  501    0  0.00000000000E+00  0.00000000000E+00 -0.20791087127E+04  0.20791087127E+04  0.50400001928E-02 0.  1.
    10030    2    1    2    0    0  0.00000000000E+00  0.00000000000E+00 -0.11062128994E+04  0.30520045259E+04  0.28444726484E+04 0.  0.
        1    1    3    3  502    0 -0.63558948900E+03  0.93077476569E+03  0.37761450634E+03  0.11886582261E+04  0.50400001928E-02 0. -1.
       -1    1    3    3    0  502  0.63558948900E+03 -0.93077476569E+03 -0.14838274058E+04  0.18633462998E+04  0.50400001928E-02 0.  1.
</event>
<event>
 5   0  0.5625245E-06  0.2765577E+04  0.7818609E-02  0.8314036E-01
       -2   -1    0    0    0  501  0.00000000000E+00  0.00000000000E+00  0.14502153670E+04  0.14502153670E+04  0.25500000920E-02 0. -1.
        2   -1    0    0  501    0  0.00000000000E+00  0.00000000000E+00 -0.13184962642E+04  0.13184962642E+04  0.25500000920E-02 0.  1.
    10030    2    1    2    0    0  0.00000000000E+00  0.00000000000E+00  0.13171910279E+03  0.27687116311E+04  0.27655766441E+04 0.  0.
        3    1    3    3  502    0  0.18492959222E+03  0.41310103643E+02  0.14371560496E+04  0.14495940810E+04  0.10100000352E+00 0. -1.
       -3    1    3    3    0  502 -0.18492959222E+03 -0.41310103643E+02 -0.13054369468E+04  0.13191175501E+04  0.10100000352E+00 0.  1.
</event>
<event>
 5   0  0.2190865E-06  0.2793125E+04  0.7818609E-02  0.8305406E-01
       -1   -1    0    0    0  501  0.00000000000E+00  0.00000000000E+00  0.15909013309E+04  0.15909013309E+04  0.50400001928E-02 0.  1.
        1   -1    0    0  501    0  0.00000000000E+00  0.00000000000E+00 -0.12259633578E+04  0.12259633578E+04  0.50400001928E-02 0. -1.
    10030    2    1    2    0    0  0.00000000000E+00  0.00000000000E+00  0.36493797305E+03  0.28168646887E+04  0.27931249436E+04 0.  0.
        2    1    3    3  502    0  0.26948182139E+03 -0.13214976881E+04  0.54805541982E+03  0.14557957738E+04  0.25500000920E-02 0.  1.
       -2    1    3    3    0  502 -0.26948182139E+03  0.13214976881E+04 -0.18311744678E+03  0.13610689149E+04  0.25500000920E-02 0. -1.
</event>
<event>
 5   0  0.5546570E-06  0.2791266E+04  0.7818609E-02  0.8305985E-01
       -2   -1    0    0    0  501  0.00000000000E+00  0.00000000000E+00  0.23823345187E+04  0.23823345187E+04  0.25500000920E-02 0. -1.
        2   -1    0    0  501    0  0.00000000000E+00  0.00000000000E+00 -0.81759809211E+03  0.81759809211E+03  0.25500000920E-02 0.  1.
    10030    2    1    2    0    0  0.00000000000E+00  0.00000000000E+00  0.15647364266E+04  0.31999326108E+04  0.27912664919E+04 0.  0.
        4    1    3    3  502    0 -0.99016674718E+03 -0.98330604921E+03  0.75752601420E+03  0.15878187078E+04  0.12699999809E+01 0. -1.
       -4    1    3    3    0  502  0.99016674718E+03  0.98330604921E+03  0.80721041238E+03  0.16121139030E+04  0.12699999809E+01 0.  1.
</event>
<event>
 5   0  0.2267565E-06  0.2817313E+04  0.7818609E-02  0.8297913E-01
       -1   -1    0    0    0  501  0.00000000000E+00  0.00000000000E+00  0.89829854411E+03  0.89829854412E+03  0.50400001928E-02 0. -1.
        1   -1    0    0  501    0  0.00000000000E+00  0.00000000000E+00 -0.22089691214E+04  0.22089691214E+04  0.50400001928E-02 0.  1.
    10030    2    1    2    0    0  0.00000000000E+00  0.00000000000E+00 -0.13106705773E+04  0.31072676655E+04  0.28173134336E+04 0.  0.
        4    1    3    3  502    0 -0.32975351851E+03  0.79884712944E+03  0.57154366552E+03  0.10361263889E+04  0.12699999809E+01 0. -1.
       -4    1    3    3    0  502  0.32975351851E+03 -0.79884712944E+03 -0.18822142428E+04  0.20711412767E+04  0.12699999809E+01 0.  1.
</event>
<event>
 5   0  0.5546570E-06  0.2469092E+04  0.7818609E-02  0.8414080E-01
        2   -1    0    0  501    0  0.00000000000E+00  0.00000000000E+00  0.13061269113E+04  0.13061269113E+04  0.25500000920E-02 0. -1.
       -2   -1    0    0    0  501  0.00000000000E+00  0.00000000000E+00 -0.11668882658E+04  0.11668882658E+04  0.25500000920E-02 0.  1.
    10030    2    1    2    0    0  0.00000000000E+00  0.00000000000E+00  0.13923864551E+03  0.24730151770E+04  0.24690922756E+04 0.  0.
        4    1    3    3  502    0  0.23610508037E+03 -0.27401193628E+03  0.12518651507E+04  0.13030718010E+04  0.12699999809E+01 0. -1.
       -4    1    3    3    0  502 -0.23610508037E+03  0.27401193628E+03 -0.11126265052E+04  0.11699433760E+04  0.12699999809E+01 0.  1.
</event>
<event>
 5   0  0.5584205E-06  0.2946454E+04  0.7818609E-02  0.8259189E-01
        2   -1    0    0  501    0  0.00000000000E+00  0.00000000000E+00  0.17023361932E+04  0.17023361932E+04  0.25500000920E-02 0. -1.
       -2   -1    0    0    0  501  0.00000000000E+00  0.00000000000E+00 -0.12749521173E+04  0.12749521173E+04  0.25500000920E-02 0.  1.
    10030    2    1    2    0    0  0.00000000000E+00  0.00000000000E+00  0.42738407593E+03  0.29772883105E+04  0.29464535523E+04 0.  0.
        1    1    3    3  502    0 -0.70852772334E+03  0.17054381918E+03 -0.10800585676E+04  0.13029287158E+04  0.50400001928E-02 0.  1.
       -1    1    3    3    0  502  0.70852772334E+03 -0.17054381918E+03  0.15074426435E+04  0.16743595947E+04  0.50400001928E-02 0. -1.
</event>
<event>
 5   0  0.5916603E-06  0.2751216E+04  0.7818609E-02  0.8318576E-01
        2   -1    0    0  501    0  0.00000000000E+00  0.00000000000E+00  0.15762248977E+04  0.15762248977E+04  0.25500000920E-02 0.  1.
       -2   -1    0    0    0  501  0.00000000000E+00  0.00000000000E+00 -0.12005249965E+04  0.12005249965E+04  0.25500000920E-02 0. -1.
    10030    2    1    2    0    0  0.00000000000E+00  0.00000000000E+00  0.37569990119E+03  0.27767498942E+04  0.27512160147E+04 0.  0.
        2    1    3    3  502    0 -0.13693612010E+04  0.47713774945E+02  0.31092714492E+03  0.14050275415E+04  0.25500000920E-02 0. -1.
       -2    1    3    3    0  502  0.13693612010E+04 -0.47713774945E+02  0.64772756272E+02  0.13717223527E+04  0.25500000920E-02 0.  1.
</event>
<event>
 5   0  0.2234068E-06  0.2764636E+04  0.7818609E-02  0.8314332E-01
        1   -1    0    0  501    0  0.00000000000E+00  0.00000000000E+00  0.12995366248E+04  0.12995366248E+04  0.50400001928E-02 0. -1.
       -1   -1    0    0    0  501  0.00000000000E+00  0.00000000000E+00 -0.14703726064E+04  0.14703726064E+04  0.50400001928E-02 0.  1.
    10030    2    1    2    0    0  0.00000000000E+00  0.00000000000E+00 -0.17083598155E+03  0.27699092312E+04  0.27646360008E+04 0.  0.
        3    1    3    3  502    0 -0.39687568817E+03  0.67180120956E+03 -0.12286359696E+04  0.14554633396E+04  0.10100000352E+00 0.  1.
       -3    1    3    3    0  502  0.39687568817E+03 -0.67180120956E+03  0.10577999880E+04  0.13144458916E+04  0.10100000352E+00 0. -1.
</event>
<event>
 5   0  0.2277133E-06  0.2802841E+04  0.7818609E-02  0.8302387E-01
        1   -1    0    0  501    0  0.00000000000E+00  0.00000000000E+00  0.11620158140E+04  0.11620158140E+04  0.50400001928E-02 0.  1.
       -1   -1    0    0    0  501  0.00000000000E+00  0.00000000000E+00 -0.16901483882E+04  0.16901483882E+04  0.50400001928E-02 0. -1.
    10030    2    1    2    0    0  0.00000000000E+00  0.00000000000E+00 -0.52813257416E+03  0.28521642022E+04  0.28028408126E+04 0.  0.
        1    1    3    3  502    0 -0.71476545601E+03 -0.21265954494E+03  0.94334897832E+03  0.12025061472E+04  0.50400001928E-02 0.  1.
       -1    1    3    3    0  502  0.71476545601E+03  0.21265954494E+03 -0.14714815525E+04  0.16496580550E+04  0.50400001928E-02 0. -1.
</event>
<event>
 5   0  0.2190865E-06  0.3038005E+04  0.7818609E-02  0.8232961E-01
       -1   -1    0    0    0  501  0.00000000000E+00  0.00000000000E+00  0.12663833193E+04  0.12663833193E+04  0.50400001928E-02 0. -1.
        1   -1    0    0  501    0  0.00000000000E+00  0.00000000000E+00 -0.18220141098E+04  0.18220141098E+04  0.50400001928E-02 0.  1.
    10030    2    1    2    0    0  0.00000000000E+00  0.00000000000E+00 -0.55563079051E+03  0.30883974291E+04  0.30380047901E+04 0.  0.
        2    1    3    3  502    0  0.14885916578E+04  0.30225093983E+03 -0.28835666905E+03  0.15460951856E+04  0.25500000920E-02 0.  1.
       -2    1    3    3    0  502 -0.14885916578E+04 -0.30225093983E+03 -0.26727412146E+03  0.15423022435E+04  0.25500000920E-02 0. -1.
</event>
<event>
 5   0  0.5916603E-06  0.2701287E+04  0.7818609E-02  0.8334588E-01
        2   -1    0    0  501    0  0.00000000000E+00  0.00000000000E+00  0.10848288359E+04  0.10848288359E+04  0.25500000920E-02 0. -1.
       -2   -1    0    0    0  501  0.00000000000E+00  0.00000000000E+00 -0.16815899112E+04  0.16815899112E+04  0.25500000920E-02 0.  1.
    10030    2    1    2    0    0  0.00000000000E+00  0.00000000000E+00 -0.59676107532E+03  0.27664187471E+04  0.27012865274E+04 0.  0.
        2    1    3    3  502    0  0.11670055796E+04  0.62704829509E+03 -0.29084686719E+02  0.13251179216E+04  0.25500000920E-02 0. -1.
       -2    1    3    3    0  502 -0.11670055796E+04 -0.62704829509E+03 -0.56767638861E+03  0.14413008255E+04  0.25500000920E-02 0.  1.
</event>
<event>
 5   0  0.5866136E-06  0.2794109E+04  0.7818609E-02  0.8305100E-01
       -2   -1    0    0    0  501  0.00000000000E+00  0.00000000000E+00  0.13191214052E+04  0.13191214052E+04  0.25500000920E-02 0. -1.
        2   -1    0    0  501    0  0.00000000000E+00  0.00000000000E+00 -0.14795920393E+04  0.14795920393E+04  0.25500000920E-02 0.  1.
    10030    2    1    2    0    0  0.00000000000E+00  0.00000000000E+00 -0.16047063409E+03  0.27987134446E+04  0.27941091819E+04 0.  0.
        5    1    3    3  502    0 -0.73356158268E+03 -0.87667277328E+03 -0.88472236034E+03  0.14454838262E+04  0.46999998093E+01 0.  1.
       -5    1    3    3    0  502  0.73356158268E+03  0.87667277328E+03  0.72425172625E+03  0.13532296183E+04  0.46999998093E+01 0. -1.
</event>
<event>
 5   0  0.2277133E-06  0.2846295E+04  0.7818609E-02  0.8289038E-01
        1   -1    0    0  501    0  0.00000000000E+00  0.00000000000E+00  0.18048210684E+04  0.18048210684E+04  0.50400001928E-02 0.  1.
       -1   -1    0    0    0  501  0.00000000000E+00  0.00000000000E+00 -0.11221885378E+04  0.11221885378E+04  0.50400001928E-02 0. -1.
    10030    2    1    2    0    0  0.00000000000E+00  0.00000000000E+00  0.68263253064E+03  0.29270096062E+04  0.28462954982E+04 0.  0.
        1    1    3    3  502    0  0.28308041480E+03  0.79277395837E+03  0.15213423596E+04  0.17387086143E+04  0.50400001928E-02 0.  1.
       -1    1    3    3    0  502 -0.28308041480E+03 -0.79277395837E+03 -0.83870982892E+03  0.11883009919E+04  0.50400001928E-02 0. -1.
</event>
<event>
 5   0  0.5584205E-06  0.2775847E+04  0.7818609E-02  0.8310806E-01
       -2   -1    0    0    0  501  0.00000000000E+00  0.00000000000E+00  0.11178761329E+04  0.11178761329E+04  0.25500000920E-02 0. -1.
        2   -1    0    0  501    0  0.00000000000E+00  0.00000000000E+00 -0.17232069638E+04  0.17232069638E+04  0.25500000920E-02 0.  1.
    10030    2    1    2    0    0  0.00000000000E+00  0.00000000000E+00 -0.60533083086E+03  0.28410830967E+04  0.27758472126E+04 0.  0.
        1    1    3    3  502    0  0.76593137816E+03 -0.48617401220E+01 -0.14873023141E+04  0.16729443165E+04  0.50400001928E-02 0.  1.
       -1    1    3    3    0  502 -0.76593137816E+03  0.48617401220E+01  0.88197148322E+03  0.11681387802E+04  0.50400001928E-02 0. -1.
</event>
<event>
 5   0  0.2277133E-06  0.2820993E+04  0.7818609E-02  0.8296780E-01
       -1   -1    0    0    0  501  0.00000000000E+00  0.00000000000E+00  0.69395562458E+03  0.69395562460E+03  0.50400001928E-02 0. -1.
        1   -1    0    0  501    0  0.00000000000E+00  0.00000000000E+00 -0.28668983186E+04  0.28668983186E+04  0.50400001928E-02 0.  1.
    10030    2    1    2    0    0  0.00000000000E+00  0.00000000000E+00 -0.21729426940E+04  0.35608539432E+04  0.28209928843E+04 0.  0.
        1    1    3    3  502    0  0.97102108519E+03 -0.90078073832E+03 -0.16986556771E+04  0.21540006954E+04  0.50400001928E-02 0.  1.
       -1    1    3    3    0  502 -0.97102108519E+03  0.90078073832E+03 -0.47428701692E+03  0.14068532478E+04  0.50400001928E-02 0. -1.
</event>
<event>
 5   0  0.5866136E-06  0.2751898E+04  0.7818609E-02  0.8318360E-01
        2   -1    0    0  501    0  0.00000000000E+00  0.00000000000E+00  0.14099017904E+04  0.14099017904E+04  0.25500000920E-02 0.  1.
       -2   -1    0    0    0  501  0.00000000000E+00  0.00000000000E+00 -0.13428137669E+04  0.13428137669E+04  0.25500000920E-02 0. -1.
    10030    2    1    2    0    0  0.00000000000E+00  0.00000000000E+00  0.67088023528E+02  0.27527155574E+04  0.27518979154E+04 0.  0.
        5    1    3    3  502    0 -0.53090179422E+03 -0.10626406338E+04 -0.66103367881E+03  0.13594298239E+04  0.46999998093E+01 0. -1.
       -5    1    3    3    0  502  0.53090179422E+03  0.10626406338E+04  0.72812170233E+03  0.13932857334E+04  0.46999998093E+01 0.  1.
</event>
<event>
 5   0  0.5584205E-06  0.2776733E+04  0.7818609E-02  0.8310529E-01
       -2   -1    0    0    0  501  0.00000000000E+00  0.00000000000E+00  0.10902720269E+04  0.10902720269E+04  0.25500000920E-02 0.  1.
        2   -1    0    0  501    0  0.00000000000E+00  0.00000000000E+00 -0.17679634673E+04  0.17679634673E+04  0.25500000920E-02 0. -1.
    10030    2    1    2    0    0  0.00000000000E+00  0.00000000000E+00 -0.67769144046E+03  0.28582354942E+04  0.27767326936E+04 0.  0.
        1    1    3    3  502    0 -0.14283931104E+03  0.11600843360E+04 -0.11100786876E+04  0.16119781103E+04  0.50400001928E-02 0. -1.
       -1    1    3    3    0  502  0.14283931104E+03 -0.11600843360E+04  0.43238724710E+03  0.12462573839E+04  0.50400001928E-02 0.  1.
</event>
<event>
 5   0  0.5866136E-06  0.2794451E+04  0.7818609E-02  0.8304993E-01
        2   -1    0    0  501    0  0.00000000000E+00  0.00000000000E+00  0.10235926955E+04  0.10235926955E+04  0.25500000920E-02 0.  1.
       -2   -1    0    0    0  501  0.00000000000E+00  0.00000000000E+00 -0.19072425754E+04  0.19072425754E+04  0.25500000920E-02 0. -1.
    10030    2    1    2    0    0  0.00000000000E+00  0.00000000000E+00 -0.88364987988E+03  0.29308352709E+04  0.27944513370E+04 0.  0.
        5    1    3    3  502    0 -0.28099784471E+03  0.69954231140E+02 -0.18754170913E+04  0.18976471588E+04  0.46999998093E+01 0. -1.
       -5    1    3    3    0  502  0.28099784471E+03 -0.69954231140E+02  0.99176721140E+03  0.10331881120E+04  0.46999998093E+01 0.  1.
</event>
<event>
 5   0  0.5866136E-06  0.2465963E+04  0.7818609E-02  0.8415213E-01
       -2   -1    0    0    0  501  0.00000000000E+00  0.00000000000E+00  0.94924792664E+03  0.94924792664E+03  0.25500000920E-02 0.  1.
        2   -1    0    0  501    0  0.00000000000E+00  0.00000000000E+00 -0.16015246643E+04  0.16015246643E+04  0.25500000920E-02 0. -1.
    10030    2    1    2    0    0  0.00000000000E+00  0.00000000000E+00 -0.65227673768E+03  0.25507725910E+04  0.24659634767E+04 0.  0.
        5    1    3    3  502    0  0.50103081449E+03  0.10704402159E+04 -0.68942608005E+03  0.13682852563E+04  0.46999998093E+01 0. -1.
       -5    1    3    3    0  502 -0.50103081449E+03 -0.10704402159E+04  0.37149342367E+02  0.11824873346E+04  0.46999998093E+01 0.  1.
</event>
<event>
 5   0  0.2190865E-06  0.2789384E+04  0.7818609E-02  0.8306572E-01
        1   -1    0    0  501    0  0.00000000000E+00  0.00000000000E+00  0.15578849068E+04  0.15578849068E+04  0.50400001928E-02 0.  1.
       -1   -1    0    0    0  501  0.00000000000E+00  0.00000000000E+00 -0.12485937225E+04  0.12485937225E+04  0.50400001928E-02 0. -1.
    10030    2    1    2    0    0  0.00000000000E+00  0.00000000000E+00  0.30929118428E+03  0.28064786293E+04  0.27893836703E+04 0.  0.
        2    1    3    3  502    0  0.84579212596E+02 -0.20930599419E+03  0.15393807150E+04  0.15558456312E+04  0.25500000920E-02 0.  1.
       -2    1    3    3    0  502 -0.84579212596E+02  0.20930599419E+03 -0.12300895307E+04  0.12506329981E+04  0.25500000920E-02 0. -1.
</event>
<event>
 5   0  0.5584205E-06  0.2797835E+04  0.7818609E-02  0.8303941E-01
       -2   -1    0    0    0  501  0.00000000000E+00  0.00000000000E+00  0.14600679696E+04  0.14600679696E+04  0.25500000920E-02 0. -1.
        2   -1    0    0  501    0  0.00000000000E+00  0.00000000000E+00 -0.13403282316E+04  0.13403282316E+04  0.25500000920E-02 0.  1.
    10030    2    1    2    0    0  0.00000000000E+00  0.00000000000E+00  0.11973973795E+03  0.28003962012E+04  0.27978351057E+04 0.  0.
        1    1    3    3  502    0 -0.83488977974E+03  0.74257179039E+03 -0.78263487020E+03  0.13641741635E+04  0.50400001928E-02 0. -1.
       -1    1    3    3    0  502  0.83488977974E+03 -0.74257179039E+03  0.90237460815E+03  0.14362220377E+04  0.50400001928E-02 0.  1.
</event>
<event>
 5   0  0.2190865E-06  0.2831806E+04  0.7818609E-02  0.8293461E-01
        1   -1    0    0  501    0  0.00000000000E+00  0.00000000000E+00  0.11705596756E+04  0.11705596756E+04  0.50400001928E-02 0. -1.
       -1   -1    0    0    0  501  0.00000000000E+00  0.00000000000E+00 -0.17126695803E+04  0.17126695803E+04  0.50400001928E-02 0.  1.
    10030    2    1    2    0    0  0.00000000000E+00  0.00000000000E+00 -0.54210990465E+03  0.28832292559E+04  0.28318064541E+04 0.  0.
        2    1    3    3  502    0  0.20716900648E+03  0.10086315316E+03 -0.16934524515E+04  0.17090563415E+04  0.25500000920E-02 0.  1.
       -2    1    3    3    0  502 -0.20716900648E+03 -0.10086315316E+03  0.11513425468E+04  0.11741729144E+04  0.25500000920E-02 0. -1.
</event>
<event>
 5   0  0.5546570E-06  0.2815739E+04  0.7818609E-02  0.8298398E-01
       -2   -1    0    0    0  501  0.00000000000E+00  0.00000000000E+00  0.15328773672E+04  0.15328773672E+04  0.25500000920E-02 0. -1.
        2   -1    0    0  501    0  0.00000000000E+00  0.00000000000E+00 -0.12930566179E+04  0.12930566179E+04  0.25500000920E-02 0.  1.
    10030    2    1    2    0    0  0.00000000000E+00  0.00000000000E+00  0.23982074930E+03  0.28259339851E+04  0.28157394937E+04 0.  0.
        4    1    3    3  502    0  0.77550860927E+03  0.22168685156E+03 -0.10381898637E+04  0.13146856921E+04  0.12699999809E+01 0.  1.
       -4    1    3    3    0  502 -0.77550860927E+03 -0.22168685156E+03  0.12780106130E+04  0.15112482929E+04  0.12699999809E+01 0. -1.
</event>
<event>
 5   0  0.2234068E-06  0.2797455E+04  0.7818609E-02  0.8304059E-01
       -1   -1    0    0    0  501  0.00000000000E+00  0.00000000000E+00  0.19625248305E+04  0.19625248305E+04  0.50400001928E-02 0. -1.
        1   -1    0    0  501    0  0.00000000000E+00  0.00000000000E+00 -0.99689883460E+03  0.99689883461E+03  0.50400001928E-02 0.  1.
    10030    2    1    2    0    0  0.00000000000E+00  0.00000000000E+00  0.96562599589E+03  0.29594236651E+04  0.27974550695E+04 0.  0.
        3    1    3    3  502    0  0.43924514735E+03  0.16533310362E+03  0.18767393146E+04  0.19345340006E+04  0.10100000352E+00 0. -1.
       -3    1    3    3    0  502 -0.43924514735E+03 -0.16533310362E+03 -0.91111331868E+03  0.10248896645E+04  0.10100000352E+00 0.  1.
</event>
<event>
 5   0  0.5625245E-06  0.2773270E+04  0.7818609E-02  0.8311615E-01
       -2   -1    0    0    0  501  0.00000000000E+00  0.00000000000E+00  0.16163847763E+04  0.16163847763E+04  0.25500000920E-02 0.  1.
        2   -1    0    0  501    0  0.00000000000E+00  0.00000000000E+00 -0.11895415349E+04  0.11895415349E+04  0.25500000920E-02 0. -1.
    10030    2    1    2    0    0  0.00000000000E+00  0.00000000000E+00  0.42684324137E+03  0.28059263112E+04  0.27732701476E+04 0.  0.
        3    1    3    3  502    0  0.42486538684E+03 -0.12227931140E+04 -0.28944519217E+03  0.13264660290E+04  0.10100000352E+00 0. -1.
       -3    1    3    3    0  502 -0.42486538684E+03  0.12227931140E+04  0.71628843354E+03  0.14794602823E+04  0.10100000352E+00 0.  1.
</event>
<event>
 5   0  0.2267565E-06  0.2811874E+04  0.7818609E-02  0.8299591E-01
       -1   -1    0    0    0  501  0.00000000000E+00  0.00000000000E+00  0.15784358166E+04  0.15784358166E+04  0.50400001928E-02 0.  1.
        1   -1    0    0  501    0  0.00000000000E+00  0.00000000000E+00 -0.12522897758E+04  0.12522897758E+04  0.50400001928E-02 0. -1.
    10030    2    1    2    0    0  0.00000000000E+00  0.00000000000E+00  0.32614604082E+03  0.28307255924E+04  0.28118741329E+04 0.  0.
        4    1    3    3  502    0  0.51114409058E+03  0.39645629015E+03  0.14197252451E+04  0.15601497543E+04  0.12699999809E+01 0.  1.
       -4    1    3    3    0  502 -0.51114409058E+03 -0.39645629015E+03 -0.10935792043E+04  0.12705758381E+04  0.12699999809E+01 0. -1.
</event>
<event>
 5   0  0.5584205E-06  0.2818875E+04  0.7818609E-02  0.8297432E-01
        2   -1    0    0  501    0  0.00000000000E+00  0.00000000000E+00  0.10600837851E+04  0.10600837851E+04  0.25500000920E-02 0.  1.
       -2   -1    0    0    0  501  0.00000000000E+00  0.00000000000E+00 -0.18739215070E+04  0.18739215070E+04  0.25500000920E-02 0. -1.
    10030    2    1    2    0    0  0.00000000000E+00  0.00000000000E+00 -0.81383772193E+03  0.29340052922E+04  0.28188748140E+04 0.  0.
        1    1    3    3  502    0 -0.11572281733E+04 -0.45389272367E+03 -0.10983692100E+04  0.16587979296E+04  0.50400001928E-02 0. -1.
       -1    1    3    3    0  502  0.11572281733E+04  0.45389272367E+03  0.28453148807E+03  0.12752073625E+04  0.50400001928E-02 0.  1.
</event>
<event>
 5   0  0.2206967E-06  0.2805705E+04  0.7818609E-02  0.8301499E-01
       -1   -1    0    0    0  501  0.00000000000E+00  0.00000000000E+00  0.82061341341E+03  0.82061341342E+03  0.50400001928E-02 0.  1.
        1   -1    0    0  501    0  0.00000000000E+00  0.00000000000E+00 -0.23981997305E+04  0.23981997306E+04  0.50400001928E-02 0. -1.
    10030    2    1    2    0    0  0.00000000000E+00  0.00000000000E+00 -0.15775863171E+04  0.32188131440E+04  0.28057048077E+04 0.  0.
        5    1    3    3  502    0  0.65008396874E+03 -0.71993871064E+03  0.37385946837E+03  0.10395739058E+04  0.46999998093E+01 0.  1.
       -5    1    3    3    0  502 -0.65008396874E+03  0.71993871064E+03 -0.19514457855E+04  0.21792392382E+04  0.46999998093E+01 0. -1.
</event>
<event>
 5   0  0.2267565E-06  0.2815387E+04  0.7818609E-02  0.8298507E-01
        1   -1    0    0  501    0  0.00000000000E+00  0.00000000000E+00  0.83776715742E+03  0.83776715743E+03  0.50400001928E-02 0.  1.
       -1   -1    0    0    0  501  0.00000000000E+00  0.00000000000E+00 -0.23653365061E+04  0.23653365061E+04  0.50400001928E-02 0. -1.
    10030    2    1    2    0    0  0.00000000000E+00  0.00000000000E+00 -0.15275693487E+04  0.32031036636E+04  0.28153871784E+04 0.  0.
        4    1    3    3  502    0  0.72526703150E+03  0.10631140326E+04 -0.14127560878E+04  0.19110481652E+04  0.12699999809E+01 0. -1.
       -4    1    3    3    0  502 -0.72526703150E+03 -0.10631140326E+04 -0.11481326097E+03  0.12920554984E+04  0.12699999809E+01 0.  1.
</event>
<event>
 5   0  0.5625245E-06  0.2811171E+04  0.7818609E-02  0.8299809E-01
        2   -1    0    0  501    0  0.00000000000E+00  0.00000000000E+00  0.21922157563E+04  0.21922157563E+04  0.25500000920E-02 0. -1.
       -2   -1    0    0    0  501  0.00000000000E+00  0.00000000000E+00 -0.90122105677E+03  0.90122105677E+03  0.25500000920E-02 0.  1.
    10030    2    1    2    0    0  0.00000000000E+00  0.00000000000E+00  0.12909946995E+04  0.30934368130E+04  0.28111712865E+04 0.  0.
        3    1    3    3  502    0  0.12935560200E+03 -0.35036305504E+03 -0.84562068403E+03  0.92442495291E+03  0.10100000352E+00 0.  1.
       -3    1    3    3    0  502 -0.12935560200E+03  0.35036305504E+03  0.21366153835E+04  0.21690118601E+04  0.10100000352E+00 0. -1.
</event>
<event>
 5   0  0.1901375E-06  0.2570527E+04  0.7818609E-02  0.8378282E-01
       -3   -1    0    0    0  501  0.00000000000E+00  0.00000000000E+00  0.99891742983E+03  0.99891743494E+03  0.10100000352E+00 0. -1.
        3   -1    0    0  501    0  0.00000000000E+00  0.00000000000E+00 -0.16536930606E+04  0.16536930637E+04  0.10100000352E+00 0.  1.
    10030    2    1    2    0    0  0.00000000000E+00  0.00000000000E+00 -0.65477563079E+03  0.26526104986E+04  0.25705274421E+04 0.  0.
        2    1    3    3  502    0  0.19687679165E+03 -0.11337818679E+04 -0.91810131327E+03  0.14721181394E+04  0.25500000920E-02 0.  1.
       -2    1    3    3    0  502 -0.19687679165E+03  0.11337818679E+04  0.26332568248E+03  0.11804923592E+04  0.25500000920E-02 0. -1.
</event>
<event>
 5   0  0.2234068E-06  0.2801549E+04  0.7818609E-02  0.8302787E-01
       -1   -1    0    0    0  501  0.00000000000E+00  0.00000000000E+00  0.11391923479E+04  0.11391923479E+04  0.50400001928E-02 0. -1.
        1   -1    0    0  501    0  0.00000000000E+00  0.00000000000E+00 -0.17224219019E+04  0.17224219019E+04  0.50400001928E-02 0.  1.
    10030    2    1    2    0    0  0.00000000000E+00  0.00000000000E+00 -0.58322955400E+03  0.28616142498E+04  0.28015494645E+04 0.  0.
        3    1    3    3  502    0  0.58462780238E+03  0.68792517891E+03 -0.13856236400E+04  0.16537785828E+04  0.10100000352E+00 0.  1.
       -3    1    3    3    0  502 -0.58462780238E+03 -0.68792517891E+03  0.80239408597E+03  0.12078356670E+04  0.10100000352E+00 0. -1.
</event>
<event>
 5   0  0.2190865E-06  0.2782491E+04  0.7818609E-02  0.8308725E-01
       -1   -1    0    0    0  501  0.00000000000E+00  0.00000000000E+00  0.22368017840E+04  0.22368017840E+04  0.50400001928E-02 0.  1.
        1   -1    0    0  501    0  0.00000000000E+00  0.00000000000E+00 -0.86532688681E+03  0.86532688682E+03  0.50400001928E-02 0. -1.
    10030    2    1    2    0    0  0.00000000000E+00  0.00000000000E+00  0.13714748972E+04  0.31021286708E+04  0.27824914908E+04 0.  0.
        2    1    3    3  502    0 -0.32254140581E+03  0.26045821138E+03  0.21663365911E+04  0.22056485813E+04  0.25500000920E-02 0.  1.
       -2    1    3    3    0  502  0.32254140581E+03 -0.26045821138E+03 -0.79486169393E+03  0.89648008948E+03  0.25500000920E-02 0. -1.
</event>
<event>
 5   0  0.5916603E-06  0.2803601E+04  0.7818609E-02  0.8302151E-01
        2   -1    0    0  501    0  0.00000000000E+00  0.00000000000E+00  0.30459575687E+04  0.30459575687E+04  0.25500000920E-02 0. -1.
       -2   -1    0    0    0  501  0.00000000000E+00  0.00000000000E+00 -0.64513199367E+03  0.64513199368E+03  0.25500000920E-02 0.  1.
    10030    2    1    2    0    0  0.00000000000E+00  0.00000000000E+00  0.24008255750E+04  0.36910895624E+04  0.28036010265E+04 0.  0.
        2    1    3    3  502    0  0.74378587371E+03 -0.57092315685E+03  0.25723305866E+04  0.27378924967E+04  0.25500000920E-02 0. -1.
       -2    1    3    3    0  502 -0.74378587371E+03  0.57092315685E+03 -0.17150501156E+03  0.95319706565E+03  0.25500000920E-02 0.  1.
</event>
<event>
 5   0  0.2190865E-06  0.2791476E+04  0.7818609E-02  0.8305920E-01
        1   -1    0    0  501    0  0.00000000000E+00  0.00000000000E+00  0.16945634870E+04  0.16945634871E+04  0.50400001928E-02 0. -1.
       -1   -1    0    0    0  501  0.00000000000E+00  0.00000000000E+00 -0.11496085577E+04  0.11496085577E+04  0.50400001928E-02 0.  1.
    10030    2    1    2    0    0  0.00000000000E+00  0.00000000000E+00  0.54495492934E+03  0.28441720448E+04  0.27914760872E+04 0.  0.
        2    1    3    3  502    0 -0.69750067344E+03  0.66608530851E+03  0.13004373925E+04  0.16190473247E+04  0.25500000920E-02 0. -1.
       -2    1    3    3    0  502  0.69750067344E+03 -0.66608530851E+03 -0.75548246316E+03  0.12251247201E+04  0.25500000920E-02 0.  1.
</event>
<event>
 5   0  0.2190865E-06  0.2810846E+04  0.7818609E-02  0.8299909E-01
       -1   -1    0    0    0  501  0.00000000000E+00  0.00000000000E+00  0.11066089627E+04  0.11066089627E+04  0.50400001928E-02 0. -1.
        1   -1    0    0  501    0  0.00000000000E+00  0.00000000000E+00 -0.17849244577E+04  0.17849244577E+04  0.50400001928E-02 0.  1.
    10030    2    1    2    0    0  0.00000000000E+00  0.00000000000E+00 -0.67831549507E+03  0.28915334204E+04  0.28108457109E+04 0.  0.
        2    1    3    3  502    0  0.12750486155E+04 -0.29216759824E+03  0.18950351111E+03  0.13217497714E+04  0.25500000920E-02 0. -1.
       -2    1    3    3    0  502 -0.12750486155E+04  0.29216759824E+03 -0.86781900618E+03  0.15697836491E+04  0.25500000920E-02 0.  1.
</event>
<event>
 5   0  0.2234068E-06  0.2662016E+04  0.7818609E-02  0.8347436E-01
        1   -1    0    0  501    0  0.00000000000E+00  0.00000000000E+00  0.12039136113E+04  0.12039136114E+04  0.50400001928E-02 0.  1.
       -1   -1    0    0    0  501  0.00000000000E+00  0.00000000000E+00 -0.14715192035E+04  0.14715192035E+04  0.50400001928E-02 0. -1.
    10030    2    1    2    0    0  0.00000000000E+00  0.00000000000E+00 -0.26760559216E+03  0.26754328149E+04  0.26620157764E+04 0.  0.
        3    1    3    3  502    0  0.59912222062E+03 -0.56198271498E+03 -0.11863682729E+04  0.14429974693E+04  0.10100000352E+00 0. -1.
       -3    1    3    3    0  502 -0.59912222062E+03  0.56198271498E+03  0.91876268078E+03  0.12324353456E+04  0.10100000352E+00 0.  1.
</event>
<event>
 5   0  0.5584205E-06  0.2818713E+04  0.7818609E-02  0.8297482E-01
        2   -1    0    0  501    0  0.00000000000E+00  0.00000000000E+00  0.18617699898E+04  0.18617699898E+04  0.25500000920E-02 0. -1.
       -2   -1    0    0    0  501  0.00000000000E+00  0.00000000000E+00 -0.10668801219E+04  0.10668801219E+04  0.25500000920E-02 0.  1.
    10030    2    1    2    0    0  0.00000000000E+00  0.00000000000E+00  0.79488986790E+03  0.29286501117E+04  0.28187127514E+04 0.  0.
        1    1    3    3  502    0 -0.78133882760E+03  0.62452231787E+03  0.14290270058E+04  0.17443155312E+04  0.50400001928E-02 0.  1.
       -1    1    3    3    0  502  0.78133882760E+03 -0.62452231787E+03 -0.63413713787E+03  0.11843345805E+04  0.50400001928E-02 0. -1.
</event>
<event>
 5   0  0.5546570E-06  0.2795194E+04  0.7818609E-02  0.8304762E-01
        2   -1    0    0  501    0  0.00000000000E+00  0.00000000000E+00  0.18477910647E+04  0.18477910647E+04  0.25500000920E-02 0. -1.
       -2   -1    0    0    0  501  0.00000000000E+00  0.00000000000E+00 -0.10570875178E+04  0.10570875178E+04  0.25500000920E-02 0.  1.
    10030    2    1    2    0    0  0.00000000000E+00  0.00000000000E+00  0.79070354692E+03  0.29048785824E+04  0.27951936390E+04 0.  0.
        4    1    3    3  502    0  0.31181050517E+03 -0.13235979203E+04  0.59984465254E+02  0.13611528183E+04  0.12699999809E+01 0. -1.
       -4    1    3    3    0  502 -0.31181050517E+03  0.13235979203E+04  0.73071908167E+03  0.15437257642E+04  0.12699999809E+01 0.  1.
</event>
<event>
 5   0  0.2277133E-06  0.2781901E+04  0.7818609E-02  0.8308910E-01
       -1   -1    0    0    0  501  0.00000000000E+00  0.00000000000E+00  0.16505673861E+04  0.16505673861E+04  0.50400001928E-02 0. -1.
        1   -1    0    0  501    0  0.00000000000E+00  0.00000000000E+00 -0.11721682338E+04  0.11721682338E+04  0.50400001928E-02 0.  1.
    10030    2    1    2    0    0  0.00000000000E+00  0.00000000000E+00  0.47839915232E+03  0.28227356199E+04  0.27819005429E+04 0.  0.
        1    1    3    3  502    0  0.68645380112E+03 -0.80333586052E+03 -0.67860833111E+03  0.12558171017E+04  0.50400001928E-02 0.  1.
       -1    1    3    3    0  502 -0.68645380112E+03  0.80333586052E+03  0.11570074834E+04  0.15669185182E+04  0.50400001928E-02 0. -1.
</event>
<event>
 5   0  0.5584205E-06  0.2824508E+04  0.7818609E-02  0.8295700E-01
       -2   -1    0    0    0  501  0.00000000000E+00  0.00000000000E+00  0.10713993506E+04  0.10713993506E+04  0.25500000920E-02 0.  1.
        2   -1    0    0  501    0  0.00000000000E+00  0.00000000000E+00 -0.18615486277E+04  0.18615486277E+04  0.25500000920E-02 0. -1.
    10030    2    1    2    0    0  0.00000000000E+00  0.00000000000E+00 -0.79014927710E+03  0.29329479783E+04  0.28245084464E+04 0.  0.
        1    1    3    3  502    0  0.65602923254E+03  0.96651489226E+03 -0.12192315466E+04  0.16885055390E+04  0.50400001928E-02 0. -1.
       -1    1    3    3    0  502 -0.65602923254E+03 -0.96651489226E+03  0.42908226949E+03  0.12444424394E+04  0.50400001928E-02 0.  1.
</event>
<event>
 5   0  0.5546570E-06  0.2803397E+04  0.7818609E-02  0.8302215E-01
        2   -1    0    0  501    0  0.00000000000E+00  0.00000000000E+00  0.13757020909E+04  0.13757020909E+04  0.25500000920E-02 0.  1.
       -2   -1    0    0    0  501  0.00000000000E+00  0.00000000000E+00 -0.14281857746E+04  0.14281857746E+04  0.25500000920E-02 0. -1.
    10030    2    1    2    0    0  0.00000000000E+00  0.00000000000E+00 -0.52483683672E+02  0.28038878654E+04  0.28033966228E+04 0.  0.
        4    1    3    3  502    0  0.28268515575E+02 -0.13880369604E+04  0.16695212293E+03  0.13983276929E+04  0.12699999809E+01 0. -1.
       -4    1    3    3    0  502 -0.28268515575E+02  0.13880369604E+04 -0.21943580660E+03  0.14055601725E+04  0.12699999809E+01 0.  1.
</event>
<event>
 5   0  0.5866136E-06  0.2803035E+04  0.7818609E-02  0.8302327E-01
        2   -1    0    0  501    0  0.00000000000E+00  0.00000000000E+00  0.22560561855E+04  0.22560561855E+04  0.25500000920E-02 0.  1.
       -2   -1    0    0    0  501  0.00000000000E+00  0.00000000000E+00 -0.87065719405E+03  0.87065719406E+03  0.25500000920E-02 0. -1.
    10030    2    1    2    0    0  0.00000000000E+00  0.00000000000E+00  0.13853989914E+04  0.31267133795E+04  0.28030351750E+04 0.  0.
        5    1    3    3  502    0  0.11784330736E+04 -0.61643018458E+03  0.11859595783E+04  0.17819127063E+04  0.46999998093E+01 0. -1.
       -5    1    3    3    0  502 -0.11784330736E+04  0.61643018458E+03  0.19943941310E+03  0.13448006733E+04  0.46999998093E+01 0.  1.
</event>
<event>
 5   0  0.5584205E-06  0.2731254E+04  0.7818609E-02  0.8324935E-01
        2   -1    0    0  501    0  0.00000000000E+00  0.00000000000E+00  0.17669847634E+04  0.17669847634E+04  0.25500000920E-02 0.  1.
       -2   -1    0    0    0  501  0.00000000000E+00  0.00000000000E+00 -0.10554347743E+04  0.10554347743E+04  0.25500000920E-02 0. -1.
    10030    2    1    2    0    0  0.00000000000E+00  0.00000000000E+00  0.71154998911E+03  0.28224195377E+04  0.27312540453E+04 0.  0.
        1    1    3    3  502    0 -0.39213575709E+03 -0.68311978709E+03  0.15085893545E+04  0.17018416308E+04  0.50400001928E-02 0.  1.
       -1    1    3    3    0  502  0.39213575709E+03  0.68311978709E+03 -0.79703936543E+03  0.11205779070E+04  0.50400001928E-02 0. -1.
</event>
<event>
 5   0  0.5866136E-06  0.2863460E+04  0.7818609E-02  0.8283833E-01
       -2   -1    0    0    0  501  0.00000000000E+00  0.00000000000E+00  0.72477915975E+03  0.72477915975E+03  0.25500000920E-02 0.  1.
        2   -1    0    0  501    0  0.00000000000E+00  0.00000000000E+00 -0.28282417301E+04  0.28282417301E+04  0.25500000920E-02 0. -1.
    10030    2    1    2    0    0  0.00000000000E+00  0.00000000000E+00 -0.21034625704E+04  0.35530208899E+04  0.28634599105E+04 0.  0.
        5    1    3    3  502    0  0.13513365553E+04 -0.12560132897E+02 -0.16384149911E+04  0.21238394515E+04  0.46999998093E+01 0. -1.
       -5    1    3    3    0  502 -0.13513365553E+04  0.12560132897E+02 -0.46504757926E+03  0.14291814384E+04  0.46999998093E+01 0.  1.
</event>
<event>
 5   0  0.5584205E-06  0.2929859E+04  0.7818609E-02  0.8264049E-01
       -2   -1    0    0    0  501  0.00000000000E+00  0.00000000000E+00  0.83385641186E+03  0.83385641186E+03  0.25500000920E-02 0.  1.
        2   -1    0    0  501    0  0.00000000000E+00  0.00000000000E+00 -0.25736064717E+04  0.25736064717E+04  0.25500000920E-02 0. -1.
    10030    2    1    2    0    0  0.00000000000E+00  0.00000000000E+00 -0.17397500599E+04  0.34074628836E+04  0.29298588758E+04 0.  0.
        1    1    3    3  502    0 -0.14642903233E+02  0.38480115134E+02  0.83318339255E+03  0.83420003567E+03  0.50400001928E-02 0.  1.
       -1    1    3    3    0  502  0.14642903233E+02 -0.38480115134E+02 -0.25729334524E+04  0.25732628479E+04  0.50400001928E-02 0. -1.
</event>
<event>
 5   0  0.2267565E-06  0.2819618E+04  0.7818609E-02  0.8297203E-01
        1   -1    0    0  501    0  0.00000000000E+00  0.00000000000E+00  0.24378724314E+04  0.24378724314E+04  0.50400001928E-02 0. -1.
       -1   -1    0    0    0  501  0.00000000000E+00  0.00000000000E+00 -0.81528543129E+03  0.81528543131E+03  0.50400001928E-02 0.  1.
    10030    2    1    2    0    0  0.00000000000E+00  0.00000000000E+00  0.16225870001E+04  0.32531578627E+04  0.28196183264E+04 0.  0.
        4    1    3    3  502    0  0.10997164611E+04  0.40338629057E+02 -0.20542661806E+03  0.11194664837E+04  0.12699999809E+01 0.  1.
       -4    1    3    3    0  502 -0.10997164611E+04 -0.40338629057E+02  0.18280136181E+04  0.21336913790E+04  0.12699999809E+01 0. -1.
</event>
<event>
 5   0  0.2234068E-06  0.2765980E+04  0.7818609E-02  0.8313909E-01
       -1   -1    0    0    0  501  0.00000000000E+00  0.00000000000E+00  0.11483827449E+04  0.11483827449E+04  0.50400001928E-02 0. -1.
        1   -1    0    0  501    0  0.00000000000E+00  0.00000000000E+00 -0.16655259268E+04  0.16655259268E+04  0.50400001928E-02 0.  1.
    10030    2    1    2    0    0  0.00000000000E+00  0.00000000000E+00 -0.51714318185E+03  0.28139086717E+04  0.27659799244E+04 0.  0.
        3    1    3    3  502    0  0.13826926285E+04  0.20848041540E+02 -0.27860235272E+03  0.14106356110E+04  0.10100000352E+00 0.  1.
       -3    1    3    3    0  502 -0.13826926285E+04 -0.20848041540E+02 -0.23854082913E+03  0.14032730608E+04  0.10100000352E+00 0. -1.
</event>
<event>
 5   0  0.5584205E-06  0.2788527E+04  0.7818609E-02  0.8306839E-01
       -2   -1    0    0    0  501  0.00000000000E+00  0.00000000000E+00  0.64667672287E+03  0.64667672287E+03  0.25500000920E-02 0. -1.
        2   -1    0    0  501    0  0.00000000000E+00  0.00000000000E+00 -0.30060943871E+04  0.30060943871E+04  0.25500000920E-02 0.  1.
    10030    2    1    2    0    0  0.00000000000E+00  0.00000000000E+00 -0.23594176643E+04  0.36527711100E+04  0.27885274013E+04 0.  0.
        1    1    3    3  502    0  0.91921715723E+02  0.10516763381E+04  0.13332135742E+02  0.10557700828E+04  0.50400001928E-02 0.  1.
       -1    1    3    3    0  502 -0.91921715723E+02 -0.10516763381E+04 -0.23727498000E+04  0.25970010272E+04  0.50400001928E-02 0. -1.
</event>
<event>
 5   0  0.2190865E-06  0.2766307E+04  0.7818609E-02  0.8313806E-01
        1   -1    0    0  501    0  0.00000000000E+00  0.00000000000E+00  0.16360567683E+04  0.16360567683E+04  0.50400001928E-02 0. -1.
       -1   -1    0    0    0  501  0.00000000000E+00  0.00000000000E+00 -0.11693441958E+04  0.11693441958E+04  0.50400001928E-02 0.  1.
    10030    2    1    2    0    0  0.00000000000E+00  0.00000000000E+00  0.46671257245E+03  0.28054009641E+04  0.27663069143E+04 0.  0.
        2    1    3    3  502    0 -0.39530437072E+03  0.52767077071E+03 -0.99972652946E+03  0.11975621577E+04  0.25500000920E-02 0.  1.
       -2    1    3    3    0  502  0.39530437072E+03 -0.52767077071E+03  0.14664391019E+04  0.16078388064E+04  0.25500000920E-02 0. -1.
</event>
<event>
 5   0  0.5916603E-06  0.2788676E+04  0.7818609E-02  0.8306793E-01
       -2   -1    0    0    0  501  0.00000000000E+00  0.00000000000E+00  0.97489235708E+03  0.97489235708E+03  0.25500000920E-02 0. -1.
        2   -1    0    0  501    0  0.00000000000E+00  0.00000000000E+00 -0.19942493592E+04  0.19942493592E+04  0.25500000920E-02 0.  1.
    10030    2    1    2    0    0  0.00000000000E+00  0.00000000000E+00 -0.10193570021E+04  0.29691417162E+04  0.27886760001E+04 0.  0.
        2    1    3    3  502    0 -0.27786389460E+03 -0.87245758455E+03 -0.16292936861E+04  0.18689538508E+04  0.25500000920E-02 0.  1.
       -2    1    3    3    0  502  0.27786389460E+03  0.87245758455E+03  0.60993668404E+03  0.11001878655E+04  0.25500000920E-02 0. -1.
</event>
<event>
 5   0  0.2267565E-06  0.2814356E+04  0.7818609E-02  0.8298825E-01
        1   -1    0    0  501    0  0.00000000000E+00  0.00000000000E+00  0.16969015622E+04  0.16969015622E+04  0.50400001928E-02 0. -1.
       -1   -1    0    0    0  501  0.00000000000E+00  0.00000000000E+00 -0.11669211606E+04  0.11669211606E+04  0.50400001928E-02 0.  1.
    10030    2    1    2    0    0  0.00000000000E+00  0.00000000000E+00  0.52998040162E+03  0.28638227228E+04  0.28143562962E+04 0.  0.
        4    1    3    3  502    0 -0.61339672607E+03 -0.56162270968E+03 -0.89007030161E+03  0.12181553129E+04  0.12699999809E+01 0.  1.
       -4    1    3    3    0  502  0.61339672607E+03  0.56162270968E+03  0.14200507032E+04  0.16456674100E+04  0.12699999809E+01 0. -1.
</event>
<event>
 5   0  0.5866136E-06  0.2798367E+04  0.7818609E-02  0.8303775E-01
        2   -1    0    0  501    0  0.00000000000E+00  0.00000000000E+00  0.10079780481E+04  0.10079780481E+04  0.25500000920E-02 0. -1.
       -2   -1    0    0    0  501  0.00000000000E+00  0.00000000000E+00 -0.19422195155E+04  0.19422195155E+04  0.25500000920E-02 0.  1.
    10030    2    1    2    0    0  0.00000000000E+00  0.00000000000E+00 -0.93424146740E+03  0.29501975636E+04  0.27983671212E+04 0.  0.
        5    1    3    3  502    0 -0.13787451001E+04  0.21806958189E+03 -0.56824233196E+03  0.15071210408E+04  0.46999998093E+01 0.  1.
       -5    1    3    3    0  502  0.13787451001E+04 -0.21806958189E+03 -0.36599913545E+03  0.14430765229E+04  0.46999998093E+01 0. -1.
</event>
<event>
 5   0  0.2277133E-06  0.2804262E+04  0.7818609E-02  0.8301946E-01
       -1   -1    0    0    0  501  0.00000000000E+00  0.00000000000E+00  0.84232675407E+03  0.84232675408E+03  0.50400001928E-02 0.  1.
        1   -1    0    0  501    0  0.00000000000E+00  0.00000000000E+00 -0.23339773481E+04  0.23339773481E+04  0.50400001928E-02 0. -1.
    10030    2    1    2    0    0  0.00000000000E+00  0.00000000000E+00 -0.14916505940E+04  0.31763041022E+04  0.28042621587E+04 0.  0.
        1    1    3    3  502    0 -0.26559728092E+02 -0.14008953048E+04 -0.80531463296E+03  0.16160893330E+04  0.50400001928E-02 0. -1.
       -1    1    3    3    0  502  0.26559728092E+02  0.14008953048E+04 -0.68633596104E+03  0.15602147691E+04  0.50400001928E-02 0.  1.
</event>
<event>
 5   0  0.5584205E-06  0.2796112E+04  0.7818609E-02  0.8304476E-01
       -2   -1    0    0    0  501  0.00000000000E+00  0.00000000000E+00  0.12714460705E+04  0.12714460705E+04  0.25500000920E-02 0. -1.
        2   -1    0    0  501    0  0.00000000000E+00  0.00000000000E+00 -0.15372737934E+04  0.15372737934E+04  0.25500000920E-02 0.  1.
    10030    2    1    2    0    0  0.00000000000E+00  0.00000000000E+00 -0.26582772295E+03  0.28087198639E+04  0.27961121036E+04 0.  0.
        1    1    3    3  502    0 -0.11204680441E+03 -0.11904918249E+03 -0.15276389431E+04  0.15363619153E+04  0.50400001928E-02 0.  1.
       -1    1    3    3    0  502  0.11204680441E+03  0.11904918249E+03  0.12618112201E+04  0.12723579487E+04  0.50400001928E-02 0. -1.
</event>
<event>
 5   0  0.2190865E-06  0.2748783E+04  0.7818609E-02  0.8319348E-01
        1   -1    0    0  501    0  0.00000000000E+00  0.00000000000E+00  0.16570057670E+04  0.16570057670E+04  0.50400001928E-02 0. -1.
       -1   -1    0    0    0  501  0.00000000000E+00  0.00000000000E+00 -0.11399789706E+04  0.11399789706E+04  0.50400001928E-02 0.  1.
    10030    2    1    2    0    0  0.00000000000E+00  0.00000000000E+00  0.51702679637E+03  0.27969847377E+04  0.27487828060E+04 0.  0.
        2    1    3    3  502    0 -0.72420355184E+03 -0.12396123559E+01 -0.93007958981E+03  0.11787791840E+04  0.25500000920E-02 0.  1.
       -2    1    3    3    0  502  0.72420355184E+03  0.12396123559E+01  0.14471063862E+04  0.16182055537E+04  0.25500000920E-02 0. -1.
</event>
<event>
 5   0  0.2190865E-06  0.2784438E+04  0.7818609E-02  0.8308116E-01
       -1   -1    0    0    0  501  0.00000000000E+00  0.00000000000E+00  0.12494028027E+04  0.12494028027E+04  0.50400001928E-02 0.  1.
        1   -1    0    0  501    0  0.00000000000E+00  0.00000000000E+00 -0.15513606266E+04  0.15513606267E+04  0.50400001928E-02 0. -1.
    10030    2    1    2    0    0  0.00000000000E+00  0.00000000000E+00 -0.30195782397E+03  0.28007634293E+04  0.27844384101E+04 0.  0.
        2    1    3    3  502    0  0.83311327622E+03  0.11078497774E+04 -0.20350442881E+02  0.13862983087E+04  0.25500000920E-02 0.  1.
       -2    1    3    3    0  502 -0.83311327622E+03 -0.11078497774E+04 -0.28160738109E+03  0.14144651206E+04  0.25500000920E-02 0. -1.
</event>
<event>
 5   0  0.2206967E-06  0.2804013E+04  0.7818609E-02  0.8302023E-01
        1   -1    0    0  501    0  0.00000000000E+00  0.00000000000E+00  0.81157571794E+03  0.81157571796E+03  0.50400001928E-02 0. -1.
       -1   -1    0    0    0  501  0.00000000000E+00  0.00000000000E+00 -0.24219833742E+04  0.24219833742E+04  0.50400001928E-02 0.  1.
    10030    2    1    2    0    0  0.00000000000E+00  0.00000000000E+00 -0.16104076562E+04  0.32335590921E+04  0.28040134777E+04 0.  0.
        5    1    3    3  502    0 -0.12292267055E+04 -0.24542777442E+03 -0.81015726963E+02  0.12561125443E+04  0.46999998093E+01 0. -1.
       -5    1    3    3    0  502  0.12292267055E+04  0.24542777442E+03 -0.15293919293E+04  0.19774465478E+04  0.46999998093E+01 0.  1.
</event>
<event>
 5   0  0.2206967E-06  0.2808998E+04  0.7818609E-02  0.8300480E-01
        1   -1    0    0  501    0  0.00000000000E+00  0.00000000000E+00  0.15789899460E+04  0.15789899460E+04  0.50400001928E-02 0. -1.
       -1   -1    0    0    0  501  0.00000000000E+00  0.00000000000E+00 -0.12492909745E+04  0.12492909745E+04  0.50400001928E-02 0.  1.
    10030    2    1    2    0    0  0.00000000000E+00  0.00000000000E+00  0.32969897157E+03  0.28282809205E+04  0.28089983185E+04 0.  0.
        5    1    3    3  502    0 -0.13675223716E+03  0.58091578895E+03 -0.11152676558E+04  0.12649143696E+04  0.46999998093E+01 0.  1.
       -5    1    3    3    0  502  0.13675223716E+03 -0.58091578895E+03  0.14449666274E+04  0.15633665509E+04  0.46999998093E+01 0. -1.
</event>
<event>
 5   0  0.2267565E-06  0.2871888E+04  0.7818609E-02  0.8281291E-01
        1   -1    0    0  501    0  0.00000000000E+00  0.00000000000E+00  0.84182503682E+03  0.84182503684E+03  0.50400001928E-02 0. -1.
       -1   -1    0    0    0  501  0.00000000000E+00  0.00000000000E+00 -0.24493634615E+04  0.24493634615E+04  0.50400001928E-02 0.  1.
    10030    2    1    2    0    0  0.00000000000E+00  0.00000000000E+00 -0.16075384247E+04  0.32911884984E+04  0.28718882194E+04 0.  0.
        4    1    3    3  502    0 -0.71922791271E+03  0.10287778235E+03  0.61563658172E+03  0.95230386021E+03  0.12699999809E+01 0. -1.
       -4    1    3    3    0  502  0.71922791271E+03 -0.10287778235E+03 -0.22231750064E+04  0.23388846382E+04  0.12699999809E+01 0.  1.
</event>
<event>
 5   0  0.5546570E-06  0.2820320E+04  0.7818609E-02  0.8296988E-01
        2   -1    0    0  501    0  0.00000000000E+00  0.00000000000E+00  0.18549387760E+04  0.18549387760E+04  0.25500000920E-02 0.  1.
       -2   -1    0    0    0  501  0.00000000000E+00  0.00000000000E+00 -0.10720303116E+04  0.10720303116E+04  0.25500000920E-02 0. -1.
    10030    2    1    2    0    0  0.00000000000E+00  0.00000000000E+00  0.78290846445E+03  0.29269690876E+04  0.28203195521E+04 0.  0.
        4    1    3    3  502    0 -0.14988764071E+03  0.27038698484E+03 -0.10364270185E+04  0.10815535141E+04  0.12699999809E+01 0. -1.
       -4    1    3    3    0  502  0.14988764071E+03 -0.27038698484E+03  0.18193354829E+04  0.18454155735E+04  0.12699999809E+01 0.  1.
</event>
<event>
 5   0  0.5584205E-06  0.2803069E+04  0.7818609E-02  0.8302316E-01
       -2   -1    0    0    0  501  0.00000000000E+00  0.00000000000E+00  0.10734438519E+04  0.10734438519E+04  0.25500000920E-02 0.  1.
        2   -1    0    0  501    0  0.00000000000E+00  0.00000000000E+00 -0.18299043631E+04  0.18299043631E+04  0.25500000920E-02 0. -1.
    10030    2    1    2    0    0  0.00000000000E+00  0.00000000000E+00 -0.75646051114E+03  0.29033482150E+04  0.28030694520E+04 0.  0.
        1    1    3    3  502    0 -0.62016623748E+03 -0.17168656908E+03 -0.16678495918E+04  0.17876813757E+04  0.50400001928E-02 0. -1.
       -1    1    3    3    0  502  0.62016623748E+03  0.17168656908E+03  0.91138908062E+03  0.11156668393E+04  0.50400001928E-02 0.  1.
</event>
<event>
 5   0  0.5866136E-06  0.2692317E+04  0.7818609E-02  0.8337502E-01
       -2   -1    0    0    0  501  0.00000000000E+00  0.00000000000E+00  0.10134008274E+04  0.10134008274E+04  0.25500000920E-02 0.  1.
        2   -1    0    0  501    0  0.00000000000E+00  0.00000000000E+00 -0.17881790889E+04  0.17881790889E+04  0.25500000920E-02 0. -1.
    10030    2    1    2    0    0  0.00000000000E+00  0.00000000000E+00 -0.77477826150E+03  0.28015799164E+04  0.26923165997E+04 0.  0.
        5    1    3    3  502    0  0.16542611170E+03  0.12978709583E+04 -0.57858773730E+02  0.13096581808E+04  0.46999998093E+01 0. -1.
       -5    1    3    3    0  502 -0.16542611170E+03 -0.12978709583E+04 -0.71691948777E+03  0.14919217355E+04  0.46999998093E+01 0.  1.
</event>
<event>
 5   0  0.5916603E-06  0.2793567E+04  0.7818609E-02  0.8305268E-01
       -2   -1    0    0    0  501  0.00000000000E+00  0.00000000000E+00  0.22838748851E+04  0.22838748851E+04  0.25500000920E-02 0.  1.
        2   -1    0    0  501    0  0.00000000000E+00  0.00000000000E+00 -0.85425196168E+03  0.85425196168E+03  0.25500000920E-02 0. -1.
    10030    2    1    2    0    0  0.00000000000E+00  0.00000000000E+00  0.14296229234E+04  0.31381268468E+04  0.27935673257E+04 0.  0.
        2    1    3    3  502    0  0.85083761748E+02  0.69418166677E+03 -0.64339813097E+03  0.95030973264E+03  0.25500000920E-02 0. -1.
       -2    1    3    3    0  502 -0.85083761748E+02 -0.69418166677E+03  0.20730210544E+04  0.21878171141E+04  0.25500000920E-02 0.  1.
</event>
<event>
 5   0  0.2190865E-06  0.2747312E+04  0.7818609E-02  0.8319815E-01
        1   -1    0    0  501    0  0.00000000000E+00  0.00000000000E+00  0.23072734704E+04  0.23072734704E+04  0.50400001928E-02 0. -1.
       -1   -1    0    0    0  501  0.00000000000E+00  0.00000000000E+00 -0.81781836478E+03  0.81781836479E+03  0.50400001928E-02 0.  1.
    10030    2    1    2    0    0  0.00000000000E+00  0.00000000000E+00  0.14894551056E+04  0.31250918352E+04  0.27473118619E+04 0.  0.
        2    1    3    3  502    0  0.11250178507E+04 -0.30234186217E+03 -0.83278058919E+02  0.11679088154E+04  0.25500000920E-02 0.  1.
       -2    1    3    3    0  502 -0.11250178507E+04  0.30234186217E+03  0.15727331645E+04  0.19571830198E+04  0.25500000920E-02 0. -1.
</event>
<event>
 5   0  0.2277133E-06  0.2725795E+04  0.7818609E-02  0.8326684E-01
        1   -1    0    0  501    0  0.00000000000E+00  0.00000000000E+00  0.18604067579E+04  0.18604067579E+04  0.50400001928E-02 0.  1.
       -1   -1    0    0    0  501  0.00000000000E+00  0.00000000000E+00 -0.99843188077E+03  0.99843188078E+03  0.50400001928E-02 0. -1.
    10030    2    1    2    0    0  0.00000000000E+00  0.00000000000E+00  0.86197487715E+03  0.28588386387E+04  0.27257948700E+04 0.  0.
        1    1    3    3  502    0 -0.82182693090E+03  0.91372447090E+03  0.10489821681E+04  0.16157523022E+04  0.50400001928E-02 0.  1.
       -1    1    3    3    0  502  0.82182693090E+03 -0.91372447090E+03 -0.18700729096E+03  0.12430863365E+04  0.50400001928E-02 0. -1.
</event>
<event>
 5   0  0.5866136E-06  0.2821067E+04  0.7818609E-02  0.8296758E-01
        2   -1    0    0  501    0  0.00000000000E+00  0.00000000000E+00  0.25665035703E+04  0.25665035703E+04  0.25500000920E-02 0.  1.
       -2   -1    0    0    0  501  0.00000000000E+00  0.00000000000E+00 -0.77521975263E+03  0.77521975263E+03  0.25500000920E-02 0. -1.
    10030    2    1    2    0    0  0.00000000000E+00  0.00000000000E+00  0.17912838177E+04  0.33417233230E+04  0.28210666514E+04 0.  0.
        5    1    3    3  502    0  0.19453888613E+03 -0.33609793950E+03  0.25019225836E+04  0.25318858401E+04  0.46999998093E+01 0.  1.
       -5    1    3    3    0  502 -0.19453888613E+03  0.33609793950E+03 -0.71063876585E+03  0.80983748288E+03  0.46999998093E+01 0. -1.
</event>
<event>
 5   0  0.5584205E-06  0.2828709E+04  0.7818609E-02  0.8294410E-01
        2   -1    0    0  501    0  0.00000000000E+00  0.00000000000E+00  0.14320046191E+04  0.14320046191E+04  0.25500000920E-02 0.  1.
       -2   -1    0    0    0  501  0.00000000000E+00  0.00000000000E+00 -0.13969217692E+04  0.13969217692E+04  0.25500000920E-02 0. -1.
    10030    2    1    2    0    0  0.00000000000E+00  0.00000000000E+00  0.35082849929E+02  0.28289263883E+04  0.28287088405E+04 0.  0.
        1    1    3    3  502    0 -0.35152222170E+02 -0.81002313296E+03 -0.11414373737E+04  0.14000901517E+04  0.50400001928E-02 0. -1.
       -1    1    3    3    0  502  0.35152222170E+02  0.81002313296E+03  0.11765202236E+04  0.14288362367E+04  0.50400001928E-02 0.  1.
</event>
<event>
 5   0  0.1901375E-06  0.2790811E+04  0.7818609E-02  0.8306127E-01
       -3   -1    0    0    0  501  0.00000000000E+00  0.00000000000E+00  0.67960979171E+03  0.67960979922E+03  0.10100000352E+00 0.  1.
        3   -1    0    0  501    0  0.00000000000E+00  0.00000000000E+00 -0.28651091812E+04  0.28651091830E+04  0.10100000352E+00 0. -1.
    10030    2    1    2    0    0  0.00000000000E+00  0.00000000000E+00 -0.21854993895E+04  0.35447189822E+04  0.27908108287E+04 0.  0.
        2    1    3    3  502    0  0.33664971006E+03  0.87625140274E+03 -0.24041382320E+04  0.25808971670E+04  0.25500000920E-02 0.  1.
       -2    1    3    3    0  502 -0.33664971006E+03 -0.87625140274E+03  0.21863884247E+03  0.96382181524E+03  0.25500000920E-02 0. -1.
</event>
<event>
 5   0  0.2234068E-06  0.2809910E+04  0.7818609E-02  0.8300198E-01
        1   -1    0    0  501    0  0.00000000000E+00  0.00000000000E+00  0.15863088656E+04  0.15863088656E+04  0.50400001928E-02 0.  1.
       -1   -1    0    0    0  501  0.00000000000E+00  0.00000000000E+00 -0.12443338817E+04  0.12443338818E+04  0.50400001928E-02 0. -1.
    10030    2    1    2    0    0  0.00000000000E+00  0.00000000000E+00  0.34197498387E+03  0.28306427474E+04  0.28099095134E+04 0.  0.
        3    1    3    3  502    0  0.78088913894E+03 -0.11668111517E+04  0.22296029333E+03  0.14216003002E+04  0.10100000352E+00 0.  1.
       -3    1    3    3    0  502 -0.78088913894E+03  0.11668111517E+04  0.11901469053E+03  0.14090424471E+04  0.10100000352E+00 0. -1.
</event>
<event>
 5   0  0.5866136E-06  0.2805017E+04  0.7818609E-02  0.8301712E-01
        2   -1    0    0  501    0  0.00000000000E+00  0.00000000000E+00  0.12839348657E+04  0.12839348657E+04  0.25500000920E-02 0.  1.
       -2   -1    0    0    0  501  0.00000000000E+00  0.00000000000E+00 -0.15320330108E+04  0.15320330108E+04  0.25500000920E-02 0. -1.
    10030    2    1    2    0    0  0.00000000000E+00  0.00000000000E+00 -0.24809814510E+03  0.28159678766E+04  0.28050173604E+04 0.  0.
        5    1    3    3  502    0  0.37427322966E+02  0.47710312592E+03 -0.14475204973E+04  0.15245871170E+04  0.46999998093E+01 0. -1.
       -5    1    3    3    0  502 -0.37427322966E+02 -0.47710312592E+03  0.11994223522E+04  0.12913807596E+04  0.46999998093E+01 0.  1.
</event>
<event>
 5   0  0.2234068E-06  0.2827976E+04  0.7818609E-02  0.8294635E-01
        1   -1    0    0  501    0  0.00000000000E+00  0.00000000000E+00  0.22101221074E+04  0.22101221074E+04  0.50400001928E-02 0.  1.
       -1   -1    0    0    0  501  0.00000000000E+00  0.00000000000E+00 -0.90463883418E+03  0.90463883419E+03  0.50400001928E-02 0. -1.
    10030    2    1    2    0    0  0.00000000000E+00  0.00000000000E+00  0.13054832732E+04  0.31147609416E+04  0.28279761573E+04 0.  0.
        3    1    3    3  502    0  0.13471729272E+04  0.18929040636E+03  0.10774012515E+04  0.17353671717E+04  0.10100000352E+00 0.  1.
       -3    1    3    3    0  502 -0.13471729272E+04 -0.18929040636E+03  0.22808202169E+03  0.13793937699E+04  0.10100000352E+00 0. -1.
</event>
<event>
 5   0  0.5866136E-06  0.2787015E+04  0.7818609E-02  0.8307311E-01
       -2   -1    0    0    0  501  0.00000000000E+00  0.00000000000E+00  0.14391981257E+04  0.14391981257E+04  0.25500000920E-02 0.  1.
        2   -1    0    0  501    0  0.00000000000E+00  0.00000000000E+00 -0.13492671125E+04  0.13492671125E+04  0.25500000920E-02 0. -1.
    10030    2    1    2    0    0  0.00000000000E+00  0.00000000000E+00  0.89931013163E+02  0.27884652382E+04  0.27870146748E+04 0.  0.
        5    1    3    3  502    0 -0.11092084137E+04 -0.77817860875E+03 -0.28068101754E+03  0.13837301673E+04  0.46999998093E+01 0.  1.
       -5    1    3    3    0  502  0.11092084137E+04  0.77817860875E+03  0.37061203070E+03  0.14047350709E+04  0.46999998093E+01 0. -1.
</event>
<event>
 5   0  0.2190865E-06  0.2807719E+04  0.7818609E-02  0.8300876E-01
       -1   -1    0    0    0  501  0.00000000000E+00  0.00000000000E+00  0.10014493780E+04  0.10014493781E+04  0.50400001928E-02 0.  1.
        1   -1    0    0  501    0  0.00000000000E+00  0.00000000000E+00 -0.19679698088E+04  0.19679698088E+04  0.50400001928E-02 0. -1.
    10030    2    1    2    0    0  0.00000000000E+00  0.00000000000E+00 -0.96652043072E+03  0.29694191868E+04  0.28077194596E+04 0.  0.
        2    1    3    3  502    0 -0.15290000518E+03 -0.13924878400E+04 -0.58031311680E+03  0.15162994789E+04  0.25500000920E-02 0. -1.
       -2    1    3    3    0  502  0.15290000518E+03  0.13924878400E+04 -0.38620731392E+03  0.14531197079E+04  0.25500000920E-02 0.  1.
</event>
<event>
 5   0  0.5584205E-06  0.2783438E+04  0.7818609E-02  0.8308429E-01
        2   -1    0    0  501    0  0.00000000000E+00  0.00000000000E+00  0.98201655394E+03  0.98201655394E+03  0.25500000920E-02 0. -1.
       -2   -1    0    0    0  501  0.00000000000E+00  0.00000000000E+00 -0.19723513479E+04  0.19723513479E+04  0.25500000920E-02 0.  1.
    10030    2    1    2    0    0  0.00000000000E+00  0.00000000000E+00 -0.99033479397E+03  0.29543679018E+04  0.27834379273E+04 0.  0.
        1    1    3    3  502    0 -0.24246258451E+03 -0.16792923830E+03  0.94846420327E+03  0.99326365023E+03  0.50400001928E-02 0. -1.
       -1    1    3    3    0  502  0.24246258451E+03  0.16792923830E+03 -0.19387989972E+04  0.19611042516E+04  0.50400001928E-02 0.  1.
</event>
<event>
 5   0  0.2190865E-06  0.2796436E+04  0.7818609E-02  0.8304376E-01
       -1   -1    0    0    0  501  0.00000000000E+00  0.00000000000E+00  0.11739547942E+04  0.11739547942E+04  0.50400001928E-02 0.  1.
        1   -1    0    0  501    0  0.00000000000E+00  0.00000000000E+00 -0.16653230683E+04  0.16653230683E+04  0.50400001928E-02 0. -1.
    10030    2    1    2    0    0  0.00000000000E+00  0.00000000000E+00 -0.49136827407E+03  0.28392778625E+04  0.27964363036E+04 0.  0.
        2    1    3    3  502    0  0.70101455431E+03 -0.10612985836E+04  0.34393444234E+03  0.13175989487E+04  0.25500000920E-02 0.  1.
       -2    1    3    3    0  502 -0.70101455431E+03  0.10612985836E+04 -0.83530271641E+03  0.15216789139E+04  0.25500000920E-02 0. -1.
</event>
<event>
 5   0  0.5546570E-06  0.2849757E+04  0.7818609E-02  0.8287985E-01
        2   -1    0    0  501    0  0.00000000000E+00  0.00000000000E+00  0.17506511313E+04  0.17506511313E+04  0.25500000920E-02 0.  1.
       -2   -1    0    0    0  501  0.00000000000E+00  0.00000000000E+00 -0.11597279961E+04  0.11597279961E+04  0.25500000920E-02 0. -1.
    10030    2    1    2    0    0  0.00000000000E+00  0.00000000000E+00  0.59092313523E+03  0.29103791275E+04  0.28497572728E+04 0.  0.
        4    1    3    3  502    0  0.48055035941E+03 -0.34360042093E+02  0.16649452426E+04  0.17332494148E+04  0.12699999809E+01 0.  1.
       -4    1    3    3    0  502 -0.48055035941E+03  0.34360042093E+02 -0.10740221073E+04  0.11771297126E+04  0.12699999809E+01 0. -1.
</event>
<event>
 5   0  0.2267565E-06  0.2825776E+04  0.7818609E-02  0.8295310E-01
        1   -1    0    0  501    0  0.00000000000E+00  0.00000000000E+00  0.21161603702E+04  0.21161603702E+04  0.50400001928E-02 0. -1.
       -1   -1    0    0    0  501  0.00000000000E+00  0.00000000000E+00 -0.94333706427E+03  0.94333706428E+03  0.50400001928E-02 0.  1.
    10030    2    1    2    0    0  0.00000000000E+00  0.00000000000E+00  0.11728233059E+04  0.30594974345E+04  0.28257760075E+04 0.  0.
        4    1    3    3  502    0  0.70891336421E+02  0.10242020574E+03  0.21102033179E+04  0.21138768024E+04  0.12699999809E+01 0. -1.
       -4    1    3    3    0  502 -0.70891336421E+02 -0.10242020574E+03 -0.93738001194E+03  0.94562063207E+03  0.12699999809E+01 0.  1.
</event>
<event>
 5   0  0.2190865E-06  0.2796545E+04  0.7818609E-02  0.8304342E-01
       -1   -1    0    0    0  501  0.00000000000E+00  0.00000000000E+00  0.88047490384E+03  0.88047490386E+03  0.50400001928E-02 0.  1.
        1   -1    0    0  501    0  0.00000000000E+00  0.00000000000E+00 -0.22205816362E+04  0.22205816362E+04  0.50400001928E-02 0. -1.
    10030    2    1    2    0    0  0.00000000000E+00  0.00000000000E+00 -0.13401067323E+04  0.31010565401E+04  0.27965452992E+04 0.  0.
        2    1    3    3  502    0 -0.28741459352E+03 -0.68419363394E+03  0.64407915249E+03  0.98263219567E+03  0.25500000920E-02 0.  1.
       -2    1    3    3    0  502  0.28741459352E+03  0.68419363394E+03 -0.19841858848E+04  0.21184243444E+04  0.25500000920E-02 0. -1.
</event>
<event>
 5   0  0.2206967E-06  0.2797074E+04  0.7818609E-02  0.8304177E-01
        1   -1    0    0  501    0  0.00000000000E+00  0.00000000000E+00  0.19860376903E+04  0.19860376903E+04  0.50400001928E-02 0.  1.
       -1   -1    0    0    0  501  0.00000000000E+00  0.00000000000E+00 -0.98482836954E+03  0.98482836955E+03  0.50400001928E-02 0. -1.
    10030    2    1    2    0    0  0.00000000000E+00  0.00000000000E+00  0.10012093207E+04  0.29708660598E+04  0.27970743718E+04 0.  0.
        5    1    3    3  502    0  0.13633687065E+04  0.28919212413E+03  0.62391215172E+03  0.15269887942E+04  0.46999998093E+01 0.  1.
       -5    1    3    3    0  502 -0.13633687065E+04 -0.28919212413E+03  0.37729716900E+03  0.14438772656E+04  0.46999998093E+01 0. -1.
</event>
<event>
 5   0  0.2190865E-06  0.2809444E+04  0.7818609E-02  0.8300342E-01
       -1   -1    0    0    0  501  0.00000000000E+00  0.00000000000E+00  0.75444526477E+03  0.75444526479E+03  0.50400001928E-02 0. -1.
        1   -1    0    0  501    0  0.00000000000E+00  0.00000000000E+00 -0.26154901828E+04  0.26154901828E+04  0.50400001928E-02 0.  1.
    10030    2    1    2    0    0  0.00000000000E+00  0.00000000000E+00 -0.18610449180E+04  0.33699354476E+04  0.28094442038E+04 0.  0.
        2    1    3    3  502    0 -0.11109262970E+04  0.79168179966E+03 -0.52850676499E+03  0.14629547874E+04  0.25500000920E-02 0. -1.
       -2    1    3    3    0  502  0.11109262970E+04 -0.79168179966E+03 -0.13325381530E+04  0.19069806602E+04  0.25500000920E-02 0.  1.
</event>
<event>
 5   0  0.2234068E-06  0.2742126E+04  0.7818609E-02  0.8321465E-01
       -1   -1    0    0    0  501  0.00000000000E+00  0.00000000000E+00  0.83321571447E+03  0.83321571449E+03  0.50400001928E-02 0.  1.
        1   -1    0    0  501    0  0.00000000000E+00  0.00000000000E+00 -0.22560945874E+04  0.22560945874E+04  0.50400001928E-02 0. -1.
    10030    2    1    2    0    0  0.00000000000E+00  0.00000000000E+00 -0.14228788729E+04  0.30893103019E+04  0.27421257911E+04 0.  0.
        3    1    3    3  502    0 -0.80474182242E+03 -0.99685371846E+03 -0.12616212827E+04  0.17980586775E+04  0.10100000352E+00 0.  1.
       -3    1    3    3    0  502  0.80474182242E+03  0.99685371846E+03 -0.16125759024E+03  0.12912516243E+04  0.10100000352E+00 0. -1.
</event>
<event>
 5   0  0.2206967E-06  0.2791772E+04  0.7818609E-02  0.8305827E-01
       -1   -1    0    0    0  501  0.00000000000E+00  0.00000000000E+00  0.14233935558E+04  0.14233935558E+04  0.50400001928E-02 0. -1.
        1   -1    0    0  501    0  0.00000000000E+00  0.00000000000E+00 -0.13689100476E+04  0.13689100476E+04  0.50400001928E-02 0.  1.
    10030    2    1    2    0    0  0.00000000000E+00  0.00000000000E+00  0.54483508153E+02  0.27923036034E+04  0.27917720109E+04 0.  0.
        5    1    3    3  502    0 -0.89217250329E+03 -0.99868984511E+03 -0.36668913891E+03  0.13884654108E+04  0.46999998093E+01 0.  1.
       -5    1    3    3    0  502  0.89217250329E+03  0.99868984511E+03  0.42117264706E+03  0.14038381926E+04  0.46999998093E+01 0. -1.
</event>
<event>
 5   0  0.2206967E-06  0.2805140E+04  0.7818609E-02  0.8301674E-01
       -1   -1    0    0    0  501  0.00000000000E+00  0.00000000000E+00  0.15545644436E+04  0.15545644436E+04  0.50400001928E-02 0. -1.
        1   -1    0    0  501    0  0.00000000000E+00  0.00000000000E+00 -0.12654365969E+04  0.12654365969E+04  0.50400001928E-02 0.  1.
    10030    2    1    2    0    0  0.00000000000E+00  0.00000000000E+00  0.28912784662E+03  0.28200010405E+04  0.28051400958E+04 0.  0.
        5    1    3    3  502    0  0.77986668741E+03  0.10772110208E+04  0.59257610073E+03  0.14559341190E+04  0.46999998093E+01 0.  1.
       -5    1    3    3    0  502 -0.77986668741E+03 -0.10772110208E+04 -0.30344825412E+03  0.13640669216E+04  0.46999998093E+01 0. -1.
</event>
<event>
 5   0  0.2206967E-06  0.2827856E+04  0.7818609E-02  0.8294672E-01
        1   -1    0    0  501    0  0.00000000000E+00  0.00000000000E+00  0.13557497799E+04  0.13557497800E+04  0.50400001928E-02 0. -1.
       -1   -1    0    0    0  501  0.00000000000E+00  0.00000000000E+00 -0.14746031282E+04  0.14746031282E+04  0.50400001928E-02 0.  1.
    10030    2    1    2    0    0  0.00000000000E+00  0.00000000000E+00 -0.11885334821E+03  0.28303529081E+04  0.28278563376E+04 0.  0.
        5    1    3    3  502    0 -0.11158694757E+04  0.64724586170E+03 -0.63879770687E+03  0.14395056417E+04  0.46999998093E+01 0.  1.
       -5    1    3    3    0  502  0.11158694757E+04 -0.64724586170E+03  0.51994435867E+03  0.13908472664E+04  0.46999998093E+01 0. -1.
</event>
<event>
 5   0  0.5546570E-06  0.2796608E+04  0.7818609E-02  0.8304322E-01
       -2   -1    0    0    0  501  0.00000000000E+00  0.00000000000E+00  0.93580505219E+03  0.93580505219E+03  0.25500000920E-02 0.  1.
        2   -1    0    0  501    0  0.00000000000E+00  0.00000000000E+00 -0.20893825489E+04  0.20893825489E+04  0.25500000920E-02 0. -1.
    10030    2    1    2    0    0  0.00000000000E+00  0.00000000000E+00 -0.11535774967E+04  0.30251876010E+04  0.27966084783E+04 0.  0.
        4    1    3    3  502    0 -0.11779996985E+03 -0.11983150219E+04 -0.13458231004E+04  0.18058452744E+04  0.12699999809E+01 0. -1.
       -4    1    3    3    0  502  0.11779996985E+03  0.11983150219E+04  0.19224560372E+03  0.12193423267E+04  0.12699999809E+01 0.  1.
</event>
<event>
 5   0  0.2267565E-06  0.2706722E+04  0.7818609E-02  0.8332827E-01
        1   -1    0    0  501    0  0.00000000000E+00  0.00000000000E+00  0.14429537592E+04  0.14429537592E+04  0.50400001928E-02 0. -1.
       -1   -1    0    0    0  501  0.00000000000E+00  0.00000000000E+00 -0.12693314468E+04  0.12693314468E+04  0.50400001928E-02 0.  1.
    10030    2    1    2    0    0  0.00000000000E+00  0.00000000000E+00  0.17362231235E+03  0.27122852060E+04  0.27067224334E+04 0.  0.
        4    1    3    3  502    0 -0.11211905317E+04 -0.39579749390E+03 -0.56093912052E+03  0.13146779736E+04  0.12699999809E+01 0. -1.
       -4    1    3    3    0  502  0.11211905317E+04  0.39579749390E+03  0.73456143287E+03  0.13976072324E+04  0.12699999809E+01 0.  1.
</event>
<event>
 5   0  0.5625245E-06  0.2799487E+04  0.7818609E-02  0.8303428E-01
        2   -1    0    0  501    0  0.00000000000E+00  0.00000000000E+00  0.20258157806E+04  0.20258157806E+04  0.25500000920E-02 0. -1.
       -2   -1    0    0    0  501  0.00000000000E+00  0.00000000000E+00 -0.96715689414E+03  0.96715689414E+03  0.25500000920E-02 0.  1.
    10030    2    1    2    0    0  0.00000000000E+00  0.00000000000E+00  0.10586588865E+04  0.29929726748E+04  0.27994868805E+04 0.  0.
        3    1    3    3  502    0  0.12207591474E+04  0.68451212741E+03  0.50610380774E+03  0.14882710852E+04  0.10100000352E+00 0. -1.
       -3    1    3    3    0  502 -0.12207591474E+04 -0.68451212741E+03  0.55255507874E+03  0.15047015896E+04  0.10100000352E+00 0.  1.
</event>
<event>
 5   0  0.5584205E-06  0.2772256E+04  0.7818609E-02  0.8311934E-01
        2   -1    0    0  501    0  0.00000000000E+00  0.00000000000E+00  0.18737496873E+04  0.18737496873E+04  0.25500000920E-02 0. -1.
       -2   -1    0    0    0  501  0.00000000000E+00  0.00000000000E+00 -0.10254041039E+04  0.10254041039E+04  0.25500000920E-02 0.  1.
    10030    2    1    2    0    0  0.00000000000E+00  0.00000000000E+00  0.84834558344E+03  0.28991537913E+04  0.27722558461E+04 0.  0.
        1    1    3    3  502    0  0.99051143547E+03 -0.65088568956E+03 -0.32746579338E+03  0.12296336570E+04  0.50400001928E-02 0.  1.
       -1    1    3    3    0  502 -0.99051143547E+03  0.65088568956E+03  0.11758113768E+04  0.16695201342E+04  0.50400001928E-02 0. -1.
</event>
<event>
 5   0  0.2267565E-06  0.2812573E+04  0.7818609E-02  0.8299376E-01
        1   -1    0    0  501    0  0.00000000000E+00  0.00000000000E+00  0.15328968082E+04  0.15328968082E+04  0.50400001928E-02 0.  1.
       -1   -1    0    0    0  501  0.00000000000E+00  0.00000000000E+00 -0.12901336940E+04  0.12901336940E+04  0.50400001928E-02 0. -1.
    10030    2    1    2    0    0  0.00000000000E+00  0.00000000000E+00  0.24276311421E+03  0.28230305023E+04  0.28125730723E+04 0.  0.
        4    1    3    3  502    0  0.75124865121E+03  0.11418887133E+04 -0.21053792580E+03  0.13829722342E+04  0.12699999809E+01 0. -1.
       -4    1    3    3    0  502 -0.75124865121E+03 -0.11418887133E+04  0.45330104001E+03  0.14400582680E+04  0.12699999809E+01 0.  1.
</event>
<event>
 5   0  0.5584205E-06  0.2802992E+04  0.7818609E-02  0.8302340E-01
        2   -1    0    0  501    0  0.00000000000E+00  0.00000000000E+00  0.13581523353E+04  0.13581523353E+04  0.25500000920E-02 0. -1.
       -2   -1    0    0    0  501  0.00000000000E+00  0.00000000000E+00 -0.14462224989E+04  0.14462224989E+04  0.25500000920E-02 0.  1.
    10030    2    1    2    0    0  0.00000000000E+00  0.00000000000E+00 -0.88070163629E+02  0.28043748341E+04  0.28029915905E+04 0.  0.
        1    1    3    3  502    0  0.11592147600E+04  0.25912370767E+03 -0.78822101582E+03  0.14255582505E+04  0.50400001928E-02 0.  1.
       -1    1    3    3    0  502 -0.11592147600E+04 -0.25912370767E+03  0.70015085219E+03  0.13788165837E+04  0.50400001928E-02 0. -1.
</event>
<event>
 5   0  0.5625245E-06  0.2572914E+04  0.7818609E-02  0.8377460E-01
        2   -1    0    0  501    0  0.00000000000E+00  0.00000000000E+00  0.14472513486E+04  0.14472513486E+04  0.25500000920E-02 0. -1.
       -2   -1    0    0    0  501  0.00000000000E+00  0.00000000000E+00 -0.11435270196E+04  0.11435270196E+04  0.25500000920E-02 0.  1.
    10030    2    1    2    0    0  0.00000000000E+00  0.00000000000E+00  0.30372432898E+03  0.25907783682E+04  0.25729135402E+04 0.  0.
        3    1    3    3  502    0  0.29468902146E+03  0.12020581290E+04 -0.20155295318E+03  0.12539573230E+04  0.10100000352E+00 0.  1.
       -3    1    3    3    0  502 -0.29468902146E+03 -0.12020581290E+04  0.50527728217E+03  0.13368210452E+04  0.10100000352E+00 0. -1.
</event>
<event>
 5   0  0.2190865E-06  0.2791492E+04  0.7818609E-02  0.8305915E-01
        1   -1    0    0  501    0  0.00000000000E+00  0.00000000000E+00  0.12371588538E+04  0.12371588538E+04  0.50400001928E-02 0. -1.
       -1   -1    0    0    0  501  0.00000000000E+00  0.00000000000E+00 -0.15746615667E+04  0.15746615667E+04  0.50400001928E-02 0.  1.
    10030    2    1    2    0    0  0.00000000000E+00  0.00000000000E+00 -0.33750271296E+03  0.28118204205E+04  0.27914917152E+04 0.  0.
        2    1    3    3  502    0 -0.88346711810E+03 -0.89688547065E+03  0.43828885800E+03  0.13330471932E+04  0.25500000920E-02 0. -1.
       -2    1    3    3    0  502  0.88346711810E+03  0.89688547065E+03 -0.77579157096E+03  0.14787732273E+04  0.25500000920E-02 0.  1.
</event>
<event>
 5   0  0.5625245E-06  0.2802733E+04  0.7818609E-02  0.8302420E-01
       -2   -1    0    0    0  501  0.00000000000E+00  0.00000000000E+00  0.10208670059E+04  0.10208670059E+04  0.25500000920E-02 0.  1.
        2   -1    0    0  501    0  0.00000000000E+00  0.00000000000E+00 -0.19236866373E+04  0.19236866373E+04  0.25500000920E-02 0. -1.
    10030    2    1    2    0    0  0.00000000000E+00  0.00000000000E+00 -0.90281963143E+03  0.29445536432E+04  0.28027331073E+04 0.  0.
        3    1    3    3  502    0  0.82164698244E+03 -0.10783405593E+04 -0.78622538915E+02  0.13579777758E+04  0.10100000352E+00 0.  1.
       -3    1    3    3    0  502 -0.82164698244E+03  0.10783405593E+04 -0.82419709252E+03  0.15865758675E+04  0.10100000352E+00 0. -1.
</event>
<event>
 5   0  0.2277133E-06  0.2790806E+04  0.7818609E-02  0.8306129E-01
        1   -1    0    0  501    0  0.00000000000E+00  0.00000000000E+00  0.24889646750E+04  0.24889646750E+04  0.50400001928E-02 0.  1.
       -1   -1    0    0    0  501  0.00000000000E+00  0.00000000000E+00 -0.78231280779E+03  0.78231280781E+03  0.50400001928E-02 0. -1.
    10030    2    1    2    0    0  0.00000000000E+00  0.00000000000E+00  0.17066518672E+04  0.32712774828E+04  0.27908055779E+04 0.  0.
        1    1    3    3  502    0 -0.53813421020E+03 -0.94563735805E+03  0.18774300467E+04  0.21699221234E+04  0.50400001928E-02 0. -1.
       -1    1    3    3    0  502  0.53813421020E+03  0.94563735805E+03 -0.17077817953E+03  0.11013553594E+04  0.50400001928E-02 0.  1.
</event>
<event>
 5   0  0.2190865E-06  0.2811096E+04  0.7818609E-02  0.8299832E-01
        1   -1    0    0  501    0  0.00000000000E+00  0.00000000000E+00  0.16056684894E+04  0.16056684894E+04  0.50400001928E-02 0.  1.
       -1   -1    0    0    0  501  0.00000000000E+00  0.00000000000E+00 -0.12303695152E+04  0.12303695153E+04  0.50400001928E-02 0. -1.
    10030    2    1    2    0    0  0.00000000000E+00  0.00000000000E+00  0.37529897413E+03  0.28360380046E+04  0.28110962708E+04 0.  0.
        2    1    3    3  502    0 -0.64329402780E+03  0.93162228410E+03  0.10279975331E+04  0.15292240564E+04  0.25500000920E-02 0.  1.
       -2    1    3    3    0  502  0.64329402780E+03 -0.93162228410E+03 -0.65269855901E+03  0.13068139483E+04  0.25500000920E-02 0. -1.
</event>
<event>
 5   0  0.2277133E-06  0.2791530E+04  0.7818609E-02  0.8305903E-01
       -1   -1    0    0    0  501  0.00000000000E+00  0.00000000000E+00  0.93529035874E+03  0.93529035875E+03  0.50400001928E-02 0. -1.
        1   -1    0    0  501    0  0.00000000000E+00  0.00000000000E+00 -0.20829461771E+04  0.20829461772E+04  0.50400001928E-02 0.  1.
    10030    2    1    2    0    0  0.00000000000E+00  0.00000000000E+00 -0.11476558184E+04  0.30182365359E+04  0.27915296719E+04 0.  0.
        1    1    3    3  502    0  0.11690477502E+04 -0.70696350799E+03 -0.26480266003E+03  0.13916143477E+04  0.50400001928E-02 0.  1.
       -1    1    3    3    0  502 -0.11690477502E+04  0.70696350799E+03 -0.88285315838E+03  0.16266221882E+04  0.50400001928E-02 0. -1.
</event>
<event>
 5   0  0.5584205E-06  0.2805062E+04  0.7818609E-02  0.8301699E-01
        2   -1    0    0  501    0  0.00000000000E+00  0.00000000000E+00  0.13070032889E+04  0.13070032890E+04  0.25500000920E-02 0. -1.
       -2   -1    0    0    0  501  0.00000000000E+00  0.00000000000E+00 -0.15050405971E+04  0.15050405971E+04  0.25500000920E-02 0.  1.
    10030    2    1    2    0    0  0.00000000000E+00  0.00000000000E+00 -0.19803730812E+03  0.28120438860E+04  0.28050618605E+04 0.  0.
        1    1    3    3  502    0 -0.94471895985E+03  0.10252585958E+04 -0.25251380636E+03  0.14168317909E+04  0.50400001928E-02 0. -1.
       -1    1    3    3    0  502  0.94471895985E+03 -0.10252585958E+04  0.54476498240E+02  0.13952120951E+04  0.50400001928E-02 0.  1.
</event>
<event>
 5   0  0.2277133E-06  0.2780585E+04  0.7818609E-02  0.8309321E-01
       -1   -1    0    0    0  501  0.00000000000E+00  0.00000000000E+00  0.92762884083E+03  0.92762884085E+03  0.50400001928E-02 0.  1.
        1   -1    0    0  501    0  0.00000000000E+00  0.00000000000E+00 -0.20837147257E+04  0.20837147257E+04  0.50400001928E-02 0. -1.
    10030    2    1    2    0    0  0.00000000000E+00  0.00000000000E+00 -0.11560858849E+04  0.30113435665E+04  0.27805854604E+04 0.  0.
        1    1    3    3  502    0  0.60229261343E+03  0.11397220372E+04 -0.11420205037E+04  0.17221885917E+04  0.50400001928E-02 0. -1.
       -1    1    3    3    0  502 -0.60229261343E+03 -0.11397220372E+04 -0.14065381135E+02  0.12891549749E+04  0.50400001928E-02 0.  1.
</event>
<event>
 5   0  0.2267565E-06  0.2793807E+04  0.7818609E-02  0.8305194E-01
        1   -1    0    0  501    0  0.00000000000E+00  0.00000000000E+00  0.63152256184E+03  0.63152256186E+03  0.50400001928E-02 0.  1.
       -1   -1    0    0    0  501  0.00000000000E+00  0.00000000000E+00 -0.30898955844E+04  0.30898955844E+04  0.50400001928E-02 0. -1.
    10030    2    1    2    0    0  0.00000000000E+00  0.00000000000E+00 -0.24583730225E+04  0.37214181462E+04  0.27938065612E+04 0.  0.
        4    1    3    3  502    0  0.15054702684E+03  0.25226042544E+03  0.58991072688E+03  0.65901138695E+03  0.12699999809E+01 0.  1.
       -4    1    3    3    0  502 -0.15054702684E+03 -0.25226042544E+03 -0.30482837494E+04  0.30624067593E+04  0.12699999809E+01 0. -1.
</event>
<event>
 5   0  0.5916603E-06  0.2824180E+04  0.7818609E-02  0.8295801E-01
        2   -1    0    0  501    0  0.00000000000E+00  0.00000000000E+00  0.15556068268E+04  0.15556068268E+04  0.25500000920E-02 0.  1.
       -2   -1    0    0    0  501  0.00000000000E+00  0.00000000000E+00 -0.12818137740E+04  0.12818137740E+04  0.25500000920E-02 0. -1.
    10030    2    1    2    0    0  0.00000000000E+00  0.00000000000E+00  0.27379305274E+03  0.28374206008E+04  0.28241800634E+04 0.  0.
        2    1    3    3  502    0 -0.11974035960E+04  0.72422647404E+03  0.32677702938E+03  0.14370325620E+04  0.25500000920E-02 0.  1.
       -2    1    3    3    0  502  0.11974035960E+04 -0.72422647404E+03 -0.52983976631E+02  0.14003880388E+04  0.25500000920E-02 0. -1.
</event>
<event>
 5   0  0.5916603E-06  0.2772816E+04  0.7818609E-02  0.8311758E-01
        2   -1    0    0  501    0  0.00000000000E+00  0.00000000000E+00  0.19936722911E+04  0.19936722911E+04  0.25500000920E-02 0.  1.
       -2   -1    0    0    0  501  0.00000000000E+00  0.00000000000E+00 -0.96411380114E+03  0.96411380115E+03  0.25500000920E-02 0. -1.
    10030    2    1    2    0    0  0.00000000000E+00  0.00000000000E+00  0.10295584900E+04  0.29577860922E+04  0.27728158762E+04 0.  0.
        2    1    3    3  502    0  0.44900255718E+03  0.12805419983E+04  0.21168409837E+03  0.13733904264E+04  0.25500000920E-02 0. -1.
       -2    1    3    3    0  502 -0.44900255718E+03 -0.12805419983E+04  0.81787439158E+03  0.15843956659E+04  0.25500000920E-02 0.  1.
</event>
<event>
 5   0  0.5866136E-06  0.2774995E+04  0.7818609E-02  0.8311074E-01
        2   -1    0    0  501    0  0.00000000000E+00  0.00000000000E+00  0.14109307115E+04  0.14109307115E+04  0.25500000920E-02 0.  1.
       -2   -1    0    0    0  501  0.00000000000E+00  0.00000000000E+00 -0.13644535283E+04  0.13644535283E+04  0.25500000920E-02 0. -1.
    10030    2    1    2    0    0  0.00000000000E+00  0.00000000000E+00  0.46477183220E+02  0.27753842399E+04  0.27749950541E+04 0.  0.
        5    1    3    3  502    0  0.37217539463E+03  0.13353581778E+04  0.81824192160E+02  0.13886732070E+04  0.46999998093E+01 0. -1.
       -5    1    3    3    0  502 -0.37217539463E+03 -0.13353581778E+04 -0.35347008940E+02  0.13867110328E+04  0.46999998093E+01 0.  1.
</event>
<event>
 5   0  0.5584205E-06  0.2804484E+04  0.7818609E-02  0.8301878E-01
        2   -1    0    0  501    0  0.00000000000E+00  0.00000000000E+00  0.15624679814E+04  0.15624679814E+04  0.25500000920E-02 0. -1.
       -2   -1    0    0    0  501  0.00000000000E+00  0.00000000000E+00 -0.12584466487E+04  0.12584466487E+04  0.25500000920E-02 0.  1.
    10030    2    1    2    0    0  0.00000000000E+00  0.00000000000E+00  0.30402133274E+03  0.28209146301E+04  0.28044839774E+04 0.  0.
        1    1    3    3  502    0  0.57547828192E+03 -0.22891660395E+03 -0.11134157689E+04  0.12740772108E+04  0.50400001928E-02 0.  1.
       -1    1    3    3    0  502 -0.57547828192E+03  0.22891660395E+03  0.14174371017E+04  0.15468374193E+04  0.50400001928E-02 0. -1.
</event>
<event>
 5   0  0.2234068E-06  0.2754926E+04  0.7818609E-02  0.8317400E-01
        1   -1    0    0  501    0  0.00000000000E+00  0.00000000000E+00  0.16037964847E+04  0.16037964847E+04  0.50400001928E-02 0.  1.
       -1   -1    0    0    0  501  0.00000000000E+00  0.00000000000E+00 -0.11830703573E+04  0.11830703573E+04  0.50400001928E-02 0. -1.
    10030    2    1    2    0    0  0.00000000000E+00  0.00000000000E+00  0.42072612740E+03  0.27868668420E+04  0.27549258286E+04 0.  0.
        3    1    3    3  502    0 -0.24806298461E+03  0.13148604013E+04 -0.12055495774E+03  0.13434755775E+04  0.10100000352E+00 0. -1.
       -3    1    3    3    0  502  0.24806298461E+03 -0.13148604013E+04  0.54128108513E+03  0.14433912646E+04  0.10100000352E+00 0.  1.
</event>
<event>
 5   0  0.5546570E-06  0.2795012E+04  0.7818609E-02  0.8304818E-01
       -2   -1    0    0    0  501  0.00000000000E+00  0.00000000000E+00  0.12471543807E+04  0.12471543807E+04  0.25500000920E-02 0.  1.
        2   -1    0    0  501    0  0.00000000000E+00  0.00000000000E+00 -0.15659838962E+04  0.15659838962E+04  0.25500000920E-02 0. -1.
    10030    2    1    2    0    0  0.00000000000E+00  0.00000000000E+00 -0.31882951547E+03  0.28131382769E+04  0.27950124696E+04 0.  0.
        4    1    3    3  502    0  0.67727553186E+03 -0.88460392403E+03  0.68973647673E+03  0.13103298320E+04  0.12699999809E+01 0.  1.
       -4    1    3    3    0  502 -0.67727553186E+03  0.88460392403E+03 -0.10085659922E+04  0.15028084449E+04  0.12699999809E+01 0. -1.
</event>
<event>
 5   0  0.5866136E-06  0.2810631E+04  0.7818609E-02  0.8299975E-01
        2   -1    0    0  501    0  0.00000000000E+00  0.00000000000E+00  0.16785885477E+04  0.16785885477E+04  0.25500000920E-02 0.  1.
       -2   -1    0    0    0  501  0.00000000000E+00  0.00000000000E+00 -0.11765311504E+04  0.11765311504E+04  0.25500000920E-02 0. -1.
    10030    2    1    2    0    0  0.00000000000E+00  0.00000000000E+00  0.50205739726E+03  0.28551196981E+04  0.28106310431E+04 0.  0.
        5    1    3    3  502    0  0.98111714067E+03  0.71206908241E+03  0.97309386553E+03  0.15545311135E+04  0.46999998093E+01 0.  1.
       -5    1    3    3    0  502 -0.98111714067E+03 -0.71206908241E+03 -0.47103646827E+03  0.13005885846E+04  0.46999998093E+01 0. -1.
</event>
<event>
 5   0  0.5625245E-06  0.2854606E+04  0.7818609E-02  0.8286513E-01
        2   -1    0    0  501    0  0.00000000000E+00  0.00000000000E+00  0.11636674632E+04  0.11636674632E+04  0.25500000920E-02 0.  1.
       -2   -1    0    0    0  501  0.00000000000E+00  0.00000000000E+00 -0.17506667532E+04  0.17506667532E+04  0.25500000920E-02 0. -1.
    10030    2    1    2    0    0  0.00000000000E+00  0.00000000000E+00 -0.58699928999E+03  0.29143342164E+04  0.28546060601E+04 0.  0.
        3    1    3    3  502    0  0.32142167782E+03 -0.16008661039E+03  0.11167996798E+04  0.11731074771E+04  0.10100000352E+00 0.  1.
       -3    1    3    3    0  502 -0.32142167782E+03  0.16008661039E+03 -0.17037989698E+04  0.17412267393E+04  0.10100000352E+00 0. -1.
</event>
<event>
 5   0  0.2277133E-06  0.2811574E+04  0.7818609E-02  0.8299684E-01
        1   -1    0    0  501    0  0.00000000000E+00  0.00000000000E+00  0.19216785375E+04  0.19216785375E+04  0.50400001928E-02 0. -1.
       -1   -1    0    0    0  501  0.00000000000E+00  0.00000000000E+00 -0.10283910095E+04  0.10283910095E+04  0.50400001928E-02 0.  1.
    10030    2    1    2    0    0  0.00000000000E+00  0.00000000000E+00  0.89328752801E+03  0.29500695470E+04  0.28115738875E+04 0.  0.
        1    1    3    3  502    0  0.88007772445E+03 -0.75973116689E+03 -0.38254229976E+03  0.12239554151E+04  0.50400001928E-02 0.  1.
       -1    1    3    3    0  502 -0.88007772445E+03  0.75973116689E+03  0.12758298278E+04  0.17261141319E+04  0.50400001928E-02 0. -1.
</event>
<event>
 5   0  0.2190865E-06  0.2821297E+04  0.7818609E-02  0.8296687E-01
       -1   -1    0    0    0  501  0.00000000000E+00  0.00000000000E+00  0.10500096234E+04  0.10500096235E+04  0.50400001928E-02 0. -1.
        1   -1    0    0  501    0  0.00000000000E+00  0.00000000000E+00 -0.18951526469E+04  0.18951526469E+04  0.50400001928E-02 0.  1.
    10030    2    1    2    0    0  0.00000000000E+00  0.00000000000E+00 -0.84514302344E+03  0.29451622703E+04  0.28212965226E+04 0.  0.
        2    1    3    3  502    0 -0.35614360593E+03  0.12124841602E+04  0.23182582774E+03  0.12847954394E+04  0.25500000920E-02 0. -1.
       -2    1    3    3    0  502  0.35614360593E+03 -0.12124841602E+04 -0.10769688512E+04  0.16603668309E+04  0.25500000920E-02 0.  1.
</event>
<event>
 5   0  0.2190865E-06  0.2798486E+04  0.7818609E-02  0.8303739E-01
       -1   -1    0    0    0  501  0.00000000000E+00  0.00000000000E+00  0.63420597412E+03  0.63420597414E+03  0.50400001928E-02 0. -1.
        1   -1    0    0  501    0  0.00000000000E+00  0.00000000000E+00 -0.30871364598E+04  0.30871364598E+04  0.50400001928E-02 0.  1.
    10030    2    1    2    0    0  0.00000000000E+00  0.00000000000E+00 -0.24529304857E+04  0.37213424340E+04  0.27984855803E+04 0.  0.
        2    1    3    3  502    0 -0.13565553124E+04  0.29126121833E+03 -0.98561538032E+03  0.17019145369E+04  0.25500000920E-02 0. -1.
       -2    1    3    3    0  502  0.13565553124E+04 -0.29126121833E+03 -0.14673151054E+04  0.20194278971E+04  0.25500000920E-02 0.  1.
</event>
<event>
 5   0  0.5916603E-06  0.2791904E+04  0.7818609E-02  0.8305786E-01
        2   -1    0    0  501    0  0.00000000000E+00  0.00000000000E+00  0.14292876637E+04  0.14292876637E+04  0.25500000920E-02 0. -1.
       -2   -1    0    0    0  501  0.00000000000E+00  0.00000000000E+00 -0.13633938018E+04  0.13633938018E+04  0.25500000920E-02 0.  1.
    10030    2    1    2    0    0  0.00000000000E+00  0.00000000000E+00  0.65893861926E+02  0.27926814654E+04  0.27919039680E+04 0.  0.
        2    1    3    3  502    0  0.57106025251E+03  0.12468918570E+04  0.29346681959E+03  0.14024877501E+04  0.25500000920E-02 0. -1.
       -2    1    3    3    0  502 -0.57106025251E+03 -0.12468918570E+04 -0.22757295766E+03  0.13901937153E+04  0.25500000920E-02 0.  1.
</event>
<event>
 5   0  0.5546570E-06  0.2806277E+04  0.7818609E-02  0.8301322E-01
       -2   -1    0    0    0  501  0.00000000000E+00  0.00000000000E+00  0.78397637033E+03  0.78397637033E+03  0.25500000920E-02 0.  1.
        2   -1    0    0  501    0  0.00000000000E+00  0.00000000000E+00 -0.25112973801E+04  0.25112973801E+04  0.25500000920E-02 0. -1.
    10030    2    1    2    0    0  0.00000000000E+00  0.00000000000E+00 -0.17273210098E+04  0.32952737505E+04  0.28062771103E+04 0.  0.
        4    1    3    3  502    0  0.35900051118E+03  0.72661407422E+03 -0.22086505169E+04  0.23526555419E+04  0.12699999809E+01 0. -1.
       -4    1    3    3    0  502 -0.35900051118E+03 -0.72661407422E+03  0.48132950711E+03  0.94261820861E+03  0.12699999809E+01 0.  1.
</event>
<event>
 5   0  0.5866136E-06  0.2798367E+04  0.7818609E-02  0.8303775E-01
        2   -1    0    0  501    0  0.00000000000E+00  0.00000000000E+00  0.19641080876E+04  0.19641080876E+04  0.25500000920E-02 0. -1.
       -2   -1    0    0    0  501  0.00000000000E+00  0.00000000000E+00 -0.99674510768E+03  0.99674510768E+03  0.25500000920E-02 0.  1.
    10030    2    1    2    0    0  0.00000000000E+00  0.00000000000E+00  0.96736297991E+03  0.29608531953E+04  0.27983674721E+04 0.  0.
        5    1    3    3  502    0 -0.10085674981E+04 -0.89456135526E+03  0.87444298389E+02  0.13509689160E+04  0.46999998093E+01 0.  1.
       -5    1    3    3    0  502  0.10085674981E+04  0.89456135526E+03  0.87991868152E+03  0.16098842793E+04  0.46999998093E+01 0. -1.
</event>
<event>
 5   0  0.2277133E-06  0.2759452E+04  0.7818609E-02  0.8315968E-01
       -1   -1    0    0    0  501  0.00000000000E+00  0.00000000000E+00  0.17282178733E+04  0.17282178733E+04  0.50400001928E-02 0.  1.
        1   -1    0    0  501    0  0.00000000000E+00  0.00000000000E+00 -0.11015071888E+04  0.11015071888E+04  0.50400001928E-02 0. -1.
    10030    2    1    2    0    0  0.00000000000E+00  0.00000000000E+00  0.62671068447E+03  0.28297250621E+04  0.27594524177E+04 0.  0.
        1    1    3    3  502    0 -0.68077364941E+03  0.11677338829E+04  0.59715062899E+03  0.14777158241E+04  0.50400001928E-02 0.  1.
       -1    1    3    3    0  502  0.68077364941E+03 -0.11677338829E+04  0.29560055477E+02  0.13520092381E+04  0.50400001928E-02 0. -1.
</event>
<event>
 5   0  0.2267565E-06  0.2816412E+04  0.7818609E-02  0.8298191E-01
        1   -1    0    0  501    0  0.00000000000E+00  0.00000000000E+00  0.10810717749E+04  0.10810717749E+04  0.50400001928E-02 0.  1.
       -1   -1    0    0    0  501  0.00000000000E+00  0.00000000000E+00 -0.18343310620E+04  0.18343310620E+04  0.50400001928E-02 0. -1.
    10030    2    1    2    0    0  0.00000000000E+00  0.00000000000E+00 -0.75325928710E+03  0.29154028369E+04  0.28164115729E+04 0.  0.
        4    1    3    3  502    0 -0.33731487899E+03 -0.19305592898E+03  0.10244538022E+04  0.10957002898E+04  0.12699999809E+01 0.  1.
       -4    1    3    3    0  502  0.33731487899E+03  0.19305592898E+03 -0.17777130893E+04  0.18197025471E+04  0.12699999809E+01 0. -1.
</event>
<event>
 5   0  0.5916603E-06  0.2808319E+04  0.7818609E-02  0.8300690E-01
       -2   -1    0    0    0  501  0.00000000000E+00  0.00000000000E+00  0.16130362645E+04  0.16130362645E+04  0.25500000920E-02 0. -1.
        2   -1    0    0  501    0  0.00000000000E+00  0.00000000000E+00 -0.12223306683E+04  0.12223306683E+04  0.25500000920E-02 0.  1.
    10030    2    1    2    0    0  0.00000000000E+00  0.00000000000E+00  0.39070559613E+03  0.28353669328E+04  0.28083188531E+04 0.  0.
        2    1    3    3  502    0  0.80356084475E+02  0.21153855008E+03 -0.12038003875E+04  0.12248840890E+04  0.25500000920E-02 0.  1.
       -2    1    3    3    0  502 -0.80356084475E+02 -0.21153855008E+03  0.15945059836E+04  0.16104828438E+04  0.25500000920E-02 0. -1.
</event>
<event>
 5   0  0.5584205E-06  0.2790791E+04  0.7818609E-02  0.8306133E-01
       -2   -1    0    0    0  501  0.00000000000E+00  0.00000000000E+00  0.13688356771E+04  0.13688356771E+04  0.25500000920E-02 0.  1.
        2   -1    0    0  501    0  0.00000000000E+00  0.00000000000E+00 -0.14224708894E+04  0.14224708894E+04  0.25500000920E-02 0. -1.
    10030    2    1    2    0    0  0.00000000000E+00  0.00000000000E+00 -0.53635212278E+02  0.27913065665E+04  0.27907912161E+04 0.  0.
        1    1    3    3  502    0 -0.97428357251E+03  0.96249766878E+03 -0.29425931823E+03  0.14007922003E+04  0.50400001928E-02 0. -1.
       -1    1    3    3    0  502  0.97428357251E+03 -0.96249766878E+03  0.24062410595E+03  0.13905143661E+04  0.50400001928E-02 0.  1.
</event>
<event>
 5   0  0.5584205E-06  0.2800737E+04  0.7818609E-02  0.8303040E-01
        2   -1    0    0  501    0  0.00000000000E+00  0.00000000000E+00  0.18287805539E+04  0.18287805539E+04  0.25500000920E-02 0. -1.
       -2   -1    0    0    0  501  0.00000000000E+00  0.00000000000E+00 -0.10723164671E+04  0.10723164671E+04  0.25500000920E-02 0.  1.
    10030    2    1    2    0    0  0.00000000000E+00  0.00000000000E+00  0.75646408680E+03  0.29010970211E+04  0.28007366908E+04 0.  0.
        1    1    3    3  502    0 -0.11354165617E+04  0.67726839906E+03  0.85647791738E+03  0.15752516231E+04  0.50400001928E-02 0. -1.
       -1    1    3    3    0  502  0.11354165617E+04 -0.67726839906E+03 -0.10001383057E+03  0.13258453980E+04  0.50400001928E-02 0.  1.
</event>
<event>
 5   0  0.2190865E-06  0.2784545E+04  0.7818609E-02  0.8308083E-01
        1   -1    0    0  501    0  0.00000000000E+00  0.00000000000E+00  0.15078409488E+04  0.15078409488E+04  0.50400001928E-02 0.  1.
       -1   -1    0    0    0  501  0.00000000000E+00  0.00000000000E+00 -0.12855618213E+04  0.12855618213E+04  0.50400001928E-02 0. -1.
    10030    2    1    2    0    0  0.00000000000E+00  0.00000000000E+00  0.22227912753E+03  0.27934027701E+04  0.27845450302E+04 0.  0.
        2    1    3    3  502    0 -0.12504994250E+04 -0.40890527326E+03  0.56807770327E+03  0.14330612727E+04  0.25500000920E-02 0.  1.
       -2    1    3    3    0  502  0.12504994250E+04  0.40890527326E+03 -0.34579857575E+03  0.13603414973E+04  0.25500000920E-02 0. -1.
</event>
<event>
 5   0  0.5866136E-06  0.2831468E+04  0.7818609E-02  0.8293565E-01
        2   -1    0    0  501    0  0.00000000000E+00  0.00000000000E+00  0.27923280621E+04  0.27923280621E+04  0.25500000920E-02 0.  1.
       -2   -1    0    0    0  501  0.00000000000E+00  0.00000000000E+00 -0.71778937736E+03  0.71778937736E+03  0.25500000920E-02 0. -1.
    10030    2    1    2    0    0  0.00000000000E+00  0.00000000000E+00  0.20745386847E+04  0.35101174395E+04  0.28314684678E+04 0.  0.
        5    1    3    3  502    0 -0.99752964447E+03 -0.27201803563E+03 -0.16158743971E+03  0.10465141155E+04  0.46999998093E+01 0. -1.
       -5    1    3    3    0  502  0.99752964447E+03  0.27201803563E+03  0.22361261244E+04  0.24636033239E+04  0.46999998093E+01 0.  1.
</event>
<event>
 5   0  0.2267565E-06  0.2496218E+04  0.7818609E-02  0.8404334E-01
       -1   -1    0    0    0  501  0.00000000000E+00  0.00000000000E+00  0.10951112696E+04  0.10951112696E+04  0.50400001928E-02 0.  1.
        1   -1    0    0  501    0  0.00000000000E+00  0.00000000000E+00 -0.14224820767E+04  0.14224820767E+04  0.50400001928E-02 0. -1.
    10030    2    1    2    0    0  0.00000000000E+00  0.00000000000E+00 -0.32737080708E+03  0.25175933464E+04  0.24962180618E+04 0.  0.
        4    1    3    3  502    0 -0.70182291986E+03  0.97730655387E+03  0.17095550182E+03  0.12152822337E+04  0.12699999809E+01 0.  1.
       -4    1    3    3    0  502  0.70182291986E+03 -0.97730655387E+03 -0.49832630889E+03  0.13023111126E+04  0.12699999809E+01 0. -1.
</event>
<event>
 5   0  0.2277133E-06  0.2786165E+04  0.7818609E-02  0.8307577E-01
        1   -1    0    0  501    0  0.00000000000E+00  0.00000000000E+00  0.20909983289E+04  0.20909983289E+04  0.50400001928E-02 0. -1.
       -1   -1    0    0    0  501  0.00000000000E+00  0.00000000000E+00 -0.92811100024E+03  0.92811100025E+03  0.50400001928E-02 0.  1.
    10030    2    1    2    0    0  0.00000000000E+00  0.00000000000E+00  0.11628873286E+04  0.30191093291E+04  0.27861647837E+04 0.  0.
        1    1    3    3  502    0  0.26206398438E+03 -0.12945681006E+04  0.10159455359E+03  0.13247284825E+04  0.50400001928E-02 0.  1.
       -1    1    3    3    0  502 -0.26206398438E+03  0.12945681006E+04  0.10612927750E+04  0.16943808466E+04  0.50400001928E-02 0. -1.
</event>
<event>
 5   0  0.2277133E-06  0.2756282E+04  0.7818609E-02  0.8316971E-01
        1   -1    0    0  501    0  0.00000000000E+00  0.00000000000E+00  0.20549860394E+04  0.20549860394E+04  0.50400001928E-02 0. -1.
       -1   -1    0    0    0  501  0.00000000000E+00  0.00000000000E+00 -0.92422665361E+03  0.92422665362E+03  0.50400001928E-02 0.  1.
    10030    2    1    2    0    0  0.00000000000E+00  0.00000000000E+00  0.11307593858E+04  0.29792126931E+04  0.27562821847E+04 0.  0.
        1    1    3    3  502    0 -0.96181854465E+03 -0.82807002435E+03 -0.15163016010E+02  0.12692615157E+04  0.50400001928E-02 0. -1.
       -1    1    3    3    0  502  0.96181854465E+03  0.82807002435E+03  0.11459224018E+04  0.17099511774E+04  0.50400001928E-02 0.  1.
</event>
<event>
 5   0  0.2190865E-06  0.2836514E+04  0.7818609E-02  0.8292021E-01
       -1   -1    0    0    0  501  0.00000000000E+00  0.00000000000E+00  0.99866714376E+03  0.99866714377E+03  0.50400001928E-02 0.  1.
        1   -1    0    0  501    0  0.00000000000E+00  0.00000000000E+00 -0.20141374657E+04  0.20141374657E+04  0.50400001928E-02 0. -1.
    10030    2    1    2    0    0  0.00000000000E+00  0.00000000000E+00 -0.10154703220E+04  0.30128046095E+04  0.28365139944E+04 0.  0.
        2    1    3    3  502    0  0.66400795377E+03  0.92576377932E+03 -0.14049271574E+04  0.18088022156E+04  0.25500000920E-02 0. -1.
       -2    1    3    3    0  502 -0.66400795377E+03 -0.92576377932E+03  0.38945683540E+03  0.12040023939E+04  0.25500000920E-02 0.  1.
</event>
<event>
 5   0  0.2234068E-06  0.2792976E+04  0.7818609E-02  0.8305452E-01
       -1   -1    0    0    0  501  0.00000000000E+00  0.00000000000E+00  0.11526506307E+04  0.11526506307E+04  0.50400001928E-02 0. -1.
        1   -1    0    0  501    0  0.00000000000E+00  0.00000000000E+00 -0.16919083604E+04  0.16919083604E+04  0.50400001928E-02 0.  1.
    10030    2    1    2    0    0  0.00000000000E+00  0.00000000000E+00 -0.53925772965E+03  0.28445589911E+04  0.27929763613E+04 0.  0.
        3    1    3    3  502    0 -0.16108951541E+03  0.93099760517E+03  0.77769813293E+03  0.12237323110E+04  0.10100000352E+00 0. -1.
       -3    1    3    3    0  502  0.16108951541E+03 -0.93099760517E+03 -0.13169558626E+04  0.16208266801E+04  0.10100000352E+00 0.  1.
</event>
<event>
 5   0  0.5625245E-06  0.2823850E+04  0.7818609E-02  0.8295902E-01
       -2   -1    0    0    0  501  0.00000000000E+00  0.00000000000E+00  0.16141567915E+04  0.16141567915E+04  0.25500000920E-02 0. -1.
        2   -1    0    0  501    0  0.00000000000E+00  0.00000000000E+00 -0.12350302036E+04  0.12350302036E+04  0.25500000920E-02 0.  1.
    10030    2    1    2    0    0  0.00000000000E+00  0.00000000000E+00  0.37912658791E+03  0.28491869951E+04  0.28238501312E+04 0.  0.
        3    1    3    3  502    0  0.19737446033E+03  0.13980564368E+04  0.19332536694E+03  0.14250940972E+04  0.10100000352E+00 0. -1.
       -3    1    3    3    0  502 -0.19737446033E+03 -0.13980564368E+04  0.18580122097E+03  0.14240928979E+04  0.10100000352E+00 0.  1.
</event>
<event>
 5   0  0.2234068E-06  0.2809429E+04  0.7818609E-02  0.8300347E-01
        1   -1    0    0  501    0  0.00000000000E+00  0.00000000000E+00  0.14348350355E+04  0.14348350355E+04  0.50400001928E-02 0. -1.
       -1   -1    0    0    0  501  0.00000000000E+00  0.00000000000E+00 -0.13752261055E+04  0.13752261055E+04  0.50400001928E-02 0.  1.
    10030    2    1    2    0    0  0.00000000000E+00  0.00000000000E+00  0.59608929995E+02  0.28100611411E+04  0.28094288373E+04 0.  0.
        3    1    3    3  502    0 -0.13859391786E+04 -0.29914195974E+02  0.25679236413E+03  0.14098455924E+04  0.10100000352E+00 0. -1.
       -3    1    3    3    0  502  0.13859391786E+04  0.29914195974E+02 -0.19718343414E+03  0.14002155487E+04  0.10100000352E+00 0.  1.
</event>
<event>
 5   0  0.5546570E-06  0.2801509E+04  0.7818609E-02  0.8302800E-01
       -2   -1    0    0    0  501  0.00000000000E+00  0.00000000000E+00  0.10689687788E+04  0.10689687788E+04  0.25500000920E-02 0.  1.
        2   -1    0    0  501    0  0.00000000000E+00  0.00000000000E+00 -0.18355197126E+04  0.18355197126E+04  0.25500000920E-02 0. -1.
    10030    2    1    2    0    0  0.00000000000E+00  0.00000000000E+00 -0.76655093384E+03  0.29044884914E+04  0.28015090688E+04 0.  0.
        4    1    3    3  502    0  0.16997658789E+03  0.32133488348E+03  0.10192115243E+04  0.10821006848E+04  0.12699999809E+01 0.  1.
       -4    1    3    3    0  502 -0.16997658789E+03 -0.32133488348E+03 -0.17857624582E+04  0.18223878066E+04  0.12699999809E+01 0. -1.
</event>
<event>
 5   0  0.5625245E-06  0.2798837E+04  0.7818609E-02  0.8303629E-01
        2   -1    0    0  501    0  0.00000000000E+00  0.00000000000E+00  0.23141951642E+04  0.23141951642E+04  0.25500000920E-02 0.  1.
       -2   -1    0    0    0  501  0.00000000000E+00  0.00000000000E+00 -0.84624355372E+03  0.84624355372E+03  0.25500000920E-02 0. -1.
    10030    2    1    2    0    0  0.00000000000E+00  0.00000000000E+00  0.14679516104E+04  0.31604387179E+04  0.27988374299E+04 0.  0.
        3    1    3    3  502    0  0.24633774726E+03  0.62795478214E+03 -0.65055193952E+03  0.93713783957E+03  0.10100000352E+00 0. -1.
       -3    1    3    3    0  502 -0.24633774726E+03 -0.62795478214E+03  0.21185035500E+04  0.22233008783E+04  0.10100000352E+00 0.  1.
</event>
<event>
 5   0  0.5916603E-06  0.2804733E+04  0.7818609E-02  0.8301801E-01
       -2   -1    0    0    0  501  0.00000000000E+00  0.00000000000E+00  0.14045384570E+04  0.14045384570E+04  0.25500000920E-02 0.  1.
        2   -1    0    0  501    0  0.00000000000E+00  0.00000000000E+00 -0.14001974770E+04  0.14001974770E+04  0.25500000920E-02 0. -1.
    10030    2    1    2    0    0  0.00000000000E+00  0.00000000000E+00  0.43409800329E+01  0.28047359340E+04  0.28047325746E+04 0.  0.
        2    1    3    3  502    0 -0.17414054172E+03 -0.33772314973E+03 -0.13477382902E+04  0.14002786697E+04  0.25500000920E-02 0. -1.
       -2    1    3    3    0  502  0.17414054172E+03  0.33772314973E+03  0.13520792702E+04  0.14044572642E+04  0.25500000920E-02 0.  1.
</event>
<event>
 5   0  0.2206967E-06  0.2833369E+04  0.7818609E-02  0.8292983E-01
        1   -1    0    0  501    0  0.00000000000E+00  0.00000000000E+00  0.15134982932E+04  0.15134982932E+04  0.50400001928E-02 0.  1.
       -1   -1    0    0    0  501  0.00000000000E+00  0.00000000000E+00 -0.13260636987E+04  0.13260636987E+04  0.50400001928E-02 0. -1.
    10030    2    1    2    0    0  0.00000000000E+00  0.00000000000E+00  0.18743459445E+03  0.28395619919E+04  0.28333691215E+04 0.  0.
        5    1    3    3  502    0 -0.43626696069E+03 -0.11190563274E+04 -0.65916174140E+03  0.13700847478E+04  0.46999998093E+01 0. -1.
       -5    1    3    3    0  502  0.43626696069E+03  0.11190563274E+04  0.84659633585E+03  0.14694772441E+04  0.46999998093E+01 0.  1.
</event>
<event>
 5   0  0.2277133E-06  0.2823560E+04  0.7818609E-02  0.8295991E-01
       -1   -1    0    0    0  501  0.00000000000E+00  0.00000000000E+00  0.10449666140E+04  0.10449666140E+04  0.50400001928E-02 0.  1.
        1   -1    0    0  501    0  0.00000000000E+00  0.00000000000E+00 -0.19073554470E+04  0.19073554470E+04  0.50400001928E-02 0. -1.
    10030    2    1    2    0    0  0.00000000000E+00  0.00000000000E+00 -0.86238883301E+03  0.29523220611E+04  0.28235599964E+04 0.  0.
        1    1    3    3  502    0  0.11052997246E+04  0.39449418921E+03  0.38932704489E+03  0.12364823875E+04  0.50400001928E-02 0.  1.
       -1    1    3    3    0  502 -0.11052997246E+04 -0.39449418921E+03 -0.12517158779E+04  0.17158396736E+04  0.50400001928E-02 0. -1.
</event>
<event>
 5   0  0.5546570E-06  0.2786226E+04  0.7818609E-02  0.8307557E-01
       -2   -1    0    0    0  501  0.00000000000E+00  0.00000000000E+00  0.81433531569E+03  0.81433531569E+03  0.25500000920E-02 0.  1.
        2   -1    0    0  501    0  0.00000000000E+00  0.00000000000E+00 -0.23832486435E+04  0.23832486435E+04  0.25500000920E-02 0. -1.
    10030    2    1    2    0    0  0.00000000000E+00  0.00000000000E+00 -0.15689133278E+04  0.31975839592E+04  0.27862257887E+04 0.  0.
        4    1    3    3  502    0  0.11218665327E+04 -0.75142680750E+03 -0.11779066633E+04  0.17918405299E+04  0.12699999809E+01 0. -1.
       -4    1    3    3    0  502 -0.11218665327E+04  0.75142680750E+03 -0.39100666451E+03  0.14057434293E+04  0.12699999809E+01 0.  1.
</event>
<event>
 5   0  0.5546570E-06  0.2803239E+04  0.7818609E-02  0.8302264E-01
        2   -1    0    0  501    0  0.00000000000E+00  0.00000000000E+00  0.93967847886E+03  0.93967847886E+03  0.25500000920E-02 0. -1.
       -2   -1    0    0    0  501  0.00000000000E+00  0.00000000000E+00 -0.20906478630E+04  0.20906478630E+04  0.25500000920E-02 0.  1.
    10030    2    1    2    0    0  0.00000000000E+00  0.00000000000E+00 -0.11509693842E+04  0.30303263419E+04  0.28032387010E+04 0.  0.
        4    1    3    3  502    0  0.10091228941E+04 -0.95053516435E+03 -0.79883558964E+03  0.15999956332E+04  0.12699999809E+01 0.  1.
       -4    1    3    3    0  502 -0.10091228941E+04  0.95053516435E+03 -0.35213379452E+03  0.14303307087E+04  0.12699999809E+01 0. -1.
</event>
<event>
 5   0  0.5866136E-06  0.2818911E+04  0.7818609E-02  0.8297421E-01
        2   -1    0    0  501    0  0.00000000000E+00  0.00000000000E+00  0.16578417182E+04  0.16578417182E+04  0.25500000920E-02 0. -1.
       -2   -1    0    0    0  501  0.00000000000E+00  0.00000000000E+00 -0.11982833370E+04  0.11982833370E+04  0.25500000920E-02 0.  1.
    10030    2    1    2    0    0  0.00000000000E+00  0.00000000000E+00  0.45955838120E+03  0.28561250551E+04  0.28189105032E+04 0.  0.
        5    1    3    3  502    0  0.90359504451E+03  0.17658836050E+03  0.13110485037E+04  0.16020417356E+04  0.46999998093E+01 0. -1.
       -5    1    3    3    0  502 -0.90359504451E+03 -0.17658836050E+03 -0.85149012252E+03  0.12540833195E+04  0.46999998093E+01 0.  1.
</event>
<event>
 5   0  0.5625245E-06  0.2803589E+04  0.7818609E-02  0.8302155E-01
       -2   -1    0    0    0  501  0.00000000000E+00  0.00000000000E+00  0.28771102726E+04  0.28771102726E+04  0.25500000920E-02 0.  1.
        2   -1    0    0  501    0  0.00000000000E+00  0.00000000000E+00 -0.68298678485E+03  0.68298678486E+03  0.25500000920E-02 0. -1.
    10030    2    1    2    0    0  0.00000000000E+00  0.00000000000E+00  0.21941234878E+04  0.35600970575E+04  0.28035893385E+04 0.  0.
        3    1    3    3  502    0 -0.86629580608E+03  0.79668931487E+02  0.24928487165E+04  0.26402860254E+04  0.10100000352E+00 0.  1.
       -3    1    3    3    0  502  0.86629580608E+03 -0.79668931487E+02 -0.29872522874E+03  0.91981103209E+03  0.10100000352E+00 0. -1.
</event>
<event>
 5   0  0.5546570E-06  0.2775675E+04  0.7818609E-02  0.8310860E-01
       -2   -1    0    0    0  501  0.00000000000E+00  0.00000000000E+00  0.11354197305E+04  0.11354197305E+04  0.25500000920E-02 0. -1.
        2   -1    0    0  501    0  0.00000000000E+00  0.00000000000E+00 -0.16963708851E+04  0.16963708851E+04  0.25500000920E-02 0.  1.
    10030    2    1    2    0    0  0.00000000000E+00  0.00000000000E+00 -0.56095115460E+03  0.28317906156E+04  0.27756750337E+04 0.  0.
        4    1    3    3  502    0 -0.56338031469E+03  0.12316159283E+04  0.28662245631E+02  0.13546580052E+04  0.12699999809E+01 0. -1.
       -4    1    3    3    0  502  0.56338031469E+03 -0.12316159283E+04 -0.58961340023E+03  0.14771326104E+04  0.12699999809E+01 0.  1.
</event>
<event>
 5   0  0.2206967E-06  0.2811962E+04  0.7818609E-02  0.8299564E-01
        1   -1    0    0  501    0  0.00000000000E+00  0.00000000000E+00  0.17237687376E+04  0.17237687376E+04  0.50400001928E-02 0. -1.
       -1   -1    0    0    0  501  0.00000000000E+00  0.00000000000E+00 -0.11467795393E+04  0.11467795393E+04  0.50400001928E-02 0.  1.
    10030    2    1    2    0    0  0.00000000000E+00  0.00000000000E+00  0.57698919831E+03  0.28705482770E+04  0.28119621042E+04 0.  0.
        5    1    3    3  502    0 -0.45256278487E+03  0.13301052744E+04  0.23479138618E+03  0.14244796244E+04  0.46999998093E+01 0. -1.
       -5    1    3    3    0  502  0.45256278487E+03 -0.13301052744E+04  0.34219781213E+03  0.14460686526E+04  0.46999998093E+01 0.  1.
</event>
<event>
 5   0  0.2190865E-06  0.2809676E+04  0.7818609E-02  0.8300271E-01
        1   -1    0    0  501    0  0.00000000000E+00  0.00000000000E+00  0.21836355869E+04  0.21836355869E+04  0.50400001928E-02 0.  1.
       -1   -1    0    0    0  501  0.00000000000E+00  0.00000000000E+00 -0.90380019086E+03  0.90380019087E+03  0.50400001928E-02 0. -1.
    10030    2    1    2    0    0  0.00000000000E+00  0.00000000000E+00  0.12798353960E+04  0.30874357777E+04  0.28096763231E+04 0.  0.
        2    1    3    3  502    0 -0.43029636553E+02  0.11844106005E+04 -0.18889401927E+03  0.12001503951E+04  0.25500000920E-02 0. -1.
       -2    1    3    3    0  502  0.43029636553E+02 -0.11844106005E+04  0.14687294153E+04  0.18872853827E+04  0.25500000920E-02 0.  1.
</event>
<event>
 5   0  0.5546570E-06  0.2806620E+04  0.7818609E-02  0.8301216E-01
       -2   -1    0    0    0  501  0.00000000000E+00  0.00000000000E+00  0.10813517699E+04  0.10813517699E+04  0.25500000920E-02 0.  1.
        2   -1    0    0  501    0  0.00000000000E+00  0.00000000000E+00 -0.18211267209E+04  0.18211267209E+04  0.25500000920E-02 0. -1.
    10030    2    1    2    0    0  0.00000000000E+00  0.00000000000E+00 -0.73977495093E+03  0.29024784908E+04  0.28066197483E+04 0.  0.
        4    1    3    3  502    0  0.12087965418E+04 -0.69524881098E+03 -0.53247354157E+03  0.14926786908E+04  0.12699999809E+01 0.  1.
       -4    1    3    3    0  502 -0.12087965418E+04  0.69524881098E+03 -0.20730140936E+03  0.14097998000E+04  0.12699999809E+01 0. -1.
</event>
<event>
 5   0  0.5625245E-06  0.2683191E+04  0.7818609E-02  0.8340479E-01
       -2   -1    0    0    0  501  0.00000000000E+00  0.00000000000E+00  0.79439402527E+03  0.79439402527E+03  0.25500000920E-02 0. -1.
        2   -1    0    0  501    0  0.00000000000E+00  0.00000000000E+00 -0.22657256990E+04  0.22657256990E+04  0.25500000920E-02 0.  1.
    10030    2    1    2    0    0  0.00000000000E+00  0.00000000000E+00 -0.14713316738E+04  0.30601197243E+04  0.26831913523E+04 0.  0.
        3    1    3    3  502    0  0.62318891160E+03  0.30393501112E+03 -0.20455469927E+04  0.21598618983E+04  0.10100000352E+00 0.  1.
       -3    1    3    3    0  502 -0.62318891160E+03 -0.30393501112E+03  0.57421531891E+03  0.90025782596E+03  0.10100000352E+00 0. -1.
</event>
<event>
 5   0  0.5916603E-06  0.2813454E+04  0.7818609E-02  0.8299104E-01
       -2   -1    0    0    0  501  0.00000000000E+00  0.00000000000E+00  0.13450490285E+04  0.13450490285E+04  0.25500000920E-02 0. -1.
        2   -1    0    0  501    0  0.00000000000E+00  0.00000000000E+00 -0.14712327431E+04  0.14712327431E+04  0.25500000920E-02 0.  1.
    10030    2    1    2    0    0  0.00000000000E+00  0.00000000000E+00 -0.12618371460E+03  0.28162817716E+04  0.28134535161E+04 0.  0.
        2    1    3    3  502    0 -0.11903033179E+04 -0.88238924979E+01 -0.81349892277E+03  0.14417629303E+04  0.25500000920E-02 0.  1.
       -2    1    3    3    0  502  0.11903033179E+04  0.88238924979E+01  0.68731520817E+03  0.13745188413E+04  0.25500000920E-02 0. -1.
</event>
<event>
 5   0  0.5546570E-06  0.2795081E+04  0.7818609E-02  0.8304797E-01
       -2   -1    0    0    0  501  0.00000000000E+00  0.00000000000E+00  0.98924790943E+03  0.98924790944E+03  0.25500000920E-02 0.  1.
        2   -1    0    0  501    0  0.00000000000E+00  0.00000000000E+00 -0.19743483106E+04  0.19743483106E+04  0.25500000920E-02 0. -1.
    10030    2    1    2    0    0  0.00000000000E+00  0.00000000000E+00 -0.98510040116E+03  0.29635962200E+04  0.27950813503E+04 0.  0.
        4    1    3    3  502    0 -0.37118343442E+03  0.23755130122E+03 -0.18987481434E+04  0.19492187891E+04  0.12699999809E+01 0. -1.
       -4    1    3    3    0  502  0.37118343442E+03 -0.23755130122E+03  0.91364774222E+03  0.10143774310E+04  0.12699999809E+01 0.  1.
</event>
<event>
 5   0  0.2277133E-06  0.2833652E+04  0.7818609E-02  0.8292896E-01
        1   -1    0    0  501    0  0.00000000000E+00  0.00000000000E+00  0.20883753468E+04  0.20883753468E+04  0.50400001928E-02 0. -1.
       -1   -1    0    0    0  501  0.00000000000E+00  0.00000000000E+00 -0.96122395201E+03  0.96122395202E+03  0.50400001928E-02 0.  1.
    10030    2    1    2    0    0  0.00000000000E+00  0.00000000000E+00  0.11271513947E+04  0.30495992988E+04  0.28336523457E+04 0.  0.
        1    1    3    3  502    0 -0.84241003713E+03  0.39079863576E+02  0.17888537369E+04  0.19776702451E+04  0.50400001928E-02 0. -1.
       -1    1    3    3    0  502  0.84241003713E+03 -0.39079863576E+02 -0.66170234217E+03  0.10719290536E+04  0.50400001928E-02 0.  1.
</event>
<event>
 5   0  0.5916603E-06  0.2812180E+04  0.7818609E-02  0.8299497E-01
       -2   -1    0    0    0  501  0.00000000000E+00  0.00000000000E+00  0.13226273965E+04  0.13226273965E+04  0.25500000920E-02 0. -1.
        2   -1    0    0  501    0  0.00000000000E+00  0.00000000000E+00 -0.14948193620E+04  0.14948193620E+04  0.25500000920E-02 0.  1.
    10030    2    1    2    0    0  0.00000000000E+00  0.00000000000E+00 -0.17219196555E+03  0.28174467585E+04  0.28121799665E+04 0.  0.
        2    1    3    3  502    0  0.56973349839E+03  0.36572900372E+02 -0.13734753865E+04  0.14874032653E+04  0.25500000920E-02 0.  1.
       -2    1    3    3    0  502 -0.56973349839E+03 -0.36572900372E+02  0.12012834210E+04  0.13300434932E+04  0.25500000920E-02 0. -1.
</event>
<event>
 5   0  0.2206967E-06  0.2824091E+04  0.7818609E-02  0.8295828E-01
       -1   -1    0    0    0  501  0.00000000000E+00  0.00000000000E+00  0.15742960078E+04  0.15742960078E+04  0.50400001928E-02 0. -1.
        1   -1    0    0  501    0  0.00000000000E+00  0.00000000000E+00 -0.12665172410E+04  0.12665172410E+04  0.50400001928E-02 0.  1.
    10030    2    1    2    0    0  0.00000000000E+00  0.00000000000E+00  0.30777876681E+03  0.28408132489E+04  0.28240913841E+04 0.  0.
        5    1    3    3  502    0  0.71161574943E+03  0.77330294105E+03  0.11025837103E+04  0.15231898574E+04  0.46999998093E+01 0. -1.
       -5    1    3    3    0  502 -0.71161574943E+03 -0.77330294105E+03 -0.79480494352E+03  0.13176233915E+04  0.46999998093E+01 0.  1.
</event>
<event>
 5   0  0.2234068E-06  0.2800162E+04  0.7818609E-02  0.8303218E-01
       -1   -1    0    0    0  501  0.00000000000E+00  0.00000000000E+00  0.92231359825E+03  0.92231359826E+03  0.50400001928E-02 0. -1.
        1   -1    0    0  501    0  0.00000000000E+00  0.00000000000E+00 -0.21253367485E+04  0.21253367485E+04  0.50400001928E-02 0.  1.
    10030    2    1    2    0    0  0.00000000000E+00  0.00000000000E+00 -0.12030231503E+04  0.30476503468E+04  0.28001621268E+04 0.  0.
        3    1    3    3  502    0 -0.40548908530E+03  0.13336607010E+04 -0.74406368689E+03  0.15800958971E+04  0.10100000352E+00 0. -1.
       -3    1    3    3    0  502  0.40548908530E+03 -0.13336607010E+04 -0.45895946339E+03  0.14675544497E+04  0.10100000352E+00 0.  1.
</event>
<event>
 5   0  0.5866136E-06  0.2777091E+04  0.7818609E-02  0.8310416E-01
        2   -1    0    0  501    0  0.00000000000E+00  0.00000000000E+00  0.15501551341E+04  0.15501551341E+04  0.25500000920E-02 0.  1.
       -2   -1    0    0    0  501  0.00000000000E+00  0.00000000000E+00 -0.12437840155E+04  0.12437840155E+04  0.25500000920E-02 0. -1.
    10030    2    1    2    0    0  0.00000000000E+00  0.00000000000E+00  0.30637111867E+03  0.27939391496E+04  0.27770906916E+04 0.  0.
        5    1    3    3  502    0 -0.23812022100E+03 -0.48136493410E+03  0.14414316544E+04  0.15382329940E+04  0.46999998093E+01 0.  1.
       -5    1    3    3    0  502  0.23812022100E+03  0.48136493410E+03 -0.11350605358E+04  0.12557061556E+04  0.46999998093E+01 0. -1.
</event>
<event>
 5   0  0.2206967E-06  0.2797668E+04  0.7818609E-02  0.8303993E-01
        1   -1    0    0  501    0  0.00000000000E+00  0.00000000000E+00  0.18050724507E+04  0.18050724507E+04  0.50400001928E-02 0. -1.
       -1   -1    0    0    0  501  0.00000000000E+00  0.00000000000E+00 -0.10840212641E+04  0.10840212641E+04  0.50400001928E-02 0.  1.
    10030    2    1    2    0    0  0.00000000000E+00  0.00000000000E+00  0.72105118654E+03  0.28890937148E+04  0.27976682575E+04 0.  0.
        5    1    3    3  502    0  0.94530525381E+03 -0.84237356255E+03  0.97453094339E+03  0.15977884376E+04  0.46999998093E+01 0. -1.
       -5    1    3    3    0  502 -0.94530525381E+03  0.84237356255E+03 -0.25347975685E+03  0.12913052772E+04  0.46999998093E+01 0.  1.
</event>
<event>
 5   0  0.5625245E-06  0.2805186E+04  0.7818609E-02  0.8301660E-01
        2   -1    0    0  501    0  0.00000000000E+00  0.00000000000E+00  0.25128866243E+04  0.25128866243E+04  0.25500000920E-02 0.  1.
       -2   -1    0    0    0  501  0.00000000000E+00  0.00000000000E+00 -0.78287133406E+03  0.78287133407E+03  0.25500000920E-02 0. -1.
    10030    2    1    2    0    0  0.00000000000E+00  0.00000000000E+00  0.17300152902E+04  0.32957579584E+04  0.28051858434E+04 0.  0.
        3    1    3    3  502    0 -0.13476511076E+04 -0.27762351664E+03  0.54534392616E+03  0.14800805157E+04  0.10100000352E+00 0. -1.
       -3    1    3    3    0  502  0.13476511076E+04  0.27762351664E+03  0.11846713641E+04  0.18156774427E+04  0.10100000352E+00 0.  1.
</event>
<event>
 5   0  0.2277133E-06  0.2639191E+04  0.7818609E-02  0.8355010E-01
        1   -1    0    0  501    0  0.00000000000E+00  0.00000000000E+00  0.18117420936E+04  0.18117420936E+04  0.50400001928E-02 0.  1.
       -1   -1    0    0    0  501  0.00000000000E+00  0.00000000000E+00 -0.96113689891E+03  0.96113689892E+03  0.50400001928E-02 0. -1.
    10030    2    1    2    0    0  0.00000000000E+00  0.00000000000E+00  0.85060519469E+03  0.27728789925E+04  0.26391909196E+04 0.  0.
        1    1    3    3  502    0 -0.10620574608E+04 -0.73106806517E+03  0.13017212402E+03  0.12959056091E+04  0.50400001928E-02 0. -1.
       -1    1    3    3    0  502  0.10620574608E+04  0.73106806517E+03  0.72043307068E+03  0.14769733834E+04  0.50400001928E-02 0.  1.
</event>
<event>
 5   0  0.2206967E-06  0.2793164E+04  0.7818609E-02  0.8305394E-01
       -1   -1    0    0    0  501  0.00000000000E+00  0.00000000000E+00  0.11821010711E+04  0.11821010711E+04  0.50400001928E-02 0. -1.
        1   -1    0    0  501    0  0.00000000000E+00  0.00000000000E+00 -0.16499786700E+04  0.16499786700E+04  0.50400001928E-02 0.  1.
    10030    2    1    2    0    0  0.00000000000E+00  0.00000000000E+00 -0.46787759892E+03  0.28320797412E+04  0.27931641936E+04 0.  0.
        5    1    3    3  502    0 -0.88439013208E+03 -0.87532447288E+03 -0.87687160222E+03  0.15222564617E+04  0.46999998093E+01 0.  1.
       -5    1    3    3    0  502  0.88439013208E+03  0.87532447288E+03  0.40899400330E+03  0.13098232794E+04  0.46999998093E+01 0. -1.
</event>
<event>
 5   0  0.5625245E-06  0.2797157E+04  0.7818609E-02  0.8304151E-01
        2   -1    0    0  501    0  0.00000000000E+00  0.00000000000E+00  0.13773101301E+04  0.13773101301E+04  0.25500000920E-02 0.  1.
       -2   -1    0    0    0  501  0.00000000000E+00  0.00000000000E+00 -0.14201756052E+04  0.14201756052E+04  0.25500000920E-02 0. -1.
    10030    2    1    2    0    0  0.00000000000E+00  0.00000000000E+00 -0.42865475089E+02  0.27974857353E+04  0.27971573053E+04 0.  0.
        3    1    3    3  502    0  0.89721687159E+03  0.83035954529E+03 -0.70087039890E+03  0.14091537941E+04  0.10100000352E+00 0. -1.
       -3    1    3    3    0  502 -0.89721687159E+03 -0.83035954529E+03  0.65800492381E+03  0.13883319412E+04  0.10100000352E+00 0.  1.
</event>
<event>
 5   0  0.5866136E-06  0.2801863E+04  0.7818609E-02  0.8302690E-01
        2   -1    0    0  501    0  0.00000000000E+00  0.00000000000E+00  0.24273517107E+04  0.24273517107E+04  0.25500000920E-02 0. -1.
       -2   -1    0    0    0  501  0.00000000000E+00  0.00000000000E+00 -0.80853923571E+03  0.80853923572E+03  0.25500000920E-02 0.  1.
    10030    2    1    2    0    0  0.00000000000E+00  0.00000000000E+00  0.16188124750E+04  0.32358909464E+04  0.28018630209E+04 0.  0.
        5    1    3    3  502    0 -0.11105268329E+04 -0.62760479245E+03  0.14052728499E+03  0.12833267822E+04  0.46999998093E+01 0.  1.
       -5    1    3    3    0  502  0.11105268329E+04  0.62760479245E+03  0.14782851900E+04  0.19525641641E+04  0.46999998093E+01 0. -1.
</event>
<event>
 5   0  0.5866136E-06  0.2798011E+04  0.7818609E-02  0.8303886E-01
        2   -1    0    0  501    0  0.00000000000E+00  0.00000000000E+00  0.28552635359E+04  0.28552635359E+04  0.25500000920E-02 0. -1.
       -2   -1    0    0    0  501  0.00000000000E+00  0.00000000000E+00 -0.68547654402E+03  0.68547654403E+03  0.25500000920E-02 0.  1.
    10030    2    1    2    0    0  0.00000000000E+00  0.00000000000E+00  0.21697869919E+04  0.35407400799E+04  0.27980108512E+04 0.  0.
        5    1    3    3  502    0  0.57157511157E+03  0.73773299914E+03 -0.23399703029E+03  0.96214592780E+03  0.46999998093E+01 0.  1.
       -5    1    3    3    0  502 -0.57157511157E+03 -0.73773299914E+03  0.24037840222E+04  0.25785941521E+04  0.46999998093E+01 0. -1.
</event>
<event>
 5   0  0.2267565E-06  0.2793600E+04  0.7818609E-02  0.8305258E-01
       -1   -1    0    0    0  501  0.00000000000E+00  0.00000000000E+00  0.11572647592E+04  0.11572647592E+04  0.50400001928E-02 0.  1.
        1   -1    0    0  501    0  0.00000000000E+00  0.00000000000E+00 -0.16859148896E+04  0.16859148896E+04  0.50400001928E-02 0. -1.
    10030    2    1    2    0    0  0.00000000000E+00  0.00000000000E+00 -0.52865013034E+03  0.28431796488E+04  0.27935997485E+04 0.  0.
        4    1    3    3  502    0 -0.11389991254E+03 -0.14516047625E+03  0.11448066002E+04  0.11595811825E+04  0.12699999809E+01 0.  1.
       -4    1    3    3    0  502  0.11389991254E+03  0.14516047625E+03 -0.16734567305E+04  0.16835984663E+04  0.12699999809E+01 0. -1.
</event>
<event>
 5   0  0.1901375E-06  0.2806225E+04  0.7818609E-02  0.8301338E-01
       -3   -1    0    0    0  501  0.00000000000E+00  0.00000000000E+00  0.22459524790E+04  0.22459524812E+04  0.10100000352E+00 0. -1.
        3   -1    0    0  501    0  0.00000000000E+00  0.00000000000E+00 -0.87656553382E+03  0.87656553964E+03  0.10100000352E+00 0.  1.
    10030    2    1    2    0    0  0.00000000000E+00  0.00000000000E+00  0.13693869451E+04  0.31225180209E+04  0.28062248993E+04 0.  0.
        3    1    3    3  502    0 -0.10421187970E+04 -0.55470168026E+03  0.15284624919E+04  0.19312957155E+04  0.10100000352E+00 0. -1.
       -3    1    3    3    0  502  0.10421187970E+04  0.55470168026E+03 -0.15907554678E+03  0.11912223054E+04  0.10100000352E+00 0.  1.
</event>
<event>
 5   0  0.2267565E-06  0.2815897E+04  0.7818609E-02  0.8298350E-01
       -1   -1    0    0    0  501  0.00000000000E+00  0.00000000000E+00  0.12221022965E+04  0.12221022965E+04  0.50400001928E-02 0.  1.
        1   -1    0    0  501    0  0.00000000000E+00  0.00000000000E+00 -0.16220568216E+04  0.16220568216E+04  0.50400001928E-02 0. -1.
    10030    2    1    2    0    0  0.00000000000E+00  0.00000000000E+00 -0.39995452514E+03  0.28441591181E+04  0.28158972757E+04 0.  0.
        4    1    3    3  502    0  0.29264377400E+03  0.12263191285E+04 -0.83302024375E+03  0.15111000373E+04  0.12699999809E+01 0. -1.
       -4    1    3    3    0  502 -0.29264377400E+03 -0.12263191285E+04  0.43306571861E+03  0.13330590808E+04  0.12699999809E+01 0.  1.
</event>
<event>
 5   0  0.2234068E-06  0.2802141E+04  0.7818609E-02  0.8302604E-01
       -1   -1    0    0    0  501  0.00000000000E+00  0.00000000000E+00  0.20507718784E+04  0.20507718784E+04  0.50400001928E-02 0. -1.
        1   -1    0    0  501    0  0.00000000000E+00  0.00000000000E+00 -0.95719968869E+03  0.95719968870E+03  0.50400001928E-02 0.  1.
    10030    2    1    2    0    0  0.00000000000E+00  0.00000000000E+00  0.10935721897E+04  0.30079715671E+04  0.28021407556E+04 0.  0.
        3    1    3    3  502    0  0.24132798260E+03 -0.98966680287E+03  0.15793796977E+04  0.18793934702E+04  0.10100000352E+00 0. -1.
       -3    1    3    3    0  502 -0.24132798260E+03  0.98966680287E+03 -0.48580750800E+03  0.11285780970E+04  0.10100000352E+00 0.  1.
</event>
<event>
 5   0  0.2277133E-06  0.2795358E+04  0.7818609E-02  0.8304711E-01
        1   -1    0    0  501    0  0.00000000000E+00  0.00000000000E+00  0.14935543689E+04  0.14935543689E+04  0.50400001928E-02 0.  1.
       -1   -1    0    0    0  501  0.00000000000E+00  0.00000000000E+00 -0.13079581372E+04  0.13079581372E+04  0.50400001928E-02 0. -1.
    10030    2    1    2    0    0  0.00000000000E+00  0.00000000000E+00  0.18559623177E+03  0.28015125061E+04  0.27953580022E+04 0.  0.
        1    1    3    3  502    0 -0.97930039762E+03  0.19550782480E+03  0.10728335191E+04  0.14656822091E+04  0.50400001928E-02 0.  1.
       -1    1    3    3    0  502  0.97930039762E+03 -0.19550782480E+03 -0.88723728732E+03  0.13358302970E+04  0.50400001928E-02 0. -1.
</event>
<event>
 5   0  0.5625245E-06  0.2726772E+04  0.7818609E-02  0.8326370E-01
        2   -1    0    0  501    0  0.00000000000E+00  0.00000000000E+00  0.19448929141E+04  0.19448929141E+04  0.25500000920E-02 0.  1.
       -2   -1    0    0    0  501  0.00000000000E+00  0.00000000000E+00 -0.95574479040E+03  0.95574479040E+03  0.25500000920E-02 0. -1.
    10030    2    1    2    0    0  0.00000000000E+00  0.00000000000E+00  0.98914812367E+03  0.29006377045E+04  0.27267719160E+04 0.  0.
        3    1    3    3  502    0 -0.83012429243E+03 -0.10681880536E+04  0.67475295177E+03  0.15117617586E+04  0.10100000352E+00 0.  1.
       -3    1    3    3    0  502  0.83012429243E+03  0.10681880536E+04  0.31439517189E+03  0.13888759459E+04  0.10100000352E+00 0. -1.
</event>
<event>
 5   0  0.5866136E-06  0.2815230E+04  0.7818609E-02  0.8298555E-01
       -2   -1    0    0    0  501  0.00000000000E+00  0.00000000000E+00  0.11699846306E+04  0.11699846306E+04  0.25500000920E-02 0.  1.
        2   -1    0    0  501    0  0.00000000000E+00  0.00000000000E+00 -0.16935099692E+04  0.16935099692E+04  0.25500000920E-02 0. -1.
    10030    2    1    2    0    0  0.00000000000E+00  0.00000000000E+00 -0.52352533856E+03  0.28634945998E+04  0.28152304600E+04 0.  0.
        5    1    3    3  502    0  0.68352093059E+03  0.10758229423E+04  0.34577348032E+03  0.13206730313E+04  0.46999998093E+01 0.  1.
       -5    1    3    3    0  502 -0.68352093059E+03 -0.10758229423E+04 -0.86929881888E+03  0.15428215685E+04  0.46999998093E+01 0. -1.
</event>
<event>
 5   0  0.5866136E-06  0.2777093E+04  0.7818609E-02  0.8310415E-01
        2   -1    0    0  501    0  0.00000000000E+00  0.00000000000E+00  0.27085325139E+04  0.27085325139E+04  0.25500000920E-02 0. -1.
       -2   -1    0    0    0  501  0.00000000000E+00  0.00000000000E+00 -0.71184742236E+03  0.71184742237E+03  0.25500000920E-02 0.  1.
    10030    2    1    2    0    0  0.00000000000E+00  0.00000000000E+00  0.19966850916E+04  0.34203799363E+04  0.27770933643E+04 0.  0.
        5    1    3    3  502    0 -0.87964006230E+03  0.42622227685E+03 -0.21631185488E+03  0.10011218592E+04  0.46999998093E+01 0.  1.
       -5    1    3    3    0  502  0.87964006230E+03 -0.42622227685E+03  0.22129969465E+04  0.24192580771E+04  0.46999998093E+01 0. -1.
</event>
<event>
 5   0  0.2277133E-06  0.2836847E+04  0.7818609E-02  0.8291919E-01
       -1   -1    0    0    0  501  0.00000000000E+00  0.00000000000E+00  0.10945886531E+04  0.10945886531E+04  0.50400001928E-02 0.  1.
        1   -1    0    0  501    0  0.00000000000E+00  0.00000000000E+00 -0.18380648718E+04  0.18380648718E+04  0.50400001928E-02 0. -1.
    10030    2    1    2    0    0  0.00000000000E+00  0.00000000000E+00 -0.74347621869E+03  0.29326535248E+04  0.28368468075E+04 0.  0.
        1    1    3    3  502    0  0.66095252532E+03  0.42721728909E+03  0.84817977671E+03  0.11570573825E+04  0.50400001928E-02 0.  1.
       -1    1    3    3    0  502 -0.66095252532E+03 -0.42721728909E+03 -0.15916559954E+04  0.17755961423E+04  0.50400001928E-02 0. -1.
</event>
<event>
 5   0  0.5584205E-06  0.2719644E+04  0.7818609E-02  0.8328659E-01
       -2   -1    0    0    0  501  0.00000000000E+00  0.00000000000E+00  0.16003371431E+04  0.16003371431E+04  0.25500000920E-02 0. -1.
        2   -1    0    0  501    0  0.00000000000E+00  0.00000000000E+00 -0.11554542226E+04  0.11554542226E+04  0.25500000920E-02 0.  1.
    10030    2    1    2    0    0  0.00000000000E+00  0.00000000000E+00  0.44488292054E+03  0.27557913657E+04  0.27196443220E+04 0.  0.
        1    1    3    3  502    0 -0.57906561652E+03 -0.61636558450E+03 -0.85655550014E+03  0.12037071267E+04  0.50400001928E-02 0.  1.
       -1    1    3    3    0  502  0.57906561652E+03  0.61636558450E+03  0.13014384207E+04  0.15520842390E+04  0.50400001928E-02 0. -1.
</event>
<event>
 5   0  0.5584205E-06  0.2809099E+04  0.7818609E-02  0.8300449E-01
        2   -1    0    0  501    0  0.00000000000E+00  0.00000000000E+00  0.17431314215E+04  0.17431314215E+04  0.25500000920E-02 0.  1.
       -2   -1    0    0    0  501  0.00000000000E+00  0.00000000000E+00 -0.11317326471E+04  0.11317326471E+04  0.25500000920E-02 0. -1.
    10030    2    1    2    0    0  0.00000000000E+00  0.00000000000E+00  0.61139877436E+03  0.28748640686E+04  0.28090986013E+04 0.  0.
        1    1    3    3  502    0  0.50687465654E+03  0.10193431317E+04 -0.53622469949E+03  0.12583796191E+04  0.50400001928E-02 0. -1.
       -1    1    3    3    0  502 -0.50687465654E+03 -0.10193431317E+04  0.11476234738E+04  0.16164844494E+04  0.50400001928E-02 0.  1.
</event>
<event>
 5   0  0.2234068E-06  0.2799763E+04  0.7818609E-02  0.8303342E-01
        1   -1    0    0  501    0  0.00000000000E+00  0.00000000000E+00  0.18585179787E+04  0.18585179787E+04  0.50400001928E-02 0. -1.
       -1   -1    0    0    0  501  0.00000000000E+00  0.00000000000E+00 -0.10544253813E+04  0.10544253813E+04  0.50400001928E-02 0.  1.
    10030    2    1    2    0    0  0.00000000000E+00  0.00000000000E+00  0.80409259734E+03  0.29129433600E+04  0.27997632246E+04 0.  0.
        3    1    3    3  502    0  0.12981217081E+04 -0.21883837131E+03  0.89737850303E+03  0.15932038130E+04  0.10100000352E+00 0. -1.
       -3    1    3    3    0  502 -0.12981217081E+04  0.21883837131E+03 -0.93285905688E+02  0.13197395471E+04  0.10100000352E+00 0.  1.
</event>
<event>
 5   0  0.5546570E-06  0.2796929E+04  0.7818609E-02  0.8304222E-01
        2   -1    0    0  501    0  0.00000000000E+00  0.00000000000E+00  0.22625915362E+04  0.22625915362E+04  0.25500000920E-02 0. -1.
       -2   -1    0    0    0  501  0.00000000000E+00  0.00000000000E+00 -0.86436435848E+03  0.86436435848E+03  0.25500000920E-02 0.  1.
    10030    2    1    2    0    0  0.00000000000E+00  0.00000000000E+00  0.13982271777E+04  0.31269558946E+04  0.27969293746E+04 0.  0.
        4    1    3    3  502    0 -0.45361145508E+03 -0.43151554991E+03  0.20971598258E+04  0.21886182787E+04  0.12699999809E+01 0. -1.
       -4    1    3    3    0  502  0.45361145508E+03  0.43151554991E+03 -0.69893264812E+03  0.93833761595E+03  0.12699999809E+01 0.  1.
</event>
<event>
 5   0  0.2190865E-06  0.3022499E+04  0.7818609E-02  0.8237335E-01
        1   -1    0    0  501    0  0.00000000000E+00  0.00000000000E+00  0.10631192188E+04  0.10631192188E+04  0.50400001928E-02 0. -1.
       -1   -1    0    0    0  501  0.00000000000E+00  0.00000000000E+00 -0.21482772667E+04  0.21482772667E+04  0.50400001928E-02 0.  1.
    10030    2    1    2    0    0  0.00000000000E+00  0.00000000000E+00 -0.10851580479E+04  0.32113964855E+04  0.30224988666E+04 0.  0.
        2    1    3    3  502    0  0.14778585014E+03  0.15012189596E+04 -0.44533976421E+03  0.15728402740E+04  0.25500000920E-02 0. -1.
       -2    1    3    3    0  502 -0.14778585014E+03 -0.15012189596E+04 -0.63981828371E+03  0.16385562115E+04  0.25500000920E-02 0.  1.
</event>
<event>
 5   0  0.5916603E-06  0.2805172E+04  0.7818609E-02  0.8301664E-01
       -2   -1    0    0    0  501  0.00000000000E+00  0.00000000000E+00  0.17786897094E+04  0.17786897094E+04  0.25500000920E-02 0. -1.
        2   -1    0    0  501    0  0.00000000000E+00  0.00000000000E+00 -0.11060095261E+04  0.11060095261E+04  0.25500000920E-02 0.  1.
    10030    2    1    2    0    0  0.00000000000E+00  0.00000000000E+00  0.67268018332E+03  0.28846992355E+04  0.28051721962E+04 0.  0.
        2    1    3    3  502    0  0.12337437266E+04 -0.12324982121E+03  0.10106223587E+04  0.15995848378E+04  0.25500000920E-02 0. -1.
       -2    1    3    3    0  502 -0.12337437266E+04  0.12324982121E+03 -0.33794217543E+03  0.12851143977E+04  0.25500000920E-02 0.  1.
</event>
<event>
 5   0  0.2277133E-06  0.2798164E+04  0.7818609E-02  0.8303839E-01
        1   -1    0    0  501    0  0.00000000000E+00  0.00000000000E+00  0.13463335106E+04  0.13463335106E+04  0.50400001928E-02 0.  1.
       -1   -1    0    0    0  501  0.00000000000E+00  0.00000000000E+00 -0.14538969979E+04  0.14538969979E+04  0.50400001928E-02 0. -1.
    10030    2    1    2    0    0  0.00000000000E+00  0.00000000000E+00 -0.10756348723E+03  0.28002305085E+04  0.27981638617E+04 0.  0.
        1    1    3    3  502    0 -0.67770912807E+03 -0.11153138554E+04 -0.55835209826E+03  0.14194969968E+04  0.50400001928E-02 0. -1.
       -1    1    3    3    0  502  0.67770912807E+03  0.11153138554E+04  0.45078861104E+03  0.13807335117E+04  0.50400001928E-02 0.  1.
</event>
<event>
 5   0  0.5916603E-06  0.3045568E+04  0.7818609E-02  0.8230837E-01
       -2   -1    0    0    0  501  0.00000000000E+00  0.00000000000E+00  0.72681324706E+03  0.72681324707E+03  0.25500000920E-02 0.  1.
        2   -1    0    0  501    0  0.00000000000E+00  0.00000000000E+00 -0.31904627929E+04  0.31904627929E+04  0.25500000920E-02 0. -1.
    10030    2    1    2    0    0  0.00000000000E+00  0.00000000000E+00 -0.24636495458E+04  0.39172760399E+04  0.30455676792E+04 0.  0.
        2    1    3    3  502    0  0.14521560775E+04  0.44041360522E+02 -0.64497240750E+03  0.15895553848E+04  0.25500000920E-02 0.  1.
       -2    1    3    3    0  502 -0.14521560775E+04 -0.44041360522E+02 -0.18186771383E+04  0.23277206551E+04  0.25500000920E-02 0. -1.
</event>
<event>
 5   0  0.5866136E-06  0.2793826E+04  0.7818609E-02  0.8305188E-01
       -2   -1    0    0    0  501  0.00000000000E+00  0.00000000000E+00  0.16997440991E+04  0.16997440991E+04  0.25500000920E-02 0. -1.
        2   -1    0    0  501    0  0.00000000000E+00  0.00000000000E+00 -0.11480350897E+04  0.11480350897E+04  0.25500000920E-02 0.  1.
    10030    2    1    2    0    0  0.00000000000E+00  0.00000000000E+00  0.55170900940E+03  0.28477791888E+04  0.27938259568E+04 0.  0.
        5    1    3    3  502    0  0.10440598802E+04  0.89271398146E+03  0.17293720661E+02  0.13737978195E+04  0.46999998093E+01 0.  1.
       -5    1    3    3    0  502 -0.10440598802E+04 -0.89271398146E+03  0.53441528874E+03  0.14739813693E+04  0.46999998093E+01 0. -1.
</event>
<event>
 5   0  0.5866136E-06  0.2776097E+04  0.7818609E-02  0.8310728E-01
       -2   -1    0    0    0  501  0.00000000000E+00  0.00000000000E+00  0.29880287148E+04  0.29880287148E+04  0.25500000920E-02 0. -1.
        2   -1    0    0  501    0  0.00000000000E+00  0.00000000000E+00 -0.64479918772E+03  0.64479918773E+03  0.25500000920E-02 0.  1.
    10030    2    1    2    0    0  0.00000000000E+00  0.00000000000E+00  0.23432295271E+04  0.36328279025E+04  0.27760968918E+04 0.  0.
        5    1    3    3  502    0 -0.40669215678E+03  0.54780752587E+03  0.27534447559E+04  0.28367184755E+04  0.46999998093E+01 0. -1.
       -5    1    3    3    0  502  0.40669215678E+03 -0.54780752587E+03 -0.41021522881E+03  0.79610942698E+03  0.46999998093E+01 0.  1.
</event>
<event>
 5   0  0.5866136E-06  0.2758951E+04  0.7818609E-02  0.8316127E-01
        2   -1    0    0  501    0  0.00000000000E+00  0.00000000000E+00  0.19029624431E+04  0.19029624431E+04  0.25500000920E-02 0.  1.
       -2   -1    0    0    0  501  0.00000000000E+00  0.00000000000E+00 -0.99999451547E+03  0.99999451547E+03  0.25500000920E-02 0. -1.
    10030    2    1    2    0    0  0.00000000000E+00  0.00000000000E+00  0.90296792763E+03  0.29029569586E+04  0.27589505296E+04 0.  0.
        5    1    3    3  502    0 -0.13095824797E+03  0.30666880986E+03 -0.95694018338E+03  0.10133866124E+04  0.46999998093E+01 0. -1.
       -5    1    3    3    0  502  0.13095824797E+03 -0.30666880986E+03  0.18599081110E+04  0.18895703462E+04  0.46999998093E+01 0.  1.
</event>
<event>
 5   0  0.2234068E-06  0.2762964E+04  0.7818609E-02  0.8314860E-01
       -1   -1    0    0    0  501  0.00000000000E+00  0.00000000000E+00  0.59963414914E+03  0.59963414916E+03  0.50400001928E-02 0.  1.
        1   -1    0    0  501    0  0.00000000000E+00  0.00000000000E+00 -0.31827621072E+04  0.31827621072E+04  0.50400001928E-02 0. -1.
    10030    2    1    2    0    0  0.00000000000E+00  0.00000000000E+00 -0.25831279581E+04  0.37823962564E+04  0.27629642402E+04 0.  0.
        3    1    3    3  502    0  0.37085801165E+03 -0.20695708628E+03  0.50805040291E+03  0.66217982638E+03  0.10100000352E+00 0.  1.
       -3    1    3    3    0  502 -0.37085801165E+03  0.20695708628E+03 -0.30911783610E+04  0.31202164300E+04  0.10100000352E+00 0. -1.
</event>
<event>
 5   0  0.2234068E-06  0.2822998E+04  0.7818609E-02  0.8296164E-01
       -1   -1    0    0    0  501  0.00000000000E+00  0.00000000000E+00  0.10142844344E+04  0.10142844344E+04  0.50400001928E-02 0.  1.
        1   -1    0    0  501    0  0.00000000000E+00  0.00000000000E+00 -0.19642710600E+04  0.19642710600E+04  0.50400001928E-02 0. -1.
    10030    2    1    2    0    0  0.00000000000E+00  0.00000000000E+00 -0.94998662564E+03  0.29785554944E+04  0.28229980950E+04 0.  0.
        3    1    3    3  502    0 -0.11711438745E+04  0.65171918363E+03 -0.94212389854E+03  0.16382653386E+04  0.10100000352E+00 0. -1.
       -3    1    3    3    0  502  0.11711438745E+04 -0.65171918363E+03 -0.78627271068E+01  0.13402901558E+04  0.10100000352E+00 0.  1.
</event>
<event>
 5   0  0.2206967E-06  0.2838968E+04  0.7818609E-02  0.8291271E-01
        1   -1    0    0  501    0  0.00000000000E+00  0.00000000000E+00  0.20458949592E+04  0.20458949592E+04  0.50400001928E-02 0.  1.
       -1   -1    0    0    0  501  0.00000000000E+00  0.00000000000E+00 -0.98486738892E+03  0.98486738893E+03  0.50400001928E-02 0. -1.
    10030    2    1    2    0    0  0.00000000000E+00  0.00000000000E+00  0.10610275703E+04  0.30307623481E+04  0.28389682820E+04 0.  0.
        5    1    3    3  502    0 -0.13097838384E+04 -0.33192572317E+02  0.11135583156E+04  0.17194969214E+04  0.46999998093E+01 0.  1.
       -5    1    3    3    0  502  0.13097838384E+04  0.33192572317E+02 -0.52530745373E+02  0.13112654268E+04  0.46999998093E+01 0. -1.
</event>
<event>
 5   0  0.5584205E-06  0.2789706E+04  0.7818609E-02  0.8306471E-01
        2   -1    0    0  501    0  0.00000000000E+00  0.00000000000E+00  0.11792981931E+04  0.11792981931E+04  0.25500000920E-02 0.  1.
       -2   -1    0    0    0  501  0.00000000000E+00  0.00000000000E+00 -0.16498069970E+04  0.16498069970E+04  0.25500000920E-02 0. -1.
    10030    2    1    2    0    0  0.00000000000E+00  0.00000000000E+00 -0.47050880386E+03  0.28291051901E+04  0.27897056551E+04 0.  0.
        1    1    3    3  502    0 -0.11325342655E+04  0.81244713164E+03 -0.28996262442E+03  0.14236511257E+04  0.50400001928E-02 0. -1.
       -1    1    3    3    0  502  0.11325342655E+04 -0.81244713164E+03 -0.18054617945E+03  0.14054540644E+04  0.50400001928E-02 0.  1.
</event>
<event>
 5   0  0.2206967E-06  0.2792362E+04  0.7818609E-02  0.8305644E-01
       -1   -1    0    0    0  501  0.00000000000E+00  0.00000000000E+00  0.15852751102E+04  0.15852751103E+04  0.50400001928E-02 0.  1.
        1   -1    0    0  501    0  0.00000000000E+00  0.00000000000E+00 -0.12296422733E+04  0.12296422733E+04  0.50400001928E-02 0. -1.
    10030    2    1    2    0    0  0.00000000000E+00  0.00000000000E+00  0.35563283698E+03  0.28149173835E+04  0.27923619324E+04 0.  0.
        5    1    3    3  502    0 -0.61853964812E+03 -0.10537507340E+04 -0.50315268660E+03  0.13214259804E+04  0.46999998093E+01 0. -1.
       -5    1    3    3    0  502  0.61853964812E+03  0.10537507340E+04  0.85878552358E+03  0.14934914031E+04  0.46999998093E+01 0.  1.
</event>
<event>
 5   0  0.5584205E-06  0.2781056E+04  0.7818609E-02  0.8309174E-01
       -2   -1    0    0    0  501  0.00000000000E+00  0.00000000000E+00  0.88588706603E+03  0.88588706603E+03  0.25500000920E-02 0. -1.
        2   -1    0    0  501    0  0.00000000000E+00  0.00000000000E+00 -0.21826346210E+04  0.21826346210E+04  0.25500000920E-02 0.  1.
    10030    2    1    2    0    0  0.00000000000E+00  0.00000000000E+00 -0.12967475549E+04  0.30685216870E+04  0.27810557568E+04 0.  0.
        1    1    3    3  502    0  0.26304786128E+03  0.76128495998E+03  0.60228963389E+03  0.10057344434E+04  0.50400001928E-02 0. -1.
       -1    1    3    3    0  502 -0.26304786128E+03 -0.76128495998E+03 -0.18990371888E+04  0.20627872436E+04  0.50400001928E-02 0.  1.
</event>
<event>
 5   0  0.5625245E-06  0.2821452E+04  0.7818609E-02  0.8296639E-01
        2   -1    0    0  501    0  0.00000000000E+00  0.00000000000E+00  0.15436931620E+04  0.15436931620E+04  0.25500000920E-02 0.  1.
       -2   -1    0    0    0  501  0.00000000000E+00  0.00000000000E+00 -0.12892120931E+04  0.12892120931E+04  0.25500000920E-02 0. -1.
    10030    2    1    2    0    0  0.00000000000E+00  0.00000000000E+00  0.25448106892E+03  0.28329052551E+04  0.28214520322E+04 0.  0.
        3    1    3    3  502    0  0.86419470888E+03 -0.18945993104E+03 -0.97604676656E+03  0.13173438659E+04  0.10100000352E+00 0. -1.
       -3    1    3    3    0  502 -0.86419470888E+03  0.18945993104E+03  0.12305278355E+04  0.15155613892E+04  0.10100000352E+00 0.  1.
</event>
<event>
 5   0  0.5916603E-06  0.2740273E+04  0.7818609E-02  0.8322055E-01
        2   -1    0    0  501    0  0.00000000000E+00  0.00000000000E+00  0.17356588228E+04  0.17356588228E+04  0.25500000920E-02 0. -1.
       -2   -1    0    0    0  501  0.00000000000E+00  0.00000000000E+00 -0.10815917757E+04  0.10815917757E+04  0.25500000920E-02 0.  1.
    10030    2    1    2    0    0  0.00000000000E+00  0.00000000000E+00  0.65406704704E+03  0.28172505985E+04  0.27402732040E+04 0.  0.
        2    1    3    3  502    0 -0.72727018636E+03  0.76753370779E+03 -0.56878989627E+03  0.12006464353E+04  0.25500000920E-02 0.  1.
       -2    1    3    3    0  502  0.72727018636E+03 -0.76753370779E+03  0.12228569433E+04  0.16166041632E+04  0.25500000920E-02 0. -1.
</event>
<event>
 5   0  0.2190865E-06  0.2794909E+04  0.7818609E-02  0.8304851E-01
       -1   -1    0    0    0  501  0.00000000000E+00  0.00000000000E+00  0.69886122450E+03  0.69886122451E+03  0.50400001928E-02 0. -1.
        1   -1    0    0  501    0  0.00000000000E+00  0.00000000000E+00 -0.27943735096E+04  0.27943735096E+04  0.50400001928E-02 0.  1.
    10030    2    1    2    0    0  0.00000000000E+00  0.00000000000E+00 -0.20955122851E+04  0.34932347341E+04  0.27949091525E+04 0.  0.
        2    1    3    3  502    0 -0.45162391009E+03 -0.12648879171E+04 -0.15301645487E+04  0.20360032282E+04  0.25500000920E-02 0.  1.
       -2    1    3    3    0  502  0.45162391009E+03  0.12648879171E+04 -0.56534773638E+03  0.14572315060E+04  0.25500000920E-02 0. -1.
</event>
<event>
 5   0  0.5866136E-06  0.2793724E+04  0.7818609E-02  0.8305219E-01
        2   -1    0    0  501    0  0.00000000000E+00  0.00000000000E+00  0.20464516861E+04  0.20464516861E+04  0.25500000920E-02 0.  1.
       -2   -1    0    0    0  501  0.00000000000E+00  0.00000000000E+00 -0.95346657829E+03  0.95346657829E+03  0.25500000920E-02 0. -1.
    10030    2    1    2    0    0  0.00000000000E+00  0.00000000000E+00  0.10929851078E+04  0.29999182644E+04  0.27937238852E+04 0.  0.
        5    1    3    3  502    0 -0.44904398025E+03  0.81129449651E+03  0.16682794005E+04  0.19086690401E+04  0.46999998093E+01 0.  1.
       -5    1    3    3    0  502  0.44904398025E+03 -0.81129449651E+03 -0.57529429275E+03  0.10912492243E+04  0.46999998093E+01 0. -1.
</event>
<event>
 5   0  0.5866136E-06  0.2797460E+04  0.7818609E-02  0.8304057E-01
       -2   -1    0    0    0  501  0.00000000000E+00  0.00000000000E+00  0.19796417272E+04  0.19796417272E+04  0.25500000920E-02 0. -1.
        2   -1    0    0  501    0  0.00000000000E+00  0.00000000000E+00 -0.98828252175E+03  0.98828252175E+03  0.25500000920E-02 0.  1.
    10030    2    1    2    0    0  0.00000000000E+00  0.00000000000E+00  0.99135920549E+03  0.29679242490E+04  0.27974597894E+04 0.  0.
        5    1    3    3  502    0 -0.80565360272E+03  0.11289847115E+04  0.30371471021E+03  0.14198411607E+04  0.46999998093E+01 0. -1.
       -5    1    3    3    0  502  0.80565360272E+03 -0.11289847115E+04  0.68764449528E+03  0.15480830883E+04  0.46999998093E+01 0.  1.
</event>
<event>
 5   0  0.5584205E-06  0.2810382E+04  0.7818609E-02  0.8300052E-01
       -2   -1    0    0    0  501  0.00000000000E+00  0.00000000000E+00  0.76118048443E+03  0.76118048443E+03  0.25500000920E-02 0. -1.
        2   -1    0    0  501    0  0.00000000000E+00  0.00000000000E+00 -0.25940783444E+04  0.25940783444E+04  0.25500000920E-02 0.  1.
    10030    2    1    2    0    0  0.00000000000E+00  0.00000000000E+00 -0.18328978599E+04  0.33552588288E+04  0.28103820458E+04 0.  0.
        1    1    3    3  502    0  0.13733816714E+04  0.28779156926E+03 -0.82742191464E+03  0.16289960796E+04  0.50400001928E-02 0. -1.
       -1    1    3    3    0  502 -0.13733816714E+04 -0.28779156926E+03 -0.10054759453E+04  0.17262627492E+04  0.50400001928E-02 0.  1.
</event>
<event>
 5   0  0.5546570E-06  0.2821425E+04  0.7818609E-02  0.8296647E-01
        2   -1    0    0  501    0  0.00000000000E+00  0.00000000000E+00  0.21585166573E+04  0.21585166573E+04  0.25500000920E-02 0. -1.
       -2   -1    0    0    0  501  0.00000000000E+00  0.00000000000E+00 -0.92198023534E+03  0.92198023534E+03  0.25500000920E-02 0.  1.
    10030    2    1    2    0    0  0.00000000000E+00  0.00000000000E+00  0.12365364220E+04  0.30804968926E+04  0.28214249561E+04 0.  0.
        4    1    3    3  502    0 -0.11161726514E+03  0.36880867659E+03 -0.86340845644E+03  0.94549142215E+03  0.12699999809E+01 0.  1.
       -4    1    3    3    0  502  0.11161726514E+03 -0.36880867659E+03  0.20999448784E+04  0.21350054705E+04  0.12699999809E+01 0. -1.
</event>
<event>
 5   0  0.2190865E-06  0.2809908E+04  0.7818609E-02  0.8300199E-01
        1   -1    0    0  501    0  0.00000000000E+00  0.00000000000E+00  0.14617974222E+04  0.14617974222E+04  0.50400001928E-02 0.  1.
       -1   -1    0    0    0  501  0.00000000000E+00  0.00000000000E+00 -0.13503211636E+04  0.13503211636E+04  0.50400001928E-02 0. -1.
    10030    2    1    2    0    0  0.00000000000E+00  0.00000000000E+00  0.11147625863E+03  0.28121185858E+04  0.28099081807E+04 0.  0.
        2    1    3    3  502    0  0.12358074043E+03 -0.13888129931E+04  0.22856522379E+03  0.14129103972E+04  0.25500000920E-02 0.  1.
       -2    1    3    3    0  502 -0.12358074043E+03  0.13888129931E+04 -0.11708896516E+03  0.13992081885E+04  0.25500000920E-02 0. -1.
</event>
<event>
 5   0  0.2190865E-06  0.2796541E+04  0.7818609E-02  0.8304343E-01
        1   -1    0    0  501    0  0.00000000000E+00  0.00000000000E+00  0.11927233362E+04  0.11927233362E+04  0.50400001928E-02 0.  1.
       -1   -1    0    0    0  501  0.00000000000E+00  0.00000000000E+00 -0.16392402704E+04  0.16392402704E+04  0.50400001928E-02 0. -1.
    10030    2    1    2    0    0  0.00000000000E+00  0.00000000000E+00 -0.44651693426E+03  0.28319636066E+04  0.27965408090E+04 0.  0.
        2    1    3    3  502    0  0.10654820005E+04  0.90197657502E+03 -0.14258452674E+03  0.14032619080E+04  0.25500000920E-02 0.  1.
       -2    1    3    3    0  502 -0.10654820005E+04 -0.90197657502E+03 -0.30393240752E+03  0.14287016986E+04  0.25500000920E-02 0. -1.
</event>
<event>
 5   0  0.5866136E-06  0.2823688E+04  0.7818609E-02  0.8295952E-01
       -2   -1    0    0    0  501  0.00000000000E+00  0.00000000000E+00  0.16462470147E+04  0.16462470147E+04  0.25500000920E-02 0.  1.
        2   -1    0    0  501    0  0.00000000000E+00  0.00000000000E+00 -0.12108168730E+04  0.12108168730E+04  0.25500000920E-02 0. -1.
    10030    2    1    2    0    0  0.00000000000E+00  0.00000000000E+00  0.43543014170E+03  0.28570638877E+04  0.28236881291E+04 0.  0.
        5    1    3    3  502    0  0.19787458515E+03 -0.13705345328E+04 -0.60787907370E+02  0.13860867638E+04  0.46999998093E+01 0. -1.
       -5    1    3    3    0  502 -0.19787458515E+03  0.13705345328E+04  0.49621804907E+03  0.14709771240E+04  0.46999998093E+01 0.  1.
</event>
<event>
 5   0  0.5625245E-06  0.2806657E+04  0.7818609E-02  0.8301204E-01
        2   -1    0    0  501    0  0.00000000000E+00  0.00000000000E+00  0.21910029441E+04  0.21910029441E+04  0.25500000920E-02 0.  1.
       -2   -1    0    0    0  501  0.00000000000E+00  0.00000000000E+00 -0.89882649504E+03  0.89882649504E+03  0.25500000920E-02 0. -1.
    10030    2    1    2    0    0  0.00000000000E+00  0.00000000000E+00  0.12921764490E+04  0.30898294391E+04  0.28066574403E+04 0.  0.
        3    1    3    3  502    0 -0.13974710373E+04 -0.11406535659E+03  0.58194024756E+03  0.15180878326E+04  0.10100000352E+00 0. -1.
       -3    1    3    3    0  502  0.13974710373E+04  0.11406535659E+03  0.71023620145E+03  0.15717416065E+04  0.10100000352E+00 0.  1.
</event>
<event>
 5   0  0.2190865E-06  0.2784243E+04  0.7818609E-02  0.8308177E-01
        1   -1    0    0  501    0  0.00000000000E+00  0.00000000000E+00  0.13814794419E+04  0.13814794420E+04  0.50400001928E-02 0.  1.
       -1   -1    0    0    0  501  0.00000000000E+00  0.00000000000E+00 -0.14028457803E+04  0.14028457803E+04  0.50400001928E-02 0. -1.
    10030    2    1    2    0    0  0.00000000000E+00  0.00000000000E+00 -0.21366338323E+02  0.27843252222E+04  0.27842432406E+04 0.  0.
        2    1    3    3  502    0 -0.36236307661E+03  0.30266904468E+03  0.12989687152E+04  0.13821126123E+04  0.25500000920E-02 0.  1.
       -2    1    3    3    0  502  0.36236307661E+03 -0.30266904468E+03 -0.13203350535E+04  0.14022126100E+04  0.25500000920E-02 0. -1.
</event>
<event>
 5   0  0.5546570E-06  0.2769079E+04  0.7818609E-02  0.8312933E-01
        2   -1    0    0  501    0  0.00000000000E+00  0.00000000000E+00  0.20289996314E+04  0.20289996314E+04  0.25500000920E-02 0. -1.
       -2   -1    0    0    0  501  0.00000000000E+00  0.00000000000E+00 -0.94477600508E+03  0.94477600508E+03  0.25500000920E-02 0.  1.
    10030    2    1    2    0    0  0.00000000000E+00  0.00000000000E+00  0.10842236263E+04  0.29737756365E+04  0.27690793893E+04 0.  0.
        4    1    3    3  502    0  0.32089715650E+03 -0.71377406519E+03  0.17686889322E+04  0.19340916609E+04  0.12699999809E+01 0. -1.
       -4    1    3    3    0  502 -0.32089715650E+03  0.71377406519E+03 -0.68446530586E+03  0.10396839755E+04  0.12699999809E+01 0.  1.
</event>
<event>
 5   0  0.2267565E-06  0.2810402E+04  0.7818609E-02  0.8300046E-01
        1   -1    0    0  501    0  0.00000000000E+00  0.00000000000E+00  0.24644082558E+04  0.24644082558E+04  0.50400001928E-02 0.  1.
       -1   -1    0    0    0  501  0.00000000000E+00  0.00000000000E+00 -0.80124313118E+03  0.80124313120E+03  0.50400001928E-02 0. -1.
    10030    2    1    2    0    0  0.00000000000E+00  0.00000000000E+00  0.16631651246E+04  0.32656513870E+04  0.28104022399E+04 0.  0.
        4    1    3    3  502    0  0.89676622318E+03  0.41086331560E+03 -0.33132818140E+03  0.10405663361E+04  0.12699999809E+01 0. -1.
       -4    1    3    3    0  502 -0.89676622318E+03 -0.41086331560E+03  0.19944933060E+04  0.22250850509E+04  0.12699999809E+01 0.  1.
</event>
<event>
 5   0  0.2234068E-06  0.2773627E+04  0.7818609E-02  0.8311503E-01
       -1   -1    0    0    0  501  0.00000000000E+00  0.00000000000E+00  0.12844195223E+04  0.12844195223E+04  0.50400001928E-02 0.  1.
        1   -1    0    0  501    0  0.00000000000E+00  0.00000000000E+00 -0.14973701044E+04  0.14973701044E+04  0.50400001928E-02 0. -1.
    10030    2    1    2    0    0  0.00000000000E+00  0.00000000000E+00 -0.21295058212E+03  0.27817896268E+04  0.27736267912E+04 0.  0.
        3    1    3    3  502    0  0.38203508193E+03 -0.69980644038E+03 -0.12445268595E+04  0.14780145372E+04  0.10100000352E+00 0. -1.
       -3    1    3    3    0  502 -0.38203508193E+03  0.69980644038E+03  0.10315762774E+04  0.13037750896E+04  0.10100000352E+00 0.  1.
</event>
<event>
 5   0  0.5584205E-06  0.2837523E+04  0.7818609E-02  0.8291713E-01
       -2   -1    0    0    0  501  0.00000000000E+00  0.00000000000E+00  0.11933134772E+04  0.11933134772E+04  0.25500000920E-02 0.  1.
        2   -1    0    0  501    0  0.00000000000E+00  0.00000000000E+00 -0.16868027462E+04  0.16868027462E+04  0.25500000920E-02 0. -1.
    10030    2    1    2    0    0  0.00000000000E+00  0.00000000000E+00 -0.49348926898E+03  0.28801162235E+04  0.28375231809E+04 0.  0.
        1    1    3    3  502    0  0.17045177362E+03  0.45513732183E+03  0.11061852285E+04  0.12082423386E+04  0.50400001928E-02 0.  1.
       -1    1    3    3    0  502 -0.17045177362E+03 -0.45513732183E+03 -0.15996744975E+04  0.16718738849E+04  0.50400001928E-02 0. -1.
</event>
<event>
 5   0  0.2190865E-06  0.2799047E+04  0.7818609E-02  0.8303564E-01
       -1   -1    0    0    0  501  0.00000000000E+00  0.00000000000E+00  0.21098232337E+04  0.21098232337E+04  0.50400001928E-02 0.  1.
        1   -1    0    0  501    0  0.00000000000E+00  0.00000000000E+00 -0.92835558515E+03  0.92835558517E+03  0.50400001928E-02 0. -1.
    10030    2    1    2    0    0  0.00000000000E+00  0.00000000000E+00  0.11814676486E+04  0.30381788189E+04  0.27990471112E+04 0.  0.
        2    1    3    3  502    0  0.10376643669E+04  0.27454898269E+03  0.15655361052E+04  0.18981643182E+04  0.25500000920E-02 0.  1.
       -2    1    3    3    0  502 -0.10376643669E+04 -0.27454898269E+03 -0.38406845664E+03  0.11400145007E+04  0.25500000920E-02 0. -1.
</event>
<event>
 5   0  0.5584205E-06  0.2776692E+04  0.7818609E-02  0.8310541E-01
        2   -1    0    0  501    0  0.00000000000E+00  0.00000000000E+00  0.16663564153E+04  0.16663564153E+04  0.25500000920E-02 0.  1.
       -2   -1    0    0    0  501  0.00000000000E+00  0.00000000000E+00 -0.11567176997E+04  0.11567176997E+04  0.25500000920E-02 0. -1.
    10030    2    1    2    0    0  0.00000000000E+00  0.00000000000E+00  0.50963871559E+03  0.28230741150E+04  0.27766915274E+04 0.  0.
        1    1    3    3  502    0  0.10801464561E+04  0.45550802525E+03 -0.50144736758E+03  0.12750111333E+04  0.50400001928E-02 0. -1.
       -1    1    3    3    0  502 -0.10801464561E+04 -0.45550802525E+03  0.10110860832E+04  0.15480629817E+04  0.50400001928E-02 0.  1.
</event>
<event>
 5   0  0.5625245E-06  0.2819069E+04  0.7818609E-02  0.8297372E-01
        2   -1    0    0  501    0  0.00000000000E+00  0.00000000000E+00  0.14322265615E+04  0.14322265615E+04  0.25500000920E-02 0. -1.
       -2   -1    0    0    0  501  0.00000000000E+00  0.00000000000E+00 -0.13872023187E+04  0.13872023187E+04  0.25500000920E-02 0.  1.
    10030    2    1    2    0    0  0.00000000000E+00  0.00000000000E+00  0.45024242766E+02  0.28194288802E+04  0.28190693549E+04 0.  0.
        3    1    3    3  502    0  0.68424676376E+02 -0.12880677558E+04 -0.54588026556E+03  0.14006376242E+04  0.10100000352E+00 0. -1.
       -3    1    3    3    0  502 -0.68424676376E+02  0.12880677558E+04  0.59090450833E+03  0.14187912560E+04  0.10100000352E+00 0.  1.
</event>
<event>
 5   0  0.2277133E-06  0.2838155E+04  0.7818609E-02  0.8291520E-01
        1   -1    0    0  501    0  0.00000000000E+00  0.00000000000E+00  0.15728108777E+04  0.15728108777E+04  0.50400001928E-02 0.  1.
       -1   -1    0    0    0  501  0.00000000000E+00  0.00000000000E+00 -0.12803708918E+04  0.12803708918E+04  0.50400001928E-02 0. -1.
    10030    2    1    2    0    0  0.00000000000E+00  0.00000000000E+00  0.29243998590E+03  0.28531817695E+04  0.28381552221E+04 0.  0.
        1    1    3    3  502    0 -0.13956036155E+04 -0.12904317389E+03  0.36970234540E+03  0.14494969529E+04  0.50400001928E-02 0.  1.
       -1    1    3    3    0  502  0.13956036155E+04  0.12904317389E+03 -0.77262359504E+02  0.14036848166E+04  0.50400001928E-02 0. -1.
</event>
<event>
 5   0  0.2277133E-06  0.2820305E+04  0.7818609E-02  0.8296992E-01
        1   -1    0    0  501    0  0.00000000000E+00  0.00000000000E+00  0.25420386502E+04  0.25420386503E+04  0.50400001928E-02 0.  1.
       -1   -1    0    0    0  501  0.00000000000E+00  0.00000000000E+00 -0.78225807773E+03  0.78225807775E+03  0.50400001928E-02 0. -1.
    10030    2    1    2    0    0  0.00000000000E+00  0.00000000000E+00  0.17597805725E+04  0.33242967280E+04  0.28203051382E+04 0.  0.
        1    1    3    3  502    0  0.79014412376E+03 -0.56480083318E+03  0.20849370867E+04  0.23000631237E+04  0.50400001928E-02 0.  1.
       -1    1    3    3    0  502 -0.79014412376E+03  0.56480083318E+03 -0.32515651417E+03  0.10242336043E+04  0.50400001928E-02 0. -1.
</event>
<event>
 5   0  0.5584205E-06  0.2782708E+04  0.7818609E-02  0.8308657E-01
       -2   -1    0    0    0  501  0.00000000000E+00  0.00000000000E+00  0.19369534602E+04  0.19369534602E+04  0.25500000920E-02 0.  1.
        2   -1    0    0  501    0  0.00000000000E+00  0.00000000000E+00 -0.99943874015E+03  0.99943874015E+03  0.25500000920E-02 0. -1.
    10030    2    1    2    0    0  0.00000000000E+00  0.00000000000E+00  0.93751472004E+03  0.29363922004E+04  0.27827082679E+04 0.  0.
        1    1    3    3  502    0 -0.10807048396E+04  0.18836789688E+03  0.13718631152E+04  0.17565346059E+04  0.50400001928E-02 0.  1.
       -1    1    3    3    0  502  0.10807048396E+04 -0.18836789688E+03 -0.43434839514E+03  0.11798575945E+04  0.50400001928E-02 0. -1.
</event>
<event>
 5   0  0.2190865E-06  0.2550604E+04  0.7818609E-02  0.8385176E-01
        1   -1    0    0  501    0  0.00000000000E+00  0.00000000000E+00  0.15719770184E+04  0.15719770184E+04  0.50400001928E-02 0. -1.
       -1   -1    0    0    0  501  0.00000000000E+00  0.00000000000E+00 -0.10346173541E+04  0.10346173542E+04  0.50400001928E-02 0.  1.
    10030    2    1    2    0    0  0.00000000000E+00  0.00000000000E+00  0.53735966428E+03  0.26065943726E+04  0.25506036177E+04 0.  0.
        2    1    3    3  502    0  0.45702965154E+03  0.35846145427E+03 -0.89159529276E+03  0.10641019137E+04  0.25500000920E-02 0.  1.
       -2    1    3    3    0  502 -0.45702965154E+03 -0.35846145427E+03  0.14289549570E+04  0.15424924589E+04  0.25500000920E-02 0. -1.
</event>
<event>
 5   0  0.2277133E-06  0.2816857E+04  0.7818609E-02  0.8298054E-01
        1   -1    0    0  501    0  0.00000000000E+00  0.00000000000E+00  0.17695003324E+04  0.17695003324E+04  0.50400001928E-02 0. -1.
       -1   -1    0    0    0  501  0.00000000000E+00  0.00000000000E+00 -0.11210342022E+04  0.11210342022E+04  0.50400001928E-02 0.  1.
    10030    2    1    2    0    0  0.00000000000E+00  0.00000000000E+00  0.64846613023E+03  0.28905345346E+04  0.28168566832E+04 0.  0.
        1    1    3    3  502    0  0.22070457328E+03  0.11118120259E+04  0.11820614140E+04  0.16377135513E+04  0.50400001928E-02 0. -1.
       -1    1    3    3    0  502 -0.22070457328E+03 -0.11118120259E+04 -0.53359528375E+03  0.12528209834E+04  0.50400001928E-02 0.  1.
</event>
<event>
 5   0  0.5625245E-06  0.2845954E+04  0.7818609E-02  0.8289142E-01
        2   -1    0    0  501    0  0.00000000000E+00  0.00000000000E+00  0.19921968215E+04  0.19921968215E+04  0.25500000920E-02 0.  1.
       -2   -1    0    0    0  501  0.00000000000E+00  0.00000000000E+00 -0.10163971854E+04  0.10163971854E+04  0.25500000920E-02 0. -1.
    10030    2    1    2    0    0  0.00000000000E+00  0.00000000000E+00  0.97579963608E+03  0.30085940069E+04  0.28459537889E+04 0.  0.
        3    1    3    3  502    0  0.82705176882E+03  0.45819556314E+03 -0.63631391624E+03  0.11396724146E+04  0.10100000352E+00 0. -1.
       -3    1    3    3    0  502 -0.82705176882E+03 -0.45819556314E+03  0.16121135523E+04  0.18689215923E+04  0.10100000352E+00 0.  1.
</event>
<event>
 5   0  0.2267565E-06  0.2805855E+04  0.7818609E-02  0.8301453E-01
        1   -1    0    0  501    0  0.00000000000E+00  0.00000000000E+00  0.18045046884E+04  0.18045046885E+04  0.50400001928E-02 0.  1.
       -1   -1    0    0    0  501  0.00000000000E+00  0.00000000000E+00 -0.10907177635E+04  0.10907177635E+04  0.50400001928E-02 0. -1.
    10030    2    1    2    0    0  0.00000000000E+00  0.00000000000E+00  0.71378692494E+03  0.28952224520E+04  0.28058548202E+04 0.  0.
        4    1    3    3  502    0 -0.24757681027E+03 -0.62615855065E+03  0.16268808053E+04  0.17607133710E+04  0.12699999809E+01 0.  1.
       -4    1    3    3    0  502  0.24757681027E+03  0.62615855065E+03 -0.91309388032E+03  0.11345090809E+04  0.12699999809E+01 0. -1.
</event>
<event>
 5   0  0.2277133E-06  0.2819051E+04  0.7818609E-02  0.8297378E-01
        1   -1    0    0  501    0  0.00000000000E+00  0.00000000000E+00  0.27025162239E+04  0.27025162239E+04  0.50400001928E-02 0.  1.
       -1   -1    0    0    0  501  0.00000000000E+00  0.00000000000E+00 -0.73515252970E+03  0.73515252971E+03  0.50400001928E-02 0. -1.
    10030    2    1    2    0    0  0.00000000000E+00  0.00000000000E+00  0.19673636942E+04  0.34376687537E+04  0.28190506477E+04 0.  0.
        1    1    3    3  502    0  0.47330654923E+03  0.24179521898E+03  0.25756387952E+04  0.26299047931E+04  0.50400001928E-02 0.  1.
       -1    1    3    3    0  502 -0.47330654923E+03 -0.24179521898E+03 -0.60827510097E+03  0.80776396054E+03  0.50400001928E-02 0. -1.
</event>
<event>
 5   0  0.2277133E-06  0.2808105E+04  0.7818609E-02  0.8300757E-01
        1   -1    0    0  501    0  0.00000000000E+00  0.00000000000E+00  0.16940227689E+04  0.16940227689E+04  0.50400001928E-02 0.  1.
       -1   -1    0    0    0  501  0.00000000000E+00  0.00000000000E+00 -0.11637171270E+04  0.11637171270E+04  0.50400001928E-02 0. -1.
    10030    2    1    2    0    0  0.00000000000E+00  0.00000000000E+00  0.53030564192E+03  0.28577398959E+04  0.28081049194E+04 0.  0.
        1    1    3    3  502    0  0.95013282325E+03 -0.24899396837E+03 -0.75588215715E+03  0.12393983273E+04  0.50400001928E-02 0. -1.
       -1    1    3    3    0  502 -0.95013282325E+03  0.24899396837E+03  0.12861877991E+04  0.16183415686E+04  0.50400001928E-02 0.  1.
</event>
<event>
 5   0  0.5916603E-06  0.3013783E+04  0.7818609E-02  0.8239806E-01
       -2   -1    0    0    0  501  0.00000000000E+00  0.00000000000E+00  0.95054821704E+03  0.95054821705E+03  0.25500000920E-02 0.  1.
        2   -1    0    0  501    0  0.00000000000E+00  0.00000000000E+00 -0.23888554872E+04  0.23888554872E+04  0.25500000920E-02 0. -1.
    10030    2    1    2    0    0  0.00000000000E+00  0.00000000000E+00 -0.14383072702E+04  0.33394037043E+04  0.30137832199E+04 0.  0.
        2    1    3    3  502    0 -0.18898271262E+03  0.14812923707E+04 -0.94291475709E+03  0.17660775159E+04  0.25500000920E-02 0. -1.
       -2    1    3    3    0  502  0.18898271262E+03 -0.14812923707E+04 -0.49539251310E+03  0.15733261884E+04  0.25500000920E-02 0.  1.
</event>
<event>
 5   0  0.5546570E-06  0.2747834E+04  0.7818609E-02  0.8319649E-01
       -2   -1    0    0    0  501  0.00000000000E+00  0.00000000000E+00  0.14319687045E+04  0.14319687045E+04  0.25500000920E-02 0.  1.
        2   -1    0    0  501    0  0.00000000000E+00  0.00000000000E+00 -0.13182189234E+04  0.13182189234E+04  0.25500000920E-02 0. -1.
    10030    2    1    2    0    0  0.00000000000E+00  0.00000000000E+00  0.11374978110E+03  0.27501876280E+04  0.27478342338E+04 0.  0.
        4    1    3    3  502    0 -0.46910511281E+03  0.12691214797E+04  0.29565351300E+03  0.13849698733E+04  0.12699999809E+01 0. -1.
       -4    1    3    3    0  502  0.46910511281E+03 -0.12691214797E+04 -0.18190373190E+03  0.13652177547E+04  0.12699999809E+01 0.  1.
</event>
<event>
 5   0  0.5625245E-06  0.2797672E+04  0.7818609E-02  0.8303992E-01
       -2   -1    0    0    0  501  0.00000000000E+00  0.00000000000E+00  0.12400983133E+04  0.12400983133E+04  0.25500000920E-02 0.  1.
        2   -1    0    0  501    0  0.00000000000E+00  0.00000000000E+00 -0.15778923539E+04  0.15778923539E+04  0.25500000920E-02 0. -1.
    10030    2    1    2    0    0  0.00000000000E+00  0.00000000000E+00 -0.33779404064E+03  0.28179906672E+04  0.27976716366E+04 0.  0.
        3    1    3    3  502    0 -0.11502863661E+04  0.49591224355E+02  0.63130570940E+03  0.13130746066E+04  0.10100000352E+00 0.  1.
       -3    1    3    3    0  502  0.11502863661E+04 -0.49591224355E+02 -0.96909975004E+03  0.15049160606E+04  0.10100000352E+00 0. -1.
</event>
<event>
 5   0  0.2234068E-06  0.2801610E+04  0.7818609E-02  0.8302769E-01
        1   -1    0    0  501    0  0.00000000000E+00  0.00000000000E+00  0.10107075481E+04  0.10107075482E+04  0.50400001928E-02 0. -1.
       -1   -1    0    0    0  501  0.00000000000E+00  0.00000000000E+00 -0.19414659322E+04  0.19414659322E+04  0.50400001928E-02 0.  1.
    10030    2    1    2    0    0  0.00000000000E+00  0.00000000000E+00 -0.93075838406E+03  0.29521734804E+04  0.28016097317E+04 0.  0.
        3    1    3    3  502    0 -0.63362841566E+03 -0.20465352770E+03  0.83328497997E+03  0.10666451629E+04  0.10100000352E+00 0. -1.
       -3    1    3    3    0  502  0.63362841566E+03  0.20465352770E+03 -0.17640433640E+04  0.18855283174E+04  0.10100000352E+00 0.  1.
</event>
<event>
 5   0  0.5625245E-06  0.2834661E+04  0.7818609E-02  0.8292588E-01
        2   -1    0    0  501    0  0.00000000000E+00  0.00000000000E+00  0.11778459891E+04  0.11778459891E+04  0.25500000920E-02 0. -1.
       -2   -1    0    0    0  501  0.00000000000E+00  0.00000000000E+00 -0.17055075377E+04  0.17055075377E+04  0.25500000920E-02 0.  1.
    10030    2    1    2    0    0  0.00000000000E+00  0.00000000000E+00 -0.52766154857E+03  0.28833535268E+04  0.28346606236E+04 0.  0.
        3    1    3    3  502    0  0.66999039449E+03  0.75496454365E+02 -0.15319370010E+04  0.16737436567E+04  0.10100000352E+00 0.  1.
       -3    1    3    3    0  502 -0.66999039449E+03 -0.75496454365E+02  0.10042754524E+04  0.12096098701E+04  0.10100000352E+00 0. -1.
</event>
<event>
 5   0  0.5916603E-06  0.2771314E+04  0.7818609E-02  0.8312230E-01
        2   -1    0    0  501    0  0.00000000000E+00  0.00000000000E+00  0.24315965188E+04  0.24315965188E+04  0.25500000920E-02 0. -1.
       -2   -1    0    0    0  501  0.00000000000E+00  0.00000000000E+00 -0.78962355962E+03  0.78962355963E+03  0.25500000920E-02 0.  1.
    10030    2    1    2    0    0  0.00000000000E+00  0.00000000000E+00  0.16419729592E+04  0.32212200784E+04  0.27713144165E+04 0.  0.
        2    1    3    3  502    0  0.39582908673E+03 -0.36889043812E+02 -0.72191464156E+03  0.82413725626E+03  0.25500000920E-02 0.  1.
       -2    1    3    3    0  502 -0.39582908673E+03  0.36889043812E+02  0.23638876007E+04  0.23970828222E+04  0.25500000920E-02 0. -1.
</event>
<event>
 5   0  0.2234068E-06  0.2761035E+04  0.7818609E-02  0.8315468E-01
        1   -1    0    0  501    0  0.00000000000E+00  0.00000000000E+00  0.13609578453E+04  0.13609578453E+04  0.50400001928E-02 0. -1.
       -1   -1    0    0    0  501  0.00000000000E+00  0.00000000000E+00 -0.14003586669E+04  0.14003586669E+04  0.50400001928E-02 0.  1.
    10030    2    1    2    0    0  0.00000000000E+00  0.00000000000E+00 -0.39400821544E+02  0.27613165122E+04  0.27610353956E+04 0.  0.
        3    1    3    3  502    0  0.14532461451E+03 -0.23693067184E+03  0.13326849229E+04  0.13613612675E+04  0.10100000352E+00 0. -1.
       -3    1    3    3    0  502 -0.14532461451E+03  0.23693067184E+03 -0.13720857444E+04  0.13999552447E+04  0.10100000352E+00 0.  1.
</event>
<event>
 5   0  0.5866136E-06  0.2796774E+04  0.7818609E-02  0.8304271E-01
       -2   -1    0    0    0  501  0.00000000000E+00  0.00000000000E+00  0.11539360373E+04  0.11539360373E+04  0.25500000920E-02 0. -1.
        2   -1    0    0  501    0  0.00000000000E+00  0.00000000000E+00 -0.16946222581E+04  0.16946222581E+04  0.25500000920E-02 0.  1.
    10030    2    1    2    0    0  0.00000000000E+00  0.00000000000E+00 -0.54068622078E+03  0.28485582953E+04  0.27967736363E+04 0.  0.
        5    1    3    3  502    0 -0.98806261492E+03  0.17959683909E+03 -0.12614699112E+04  0.16124054027E+04  0.46999998093E+01 0.  1.
       -5    1    3    3    0  502  0.98806261492E+03 -0.17959683909E+03  0.72078369046E+03  0.12361528927E+04  0.46999998093E+01 0. -1.
</event>
<event>
 5   0  0.1901375E-06  0.2788700E+04  0.7818609E-02  0.8306785E-01
       -3   -1    0    0    0  501  0.00000000000E+00  0.00000000000E+00  0.72722629971E+03  0.72722630672E+03  0.10100000352E+00 0.  1.
        3   -1    0    0  501    0  0.00000000000E+00  0.00000000000E+00 -0.26734629818E+04  0.26734629837E+04  0.10100000352E+00 0. -1.
    10030    2    1    2    0    0  0.00000000000E+00  0.00000000000E+00 -0.19462366821E+04  0.34006892905E+04  0.27887004908E+04 0.  0.
        5    1    3    3  502    0  0.99291377793E+03 -0.30975918004E+02 -0.21662852112E+04  0.23832018345E+04  0.46999998093E+01 0. -1.
       -5    1    3    3    0  502 -0.99291377793E+03  0.30975918004E+02  0.22004852904E+03  0.10174874560E+04  0.46999998093E+01 0.  1.
</event>
<event>
 5   0  0.5866136E-06  0.2790944E+04  0.7818609E-02  0.8306085E-01
       -2   -1    0    0    0  501  0.00000000000E+00  0.00000000000E+00  0.11524571363E+04  0.11524571363E+04  0.25500000920E-02 0. -1.
        2   -1    0    0  501    0  0.00000000000E+00  0.00000000000E+00 -0.16897308727E+04  0.16897308727E+04  0.25500000920E-02 0.  1.
    10030    2    1    2    0    0  0.00000000000E+00  0.00000000000E+00 -0.53727373638E+03  0.28421880089E+04  0.27909442148E+04 0.  0.
        5    1    3    3  502    0 -0.12645868330E+04  0.35420402148E+03 -0.74919089380E+03  0.15119356575E+04  0.46999998093E+01 0.  1.
       -5    1    3    3    0  502  0.12645868330E+04 -0.35420402148E+03  0.21191715742E+03  0.13302523515E+04  0.46999998093E+01 0. -1.
</event>
<event>
 5   0  0.5584205E-06  0.2801634E+04  0.7818609E-02  0.8302761E-01
        2   -1    0    0  501    0  0.00000000000E+00  0.00000000000E+00  0.21507786473E+04  0.21507786473E+04  0.25500000920E-02 0.  1.
       -2   -1    0    0    0  501  0.00000000000E+00  0.00000000000E+00 -0.91236189100E+03  0.91236189100E+03  0.25500000920E-02 0. -1.
    10030    2    1    2    0    0  0.00000000000E+00  0.00000000000E+00  0.12384167563E+04  0.30631405383E+04  0.28016341472E+04 0.  0.
        1    1    3    3  502    0  0.17549087393E+03 -0.55027283274E+03 -0.77611503160E+03  0.96744600861E+03  0.50400001928E-02 0. -1.
       -1    1    3    3    0  502 -0.17549087393E+03  0.55027283274E+03  0.20145317879E+04  0.20956945297E+04  0.50400001928E-02 0.  1.
</event>
<event>
 5   0  0.5546570E-06  0.2801284E+04  0.7818609E-02  0.8302870E-01
        2   -1    0    0  501    0  0.00000000000E+00  0.00000000000E+00  0.26047615992E+04  0.26047615992E+04  0.25500000920E-02 0. -1.
       -2   -1    0    0    0  501  0.00000000000E+00  0.00000000000E+00 -0.75315852701E+03  0.75315852701E+03  0.25500000920E-02 0.  1.
    10030    2    1    2    0    0  0.00000000000E+00  0.00000000000E+00  0.18516030722E+04  0.33579201262E+04  0.28012842835E+04 0.  0.
        4    1    3    3  502    0 -0.10615902708E+04 -0.78110579662E+03  0.14940149134E+04  0.19922806889E+04  0.12699999809E+01 0.  1.
       -4    1    3    3    0  502  0.10615902708E+04  0.78110579662E+03  0.35758815873E+03  0.13656394373E+04  0.12699999809E+01 0. -1.
</event>
<event>
 5   0  0.2234068E-06  0.2819797E+04  0.7818609E-02  0.8297148E-01
       -1   -1    0    0    0  501  0.00000000000E+00  0.00000000000E+00  0.19024947646E+04  0.19024947646E+04  0.50400001928E-02 0. -1.
        1   -1    0    0  501    0  0.00000000000E+00  0.00000000000E+00 -0.10448460195E+04  0.10448460195E+04  0.50400001928E-02 0.  1.
    10030    2    1    2    0    0  0.00000000000E+00  0.00000000000E+00  0.85764874511E+03  0.29473407842E+04  0.28197972140E+04 0.  0.
        3    1    3    3  502    0 -0.60706470385E+03  0.39908550367E+03  0.16917898348E+04  0.18411815905E+04  0.10100000352E+00 0. -1.
       -3    1    3    3    0  502  0.60706470385E+03 -0.39908550367E+03 -0.83414108973E+03  0.11061591936E+04  0.10100000352E+00 0.  1.
</event>
<event>
 5   0  0.2267565E-06  0.2731189E+04  0.7818609E-02  0.8324956E-01
        1   -1    0    0  501    0  0.00000000000E+00  0.00000000000E+00  0.11187073403E+04  0.11187073403E+04  0.50400001928E-02 0. -1.
       -1   -1    0    0    0  501  0.00000000000E+00  0.00000000000E+00 -0.16669675076E+04  0.16669675076E+04  0.50400001928E-02 0.  1.
    10030    2    1    2    0    0  0.00000000000E+00  0.00000000000E+00 -0.54826016722E+03  0.27856748479E+04  0.27311893284E+04 0.  0.
        4    1    3    3  502    0 -0.82352136909E+03  0.63825691459E+03 -0.11745136624E+04  0.15700456333E+04  0.12699999809E+01 0.  1.
       -4    1    3    3    0  502  0.82352136909E+03 -0.63825691459E+03  0.62625349521E+03  0.12156292147E+04  0.12699999809E+01 0. -1.
</event>
<event>
 5   0  0.5584205E-06  0.2799420E+04  0.7818609E-02  0.8303448E-01
       -2   -1    0    0    0  501  0.00000000000E+00  0.00000000000E+00  0.83153398604E+03  0.83153398604E+03  0.25500000920E-02 0. -1.
        2   -1    0    0  501    0  0.00000000000E+00  0.00000000000E+00 -0.23561130866E+04  0.23561130866E+04  0.25500000920E-02 0.  1.
    10030    2    1    2    0    0  0.00000000000E+00  0.00000000000E+00 -0.15245791005E+04  0.31876470726E+04  0.27994200160E+04 0.  0.
        1    1    3    3  502    0  0.96904411237E+03 -0.99456407527E+03 -0.56185604881E+03  0.14979607509E+04  0.50400001928E-02 0. -1.
       -1    1    3    3    0  502 -0.96904411237E+03  0.99456407527E+03 -0.96272305172E+03  0.16896863217E+04  0.50400001928E-02 0.  1.
</event>
<event>
 5   0  0.2277133E-06  0.2831173E+04  0.7818609E-02  0.8293655E-01
        1   -1    0    0  501    0  0.00000000000E+00  0.00000000000E+00  0.23356166276E+04  0.23356166276E+04  0.50400001928E-02 0.  1.
       -1   -1    0    0    0  501  0.00000000000E+00  0.00000000000E+00 -0.85796822140E+03  0.85796822141E+03  0.50400001928E-02 0. -1.
    10030    2    1    2    0    0  0.00000000000E+00  0.00000000000E+00  0.14776484062E+04  0.31935848490E+04  0.28311727915E+04 0.  0.
        1    1    3    3  502    0  0.25667599914E+03  0.58619299237E+03 -0.68549722876E+03  0.93776929119E+03  0.50400001928E-02 0. -1.
       -1    1    3    3    0  502 -0.25667599914E+03 -0.58619299237E+03  0.21631456350E+04  0.22558155578E+04  0.50400001928E-02 0.  1.
</event>
<event>
 5   0  0.5546570E-06  0.2803974E+04  0.7818609E-02  0.8302036E-01
       -2   -1    0    0    0  501  0.00000000000E+00  0.00000000000E+00  0.15397847528E+04  0.15397847528E+04  0.25500000920E-02 0.  1.
        2   -1    0    0  501    0  0.00000000000E+00  0.00000000000E+00 -0.12765207031E+04  0.12765207031E+04  0.25500000920E-02 0. -1.
    10030    2    1    2    0    0  0.00000000000E+00  0.00000000000E+00  0.26326404967E+03  0.28163054559E+04  0.28039736912E+04 0.  0.
        4    1    3    3  502    0 -0.96670383527E+03  0.34364191473E+03  0.10913233339E+04  0.14978632457E+04  0.12699999809E+01 0.  1.
       -4    1    3    3    0  502  0.96670383527E+03 -0.34364191473E+03 -0.82805928423E+03  0.13184422103E+04  0.12699999809E+01 0. -1.
</event>
<event>
 5   0  0.5866136E-06  0.2797869E+04  0.7818609E-02  0.8303930E-01
        2   -1    0    0  501    0  0.00000000000E+00  0.00000000000E+00  0.24085942882E+04  0.24085942882E+04  0.25500000920E-02 0.  1.
       -2   -1    0    0    0  501  0.00000000000E+00  0.00000000000E+00 -0.81251423597E+03  0.81251423597E+03  0.25500000920E-02 0. -1.
    10030    2    1    2    0    0  0.00000000000E+00  0.00000000000E+00  0.15960800523E+04  0.32211085242E+04  0.27978685801E+04 0.  0.
        5    1    3    3  502    0  0.30792112419E+03  0.59167767394E+03 -0.61764909951E+03  0.90907116811E+03  0.46999998093E+01 0. -1.
       -5    1    3    3    0  502 -0.30792112419E+03 -0.59167767394E+03  0.22137291518E+04  0.23120373561E+04  0.46999998093E+01 0.  1.
</event>
<event>
 5   0  0.5866136E-06  0.2797054E+04  0.7818609E-02  0.8304184E-01
        2   -1    0    0  501    0  0.00000000000E+00  0.00000000000E+00  0.21651382765E+04  0.21651382765E+04  0.25500000920E-02 0. -1.
       -2   -1    0    0    0  501  0.00000000000E+00  0.00000000000E+00 -0.90335011695E+03  0.90335011696E+03  0.25500000920E-02 0.  1.
    10030    2    1    2    0    0  0.00000000000E+00  0.00000000000E+00  0.12617881596E+04  0.30684883935E+04  0.27970541041E+04 0.  0.
        5    1    3    3  502    0 -0.64687205334E+03  0.88571021889E+03 -0.32102680504E+03  0.11428063461E+04  0.46999998093E+01 0.  1.
       -5    1    3    3    0  502  0.64687205334E+03 -0.88571021889E+03  0.15828149646E+04  0.19256820474E+04  0.46999998093E+01 0. -1.
</event>
<event>
 5   0  0.2267565E-06  0.2784360E+04  0.7818609E-02  0.8308140E-01
        1   -1    0    0  501    0  0.00000000000E+00  0.00000000000E+00  0.18492123113E+04  0.18492123113E+04  0.50400001928E-02 0. -1.
       -1   -1    0    0    0  501  0.00000000000E+00  0.00000000000E+00 -0.10481031420E+04  0.10481031420E+04  0.50400001928E-02 0.  1.
    10030    2    1    2    0    0  0.00000000000E+00  0.00000000000E+00  0.80110916929E+03  0.28973154534E+04  0.27843600585E+04 0.  0.
        4    1    3    3  502    0 -0.62414963182E+03  0.29386082291E+03 -0.85773531010E+03  0.11007399426E+04  0.12699999809E+01 0.  1.
       -4    1    3    3    0  502  0.62414963182E+03 -0.29386082291E+03  0.16588444794E+04  0.17965755108E+04  0.12699999809E+01 0. -1.
</event>
<event>
 5   0  0.2267565E-06  0.2792233E+04  0.7818609E-02  0.8305684E-01
       -1   -1    0    0    0  501  0.00000000000E+00  0.00000000000E+00  0.14125948918E+04  0.14125948918E+04  0.50400001928E-02 0. -1.
        1   -1    0    0  501    0  0.00000000000E+00  0.00000000000E+00 -0.13798305910E+04  0.13798305910E+04  0.50400001928E-02 0.  1.
    10030    2    1    2    0    0  0.00000000000E+00  0.00000000000E+00  0.32764300788E+02  0.27924254829E+04  0.27922332599E+04 0.  0.
        4    1    3    3  502    0 -0.10659590007E+04 -0.71396659925E+03 -0.53422194720E+03  0.13897523512E+04  0.12699999809E+01 0. -1.
       -4    1    3    3    0  502  0.10659590007E+04  0.71396659925E+03  0.56698624799E+03  0.14026731316E+04  0.12699999809E+01 0.  1.
</event>
<event>
 5   0  0.2277133E-06  0.2777159E+04  0.7818609E-02  0.8310395E-01
       -1   -1    0    0    0  501  0.00000000000E+00  0.00000000000E+00  0.10109001169E+04  0.10109001169E+04  0.50400001928E-02 0. -1.
        1   -1    0    0  501    0  0.00000000000E+00  0.00000000000E+00 -0.19073621391E+04  0.19073621391E+04  0.50400001928E-02 0.  1.
    10030    2    1    2    0    0  0.00000000000E+00  0.00000000000E+00 -0.89646202224E+03  0.29182622560E+04  0.27771586986E+04 0.  0.
        1    1    3    3  502    0  0.21912101691E+03  0.92147668603E+02 -0.18858229785E+04  0.19007455167E+04  0.50400001928E-02 0.  1.
       -1    1    3    3    0  502 -0.21912101691E+03 -0.92147668603E+02  0.98936095628E+03  0.10175167393E+04  0.50400001928E-02 0. -1.
</event>
<event>
 5   0  0.5866136E-06  0.2788000E+04  0.7818609E-02  0.8307004E-01
       -2   -1    0    0    0  501  0.00000000000E+00  0.00000000000E+00  0.11504875887E+04  0.11504875887E+04  0.25500000920E-02 0. -1.
        2   -1    0    0  501    0  0.00000000000E+00  0.00000000000E+00 -0.16890543647E+04  0.16890543647E+04  0.25500000920E-02 0.  1.
    10030    2    1    2    0    0  0.00000000000E+00  0.00000000000E+00 -0.53856677603E+03  0.28395419535E+04  0.27880000598E+04 0.  0.
        5    1    3    3  502    0 -0.48311071296E+03 -0.17433552528E+03  0.10506008365E+04  0.11694327873E+04  0.46999998093E+01 0. -1.
       -5    1    3    3    0  502  0.48311071296E+03  0.17433552528E+03 -0.15891676125E+04  0.16701091662E+04  0.46999998093E+01 0.  1.
</event>
<event>
 5   0  0.5546570E-06  0.2807769E+04  0.7818609E-02  0.8300860E-01
        2   -1    0    0  501    0  0.00000000000E+00  0.00000000000E+00  0.21234024856E+04  0.21234024856E+04  0.25500000920E-02 0. -1.
       -2   -1    0    0    0  501  0.00000000000E+00  0.00000000000E+00 -0.92817614424E+03  0.92817614425E+03  0.25500000920E-02 0.  1.
    10030    2    1    2    0    0  0.00000000000E+00  0.00000000000E+00  0.11952263414E+04  0.30515786298E+04  0.28077688878E+04 0.  0.
        4    1    3    3  502    0  0.84495741688E+03 -0.49953665656E+03  0.16884610286E+04  0.19530468928E+04  0.12699999809E+01 0. -1.
       -4    1    3    3    0  502 -0.84495741688E+03  0.49953665656E+03 -0.49323468726E+03  0.10985317370E+04  0.12699999809E+01 0.  1.
</event>
<event>
 5   0  0.5584205E-06  0.2757671E+04  0.7818609E-02  0.8316532E-01
        2   -1    0    0  501    0  0.00000000000E+00  0.00000000000E+00  0.20866515463E+04  0.20866515463E+04  0.25500000920E-02 0. -1.
       -2   -1    0    0    0  501  0.00000000000E+00  0.00000000000E+00 -0.91111848507E+03  0.91111848507E+03  0.25500000920E-02 0.  1.
    10030    2    1    2    0    0  0.00000000000E+00  0.00000000000E+00  0.11755330612E+04  0.29977700313E+04  0.27576706081E+04 0.  0.
        1    1    3    3  502    0  0.37665891975E+03  0.12314897972E+04  0.52175229315E+02  0.12888604723E+04  0.50400001928E-02 0. -1.
       -1    1    3    3    0  502 -0.37665891975E+03 -0.12314897972E+04  0.11233578319E+04  0.17089095590E+04  0.50400001928E-02 0.  1.
</event>
<event>
 5   0  0.5584205E-06  0.2783289E+04  0.7818609E-02  0.8308475E-01
        2   -1    0    0  501    0  0.00000000000E+00  0.00000000000E+00  0.91016035919E+03  0.91016035919E+03  0.25500000920E-02 0.  1.
       -2   -1    0    0    0  501  0.00000000000E+00  0.00000000000E+00 -0.21278394324E+04  0.21278394324E+04  0.25500000920E-02 0. -1.
    10030    2    1    2    0    0  0.00000000000E+00  0.00000000000E+00 -0.12176790732E+04  0.30379997916E+04  0.27832894942E+04 0.  0.
        1    1    3    3  502    0  0.17080438585E+03 -0.17696076869E+03 -0.21039293674E+04  0.21182558946E+04  0.50400001928E-02 0. -1.
       -1    1    3    3    0  502 -0.17080438585E+03  0.17696076869E+03  0.88625029426E+03  0.91974389695E+03  0.50400001928E-02 0.  1.
</event>
<event>
 5   0  0.2190865E-06  0.2789629E+04  0.7818609E-02  0.8306495E-01
       -1   -1    0    0    0  501  0.00000000000E+00  0.00000000000E+00  0.10462346505E+04  0.10462346505E+04  0.50400001928E-02 0.  1.
        1   -1    0    0  501    0  0.00000000000E+00  0.00000000000E+00 -0.18595324306E+04  0.18595324306E+04  0.50400001928E-02 0. -1.
    10030    2    1    2    0    0  0.00000000000E+00  0.00000000000E+00 -0.81329778010E+03  0.29057670812E+04  0.27896288375E+04 0.  0.
        2    1    3    3  502    0 -0.13863866377E+04 -0.85063400228E+02 -0.53924163212E+03  0.14899950433E+04  0.25500000920E-02 0.  1.
       -2    1    3    3    0  502  0.13863866377E+04  0.85063400228E+02 -0.27405614798E+03  0.14157720379E+04  0.25500000920E-02 0. -1.
</event>
<event>
 5   0  0.2206967E-06  0.2802565E+04  0.7818609E-02  0.8302473E-01
       -1   -1    0    0    0  501  0.00000000000E+00  0.00000000000E+00  0.11074810847E+04  0.11074810847E+04  0.50400001928E-02 0. -1.
        1   -1    0    0  501    0  0.00000000000E+00  0.00000000000E+00 -0.17730257578E+04  0.17730257578E+04  0.50400001928E-02 0.  1.
    10030    2    1    2    0    0  0.00000000000E+00  0.00000000000E+00 -0.66554467316E+03  0.28805068425E+04  0.28025648892E+04 0.  0.
        5    1    3    3  502    0  0.33802856359E+03 -0.40509932913E+03  0.10014836767E+04  0.11319719171E+04  0.46999998093E+01 0. -1.
       -5    1    3    3    0  502 -0.33802856359E+03  0.40509932913E+03 -0.16670283499E+04  0.17485349255E+04  0.46999998093E+01 0.  1.
</event>
<event>
 5   0  0.5866136E-06  0.2795848E+04  0.7818609E-02  0.8304559E-01
        2   -1    0    0  501    0  0.00000000000E+00  0.00000000000E+00  0.20030388096E+04  0.20030388096E+04  0.25500000920E-02 0. -1.
       -2   -1    0    0    0  501  0.00000000000E+00  0.00000000000E+00 -0.97561343389E+03  0.97561343389E+03  0.25500000920E-02 0.  1.
    10030    2    1    2    0    0  0.00000000000E+00  0.00000000000E+00  0.10274253757E+04  0.29786522435E+04  0.27958480440E+04 0.  0.
        5    1    3    3  502    0  0.23853068002E+03  0.13572467673E+04  0.76391654022E+03  0.15756288406E+04  0.46999998093E+01 0. -1.
       -5    1    3    3    0  502 -0.23853068002E+03 -0.13572467673E+04  0.26350883546E+03  0.14030234029E+04  0.46999998093E+01 0.  1.
</event>
<event>
 5   0  0.2267565E-06  0.2771313E+04  0.7818609E-02  0.8312230E-01
       -1   -1    0    0    0  501  0.00000000000E+00  0.00000000000E+00  0.12079787994E+04  0.12079787994E+04  0.50400001928E-02 0.  1.
        1   -1    0    0  501    0  0.00000000000E+00  0.00000000000E+00 -0.15894683759E+04  0.15894683759E+04  0.50400001928E-02 0. -1.
    10030    2    1    2    0    0  0.00000000000E+00  0.00000000000E+00 -0.38148957651E+03  0.27974471753E+04  0.27713131187E+04 0.  0.
        4    1    3    3  502    0  0.55153904516E+03 -0.11001548597E+04 -0.83354377295E+03  0.14863824770E+04  0.12699999809E+01 0. -1.
       -4    1    3    3    0  502 -0.55153904516E+03  0.11001548597E+04  0.45205419644E+03  0.13110646983E+04  0.12699999809E+01 0.  1.
</event>
<event>
 5   0  0.5916603E-06  0.2831971E+04  0.7818609E-02  0.8293411E-01
       -2   -1    0    0    0  501  0.00000000000E+00  0.00000000000E+00  0.10016233433E+04  0.10016233433E+04  0.25500000920E-02 0.  1.
        2   -1    0    0  501    0  0.00000000000E+00  0.00000000000E+00 -0.20017656760E+04  0.20017656760E+04  0.25500000920E-02 0. -1.
    10030    2    1    2    0    0  0.00000000000E+00  0.00000000000E+00 -0.10001423328E+04  0.30033890193E+04  0.28319712067E+04 0.  0.
        2    1    3    3  502    0 -0.92831289825E+03 -0.52079949751E+03 -0.14904139663E+04  0.18314832089E+04  0.25500000920E-02 0. -1.
       -2    1    3    3    0  502  0.92831289825E+03  0.52079949751E+03  0.49027163354E+03  0.11719058103E+04  0.25500000920E-02 0.  1.
</event>
<event>
 5   0  0.2277133E-06  0.2802628E+04  0.7818609E-02  0.8302453E-01
        1   -1    0    0  501    0  0.00000000000E+00  0.00000000000E+00  0.64059671566E+03  0.64059671568E+03  0.50400001928E-02 0.  1.
       -1   -1    0    0    0  501  0.00000000000E+00  0.00000000000E+00 -0.30653942946E+04  0.30653942946E+04  0.50400001928E-02 0. -1.
    10030    2    1    2    0    0  0.00000000000E+00  0.00000000000E+00 -0.24247975789E+04  0.37059910103E+04  0.28026284216E+04 0.  0.
        1    1    3    3  502    0  0.56018135793E+03 -0.40197947329E+03  0.40078090912E+03  0.79750610522E+03  0.50400001928E-02 0.  1.
       -1    1    3    3    0  502 -0.56018135793E+03  0.40197947329E+03 -0.28255784880E+04  0.29084849050E+04  0.50400001928E-02 0. -1.
</event>
<event>
 5   0  0.5625245E-06  0.2791521E+04  0.7818609E-02  0.8305905E-01
        2   -1    0    0  501    0  0.00000000000E+00  0.00000000000E+00  0.18886543164E+04  0.18886543164E+04  0.25500000920E-02 0. -1.
       -2   -1    0    0    0  501  0.00000000000E+00  0.00000000000E+00 -0.10315005636E+04  0.10315005636E+04  0.25500000920E-02 0.  1.
    10030    2    1    2    0    0  0.00000000000E+00  0.00000000000E+00  0.85715375279E+03  0.29201548799E+04  0.27915214430E+04 0.  0.
        3    1    3    3  502    0 -0.93945135829E+03 -0.14108996559E+03 -0.64112513648E+03  0.11460875550E+04  0.10100000352E+00 0.  1.
       -3    1    3    3    0  502  0.93945135829E+03  0.14108996559E+03  0.14982788893E+04  0.17740673249E+04  0.10100000352E+00 0. -1.
</event>
<event>
 5   0  0.5866136E-06  0.2809096E+04  0.7818609E-02  0.8300450E-01
        2   -1    0    0  501    0  0.00000000000E+00  0.00000000000E+00  0.26237269242E+04  0.26237269242E+04  0.25500000920E-02 0.  1.
       -2   -1    0    0    0  501  0.00000000000E+00  0.00000000000E+00 -0.75189043447E+03  0.75189043447E+03  0.25500000920E-02 0. -1.
    10030    2    1    2    0    0  0.00000000000E+00  0.00000000000E+00  0.18718364897E+04  0.33756173587E+04  0.28090960660E+04 0.  0.
        5    1    3    3  502    0  0.13627205152E+04  0.20505669553E+03  0.60974039810E+03  0.15069375880E+04  0.46999998093E+01 0.  1.
       -5    1    3    3    0  502 -0.13627205152E+04 -0.20505669553E+03  0.12620960916E+04  0.18686797707E+04  0.46999998093E+01 0. -1.
</event>
<event>
 5   0  0.2277133E-06  0.2872356E+04  0.7818609E-02  0.8281150E-01
       -1   -1    0    0    0  501  0.00000000000E+00  0.00000000000E+00  0.81785827793E+03  0.81785827795E+03  0.50400001928E-02 0.  1.
        1   -1    0    0  501    0  0.00000000000E+00  0.00000000000E+00 -0.25219610285E+04  0.25219610285E+04  0.50400001928E-02 0. -1.
    10030    2    1    2    0    0  0.00000000000E+00  0.00000000000E+00 -0.17041027505E+04  0.33398193064E+04  0.28723556213E+04 0.  0.
        1    1    3    3  502    0  0.72048919147E+03  0.42796484977E+03 -0.22082078211E+04  0.23618722169E+04  0.50400001928E-02 0. -1.
       -1    1    3    3    0  502 -0.72048919147E+03 -0.42796484977E+03  0.50410507059E+03  0.97794708952E+03  0.50400001928E-02 0.  1.
</event>
<event>
 5   0  0.2267565E-06  0.2807187E+04  0.7818609E-02  0.8301041E-01
        1   -1    0    0  501    0  0.00000000000E+00  0.00000000000E+00  0.15315753217E+04  0.15315753218E+04  0.50400001928E-02 0.  1.
       -1   -1    0    0    0  501  0.00000000000E+00  0.00000000000E+00 -0.12863058352E+04  0.12863058353E+04  0.50400001928E-02 0. -1.
    10030    2    1    2    0    0  0.00000000000E+00  0.00000000000E+00  0.24526948650E+03  0.28178811570E+04  0.28071866867E+04 0.  0.
        4    1    3    3  502    0 -0.10081109044E+04 -0.59932545762E+02  0.11011268489E+04  0.14941089170E+04  0.12699999809E+01 0.  1.
       -4    1    3    3    0  502  0.10081109044E+04  0.59932545762E+02 -0.85585736244E+03  0.13237722400E+04  0.12699999809E+01 0. -1.
</event>
<event>
 5   0  0.1901375E-06  0.2937074E+04  0.7818609E-02  0.8261932E-01
       -3   -1    0    0    0  501  0.00000000000E+00  0.00000000000E+00  0.13227171513E+04  0.13227171552E+04  0.10100000352E+00 0. -1.
        3   -1    0    0  501    0  0.00000000000E+00  0.00000000000E+00 -0.16304323372E+04  0.16304323404E+04  0.10100000352E+00 0.  1.
    10030    2    1    2    0    0  0.00000000000E+00  0.00000000000E+00 -0.30771518591E+03  0.29531494955E+04  0.29370739363E+04 0.  0.
        3    1    3    3  502    0 -0.51664972385E+03  0.13379538126E+04 -0.47110549949E+03  0.15096316583E+04  0.10100000352E+00 0.  1.
       -3    1    3    3    0  502  0.51664972385E+03 -0.13379538126E+04  0.16339031358E+03  0.14435178373E+04  0.10100000352E+00 0. -1.
</event>
<event>
 5   0  0.2206967E-06  0.2798306E+04  0.7818609E-02  0.8303794E-01
        1   -1    0    0  501    0  0.00000000000E+00  0.00000000000E+00  0.19595275117E+04  0.19595275118E+04  0.50400001928E-02 0. -1.
       -1   -1    0    0    0  501  0.00000000000E+00  0.00000000000E+00 -0.99903143303E+03  0.99903143304E+03  0.50400001928E-02 0.  1.
    10030    2    1    2    0    0  0.00000000000E+00  0.00000000000E+00  0.96049607872E+03  0.29585589448E+04  0.27983063293E+04 0.  0.
        5    1    3    3  502    0 -0.12170570973E+04 -0.23633570590E+03  0.11658638950E+04  0.17018646408E+04  0.46999998093E+01 0. -1.
       -5    1    3    3    0  502  0.12170570973E+04  0.23633570590E+03 -0.20536781624E+03  0.12566943040E+04  0.46999998093E+01 0.  1.
</event>
<event>
 5   0  0.5866136E-06  0.2744020E+04  0.7818609E-02  0.8320862E-01
       -2   -1    0    0    0  501  0.00000000000E+00  0.00000000000E+00  0.17242853244E+04  0.17242853244E+04  0.25500000920E-02 0.  1.
        2   -1    0    0  501    0  0.00000000000E+00  0.00000000000E+00 -0.10917049372E+04  0.10917049372E+04  0.25500000920E-02 0. -1.
    10030    2    1    2    0    0  0.00000000000E+00  0.00000000000E+00  0.63258038718E+03  0.28159902616E+04  0.27440195347E+04 0.  0.
        5    1    3    3  502    0  0.39036098381E+03  0.53823309817E+02 -0.10323744038E+04  0.11050328710E+04  0.46999998093E+01 0. -1.
       -5    1    3    3    0  502 -0.39036098381E+03 -0.53823309817E+02  0.16649547910E+04  0.17109573906E+04  0.46999998093E+01 0.  1.
</event>
<event>
 5   0  0.5866136E-06  0.2781524E+04  0.7818609E-02  0.8309027E-01
       -2   -1    0    0    0  501  0.00000000000E+00  0.00000000000E+00  0.10774183439E+04  0.10774183439E+04  0.25500000920E-02 0. -1.
        2   -1    0    0  501    0  0.00000000000E+00  0.00000000000E+00 -0.17952353462E+04  0.17952353462E+04  0.25500000920E-02 0.  1.
    10030    2    1    2    0    0  0.00000000000E+00  0.00000000000E+00 -0.71781700228E+03  0.28726536901E+04  0.27815243976E+04 0.  0.
        5    1    3    3  502    0 -0.42650389499E+03 -0.13270839624E+03  0.10013145312E+04  0.10964351195E+04  0.46999998093E+01 0. -1.
       -5    1    3    3    0  502  0.42650389499E+03  0.13270839624E+03 -0.17191315335E+04  0.17762185706E+04  0.46999998093E+01 0.  1.
</event>
<event>
 5   0  0.5625245E-06  0.2785670E+04  0.7818609E-02  0.8307731E-01
       -2   -1    0    0    0  501  0.00000000000E+00  0.00000000000E+00  0.78691751618E+03  0.78691751618E+03  0.25500000920E-02 0.  1.
        2   -1    0    0  501    0  0.00000000000E+00  0.00000000000E+00 -0.24653023043E+04  0.24653023043E+04  0.25500000920E-02 0. -1.
    10030    2    1    2    0    0  0.00000000000E+00  0.00000000000E+00 -0.16783847881E+04  0.32522198205E+04  0.27856701642E+04 0.  0.
        3    1    3    3  502    0  0.73884648897E+03 -0.61159660242E+03  0.33993266430E+03  0.10175945975E+04  0.10100000352E+00 0.  1.
       -3    1    3    3    0  502 -0.73884648897E+03  0.61159660242E+03 -0.20183174524E+04  0.22346252230E+04  0.10100000352E+00 0. -1.
</event>
<event>
 5   0  0.5866136E-06  0.2801539E+04  0.7818609E-02  0.8302791E-01
       -2   -1    0    0    0  501  0.00000000000E+00  0.00000000000E+00  0.13926875666E+04  0.13926875666E+04  0.25500000920E-02 0.  1.
        2   -1    0    0  501    0  0.00000000000E+00  0.00000000000E+00 -0.14088987901E+04  0.14088987901E+04  0.25500000920E-02 0. -1.
    10030    2    1    2    0    0  0.00000000000E+00  0.00000000000E+00 -0.16211223476E+02  0.28015863567E+04  0.28015394536E+04 0.  0.
        5    1    3    3  502    0 -0.92404304340E+03  0.91737996492E+03 -0.52453675081E+03  0.14037814784E+04  0.46999998093E+01 0. -1.
       -5    1    3    3    0  502  0.92404304340E+03 -0.91737996492E+03  0.50832552733E+03  0.13978048783E+04  0.46999998093E+01 0.  1.
</event>
<event>
 5   0  0.2190865E-06  0.2799728E+04  0.7818609E-02  0.8303353E-01
        1   -1    0    0  501    0  0.00000000000E+00  0.00000000000E+00  0.18170117349E+04  0.18170117349E+04  0.50400001928E-02 0.  1.
       -1   -1    0    0    0  501  0.00000000000E+00  0.00000000000E+00 -0.10784843746E+04  0.10784843746E+04  0.50400001928E-02 0. -1.
    10030    2    1    2    0    0  0.00000000000E+00  0.00000000000E+00  0.73852736025E+03  0.28954961095E+04  0.27997276757E+04 0.  0.
        2    1    3    3  502    0  0.99832069169E+03 -0.11167354742E+03 -0.63902310163E+03  0.11905736891E+04  0.25500000920E-02 0. -1.
       -2    1    3    3    0  502 -0.99832069169E+03  0.11167354742E+03  0.13775504619E+04  0.17049224204E+04  0.25500000920E-02 0.  1.
</event>
<event>
 5   0  0.5625245E-06  0.2805645E+04  0.7818609E-02  0.8301518E-01
        2   -1    0    0  501    0  0.00000000000E+00  0.00000000000E+00  0.23213043392E+04  0.23213043392E+04  0.25500000920E-02 0.  1.
       -2   -1    0    0    0  501  0.00000000000E+00  0.00000000000E+00 -0.84776072378E+03  0.84776072378E+03  0.25500000920E-02 0. -1.
    10030    2    1    2    0    0  0.00000000000E+00  0.00000000000E+00  0.14735436154E+04  0.31690650630E+04  0.28056447720E+04 0.  0.
        3    1    3    3  502    0 -0.84183223917E+03 -0.28002162770E+03 -0.49063851607E+03  0.10138144774E+04  0.10100000352E+00 0. -1.
       -3    1    3    3    0  502  0.84183223917E+03  0.28002162770E+03  0.19641821315E+04  0.21552505856E+04  0.10100000352E+00 0.  1.
</event>
<event>
 5   0  0.5546570E-06  0.2784863E+04  0.7818609E-02  0.8307983E-01
        2   -1    0    0  501    0  0.00000000000E+00  0.00000000000E+00  0.12236643436E+04  0.12236643436E+04  0.25500000920E-02 0. -1.
       -2   -1    0    0    0  501  0.00000000000E+00  0.00000000000E+00 -0.15844750445E+04  0.15844750445E+04  0.25500000920E-02 0.  1.
    10030    2    1    2    0    0  0.00000000000E+00  0.00000000000E+00 -0.36081070089E+03  0.28081393881E+04  0.27848630955E+04 0.  0.
        4    1    3    3  502    0 -0.72875229415E+03  0.68302363247E+03  0.79789061349E+03  0.12783709292E+04  0.12699999809E+01 0. -1.
       -4    1    3    3    0  502  0.72875229415E+03 -0.68302363247E+03 -0.11587013144E+04  0.15297684588E+04  0.12699999809E+01 0.  1.
</event>
<event>
 5   0  0.5625245E-06  0.2802782E+04  0.7818609E-02  0.8302405E-01
       -2   -1    0    0    0  501  0.00000000000E+00  0.00000000000E+00  0.14140952914E+04  0.14140952914E+04  0.25500000920E-02 0. -1.
        2   -1    0    0  501    0  0.00000000000E+00  0.00000000000E+00 -0.13888004655E+04  0.13888004655E+04  0.25500000920E-02 0.  1.
    10030    2    1    2    0    0  0.00000000000E+00  0.00000000000E+00  0.25294825921E+02  0.28028957570E+04  0.28027816177E+04 0.  0.
        3    1    3    3  502    0 -0.88701850477E+03  0.85959752723E+03 -0.64933607778E+03  0.13954737865E+04  0.10100000352E+00 0.  1.
       -3    1    3    3    0  502  0.88701850477E+03 -0.85959752723E+03  0.67463090370E+03  0.14074219705E+04  0.10100000352E+00 0. -1.
</event>
<event>
 5   0  0.2190865E-06  0.2758903E+04  0.7818609E-02  0.8316142E-01
        1   -1    0    0  501    0  0.00000000000E+00  0.00000000000E+00  0.13166725914E+04  0.13166725914E+04  0.50400001928E-02 0.  1.
       -1   -1    0    0    0  501  0.00000000000E+00  0.00000000000E+00 -0.14452234347E+04  0.14452234347E+04  0.50400001928E-02 0. -1.
    10030    2    1    2    0    0  0.00000000000E+00  0.00000000000E+00 -0.12855084328E+03  0.27618960261E+04  0.27589027420E+04 0.  0.
        2    1    3    3  502    0  0.86867725716E+03 -0.15998501113E+03 -0.11249960080E+04  0.14303186355E+04  0.25500000920E-02 0. -1.
       -2    1    3    3    0  502 -0.86867725716E+03  0.15998501113E+03  0.99644516474E+03  0.13315773906E+04  0.25500000920E-02 0.  1.
</event>
<event>
 5   0  0.5916603E-06  0.2802810E+04  0.7818609E-02  0.8302396E-01
        2   -1    0    0  501    0  0.00000000000E+00  0.00000000000E+00  0.16319642377E+04  0.16319642377E+04  0.25500000920E-02 0.  1.
       -2   -1    0    0    0  501  0.00000000000E+00  0.00000000000E+00 -0.12034185504E+04  0.12034185504E+04  0.25500000920E-02 0. -1.
    10030    2    1    2    0    0  0.00000000000E+00  0.00000000000E+00  0.42854568738E+03  0.28353827881E+04  0.28028100451E+04 0.  0.
        2    1    3    3  502    0  0.38824566659E+03  0.61585728350E+03 -0.99710790634E+03  0.12346007728E+04  0.25500000920E-02 0. -1.
       -2    1    3    3    0  502 -0.38824566659E+03 -0.61585728350E+03  0.14256535937E+04  0.16007820153E+04  0.25500000920E-02 0.  1.
</event>
<event>
 5   0  0.2267565E-06  0.2801846E+04  0.7818609E-02  0.8302695E-01
       -1   -1    0    0    0  501  0.00000000000E+00  0.00000000000E+00  0.13567671759E+04  0.13567671759E+04  0.50400001928E-02 0.  1.
        1   -1    0    0  501    0  0.00000000000E+00  0.00000000000E+00 -0.14465160101E+04  0.14465160101E+04  0.50400001928E-02 0. -1.
    10030    2    1    2    0    0  0.00000000000E+00  0.00000000000E+00 -0.89748834238E+02  0.28032831860E+04  0.28018461356E+04 0.  0.
        4    1    3    3  502    0  0.11904579998E+04 -0.46096940992E+03 -0.62214589240E+03  0.14201232941E+04  0.12699999809E+01 0.  1.
       -4    1    3    3    0  502 -0.11904579998E+04  0.46096940992E+03  0.53239705816E+03  0.13831598919E+04  0.12699999809E+01 0. -1.
</event>
<event>
 5   0  0.2267565E-06  0.2721881E+04  0.7818609E-02  0.8327940E-01
        1   -1    0    0  501    0  0.00000000000E+00  0.00000000000E+00  0.16123206194E+04  0.16123206194E+04  0.50400001928E-02 0.  1.
       -1   -1    0    0    0  501  0.00000000000E+00  0.00000000000E+00 -0.11487535453E+04  0.11487535453E+04  0.50400001928E-02 0. -1.
    10030    2    1    2    0    0  0.00000000000E+00  0.00000000000E+00  0.46356707412E+03  0.27610741647E+04  0.27218809877E+04 0.  0.
        4    1    3    3  502    0 -0.12515782242E+04 -0.17523861870E+02 -0.31013955559E+03  0.12895515863E+04  0.12699999809E+01 0. -1.
       -4    1    3    3    0  502  0.12515782242E+04  0.17523861870E+02  0.77370662971E+03  0.14715225784E+04  0.12699999809E+01 0.  1.
</event>
<event>
 5   0  0.5546570E-06  0.2808427E+04  0.7818609E-02  0.8300657E-01
       -2   -1    0    0    0  501  0.00000000000E+00  0.00000000000E+00  0.12491684687E+04  0.12491684687E+04  0.25500000920E-02 0. -1.
        2   -1    0    0  501    0  0.00000000000E+00  0.00000000000E+00 -0.15785028936E+04  0.15785028936E+04  0.25500000920E-02 0.  1.
    10030    2    1    2    0    0  0.00000000000E+00  0.00000000000E+00 -0.32933442497E+03  0.28276713623E+04  0.28084273481E+04 0.  0.
        4    1    3    3  502    0  0.12129749368E+04 -0.32872026304E+03 -0.79541752668E+03  0.14872981757E+04  0.12699999809E+01 0.  1.
       -4    1    3    3    0  502 -0.12129749368E+04  0.32872026304E+03  0.46608310171E+03  0.13403731866E+04  0.12699999809E+01 0. -1.
</event>
<event>
 5   0  0.2206967E-06  0.2801211E+04  0.7818609E-02  0.8302893E-01
        1   -1    0    0  501    0  0.00000000000E+00  0.00000000000E+00  0.65615195602E+03  0.65615195604E+03  0.50400001928E-02 0.  1.
       -1   -1    0    0    0  501  0.00000000000E+00  0.00000000000E+00 -0.29896971439E+04  0.29896971439E+04  0.50400001928E-02 0. -1.
    10030    2    1    2    0    0  0.00000000000E+00  0.00000000000E+00 -0.23335451879E+04  0.36458491000E+04  0.28012109017E+04 0.  0.
        5    1    3    3  502    0  0.97845841829E+03 -0.34966498646E+03  0.55572506716E+02  0.10405560401E+04  0.46999998093E+01 0.  1.
       -5    1    3    3    0  502 -0.97845841829E+03  0.34966498646E+03 -0.23891176946E+04  0.26052930599E+04  0.46999998093E+01 0. -1.
</event>
<event>
 5   0  0.2190865E-06  0.2793715E+04  0.7818609E-02  0.8305222E-01
        1   -1    0    0  501    0  0.00000000000E+00  0.00000000000E+00  0.69723052278E+03  0.69723052280E+03  0.50400001928E-02 0. -1.
       -1   -1    0    0    0  501  0.00000000000E+00  0.00000000000E+00 -0.27985160428E+04  0.27985160428E+04  0.50400001928E-02 0.  1.
    10030    2    1    2    0    0  0.00000000000E+00  0.00000000000E+00 -0.21012855200E+04  0.34957465656E+04  0.27937149487E+04 0.  0.
        2    1    3    3  502    0  0.87862710030E+03  0.49808579935E+03  0.15679388046E+03  0.10220857918E+04  0.25500000920E-02 0. -1.
       -2    1    3    3    0  502 -0.87862710030E+03 -0.49808579935E+03 -0.22580794005E+04  0.24736607738E+04  0.25500000920E-02 0.  1.
</event>
<event>
 5   0  0.5584205E-06  0.2836108E+04  0.7818609E-02  0.8292145E-01
       -2   -1    0    0    0  501  0.00000000000E+00  0.00000000000E+00  0.13052177394E+04  0.13052177394E+04  0.25500000920E-02 0.  1.
        2   -1    0    0  501    0  0.00000000000E+00  0.00000000000E+00 -0.15406451962E+04  0.15406451962E+04  0.25500000920E-02 0. -1.
    10030    2    1    2    0    0  0.00000000000E+00  0.00000000000E+00 -0.23542745676E+03  0.28458629356E+04  0.28361082068E+04 0.  0.
        1    1    3    3  502    0  0.35024355054E+03 -0.86326770767E+03 -0.11904913192E+04  0.15116782928E+04  0.50400001928E-02 0. -1.
       -1    1    3    3    0  502 -0.35024355054E+03  0.86326770767E+03  0.95506386240E+03  0.13341846428E+04  0.50400001928E-02 0.  1.
</event>
<event>
 5   0  0.5625245E-06  0.2817567E+04  0.7818609E-02  0.8297835E-01
       -2   -1    0    0    0  501  0.00000000000E+00  0.00000000000E+00  0.73452556270E+03  0.73452556271E+03  0.25500000920E-02 0.  1.
        2   -1    0    0  501    0  0.00000000000E+00  0.00000000000E+00 -0.27019764954E+04  0.27019764954E+04  0.25500000920E-02 0. -1.
    10030    2    1    2    0    0  0.00000000000E+00  0.00000000000E+00 -0.19674509327E+04  0.34365020581E+04  0.28175668977E+04 0.  0.
        3    1    3    3  502    0 -0.96566634373E+03 -0.93883681738E+03 -0.47974229292E+03  0.14297128155E+04  0.10100000352E+00 0. -1.
       -3    1    3    3    0  502  0.96566634373E+03  0.93883681738E+03 -0.14877086398E+04  0.20067892426E+04  0.10100000352E+00 0.  1.
</event>
<event>
 5   0  0.5546570E-06  0.2801380E+04  0.7818609E-02  0.8302840E-01
       -2   -1    0    0    0  501  0.00000000000E+00  0.00000000000E+00  0.91597145196E+03  0.91597145196E+03  0.25500000920E-02 0.  1.
        2   -1    0    0  501    0  0.00000000000E+00  0.00000000000E+00 -0.21419139197E+04  0.21419139197E+04  0.25500000920E-02 0. -1.
    10030    2    1    2    0    0  0.00000000000E+00  0.00000000000E+00 -0.12259424677E+04  0.30578853717E+04  0.28013796622E+04 0.  0.
        4    1    3    3  502    0  0.67864039659E+03  0.12137243327E+02  0.72446439704E+03  0.99274889878E+03  0.12699999809E+01 0.  1.
       -4    1    3    3    0  502 -0.67864039659E+03 -0.12137243327E+02 -0.19504068648E+04  0.20651364729E+04  0.12699999809E+01 0. -1.
</event>
<event>
 5   0  0.2277133E-06  0.2774303E+04  0.7818609E-02  0.8311291E-01
        1   -1    0    0  501    0  0.00000000000E+00  0.00000000000E+00  0.18426120869E+04  0.18426120869E+04  0.50400001928E-02 0.  1.
       -1   -1    0    0    0  501  0.00000000000E+00  0.00000000000E+00 -0.10442728431E+04  0.10442728432E+04  0.50400001928E-02 0. -1.
    10030    2    1    2    0    0  0.00000000000E+00  0.00000000000E+00  0.79833924375E+03  0.28868849301E+04  0.27743033452E+04 0.  0.
        1    1    3    3  502    0  0.78872983522E+03 -0.67119413885E+03 -0.56109666305E+03  0.11778903983E+04  0.50400001928E-02 0. -1.
       -1    1    3    3    0  502 -0.78872983522E+03  0.67119413885E+03  0.13594359068E+04  0.17089945318E+04  0.50400001928E-02 0.  1.
</event>
<event>
 5   0  0.5546570E-06  0.2823410E+04  0.7818609E-02  0.8296037E-01
       -2   -1    0    0    0  501  0.00000000000E+00  0.00000000000E+00  0.10731760074E+04  0.10731760074E+04  0.25500000920E-02 0. -1.
        2   -1    0    0  501    0  0.00000000000E+00  0.00000000000E+00 -0.18570213407E+04  0.18570213407E+04  0.25500000920E-02 0.  1.
    10030    2    1    2    0    0  0.00000000000E+00  0.00000000000E+00 -0.78384533335E+03  0.29301973481E+04  0.28234098166E+04 0.  0.
        4    1    3    3  502    0  0.29205496367E+03 -0.61911630435E+03  0.88940239323E+03  0.11223365494E+04  0.12699999809E+01 0. -1.
       -4    1    3    3    0  502 -0.29205496367E+03  0.61911630435E+03 -0.16732477266E+04  0.18078607987E+04  0.12699999809E+01 0.  1.
</event>
<event>
 5   0  0.2234068E-06  0.2849160E+04  0.7818609E-02  0.8288167E-01
        1   -1    0    0  501    0  0.00000000000E+00  0.00000000000E+00  0.14150766625E+04  0.14150766625E+04  0.50400001928E-02 0. -1.
       -1   -1    0    0    0  501  0.00000000000E+00  0.00000000000E+00 -0.14341474745E+04  0.14341474745E+04  0.50400001928E-02 0.  1.
    10030    2    1    2    0    0  0.00000000000E+00  0.00000000000E+00 -0.19070811945E+02  0.28492241370E+04  0.28491603127E+04 0.  0.
        3    1    3    3  502    0  0.12157044700E+04 -0.54573792897E+02 -0.75016860084E+03  0.14295693747E+04  0.10100000352E+00 0.  1.
       -3    1    3    3    0  502 -0.12157044700E+04  0.54573792897E+02  0.73109778890E+03  0.14196547624E+04  0.10100000352E+00 0. -1.
</event>
<event>
 5   0  0.5625245E-06  0.2783241E+04  0.7818609E-02  0.8308490E-01
       -2   -1    0    0    0  501  0.00000000000E+00  0.00000000000E+00  0.10948405904E+04  0.10948405904E+04  0.25500000920E-02 0.  1.
        2   -1    0    0  501    0  0.00000000000E+00  0.00000000000E+00 -0.17688495718E+04  0.17688495718E+04  0.25500000920E-02 0. -1.
    10030    2    1    2    0    0  0.00000000000E+00  0.00000000000E+00 -0.67400898136E+03  0.28636901622E+04  0.27832414984E+04 0.  0.
        3    1    3    3  502    0 -0.98353068899E+03 -0.33360807806E+03  0.61604193309E+03  0.12075324590E+04  0.10100000352E+00 0.  1.
       -3    1    3    3    0  502  0.98353068899E+03  0.33360807806E+03 -0.12900509145E+04  0.16561577032E+04  0.10100000352E+00 0. -1.
</event>
<event>
 5   0  0.5625245E-06  0.2796002E+04  0.7818609E-02  0.8304511E-01
       -2   -1    0    0    0  501  0.00000000000E+00  0.00000000000E+00  0.12047694794E+04  0.12047694794E+04  0.25500000920E-02 0.  1.
        2   -1    0    0  501    0  0.00000000000E+00  0.00000000000E+00 -0.16222247140E+04  0.16222247140E+04  0.25500000920E-02 0. -1.
    10030    2    1    2    0    0  0.00000000000E+00  0.00000000000E+00 -0.41745523461E+03  0.28269941934E+04  0.27960020201E+04 0.  0.
        3    1    3    3  502    0  0.10006529432E+04 -0.62861610862E+03  0.54650732577E+03  0.13019734221E+04  0.10100000352E+00 0.  1.
       -3    1    3    3    0  502 -0.10006529432E+04  0.62861610862E+03 -0.96396256038E+03  0.15250207712E+04  0.10100000352E+00 0. -1.
</event>
<event>
 5   0  0.2277133E-06  0.2800827E+04  0.7818609E-02  0.8303012E-01
       -1   -1    0    0    0  501  0.00000000000E+00  0.00000000000E+00  0.23405591404E+04  0.23405591404E+04  0.50400001928E-02 0.  1.
        1   -1    0    0  501    0  0.00000000000E+00  0.00000000000E+00 -0.83790123574E+03  0.83790123576E+03  0.50400001928E-02 0. -1.
    10030    2    1    2    0    0  0.00000000000E+00  0.00000000000E+00  0.15026579046E+04  0.31784603761E+04  0.28008265895E+04 0.  0.
        1    1    3    3  502    0 -0.11380058653E+04  0.81452588399E+03  0.69293615324E+03  0.15616242434E+04  0.50400001928E-02 0. -1.
       -1    1    3    3    0  502  0.11380058653E+04 -0.81452588399E+03  0.80972175138E+03  0.16168361327E+04  0.50400001928E-02 0.  1.
</event>
<event>
 5   0  0.2277133E-06  0.2825431E+04  0.7818609E-02  0.8295416E-01
        1   -1    0    0  501    0  0.00000000000E+00  0.00000000000E+00  0.18206292483E+04  0.18206292483E+04  0.50400001928E-02 0.  1.
       -1   -1    0    0    0  501  0.00000000000E+00  0.00000000000E+00 -0.10961949577E+04  0.10961949577E+04  0.50400001928E-02 0. -1.
    10030    2    1    2    0    0  0.00000000000E+00  0.00000000000E+00  0.72443429063E+03  0.29168242060E+04  0.28254306588E+04 0.  0.
        1    1    3    3  502    0 -0.64460876680E+03  0.41892501419E+03 -0.86134068247E+03  0.11545243181E+04  0.50400001928E-02 0. -1.
       -1    1    3    3    0  502  0.64460876680E+03 -0.41892501419E+03  0.15857749731E+04  0.17622998880E+04  0.50400001928E-02 0.  1.
</event>
<event>
 5   0  0.5584205E-06  0.2814839E+04  0.7818609E-02  0.8298676E-01
       -2   -1    0    0    0  501  0.00000000000E+00  0.00000000000E+00  0.60743550787E+03  0.60743550787E+03  0.25500000920E-02 0.  1.
        2   -1    0    0  501    0  0.00000000000E+00  0.00000000000E+00 -0.32609713761E+04  0.32609713761E+04  0.25500000920E-02 0. -1.
    10030    2    1    2    0    0  0.00000000000E+00  0.00000000000E+00 -0.26535358682E+04  0.38684068839E+04  0.28148391101E+04 0.  0.
        1    1    3    3  502    0  0.13009429257E+04 -0.44978492729E+03 -0.92358089826E+03  0.16576370690E+04  0.50400001928E-02 0.  1.
       -1    1    3    3    0  502 -0.13009429257E+04  0.44978492729E+03 -0.17299549700E+04  0.22107698150E+04  0.50400001928E-02 0. -1.
</event>
<event>
 5   0  0.2267565E-06  0.2560220E+04  0.7818609E-02  0.8381841E-01
        1   -1    0    0  501    0  0.00000000000E+00  0.00000000000E+00  0.19559561917E+04  0.19559561917E+04  0.50400001928E-02 0.  1.
       -1   -1    0    0    0  501  0.00000000000E+00  0.00000000000E+00 -0.83779039811E+03  0.83779039813E+03  0.50400001928E-02 0. -1.
    10030    2    1    2    0    0  0.00000000000E+00  0.00000000000E+00  0.11181657936E+04  0.27937465898E+04  0.25602197691E+04 0.  0.
        4    1    3    3  502    0 -0.18925932377E+03 -0.33710602363E+03 -0.77256440736E+03  0.86389637065E+03  0.12699999809E+01 0. -1.
       -4    1    3    3    0  502  0.18925932377E+03  0.33710602363E+03  0.18907302010E+04  0.19298502192E+04  0.12699999809E+01 0.  1.
</event>
<event>
 5   0  0.5866136E-06  0.2804880E+04  0.7818609E-02  0.8301755E-01
       -2   -1    0    0    0  501  0.00000000000E+00  0.00000000000E+00  0.12724871880E+04  0.12724871880E+04  0.25500000920E-02 0.  1.
        2   -1    0    0  501    0  0.00000000000E+00  0.00000000000E+00 -0.15456637917E+04  0.15456637917E+04  0.25500000920E-02 0. -1.
    10030    2    1    2    0    0  0.00000000000E+00  0.00000000000E+00 -0.27317660375E+03  0.28181509797E+04  0.28048795852E+04 0.  0.
        5    1    3    3  502    0  0.24984748382E+02 -0.92938838182E+03 -0.11915221023E+04  0.15113351753E+04  0.46999998093E+01 0. -1.
       -5    1    3    3    0  502 -0.24984748382E+02  0.92938838182E+03  0.91834549852E+03  0.13068158044E+04  0.46999998093E+01 0.  1.
</event>
<event>
 5   0  0.2190865E-06  0.2796668E+04  0.7818609E-02  0.8304304E-01
       -1   -1    0    0    0  501  0.00000000000E+00  0.00000000000E+00  0.90260217877E+03  0.90260217878E+03  0.50400001928E-02 0.  1.
        1   -1    0    0  501    0  0.00000000000E+00  0.00000000000E+00 -0.21663336482E+04  0.21663336482E+04  0.50400001928E-02 0. -1.
    10030    2    1    2    0    0  0.00000000000E+00  0.00000000000E+00 -0.12637314694E+04  0.30689358270E+04  0.27966676390E+04 0.  0.
        2    1    3    3  502    0 -0.79350196188E+03  0.56120881038E+03 -0.17350955354E+04  0.19887577050E+04  0.25500000920E-02 0. -1.
       -2    1    3    3    0  502  0.79350196188E+03 -0.56120881038E+03  0.47136406600E+03  0.10801781219E+04  0.25500000920E-02 0.  1.
</event>
<event>
 5   0  0.2206967E-06  0.2856096E+04  0.7818609E-02  0.8286061E-01
       -1   -1    0    0    0  501  0.00000000000E+00  0.00000000000E+00  0.14061394158E+04  0.14061394158E+04  0.50400001928E-02 0.  1.
        1   -1    0    0  501    0  0.00000000000E+00  0.00000000000E+00 -0.14502975671E+04  0.14502975671E+04  0.50400001928E-02 0. -1.
    10030    2    1    2    0    0  0.00000000000E+00  0.00000000000E+00 -0.44158151303E+02  0.28564369829E+04  0.28560956383E+04 0.  0.
        5    1    3    3  502    0 -0.39173442010E+03 -0.65532493298E+03 -0.12290339218E+04  0.14468770143E+04  0.46999998093E+01 0. -1.
       -5    1    3    3    0  502  0.39173442010E+03  0.65532493298E+03  0.11848757705E+04  0.14095599686E+04  0.46999998093E+01 0.  1.
</event>
<event>
 5   0  0.2234068E-06  0.2759102E+04  0.7818609E-02  0.8316079E-01
        1   -1    0    0  501    0  0.00000000000E+00  0.00000000000E+00  0.17380786595E+04  0.17380786595E+04  0.50400001928E-02 0. -1.
       -1   -1    0    0    0  501  0.00000000000E+00  0.00000000000E+00 -0.10949798847E+04  0.10949798847E+04  0.50400001928E-02 0.  1.
    10030    2    1    2    0    0  0.00000000000E+00  0.00000000000E+00  0.64309877481E+03  0.28330585442E+04  0.27591021512E+04 0.  0.
        3    1    3    3  502    0 -0.88962669406E+03 -0.35437613182E+03 -0.69811612639E+03  0.11850671853E+04  0.10100000352E+00 0.  1.
       -3    1    3    3    0  502  0.88962669406E+03  0.35437613182E+03  0.13412149012E+04  0.16479913589E+04  0.10100000352E+00 0. -1.
</event>
<event>
 5   0  0.5866136E-06  0.2740431E+04  0.7818609E-02  0.8322004E-01
        2   -1    0    0  501    0  0.00000000000E+00  0.00000000000E+00  0.12511815078E+04  0.12511815078E+04  0.25500000920E-02 0.  1.
       -2   -1    0    0    0  501  0.00000000000E+00  0.00000000000E+00 -0.15005742308E+04  0.15005742308E+04  0.25500000920E-02 0. -1.
    10030    2    1    2    0    0  0.00000000000E+00  0.00000000000E+00 -0.24939272292E+03  0.27517557386E+04  0.27404311549E+04 0.  0.
        5    1    3    3  502    0 -0.21324014646E+03 -0.87848048305E+03 -0.11586452768E+04  0.14695850729E+04  0.46999998093E+01 0. -1.
       -5    1    3    3    0  502  0.21324014646E+03  0.87848048305E+03  0.90925255388E+03  0.12821706657E+04  0.46999998093E+01 0.  1.
</event>
<event>
 5   0  0.2190865E-06  0.2793293E+04  0.7818609E-02  0.8305354E-01
       -1   -1    0    0    0  501  0.00000000000E+00  0.00000000000E+00  0.75124774923E+03  0.75124774925E+03  0.50400001928E-02 0.  1.
        1   -1    0    0  501    0  0.00000000000E+00  0.00000000000E+00 -0.25965095617E+04  0.25965095617E+04  0.50400001928E-02 0. -1.
    10030    2    1    2    0    0  0.00000000000E+00  0.00000000000E+00 -0.18452618125E+04  0.33477573110E+04  0.27932933710E+04 0.  0.
        2    1    3    3  502    0 -0.31033596934E+03 -0.34217811384E+03 -0.25022987871E+04  0.25445812023E+04  0.25500000920E-02 0. -1.
       -2    1    3    3    0  502  0.31033596934E+03  0.34217811384E+03  0.65703697461E+03  0.80317610863E+03  0.25500000920E-02 0.  1.
</event>
<event>
 5   0  0.2234068E-06  0.2804349E+04  0.7818609E-02  0.8301920E-01
        1   -1    0    0  501    0  0.00000000000E+00  0.00000000000E+00  0.13747537745E+04  0.13747537745E+04  0.50400001928E-02 0.  1.
       -1   -1    0    0    0  501  0.00000000000E+00  0.00000000000E+00 -0.14301417668E+04  0.14301417668E+04  0.50400001928E-02 0. -1.
    10030    2    1    2    0    0  0.00000000000E+00  0.00000000000E+00 -0.55387992326E+02  0.28048955413E+04  0.28043486174E+04 0.  0.
        3    1    3    3  502    0 -0.15180205095E+03  0.39247152176E+03 -0.13654955153E+04  0.14288652037E+04  0.10100000352E+00 0. -1.
       -3    1    3    3    0  502  0.15180205095E+03 -0.39247152176E+03  0.13101075229E+04  0.13760303376E+04  0.10100000352E+00 0.  1.
</event>
<event>
 5   0  0.5625245E-06  0.2758757E+04  0.7818609E-02  0.8316188E-01
        2   -1    0    0  501    0  0.00000000000E+00  0.00000000000E+00  0.20392191050E+04  0.20392191050E+04  0.25500000920E-02 0. -1.
       -2   -1    0    0    0  501  0.00000000000E+00  0.00000000000E+00 -0.93304623395E+03  0.93304623395E+03  0.25500000920E-02 0.  1.
    10030    2    1    2    0    0  0.00000000000E+00  0.00000000000E+00  0.11061728711E+04  0.29722653390E+04  0.27587574784E+04 0.  0.
        3    1    3    3  502    0  0.31868389099E+03  0.25931267837E+03 -0.86559202149E+03  0.95815032506E+03  0.10100000352E+00 0.  1.
       -3    1    3    3    0  502 -0.31868389099E+03 -0.25931267837E+03  0.19717648926E+04  0.20141150139E+04  0.10100000352E+00 0. -1.
</event>
<event>
 5   0  0.5866136E-06  0.2766697E+04  0.7818609E-02  0.8313683E-01
        2   -1    0    0  501    0  0.00000000000E+00  0.00000000000E+00  0.14959348927E+04  0.14959348927E+04  0.25500000920E-02 0.  1.
       -2   -1    0    0    0  501  0.00000000000E+00  0.00000000000E+00 -0.12792351038E+04  0.12792351038E+04  0.25500000920E-02 0. -1.
    10030    2    1    2    0    0  0.00000000000E+00  0.00000000000E+00  0.21669978898E+03  0.27751699965E+04  0.27666965339E+04 0.  0.
        5    1    3    3  502    0 -0.46936312958E+03 -0.44327778623E+03 -0.11188485536E+04  0.12917589245E+04  0.46999998093E+01 0. -1.
       -5    1    3    3    0  502  0.46936312958E+03  0.44327778623E+03  0.13355483426E+04  0.14834110720E+04  0.46999998093E+01 0.  1.
</event>
<event>
 5   0  0.5584205E-06  0.2496085E+04  0.7818609E-02  0.8404381E-01
        2   -1    0    0  501    0  0.00000000000E+00  0.00000000000E+00  0.14206989065E+04  0.14206989065E+04  0.25500000920E-02 0.  1.
       -2   -1    0    0    0  501  0.00000000000E+00  0.00000000000E+00 -0.10963692439E+04  0.10963692439E+04  0.25500000920E-02 0. -1.
    10030    2    1    2    0    0  0.00000000000E+00  0.00000000000E+00  0.32432966268E+03  0.25170681504E+04  0.24960854039E+04 0.  0.
        1    1    3    3  502    0 -0.66259117121E+03 -0.29559390196E+03  0.11861852636E+04  0.13904813176E+04  0.50400001928E-02 0.  1.
       -1    1    3    3    0  502  0.66259117121E+03  0.29559390196E+03 -0.86185560090E+03  0.11265868328E+04  0.50400001928E-02 0. -1.
</event>
<event>
 5   0  0.2267565E-06  0.2760000E+04  0.7818609E-02  0.8315796E-01
       -1   -1    0    0    0  501  0.00000000000E+00  0.00000000000E+00  0.12399419863E+04  0.12399419863E+04  0.50400001928E-02 0.  1.
        1   -1    0    0  501    0  0.00000000000E+00  0.00000000000E+00 -0.15358778909E+04  0.15358778909E+04  0.50400001928E-02 0. -1.
    10030    2    1    2    0    0  0.00000000000E+00  0.00000000000E+00 -0.29593590457E+03  0.27758198772E+04  0.27599996252E+04 0.  0.
        4    1    3    3  502    0 -0.34705037663E+03 -0.86266002524E+03 -0.11735047097E+04  0.14972445357E+04  0.12699999809E+01 0. -1.
       -4    1    3    3    0  502  0.34705037663E+03  0.86266002524E+03  0.87756880517E+03  0.12785753415E+04  0.12699999809E+01 0.  1.
</event>
<event>
 5   0  0.2206967E-06  0.2806319E+04  0.7818609E-02  0.8301309E-01
       -1   -1    0    0    0  501  0.00000000000E+00  0.00000000000E+00  0.15476239319E+04  0.15476239319E+04  0.50400001928E-02 0. -1.
        1   -1    0    0  501    0  0.00000000000E+00  0.00000000000E+00 -0.12721801688E+04  0.12721801688E+04  0.50400001928E-02 0.  1.
    10030    2    1    2    0    0  0.00000000000E+00  0.00000000000E+00  0.27544376306E+03  0.28198041007E+04  0.28063189234E+04 0.  0.
        5    1    3    3  502    0 -0.10478718104E+02  0.14485714372E+03  0.15400431309E+04  0.15468834250E+04  0.46999998093E+01 0. -1.
       -5    1    3    3    0  502  0.10478718104E+02 -0.14485714372E+03 -0.12645993678E+04  0.12729206757E+04  0.46999998093E+01 0.  1.
</event>
<event>
 5   0  0.2234068E-06  0.2803773E+04  0.7818609E-02  0.8302098E-01
        1   -1    0    0  501    0  0.00000000000E+00  0.00000000000E+00  0.17960812871E+04  0.17960812871E+04  0.50400001928E-02 0.  1.
       -1   -1    0    0    0  501  0.00000000000E+00  0.00000000000E+00 -0.10942072624E+04  0.10942072625E+04  0.50400001928E-02 0. -1.
    10030    2    1    2    0    0  0.00000000000E+00  0.00000000000E+00  0.70187402469E+03  0.28902885496E+04  0.28037725930E+04 0.  0.
        3    1    3    3  502    0  0.76893598997E+03 -0.28697779147E+03  0.15225214443E+04  0.17296503601E+04  0.10100000352E+00 0.  1.
       -3    1    3    3    0  502 -0.76893598997E+03  0.28697779147E+03 -0.82064741963E+03  0.11606381895E+04  0.10100000352E+00 0. -1.
</event>
<event>
 5   0  0.5916603E-06  0.2798953E+04  0.7818609E-02  0.8303593E-01
       -2   -1    0    0    0  501  0.00000000000E+00  0.00000000000E+00  0.11214762529E+04  0.11214762529E+04  0.25500000920E-02 0.  1.
        2   -1    0    0  501    0  0.00000000000E+00  0.00000000000E+00 -0.17463901456E+04  0.17463901456E+04  0.25500000920E-02 0. -1.
    10030    2    1    2    0    0  0.00000000000E+00  0.00000000000E+00 -0.62491389272E+03  0.28678663984E+04  0.27989534305E+04 0.  0.
        2    1    3    3  502    0  0.10217321030E+03 -0.10956653309E+04  0.57347777264E+03  0.12408862308E+04  0.25500000920E-02 0.  1.
       -2    1    3    3    0  502 -0.10217321030E+03  0.10956653309E+04 -0.11983916654E+04  0.16269801676E+04  0.25500000920E-02 0. -1.
</event>
<event>
 5   0  0.2234068E-06  0.2734682E+04  0.7818609E-02  0.8323839E-01
        1   -1    0    0  501    0  0.00000000000E+00  0.00000000000E+00  0.23337403273E+04  0.23337403273E+04  0.50400001928E-02 0. -1.
       -1   -1    0    0    0  501  0.00000000000E+00  0.00000000000E+00 -0.80112686515E+03  0.80112686516E+03  0.50400001928E-02 0.  1.
    10030    2    1    2    0    0  0.00000000000E+00  0.00000000000E+00  0.15326134622E+04  0.31348671925E+04  0.27346824843E+04 0.  0.
        3    1    3    3  502    0  0.15573692741E+03  0.19358251161E+02  0.23233821119E+04  0.23286762722E+04  0.10100000352E+00 0. -1.
       -3    1    3    3    0  502 -0.15573692741E+03 -0.19358251161E+02 -0.79076864972E+03  0.80619092033E+03  0.10100000352E+00 0.  1.
</event>
<event>
 5   0  0.2190865E-06  0.2791843E+04  0.7818609E-02  0.8305805E-01
        1   -1    0    0  501    0  0.00000000000E+00  0.00000000000E+00  0.27951282476E+04  0.27951282476E+04  0.50400001928E-02 0.  1.
       -1   -1    0    0    0  501  0.00000000000E+00  0.00000000000E+00 -0.69714030759E+03  0.69714030760E+03  0.50400001928E-02 0. -1.
    10030    2    1    2    0    0  0.00000000000E+00  0.00000000000E+00  0.20979879401E+04  0.34922685552E+04  0.27918428081E+04 0.  0.
        2    1    3    3  502    0  0.52112460041E+03 -0.55716346098E+01 -0.57088479794E+03  0.77298857998E+03  0.25500000920E-02 0. -1.
       -2    1    3    3    0  502 -0.52112460041E+03  0.55716346098E+01  0.26688727380E+04  0.27192799753E+04  0.25500000920E-02 0.  1.
</event>
<event>
 5   0  0.2267565E-06  0.2820896E+04  0.7818609E-02  0.8296810E-01
       -1   -1    0    0    0  501  0.00000000000E+00  0.00000000000E+00  0.83312765595E+03  0.83312765597E+03  0.50400001928E-02 0. -1.
        1   -1    0    0  501    0  0.00000000000E+00  0.00000000000E+00 -0.23878260673E+04  0.23878260673E+04  0.50400001928E-02 0.  1.
    10030    2    1    2    0    0  0.00000000000E+00  0.00000000000E+00 -0.15546984114E+04  0.32209537233E+04  0.28208962649E+04 0.  0.
        4    1    3    3  502    0  0.95537345354E+03 -0.61456049952E+03 -0.17319396726E+04  0.20712410979E+04  0.12699999809E+01 0.  1.
       -4    1    3    3    0  502 -0.95537345354E+03  0.61456049952E+03  0.17724126124E+03  0.11497126254E+04  0.12699999809E+01 0. -1.
</event>
<event>
 5   0  0.5584205E-06  0.2798180E+04  0.7818609E-02  0.8303834E-01
        2   -1    0    0  501    0  0.00000000000E+00  0.00000000000E+00  0.25128436142E+04  0.25128436142E+04  0.25500000920E-02 0.  1.
       -2   -1    0    0    0  501  0.00000000000E+00  0.00000000000E+00 -0.77897906224E+03  0.77897906225E+03  0.25500000920E-02 0. -1.
    10030    2    1    2    0    0  0.00000000000E+00  0.00000000000E+00  0.17338645520E+04  0.32918226765E+04  0.27981798099E+04 0.  0.
        1    1    3    3  502    0 -0.61765724148E+03  0.11593173059E+04  0.30037423574E+03  0.13474946253E+04  0.50400001928E-02 0. -1.
       -1    1    3    3    0  502  0.61765724148E+03 -0.11593173059E+04  0.14334903162E+04  0.19443280512E+04  0.50400001928E-02 0.  1.
</event>
<event>
 5   0  0.5625245E-06  0.2784823E+04  0.7818609E-02  0.8307996E-01
       -2   -1    0    0    0  501  0.00000000000E+00  0.00000000000E+00  0.11463477639E+04  0.11463477639E+04  0.25500000920E-02 0.  1.
        2   -1    0    0  501    0  0.00000000000E+00  0.00000000000E+00 -0.16912925837E+04  0.16912925837E+04  0.25500000920E-02 0. -1.
    10030    2    1    2    0    0  0.00000000000E+00  0.00000000000E+00 -0.54494481981E+03  0.28376403477E+04  0.27848227747E+04 0.  0.
        3    1    3    3  502    0  0.18465993708E+03  0.27450494929E+03  0.11057174360E+04  0.11541504746E+04  0.10100000352E+00 0.  1.
       -3    1    3    3    0  502 -0.18465993708E+03 -0.27450494929E+03 -0.16506622559E+04  0.16834898730E+04  0.10100000352E+00 0. -1.
</event>
<event>
 5   0  0.2190865E-06  0.2804736E+04  0.7818609E-02  0.8301799E-01
        1   -1    0    0  501    0  0.00000000000E+00  0.00000000000E+00  0.12597150742E+04  0.12597150742E+04  0.50400001928E-02 0. -1.
       -1   -1    0    0    0  501  0.00000000000E+00  0.00000000000E+00 -0.15611757692E+04  0.15611757692E+04  0.50400001928E-02 0.  1.
    10030    2    1    2    0    0  0.00000000000E+00  0.00000000000E+00 -0.30146069505E+03  0.28208908434E+04  0.28047364581E+04 0.  0.
        2    1    3    3  502    0 -0.10220130110E+04 -0.37683637009E+03 -0.10390618021E+04  0.15053789135E+04  0.25500000920E-02 0. -1.
       -2    1    3    3    0  502  0.10220130110E+04  0.37683637009E+03  0.73760110710E+03  0.13155119299E+04  0.25500000920E-02 0.  1.
</event>
<event>
 5   0  0.2206967E-06  0.2592874E+04  0.7818609E-02  0.8370626E-01
       -1   -1    0    0    0  501  0.00000000000E+00  0.00000000000E+00  0.74879734525E+03  0.74879734526E+03  0.50400001928E-02 0. -1.
        1   -1    0    0  501    0  0.00000000000E+00  0.00000000000E+00 -0.22445979637E+04  0.22445979637E+04  0.50400001928E-02 0.  1.
    10030    2    1    2    0    0  0.00000000000E+00  0.00000000000E+00 -0.14958006185E+04  0.29933953090E+04  0.25928740783E+04 0.  0.
        5    1    3    3  502    0  0.41693254952E+03  0.11980088888E+04 -0.43883668724E+03  0.13422584611E+04  0.46999998093E+01 0. -1.
       -5    1    3    3    0  502 -0.41693254952E+03 -0.11980088888E+04 -0.10569639312E+04  0.16511368479E+04  0.46999998093E+01 0.  1.
</event>
<event>
 5   0  0.5866136E-06  0.2779859E+04  0.7818609E-02  0.8309549E-01
        2   -1    0    0  501    0  0.00000000000E+00  0.00000000000E+00  0.16723751328E+04  0.16723751328E+04  0.25500000920E-02 0. -1.
       -2   -1    0    0    0  501  0.00000000000E+00  0.00000000000E+00 -0.11551856741E+04  0.11551856741E+04  0.25500000920E-02 0.  1.
    10030    2    1    2    0    0  0.00000000000E+00  0.00000000000E+00  0.51718945874E+03  0.28275608069E+04  0.27798588418E+04 0.  0.
        5    1    3    3  502    0 -0.39737090338E+03 -0.66230471251E+03 -0.91679962479E+03  0.11987888926E+04  0.46999998093E+01 0.  1.
       -5    1    3    3    0  502  0.39737090338E+03  0.66230471251E+03  0.14339890835E+04  0.16287719143E+04  0.46999998093E+01 0. -1.
</event>
<event>
 5   0  0.5584205E-06  0.2813711E+04  0.7818609E-02  0.8299024E-01
        2   -1    0    0  501    0  0.00000000000E+00  0.00000000000E+00  0.63321666805E+03  0.63321666805E+03  0.25500000920E-02 0.  1.
       -2   -1    0    0    0  501  0.00000000000E+00  0.00000000000E+00 -0.31256951952E+04  0.31256951952E+04  0.25500000920E-02 0. -1.
    10030    2    1    2    0    0  0.00000000000E+00  0.00000000000E+00 -0.24924785272E+04  0.37589118633E+04  0.28137109282E+04 0.  0.
        1    1    3    3  502    0  0.10127909748E+04 -0.49711407699E+03 -0.23690333598E+04  0.26239639907E+04  0.50400001928E-02 0. -1.
       -1    1    3    3    0  502 -0.10127909748E+04  0.49711407699E+03 -0.12344516736E+03  0.11349478726E+04  0.50400001928E-02 0.  1.
</event>
<event>
 5   0  0.1901375E-06  0.2766239E+04  0.7818609E-02  0.8313827E-01
        3   -1    0    0  501    0  0.00000000000E+00  0.00000000000E+00  0.20651687268E+04  0.20651687293E+04  0.10100000352E+00 0. -1.
       -3   -1    0    0    0  501  0.00000000000E+00  0.00000000000E+00 -0.92632620799E+03  0.92632621349E+03  0.10100000352E+00 0.  1.
    10030    2    1    2    0    0  0.00000000000E+00  0.00000000000E+00  0.11388425188E+04  0.29914949428E+04  0.27662392720E+04 0.  0.
        3    1    3    3  502    0  0.40785505994E+03  0.19036454825E+03 -0.84491241560E+03  0.95731991068E+03  0.10100000352E+00 0.  1.
       -3    1    3    3    0  502 -0.40785505994E+03 -0.19036454825E+03  0.19837549344E+04  0.20341750321E+04  0.10100000352E+00 0. -1.
</event>
<event>
 5   0  0.2267565E-06  0.2830142E+04  0.7818609E-02  0.8293971E-01
       -1   -1    0    0    0  501  0.00000000000E+00  0.00000000000E+00  0.12509563404E+04  0.12509563404E+04  0.50400001928E-02 0.  1.
        1   -1    0    0  501    0  0.00000000000E+00  0.00000000000E+00 -0.16007161810E+04  0.16007161810E+04  0.50400001928E-02 0. -1.
    10030    2    1    2    0    0  0.00000000000E+00  0.00000000000E+00 -0.34975984056E+03  0.28516725214E+04  0.28301420854E+04 0.  0.
        4    1    3    3  502    0 -0.11504712387E+04 -0.20762249592E+03  0.62851463042E+03  0.13272992976E+04  0.12699999809E+01 0.  1.
       -4    1    3    3    0  502  0.11504712387E+04  0.20762249592E+03 -0.97827447097E+03  0.15243732238E+04  0.12699999809E+01 0. -1.
</event>
<event>
 5   0  0.5546570E-06  0.2820911E+04  0.7818609E-02  0.8296806E-01
       -2   -1    0    0    0  501  0.00000000000E+00  0.00000000000E+00  0.14384075903E+04  0.14384075903E+04  0.25500000920E-02 0.  1.
        2   -1    0    0  501    0  0.00000000000E+00  0.00000000000E+00 -0.13830464441E+04  0.13830464441E+04  0.25500000920E-02 0. -1.
    10030    2    1    2    0    0  0.00000000000E+00  0.00000000000E+00  0.55361146207E+02  0.28214540344E+04  0.28209108479E+04 0.  0.
        4    1    3    3  502    0  0.69565916197E+03 -0.85415059335E+03 -0.85332272478E+03  0.13934404154E+04  0.12699999809E+01 0. -1.
       -4    1    3    3    0  502 -0.69565916197E+03  0.85415059335E+03  0.90868387099E+03  0.14280136190E+04  0.12699999809E+01 0.  1.
</event>
<event>
 5   0  0.5584205E-06  0.2788336E+04  0.7818609E-02  0.8306899E-01
        2   -1    0    0  501    0  0.00000000000E+00  0.00000000000E+00  0.13119018785E+04  0.13119018785E+04  0.25500000920E-02 0.  1.
       -2   -1    0    0    0  501  0.00000000000E+00  0.00000000000E+00 -0.14815932121E+04  0.14815932121E+04  0.25500000920E-02 0. -1.
    10030    2    1    2    0    0  0.00000000000E+00  0.00000000000E+00 -0.16969133357E+03  0.27934950905E+04  0.27883363628E+04 0.  0.
        1    1    3    3  502    0  0.11579415708E+04 -0.76335720845E+03 -0.22710135836E+03  0.14053888914E+04  0.50400001928E-02 0.  1.
       -1    1    3    3    0  502 -0.11579415708E+04  0.76335720845E+03  0.57410024789E+02  0.13881061991E+04  0.50400001928E-02 0. -1.
</event>
<event>
 5   0  0.5866136E-06  0.2801953E+04  0.7818609E-02  0.8302662E-01
       -2   -1    0    0    0  501  0.00000000000E+00  0.00000000000E+00  0.13752812964E+04  0.13752812964E+04  0.25500000920E-02 0.  1.
        2   -1    0    0  501    0  0.00000000000E+00  0.00000000000E+00 -0.14271522537E+04  0.14271522537E+04  0.25500000920E-02 0. -1.
    10030    2    1    2    0    0  0.00000000000E+00  0.00000000000E+00 -0.51870957219E+02  0.28024335501E+04  0.28019534626E+04 0.  0.
        5    1    3    3  502    0 -0.12715235771E+04  0.56078479740E+03 -0.20334094027E+03  0.14045004180E+04  0.46999998093E+01 0.  1.
       -5    1    3    3    0  502  0.12715235771E+04 -0.56078479740E+03  0.15146998305E+03  0.13979331321E+04  0.46999998093E+01 0. -1.
</event>
<event>
 5   0  0.5866136E-06  0.2824178E+04  0.7818609E-02  0.8295801E-01
       -2   -1    0    0    0  501  0.00000000000E+00  0.00000000000E+00  0.82691936595E+03  0.82691936595E+03  0.25500000920E-02 0.  1.
        2   -1    0    0  501    0  0.00000000000E+00  0.00000000000E+00 -0.24113536689E+04  0.24113536689E+04  0.25500000920E-02 0. -1.
    10030    2    1    2    0    0  0.00000000000E+00  0.00000000000E+00 -0.15844343029E+04  0.32382730348E+04  0.28241777897E+04 0.  0.
        5    1    3    3  502    0  0.45542266002E+03 -0.88524651125E+03  0.35607032826E+03  0.10572981385E+04  0.46999998093E+01 0.  1.
       -5    1    3    3    0  502 -0.45542266002E+03  0.88524651125E+03 -0.19405046312E+04  0.21809748964E+04  0.46999998093E+01 0. -1.
</event>
<event>
 5   0  0.5866136E-06  0.2799052E+04  0.7818609E-02  0.8303563E-01
        2   -1    0    0  501    0  0.00000000000E+00  0.00000000000E+00  0.67222960984E+03  0.67222960984E+03  0.25500000920E-02 0. -1.
       -2   -1    0    0    0  501  0.00000000000E+00  0.00000000000E+00 -0.29136958307E+04  0.29136958307E+04  0.25500000920E-02 0.  1.
    10030    2    1    2    0    0  0.00000000000E+00  0.00000000000E+00 -0.22414662209E+04  0.35859254405E+04  0.27990517047E+04 0.  0.
        5    1    3    3  502    0 -0.42586864552E+03  0.10446963171E+04 -0.21817431098E+04  0.24561717337E+04  0.46999998093E+01 0.  1.
       -5    1    3    3    0  502  0.42586864552E+03 -0.10446963171E+04 -0.59723111020E+02  0.11297537068E+04  0.46999998093E+01 0. -1.
</event>
<event>
 5   0  0.2206967E-06  0.2809868E+04  0.7818609E-02  0.8300211E-01
        1   -1    0    0  501    0  0.00000000000E+00  0.00000000000E+00  0.14589516705E+04  0.14589516705E+04  0.50400001928E-02 0. -1.
       -1   -1    0    0    0  501  0.00000000000E+00  0.00000000000E+00 -0.13529167833E+04  0.13529167833E+04  0.50400001928E-02 0.  1.
    10030    2    1    2    0    0  0.00000000000E+00  0.00000000000E+00  0.10603488715E+03  0.28118684538E+04  0.28098684674E+04 0.  0.
        5    1    3    3  502    0 -0.13711358458E+04 -0.30556272753E+03  0.32121414885E+02  0.14051462427E+04  0.46999998093E+01 0.  1.
       -5    1    3    3    0  502  0.13711358458E+04  0.30556272753E+03  0.73913472265E+02  0.14067222112E+04  0.46999998093E+01 0. -1.
</event>
<event>
 5   0  0.5584205E-06  0.2809840E+04  0.7818609E-02  0.8300220E-01
       -2   -1    0    0    0  501  0.00000000000E+00  0.00000000000E+00  0.92249850023E+03  0.92249850023E+03  0.25500000920E-02 0. -1.
        2   -1    0    0  501    0  0.00000000000E+00  0.00000000000E+00 -0.21396241776E+04  0.21396241776E+04  0.25500000920E-02 0.  1.
    10030    2    1    2    0    0  0.00000000000E+00  0.00000000000E+00 -0.12171256773E+04  0.30621226778E+04  0.28098399206E+04 0.  0.
        1    1    3    3  502    0 -0.42921053516E+03 -0.28663192328E+03 -0.20325670043E+04  0.20970713317E+04  0.50400001928E-02 0.  1.
       -1    1    3    3    0  502  0.42921053516E+03  0.28663192328E+03  0.81544132699E+03  0.96505134616E+03  0.50400001928E-02 0. -1.
</event>
<event>
 5   0  0.2190865E-06  0.2719852E+04  0.7818609E-02  0.8328592E-01
       -1   -1    0    0    0  501  0.00000000000E+00  0.00000000000E+00  0.87246811818E+03  0.87246811820E+03  0.50400001928E-02 0.  1.
        1   -1    0    0  501    0  0.00000000000E+00  0.00000000000E+00 -0.21197314276E+04  0.21197314276E+04  0.50400001928E-02 0. -1.
    10030    2    1    2    0    0  0.00000000000E+00  0.00000000000E+00 -0.12472633094E+04  0.29921995458E+04  0.27198515325E+04 0.  0.
        2    1    3    3  502    0 -0.72517291041E+01  0.99973280785E+03  0.39056952650E+03  0.10733418979E+04  0.25500000920E-02 0.  1.
       -2    1    3    3    0  502  0.72517291041E+01 -0.99973280785E+03 -0.16378328359E+04  0.19188576479E+04  0.25500000920E-02 0. -1.
</event>
<event>
 5   0  0.2267565E-06  0.2811987E+04  0.7818609E-02  0.8299557E-01
       -1   -1    0    0    0  501  0.00000000000E+00  0.00000000000E+00  0.98148722059E+03  0.98148722060E+03  0.50400001928E-02 0.  1.
        1   -1    0    0  501    0  0.00000000000E+00  0.00000000000E+00 -0.20141042759E+04  0.20141042759E+04  0.50400001928E-02 0. -1.
    10030    2    1    2    0    0  0.00000000000E+00  0.00000000000E+00 -0.10326170553E+04  0.29955914965E+04  0.28119869187E+04 0.  0.
        4    1    3    3  502    0 -0.23715318576E+02 -0.41573480844E+03 -0.19469061894E+04  0.19909402729E+04  0.12699999809E+01 0. -1.
       -4    1    3    3    0  502  0.23715318576E+02  0.41573480844E+03  0.91428913410E+03  0.10046512235E+04  0.12699999809E+01 0.  1.
</event>
<event>
 5   0  0.2234068E-06  0.2757032E+04  0.7818609E-02  0.8316734E-01
        1   -1    0    0  501    0  0.00000000000E+00  0.00000000000E+00  0.15538901068E+04  0.15538901068E+04  0.50400001928E-02 0.  1.
       -1   -1    0    0    0  501  0.00000000000E+00  0.00000000000E+00 -0.12229344872E+04  0.12229344872E+04  0.50400001928E-02 0. -1.
    10030    2    1    2    0    0  0.00000000000E+00  0.00000000000E+00  0.33095561961E+03  0.27768245940E+04  0.27570315928E+04 0.  0.
        3    1    3    3  502    0 -0.95034393995E+03  0.78173065438E+03 -0.46031148399E+03  0.13138276495E+04  0.10100000352E+00 0. -1.
       -3    1    3    3    0  502  0.95034393995E+03 -0.78173065438E+03  0.79126710360E+03  0.14629969445E+04  0.10100000352E+00 0.  1.
</event>
<event>
 5   0  0.5584205E-06  0.2819950E+04  0.7818609E-02  0.8297101E-01
        2   -1    0    0  501    0  0.00000000000E+00  0.00000000000E+00  0.19235048289E+04  0.19235048289E+04  0.25500000920E-02 0. -1.
       -2   -1    0    0    0  501  0.00000000000E+00  0.00000000000E+00 -0.10335457089E+04  0.10335457089E+04  0.25500000920E-02 0.  1.
    10030    2    1    2    0    0  0.00000000000E+00  0.00000000000E+00  0.88995912002E+03  0.29570505378E+04  0.28199504690E+04 0.  0.
        1    1    3    3  502    0  0.19412687339E+03  0.62398327331E+03 -0.86515920954E+03  0.10842236053E+04  0.50400001928E-02 0.  1.
       -1    1    3    3    0  502 -0.19412687339E+03 -0.62398327331E+03  0.17551183296E+04  0.18728269325E+04  0.50400001928E-02 0. -1.
</event>
<event>
 5   0  0.2267565E-06  0.2829361E+04  0.7818609E-02  0.8294211E-01
       -1   -1    0    0    0  501  0.00000000000E+00  0.00000000000E+00  0.27228993761E+04  0.27228993761E+04  0.50400001928E-02 0. -1.
        1   -1    0    0  501    0  0.00000000000E+00  0.00000000000E+00 -0.73499623911E+03  0.73499623912E+03  0.50400001928E-02 0.  1.
    10030    2    1    2    0    0  0.00000000000E+00  0.00000000000E+00  0.19879031370E+04  0.34578956152E+04  0.28293609179E+04 0.  0.
        4    1    3    3  502    0 -0.13520562712E+04 -0.16153978853E+03  0.14627974557E+04  0.19984817420E+04  0.12699999809E+01 0. -1.
       -4    1    3    3    0  502  0.13520562712E+04  0.16153978853E+03  0.52510568130E+03  0.14594138732E+04  0.12699999809E+01 0.  1.
</event>
<event>
 5   0  0.2267565E-06  0.2800091E+04  0.7818609E-02  0.8303240E-01
       -1   -1    0    0    0  501  0.00000000000E+00  0.00000000000E+00  0.10908855234E+04  0.10908855234E+04  0.50400001928E-02 0.  1.
        1   -1    0    0  501    0  0.00000000000E+00  0.00000000000E+00 -0.17968226658E+04  0.17968226658E+04  0.50400001928E-02 0. -1.
    10030    2    1    2    0    0  0.00000000000E+00  0.00000000000E+00 -0.70593714237E+03  0.28877081892E+04  0.28000913087E+04 0.  0.
        4    1    3    3  502    0 -0.76985422861E+03 -0.11645171987E+04 -0.24309674294E+03  0.14169945231E+04  0.12699999809E+01 0. -1.
       -4    1    3    3    0  502  0.76985422861E+03  0.11645171987E+04 -0.46284039942E+03  0.14707136661E+04  0.12699999809E+01 0.  1.
</event>
<event>
 5   0  0.2206967E-06  0.2811247E+04  0.7818609E-02  0.8299785E-01
        1   -1    0    0  501    0  0.00000000000E+00  0.00000000000E+00  0.19384616503E+04  0.19384616503E+04  0.50400001928E-02 0.  1.
       -1   -1    0    0    0  501  0.00000000000E+00  0.00000000000E+00 -0.10192498800E+04  0.10192498800E+04  0.50400001928E-02 0. -1.
    10030    2    1    2    0    0  0.00000000000E+00  0.00000000000E+00  0.91921177033E+03  0.29577115303E+04  0.28112465594E+04 0.  0.
        5    1    3    3  502    0  0.30372449214E+03 -0.12477149566E+04 -0.14176228897E+03  0.12919596807E+04  0.46999998093E+01 0.  1.
       -5    1    3    3    0  502 -0.30372449214E+03  0.12477149566E+04  0.10609740593E+04  0.16657518496E+04  0.46999998093E+01 0. -1.
</event>
<event>
 5   0  0.5916603E-06  0.2796958E+04  0.7818609E-02  0.8304213E-01
       -2   -1    0    0    0  501  0.00000000000E+00  0.00000000000E+00  0.90761215958E+03  0.90761215958E+03  0.25500000920E-02 0.  1.
        2   -1    0    0  501    0  0.00000000000E+00  0.00000000000E+00 -0.21548233775E+04  0.21548233775E+04  0.25500000920E-02 0. -1.
    10030    2    1    2    0    0  0.00000000000E+00  0.00000000000E+00 -0.12472112179E+04  0.30624355371E+04  0.27969582758E+04 0.  0.
        2    1    3    3  502    0 -0.93666610383E+03  0.16001943575E+03 -0.17470529696E+04  0.19887543057E+04  0.25500000920E-02 0. -1.
       -2    1    3    3    0  502  0.93666610383E+03 -0.16001943575E+03  0.49984175168E+03  0.10736812314E+04  0.25500000920E-02 0.  1.
</event>
<event>
 5   0  0.5546570E-06  0.2806289E+04  0.7818609E-02  0.8301318E-01
       -2   -1    0    0    0  501  0.00000000000E+00  0.00000000000E+00  0.11041255630E+04  0.11041255630E+04  0.25500000920E-02 0.  1.
        2   -1    0    0  501    0  0.00000000000E+00  0.00000000000E+00 -0.17831438173E+04  0.17831438173E+04  0.25500000920E-02 0. -1.
    10030    2    1    2    0    0  0.00000000000E+00  0.00000000000E+00 -0.67901825430E+03  0.28872693802E+04  0.28062891306E+04 0.  0.
        4    1    3    3  502    0  0.13273374052E+04 -0.51098303765E+02 -0.80463592571E+03  0.15530216385E+04  0.12699999809E+01 0. -1.
       -4    1    3    3    0  502 -0.13273374052E+04  0.51098303765E+02  0.12561767141E+03  0.13342477417E+04  0.12699999809E+01 0.  1.
</event>
<event>
 5   0  0.5866136E-06  0.2786788E+04  0.7818609E-02  0.8307382E-01
       -2   -1    0    0    0  501  0.00000000000E+00  0.00000000000E+00  0.15301679896E+04  0.15301679896E+04  0.25500000920E-02 0.  1.
        2   -1    0    0  501    0  0.00000000000E+00  0.00000000000E+00 -0.12688454493E+04  0.12688454493E+04  0.25500000920E-02 0. -1.
    10030    2    1    2    0    0  0.00000000000E+00  0.00000000000E+00  0.26132254036E+03  0.27990134389E+04  0.27867878931E+04 0.  0.
        5    1    3    3  502    0  0.11322559059E+03  0.91543923024E+03 -0.91827442245E+03  0.13015755927E+04  0.46999998093E+01 0. -1.
       -5    1    3    3    0  502 -0.11322559059E+03 -0.91543923024E+03  0.11795969628E+04  0.14974378462E+04  0.46999998093E+01 0.  1.
</event>
<event>
 5   0  0.5625245E-06  0.2807545E+04  0.7818609E-02  0.8300930E-01
        2   -1    0    0  501    0  0.00000000000E+00  0.00000000000E+00  0.23505085484E+04  0.23505085484E+04  0.25500000920E-02 0. -1.
       -2   -1    0    0    0  501  0.00000000000E+00  0.00000000000E+00 -0.83836227484E+03  0.83836227484E+03  0.25500000920E-02 0.  1.
    10030    2    1    2    0    0  0.00000000000E+00  0.00000000000E+00  0.15121462735E+04  0.31888708232E+04  0.28075453290E+04 0.  0.
        3    1    3    3  502    0  0.16501110814E+03  0.12994894323E+04  0.13292707307E+04  0.18662427860E+04  0.10100000352E+00 0. -1.
       -3    1    3    3    0  502 -0.16501110814E+03 -0.12994894323E+04  0.18287554281E+03  0.13226280372E+04  0.10100000352E+00 0.  1.
</event>
<event>
 5   0  0.5866136E-06  0.2794094E+04  0.7818609E-02  0.8305104E-01
        2   -1    0    0  501    0  0.00000000000E+00  0.00000000000E+00  0.12232044134E+04  0.12232044134E+04  0.25500000920E-02 0. -1.
       -2   -1    0    0    0  501  0.00000000000E+00  0.00000000000E+00 -0.15955961573E+04  0.15955961573E+04  0.25500000920E-02 0.  1.
    10030    2    1    2    0    0  0.00000000000E+00  0.00000000000E+00 -0.37239174390E+03  0.28188005707E+04  0.27940939580E+04 0.  0.
        5    1    3    3  502    0 -0.55921825567E+03  0.83659652815E+03  0.79144447744E+03  0.12802442186E+04  0.46999998093E+01 0. -1.
       -5    1    3    3    0  502  0.55921825567E+03 -0.83659652815E+03 -0.11638362213E+04  0.15385563521E+04  0.46999998093E+01 0.  1.
</event>
<event>
 5   0  0.5916603E-06  0.2797558E+04  0.7818609E-02  0.8304027E-01
       -2   -1    0    0    0  501  0.00000000000E+00  0.00000000000E+00  0.12218434293E+04  0.12218434293E+04  0.25500000920E-02 0.  1.
        2   -1    0    0  501    0  0.00000000000E+00  0.00000000000E+00 -0.16013365166E+04  0.16013365166E+04  0.25500000920E-02 0. -1.
    10030    2    1    2    0    0  0.00000000000E+00  0.00000000000E+00 -0.37949308729E+03  0.28231799460E+04  0.27975578643E+04 0.  0.
        2    1    3    3  502    0 -0.34290595051E+03  0.74768491914E+03  0.95197073972E+03  0.12581198347E+04  0.25500000920E-02 0.  1.
       -2    1    3    3    0  502  0.34290595051E+03 -0.74768491914E+03 -0.13314638270E+04  0.15650601113E+04  0.25500000920E-02 0. -1.
</event>
<event>
 5   0  0.2277133E-06  0.2885528E+04  0.7818609E-02  0.8277196E-01
       -1   -1    0    0    0  501  0.00000000000E+00  0.00000000000E+00  0.10655554977E+04  0.10655554977E+04  0.50400001928E-02 0.  1.
        1   -1    0    0  501    0  0.00000000000E+00  0.00000000000E+00 -0.19535044518E+04  0.19535044518E+04  0.50400001928E-02 0. -1.
    10030    2    1    2    0    0  0.00000000000E+00  0.00000000000E+00 -0.88794895412E+03  0.30190599495E+04  0.28855276179E+04 0.  0.
        1    1    3    3  502    0 -0.10658550462E+04 -0.97237027063E+03 -0.43972632506E+03  0.15082805321E+04  0.50400001928E-02 0. -1.
       -1    1    3    3    0  502  0.10658550462E+04  0.97237027063E+03 -0.44822262906E+03  0.15107794173E+04  0.50400001928E-02 0.  1.
</event>
<event>
 5   0  0.2267565E-06  0.2824251E+04  0.7818609E-02  0.8295779E-01
       -1   -1    0    0    0  501  0.00000000000E+00  0.00000000000E+00  0.13228417221E+04  0.13228417221E+04  0.50400001928E-02 0. -1.
        1   -1    0    0  501    0  0.00000000000E+00  0.00000000000E+00 -0.15074353473E+04  0.15074353473E+04  0.50400001928E-02 0.  1.
    10030    2    1    2    0    0  0.00000000000E+00  0.00000000000E+00 -0.18459362519E+03  0.28302770694E+04  0.28242509597E+04 0.  0.
        4    1    3    3  502    0 -0.79688247353E+03 -0.75727884622E+03  0.79593733210E+03  0.13572069765E+04  0.12699999809E+01 0. -1.
       -4    1    3    3    0  502  0.79688247353E+03  0.75727884622E+03 -0.98053095729E+03  0.14730700929E+04  0.12699999809E+01 0.  1.
</event>
<event>
 5   0  0.5546570E-06  0.2785515E+04  0.7818609E-02  0.8307780E-01
        2   -1    0    0  501    0  0.00000000000E+00  0.00000000000E+00  0.16039627062E+04  0.16039627062E+04  0.25500000920E-02 0. -1.
       -2   -1    0    0    0  501  0.00000000000E+00  0.00000000000E+00 -0.12093628540E+04  0.12093628541E+04  0.25500000920E-02 0.  1.
    10030    2    1    2    0    0  0.00000000000E+00  0.00000000000E+00  0.39459985211E+03  0.28133255602E+04  0.27855146139E+04 0.  0.
        4    1    3    3  502    0  0.76915647207E+03  0.75438906339E+03 -0.69416013283E+03  0.12816257021E+04  0.12699999809E+01 0.  1.
       -4    1    3    3    0  502 -0.76915647207E+03 -0.75438906339E+03  0.10887599849E+04  0.15316998581E+04  0.12699999809E+01 0. -1.
</event>
<event>
 5   0  0.5546570E-06  0.2806058E+04  0.7818609E-02  0.8301390E-01
       -2   -1    0    0    0  501  0.00000000000E+00  0.00000000000E+00  0.18735632194E+04  0.18735632194E+04  0.25500000920E-02 0. -1.
        2   -1    0    0  501    0  0.00000000000E+00  0.00000000000E+00 -0.10506663998E+04  0.10506663998E+04  0.25500000920E-02 0.  1.
    10030    2    1    2    0    0  0.00000000000E+00  0.00000000000E+00  0.82289681957E+03  0.29242296192E+04  0.28060576777E+04 0.  0.
        4    1    3    3  502    0 -0.41271077067E+03 -0.80695907547E+03 -0.70462275626E+03  0.11480452828E+04  0.12699999809E+01 0.  1.
       -4    1    3    3    0  502  0.41271077067E+03  0.80695907547E+03  0.15275195758E+04  0.17761843365E+04  0.12699999809E+01 0. -1.
</event>
<event>
 5   0  0.2190865E-06  0.2790031E+04  0.7818609E-02  0.8306370E-01
       -1   -1    0    0    0  501  0.00000000000E+00  0.00000000000E+00  0.80990039648E+03  0.80990039649E+03  0.50400001928E-02 0.  1.
        1   -1    0    0  501    0  0.00000000000E+00  0.00000000000E+00 -0.24028496011E+04  0.24028496011E+04  0.50400001928E-02 0. -1.
    10030    2    1    2    0    0  0.00000000000E+00  0.00000000000E+00 -0.15929492046E+04  0.32127499976E+04  0.27900314297E+04 0.  0.
        2    1    3    3  502    0 -0.12876655938E+04  0.32031231260E+03 -0.12922746001E+04  0.18522030940E+04  0.25500000920E-02 0. -1.
       -2    1    3    3    0  502  0.12876655938E+04 -0.32031231260E+03 -0.30067460444E+03  0.13605469036E+04  0.25500000920E-02 0.  1.
</event>
<event>
 5   0  0.2190865E-06  0.2775412E+04  0.7818609E-02  0.8310943E-01
       -1   -1    0    0    0  501  0.00000000000E+00  0.00000000000E+00  0.18254874881E+04  0.18254874881E+04  0.50400001928E-02 0. -1.
        1   -1    0    0  501    0  0.00000000000E+00  0.00000000000E+00 -0.10549114048E+04  0.10549114048E+04  0.50400001928E-02 0.  1.
    10030    2    1    2    0    0  0.00000000000E+00  0.00000000000E+00  0.77057608327E+03  0.28803988929E+04  0.27754117320E+04 0.  0.
        2    1    3    3  502    0  0.45015195121E+03  0.11089663567E+02  0.17475599388E+04  0.18046399916E+04  0.25500000920E-02 0. -1.
       -2    1    3    3    0  502 -0.45015195121E+03 -0.11089663567E+02 -0.97698385549E+03  0.10757589013E+04  0.25500000920E-02 0.  1.
</event>
<event>
 5   0  0.5916603E-06  0.2798756E+04  0.7818609E-02  0.8303655E-01
       -2   -1    0    0    0  501  0.00000000000E+00  0.00000000000E+00  0.96960130701E+03  0.96960130701E+03  0.25500000920E-02 0. -1.
        2   -1    0    0  501    0  0.00000000000E+00  0.00000000000E+00 -0.20196534689E+04  0.20196534689E+04  0.25500000920E-02 0.  1.
    10030    2    1    2    0    0  0.00000000000E+00  0.00000000000E+00 -0.10500521619E+04  0.29892547760E+04  0.27987558973E+04 0.  0.
        2    1    3    3  502    0 -0.43460826123E+03 -0.88560263258E+03  0.53504298983E+03  0.11222510256E+04  0.25500000920E-02 0. -1.
       -2    1    3    3    0  502  0.43460826123E+03  0.88560263258E+03 -0.15850951518E+04  0.18670037503E+04  0.25500000920E-02 0.  1.
</event>
<event>
 5   0  0.5625245E-06  0.2803698E+04  0.7818609E-02  0.8302121E-01
        2   -1    0    0  501    0  0.00000000000E+00  0.00000000000E+00  0.24348606168E+04  0.24348606168E+04  0.25500000920E-02 0. -1.
       -2   -1    0    0    0  501  0.00000000000E+00  0.00000000000E+00 -0.80710208833E+03  0.80710208833E+03  0.25500000920E-02 0.  1.
    10030    2    1    2    0    0  0.00000000000E+00  0.00000000000E+00  0.16277585285E+04  0.32419627052E+04  0.28036983352E+04 0.  0.
        3    1    3    3  502    0 -0.50117029202E+02  0.12573227103E+04  0.15283752463E+04  0.19797229650E+04  0.10100000352E+00 0. -1.
       -3    1    3    3    0  502  0.50117029202E+02 -0.12573227103E+04  0.99383282187E+02  0.12622397401E+04  0.10100000352E+00 0.  1.
</event>
<event>
 5   0  0.5916603E-06  0.2811862E+04  0.7818609E-02  0.8299595E-01
       -2   -1    0    0    0  501  0.00000000000E+00  0.00000000000E+00  0.10347861748E+04  0.10347861748E+04  0.25500000920E-02 0.  1.
        2   -1    0    0  501    0  0.00000000000E+00  0.00000000000E+00 -0.19101933190E+04  0.19101933190E+04  0.25500000920E-02 0. -1.
    10030    2    1    2    0    0  0.00000000000E+00  0.00000000000E+00 -0.87540714422E+03  0.29449794938E+04  0.28118617588E+04 0.  0.
        2    1    3    3  502    0 -0.83290842143E+03 -0.68001670330E+03  0.51098346469E+03  0.11904886629E+04  0.25500000920E-02 0.  1.
       -2    1    3    3    0  502  0.83290842143E+03  0.68001670330E+03 -0.13863906089E+04  0.17544908309E+04  0.25500000920E-02 0. -1.
</event>
<event>
 5   0  0.5584205E-06  0.2789550E+04  0.7818609E-02  0.8306520E-01
        2   -1    0    0  501    0  0.00000000000E+00  0.00000000000E+00  0.13973318306E+04  0.13973318306E+04  0.25500000920E-02 0. -1.
       -2   -1    0    0    0  501  0.00000000000E+00  0.00000000000E+00 -0.13922229174E+04  0.13922229174E+04  0.25500000920E-02 0.  1.
    10030    2    1    2    0    0  0.00000000000E+00  0.00000000000E+00  0.51089131628E+01  0.27895547480E+04  0.27895500697E+04 0.  0.
        1    1    3    3  502    0 -0.24698768811E+02  0.11939685725E+04 -0.71802042368E+03  0.13934576815E+04  0.50400001928E-02 0.  1.
       -1    1    3    3    0  502  0.24698768811E+02 -0.11939685725E+04  0.72312933684E+03  0.13960970665E+04  0.50400001928E-02 0. -1.
</event>
<event>
 5   0  0.2206967E-06  0.2793158E+04  0.7818609E-02  0.8305396E-01
        1   -1    0    0  501    0  0.00000000000E+00  0.00000000000E+00  0.22906920316E+04  0.22906920316E+04  0.50400001928E-02 0.  1.
       -1   -1    0    0    0  501  0.00000000000E+00  0.00000000000E+00 -0.85145983766E+03  0.85145983768E+03  0.50400001928E-02 0. -1.
    10030    2    1    2    0    0  0.00000000000E+00  0.00000000000E+00  0.14392321940E+04  0.31421518693E+04  0.27931575433E+04 0.  0.
        5    1    3    3  502    0 -0.13107765834E+04 -0.47174830777E+03  0.60865934250E+03  0.15202532692E+04  0.46999998093E+01 0.  1.
       -5    1    3    3    0  502  0.13107765834E+04  0.47174830777E+03  0.83057285148E+03  0.16218986001E+04  0.46999998093E+01 0. -1.
</event>
<event>
 5   0  0.5866136E-06  0.2842599E+04  0.7818609E-02  0.8290164E-01
        2   -1    0    0  501    0  0.00000000000E+00  0.00000000000E+00  0.23205652729E+04  0.23205652729E+04  0.25500000920E-02 0. -1.
       -2   -1    0    0    0  501  0.00000000000E+00  0.00000000000E+00 -0.87051727748E+03  0.87051727748E+03  0.25500000920E-02 0.  1.
    10030    2    1    2    0    0  0.00000000000E+00  0.00000000000E+00  0.14500479955E+04  0.31910825504E+04  0.28425989261E+04 0.  0.
        5    1    3    3  502    0  0.10474894037E+04  0.45141094516E+03  0.16769567718E+04  0.20281055192E+04  0.46999998093E+01 0. -1.
       -5    1    3    3    0  502 -0.10474894037E+04 -0.45141094516E+03 -0.22690877638E+03  0.11629770312E+04  0.46999998093E+01 0.  1.
</event>
<event>
 5   0  0.5546570E-06  0.2760509E+04  0.7818609E-02  0.8315635E-01
        2   -1    0    0  501    0  0.00000000000E+00  0.00000000000E+00  0.16729328352E+04  0.16729328352E+04  0.25500000920E-02 0.  1.
       -2   -1    0    0    0  501  0.00000000000E+00  0.00000000000E+00 -0.11387800227E+04  0.11387800227E+04  0.25500000920E-02 0. -1.
    10030    2    1    2    0    0  0.00000000000E+00  0.00000000000E+00  0.53415281243E+03  0.28117128579E+04  0.27605090053E+04 0.  0.
        4    1    3    3  502    0 -0.10567044498E+04  0.85996472535E+03  0.49239737313E+03  0.14486615923E+04  0.12699999809E+01 0. -1.
       -4    1    3    3    0  502  0.10567044498E+04 -0.85996472535E+03  0.41755439309E+02  0.13630512656E+04  0.12699999809E+01 0.  1.
</event>
<event>
 5   0  0.5916603E-06  0.2802829E+04  0.7818609E-02  0.8302391E-01
        2   -1    0    0  501    0  0.00000000000E+00  0.00000000000E+00  0.14343608898E+04  0.14343608898E+04  0.25500000920E-02 0.  1.
       -2   -1    0    0    0  501  0.00000000000E+00  0.00000000000E+00 -0.13692249839E+04  0.13692249839E+04  0.25500000920E-02 0. -1.
    10030    2    1    2    0    0  0.00000000000E+00  0.00000000000E+00  0.65135905843E+02  0.28035858737E+04  0.28028291180E+04 0.  0.
        2    1    3    3  502    0 -0.16271377195E+03  0.12429935788E+04  0.65919855312E+03  0.14163514892E+04  0.25500000920E-02 0.  1.
       -2    1    3    3    0  502  0.16271377195E+03 -0.12429935788E+04 -0.59406264728E+03  0.13872343845E+04  0.25500000920E-02 0. -1.
</event>
<event>
 5   0  0.2206967E-06  0.2802835E+04  0.7818609E-02  0.8302389E-01
       -1   -1    0    0    0  501  0.00000000000E+00  0.00000000000E+00  0.11561828058E+04  0.11561828058E+04  0.50400001928E-02 0. -1.
        1   -1    0    0  501    0  0.00000000000E+00  0.00000000000E+00 -0.16986677723E+04  0.16986677723E+04  0.50400001928E-02 0.  1.
    10030    2    1    2    0    0  0.00000000000E+00  0.00000000000E+00 -0.54248496654E+03  0.28548505782E+04  0.28028346160E+04 0.  0.
        5    1    3    3  502    0  0.52943733048E+03 -0.80164104383E+03  0.76799460974E+03  0.12299471780E+04  0.46999998093E+01 0. -1.
       -5    1    3    3    0  502 -0.52943733048E+03  0.80164104383E+03 -0.13104795763E+04  0.16249034002E+04  0.46999998093E+01 0.  1.
</event>
<event>
 5   0  0.2206967E-06  0.2803512E+04  0.7818609E-02  0.8302179E-01
       -1   -1    0    0    0  501  0.00000000000E+00  0.00000000000E+00  0.15741840215E+04  0.15741840215E+04  0.50400001928E-02 0.  1.
        1   -1    0    0  501    0  0.00000000000E+00  0.00000000000E+00 -0.12482149466E+04  0.12482149466E+04  0.50400001928E-02 0. -1.
    10030    2    1    2    0    0  0.00000000000E+00  0.00000000000E+00  0.32596907491E+03  0.28223989680E+04  0.28035121004E+04 0.  0.
        5    1    3    3  502    0 -0.91984485025E+03  0.59093215286E+03 -0.72018398770E+03  0.13091991537E+04  0.46999998093E+01 0. -1.
       -5    1    3    3    0  502  0.91984485025E+03 -0.59093215286E+03  0.10461530626E+04  0.15131998144E+04  0.46999998093E+01 0.  1.
</event>
<event>
 5   0  0.5584205E-06  0.2801237E+04  0.7818609E-02  0.8302884E-01
        2   -1    0    0  501    0  0.00000000000E+00  0.00000000000E+00  0.20757792072E+04  0.20757792072E+04  0.25500000920E-02 0.  1.
       -2   -1    0    0    0  501  0.00000000000E+00  0.00000000000E+00 -0.94505843470E+03  0.94505843470E+03  0.25500000920E-02 0. -1.
    10030    2    1    2    0    0  0.00000000000E+00  0.00000000000E+00  0.11307207725E+04  0.30208376419E+04  0.28012373326E+04 0.  0.
        1    1    3    3  502    0 -0.10459982989E+04  0.31957948465E+03  0.15088714588E+04  0.18635816504E+04  0.50400001928E-02 0.  1.
       -1    1    3    3    0  502  0.10459982989E+04 -0.31957948465E+03 -0.37815068637E+03  0.11572559915E+04  0.50400001928E-02 0. -1.
</event>
<event>
 5   0  0.5866136E-06  0.2796671E+04  0.7818609E-02  0.8304303E-01
        2   -1    0    0  501    0  0.00000000000E+00  0.00000000000E+00  0.13105314048E+04  0.13105314048E+04  0.25500000920E-02 0. -1.
       -2   -1    0    0    0  501  0.00000000000E+00  0.00000000000E+00 -0.14920218789E+04  0.14920218789E+04  0.25500000920E-02 0.  1.
    10030    2    1    2    0    0  0.00000000000E+00  0.00000000000E+00 -0.18149047410E+03  0.28025532837E+04  0.27966705412E+04 0.  0.
        5    1    3    3  502    0 -0.12712035710E+04  0.58105960580E+03 -0.49056594323E+02  0.13985769282E+04  0.46999998093E+01 0. -1.
       -5    1    3    3    0  502  0.12712035710E+04 -0.58105960580E+03 -0.13243387978E+03  0.14039763556E+04  0.46999998093E+01 0.  1.
</event>
<event>
 5   0  0.5866136E-06  0.2826724E+04  0.7818609E-02  0.8295019E-01
       -2   -1    0    0    0  501  0.00000000000E+00  0.00000000000E+00  0.15917618738E+04  0.15917618738E+04  0.25500000920E-02 0.  1.
        2   -1    0    0  501    0  0.00000000000E+00  0.00000000000E+00 -0.12549570003E+04  0.12549570003E+04  0.25500000920E-02 0. -1.
    10030    2    1    2    0    0  0.00000000000E+00  0.00000000000E+00  0.33680487341E+03  0.28467188741E+04  0.28267243986E+04 0.  0.
        5    1    3    3  502    0 -0.46268802122E+03  0.31740799490E+03 -0.11379788627E+04  0.12687970768E+04  0.46999998093E+01 0. -1.
       -5    1    3    3    0  502  0.46268802122E+03 -0.31740799490E+03  0.14747837361E+04  0.15779217973E+04  0.46999998093E+01 0.  1.
</event>
<event>
 5   0  0.2267565E-06  0.2781865E+04  0.7818609E-02  0.8308921E-01
       -1   -1    0    0    0  501  0.00000000000E+00  0.00000000000E+00  0.12455937066E+04  0.12455937066E+04  0.50400001928E-02 0.  1.
        1   -1    0    0  501    0  0.00000000000E+00  0.00000000000E+00 -0.15532299888E+04  0.15532299888E+04  0.50400001928E-02 0. -1.
    10030    2    1    2    0    0  0.00000000000E+00  0.00000000000E+00 -0.30763628223E+03  0.27988236954E+04  0.27818652009E+04 0.  0.
        4    1    3    3  502    0 -0.12267158605E+04  0.65561961217E+03 -0.15864403052E+03  0.13999422915E+04  0.12699999809E+01 0.  1.
       -4    1    3    3    0  502  0.12267158605E+04 -0.65561961217E+03 -0.14899225171E+03  0.13988814039E+04  0.12699999809E+01 0. -1.
</event>
<event>
 5   0  0.2267565E-06  0.2740881E+04  0.7818609E-02  0.8321861E-01
       -1   -1    0    0    0  501  0.00000000000E+00  0.00000000000E+00  0.18012052648E+04  0.18012052648E+04  0.50400001928E-02 0. -1.
        1   -1    0    0  501    0  0.00000000000E+00  0.00000000000E+00 -0.10426947358E+04  0.10426947358E+04  0.50400001928E-02 0.  1.
    10030    2    1    2    0    0  0.00000000000E+00  0.00000000000E+00  0.75851052905E+03  0.28439000006E+04  0.27408810611E+04 0.  0.
        4    1    3    3  502    0 -0.71864105544E+03 -0.10777513367E+04  0.84340860872E+03  0.15457466171E+04  0.12699999809E+01 0. -1.
       -4    1    3    3    0  502  0.71864105544E+03  0.10777513367E+04 -0.84898079670E+02  0.12981533835E+04  0.12699999809E+01 0.  1.
</event>
<event>
 5   0  0.2190865E-06  0.2752803E+04  0.7818609E-02  0.8318073E-01
        1   -1    0    0  501    0  0.00000000000E+00  0.00000000000E+00  0.20487727182E+04  0.20487727182E+04  0.50400001928E-02 0.  1.
       -1   -1    0    0    0  501  0.00000000000E+00  0.00000000000E+00 -0.92469063150E+03  0.92469063151E+03  0.50400001928E-02 0. -1.
    10030    2    1    2    0    0  0.00000000000E+00  0.00000000000E+00  0.11240820867E+04  0.29734633497E+04  0.27528028906E+04 0.  0.
        2    1    3    3  502    0  0.62967832217E+03  0.20667212951E+03  0.18650868331E+04  0.19793324767E+04  0.25500000920E-02 0.  1.
       -2    1    3    3    0  502 -0.62967832217E+03 -0.20667212951E+03 -0.74100474636E+03  0.99413087300E+03  0.25500000920E-02 0. -1.
</event>
<event>
 5   0  0.5584205E-06  0.2785872E+04  0.7818609E-02  0.8307668E-01
        2   -1    0    0  501    0  0.00000000000E+00  0.00000000000E+00  0.16758221792E+04  0.16758221792E+04  0.25500000920E-02 0.  1.
       -2   -1    0    0    0  501  0.00000000000E+00  0.00000000000E+00 -0.11578020065E+04  0.11578020065E+04  0.25500000920E-02 0. -1.
    10030    2    1    2    0    0  0.00000000000E+00  0.00000000000E+00  0.51802017265E+03  0.28336241857E+04  0.27858716996E+04 0.  0.
        1    1    3    3  502    0  0.24406873145E+03  0.33233883302E+03  0.16123242942E+04  0.16642140113E+04  0.50400001928E-02 0.  1.
       -1    1    3    3    0  502 -0.24406873145E+03 -0.33233883302E+03 -0.10943041215E+04  0.11694101744E+04  0.50400001928E-02 0. -1.
</event>
<event>
 5   0  0.5866136E-06  0.2805594E+04  0.7818609E-02  0.8301534E-01
       -2   -1    0    0    0  501  0.00000000000E+00  0.00000000000E+00  0.13677404850E+04  0.13677404850E+04  0.25500000920E-02 0.  1.
        2   -1    0    0  501    0  0.00000000000E+00  0.00000000000E+00 -0.14387520236E+04  0.14387520236E+04  0.25500000920E-02 0. -1.
    10030    2    1    2    0    0  0.00000000000E+00  0.00000000000E+00 -0.71011538523E+02  0.28064925086E+04  0.28055939767E+04 0.  0.
        5    1    3    3  502    0  0.87088640529E+03  0.59929027656E+03 -0.95787771976E+03  0.14265846566E+04  0.46999998093E+01 0. -1.
       -5    1    3    3    0  502 -0.87088640529E+03 -0.59929027656E+03  0.88686618123E+03  0.13799078520E+04  0.46999998093E+01 0.  1.
</event>
<event>
 5   0  0.5625245E-06  0.2817083E+04  0.7818609E-02  0.8297984E-01
        2   -1    0    0  501    0  0.00000000000E+00  0.00000000000E+00  0.14725531710E+04  0.14725531710E+04  0.25500000920E-02 0. -1.
       -2   -1    0    0    0  501  0.00000000000E+00  0.00000000000E+00 -0.13473124165E+04  0.13473124165E+04  0.25500000920E-02 0.  1.
    10030    2    1    2    0    0  0.00000000000E+00  0.00000000000E+00  0.12524075446E+03  0.28198655875E+04  0.28170830100E+04 0.  0.
        3    1    3    3  502    0  0.11602018947E+03 -0.49209481929E+03 -0.12533535031E+04  0.13514854825E+04  0.10100000352E+00 0.  1.
       -3    1    3    3    0  502 -0.11602018947E+03  0.49209481929E+03  0.13785942576E+04  0.14683801050E+04  0.10100000352E+00 0. -1.
</event>
<event>
 5   0  0.2277133E-06  0.2796641E+04  0.7818609E-02  0.8304312E-01
       -1   -1    0    0    0  501  0.00000000000E+00  0.00000000000E+00  0.97453891574E+03  0.97453891575E+03  0.50400001928E-02 0. -1.
        1   -1    0    0  501    0  0.00000000000E+00  0.00000000000E+00 -0.20063854660E+04  0.20063854660E+04  0.50400001928E-02 0.  1.
    10030    2    1    2    0    0  0.00000000000E+00  0.00000000000E+00 -0.10318465502E+04  0.29809243817E+04  0.27966413546E+04 0.  0.
        1    1    3    3  502    0  0.75837257061E+01  0.26290757622E+03 -0.19797820066E+04  0.19971766823E+04  0.50400001928E-02 0.  1.
       -1    1    3    3    0  502 -0.75837257061E+01 -0.26290757622E+03  0.94793545642E+03  0.98374769941E+03  0.50400001928E-02 0. -1.
</event>
<event>
 5   0  0.5584205E-06  0.2825004E+04  0.7818609E-02  0.8295547E-01
       -2   -1    0    0    0  501  0.00000000000E+00  0.00000000000E+00  0.11037119412E+04  0.11037119412E+04  0.25500000920E-02 0. -1.
        2   -1    0    0  501    0  0.00000000000E+00  0.00000000000E+00 -0.18076836278E+04  0.18076836278E+04  0.25500000920E-02 0.  1.
    10030    2    1    2    0    0  0.00000000000E+00  0.00000000000E+00 -0.70397168669E+03  0.29113955690E+04  0.28250040750E+04 0.  0.
        1    1    3    3  502    0 -0.26678988875E+03  0.58452901882E+02 -0.17802121553E+04  0.18010410613E+04  0.50400001928E-02 0.  1.
       -1    1    3    3    0  502  0.26678988875E+03 -0.58452901882E+02  0.10762404686E+04  0.11103545077E+04  0.50400001928E-02 0. -1.
</event>
<event>
 5   0  0.2267565E-06  0.2802961E+04  0.7818609E-02  0.8302350E-01
        1   -1    0    0  501    0  0.00000000000E+00  0.00000000000E+00  0.24917623682E+04  0.24917623682E+04  0.50400001928E-02 0. -1.
       -1   -1    0    0    0  501  0.00000000000E+00  0.00000000000E+00 -0.78825629618E+03  0.78825629620E+03  0.50400001928E-02 0.  1.
    10030    2    1    2    0    0  0.00000000000E+00  0.00000000000E+00  0.17035060720E+04  0.32800186644E+04  0.28029608455E+04 0.  0.
        4    1    3    3  502    0 -0.98706658754E+01  0.11468458762E+04 -0.90814152731E+02  0.11504789077E+04  0.12699999809E+01 0.  1.
       -4    1    3    3    0  502  0.98706658754E+01 -0.11468458762E+04  0.17943202247E+04  0.21295397567E+04  0.12699999809E+01 0. -1.
</event>
<event>
 5   0  0.5625245E-06  0.2769870E+04  0.7818609E-02  0.8312684E-01
        2   -1    0    0  501    0  0.00000000000E+00  0.00000000000E+00  0.28169729508E+04  0.28169729508E+04  0.25500000920E-02 0. -1.
       -2   -1    0    0    0  501  0.00000000000E+00  0.00000000000E+00 -0.68088864533E+03  0.68088864533E+03  0.25500000920E-02 0.  1.
    10030    2    1    2    0    0  0.00000000000E+00  0.00000000000E+00  0.21360843054E+04  0.34978615961E+04  0.27698699582E+04 0.  0.
        3    1    3    3  502    0 -0.93171124215E+03  0.58412707175E+03  0.49003618880E+01  0.10996882733E+04  0.10100000352E+00 0.  1.
       -3    1    3    3    0  502  0.93171124215E+03 -0.58412707175E+03  0.21311839435E+04  0.23981733228E+04  0.10100000352E+00 0. -1.
</event>
<event>
 5   0  0.5546570E-06  0.2777064E+04  0.7818609E-02  0.8310425E-01
       -2   -1    0    0    0  501  0.00000000000E+00  0.00000000000E+00  0.12521524253E+04  0.12521524253E+04  0.25500000920E-02 0.  1.
        2   -1    0    0  501    0  0.00000000000E+00  0.00000000000E+00 -0.15397656822E+04  0.15397656822E+04  0.25500000920E-02 0. -1.
    10030    2    1    2    0    0  0.00000000000E+00  0.00000000000E+00 -0.28761325692E+03  0.27919181074E+04  0.27770641572E+04 0.  0.
        4    1    3    3  502    0  0.48702036373E+03 -0.30199201550E+03 -0.14153370768E+04  0.15269474995E+04  0.12699999809E+01 0. -1.
       -4    1    3    3    0  502 -0.48702036373E+03  0.30199201550E+03  0.11277238199E+04  0.12649706080E+04  0.12699999809E+01 0.  1.
</event>
<event>
 5   0  0.2277133E-06  0.2809060E+04  0.7818609E-02  0.8300461E-01
       -1   -1    0    0    0  501  0.00000000000E+00  0.00000000000E+00  0.17945357330E+04  0.17945357330E+04  0.50400001928E-02 0.  1.
        1   -1    0    0  501    0  0.00000000000E+00  0.00000000000E+00 -0.10992837850E+04  0.10992837851E+04  0.50400001928E-02 0. -1.
    10030    2    1    2    0    0  0.00000000000E+00  0.00000000000E+00  0.69525194798E+03  0.28938195181E+04  0.28090596527E+04 0.  0.
        1    1    3    3  502    0 -0.56839258405E+03  0.12832091196E+04  0.29112341957E+03  0.14333347898E+04  0.50400001928E-02 0. -1.
       -1    1    3    3    0  502  0.56839258405E+03 -0.12832091196E+04  0.40412852841E+03  0.14604847283E+04  0.50400001928E-02 0.  1.
</event>
<event>
 5   0  0.5584205E-06  0.2821536E+04  0.7818609E-02  0.8296613E-01
       -2   -1    0    0    0  501  0.00000000000E+00  0.00000000000E+00  0.87259555281E+03  0.87259555281E+03  0.25500000920E-02 0. -1.
        2   -1    0    0  501    0  0.00000000000E+00  0.00000000000E+00 -0.22808572724E+04  0.22808572724E+04  0.25500000920E-02 0.  1.
    10030    2    1    2    0    0  0.00000000000E+00  0.00000000000E+00 -0.14082617196E+04  0.31534528252E+04  0.28215356900E+04 0.  0.
        1    1    3    3  502    0  0.15065162195E+03 -0.12463437217E+04  0.15159826935E+02  0.12555072298E+04  0.50400001928E-02 0. -1.
       -1    1    3    3    0  502 -0.15065162195E+03  0.12463437217E+04 -0.14234215465E+04  0.18979455954E+04  0.50400001928E-02 0.  1.
</event>
<event>
 5   0  0.2206967E-06  0.2794671E+04  0.7818609E-02  0.8304925E-01
       -1   -1    0    0    0  501  0.00000000000E+00  0.00000000000E+00  0.11889053132E+04  0.11889053133E+04  0.50400001928E-02 0. -1.
        1   -1    0    0  501    0  0.00000000000E+00  0.00000000000E+00 -0.16423058026E+04  0.16423058026E+04  0.50400001928E-02 0.  1.
    10030    2    1    2    0    0  0.00000000000E+00  0.00000000000E+00 -0.45340048936E+03  0.28312111159E+04  0.27946707103E+04 0.  0.
        5    1    3    3  502    0 -0.16198531557E+03 -0.63072110530E+03  0.10257799686E+04  0.12150288018E+04  0.46999998093E+01 0. -1.
       -5    1    3    3    0  502  0.16198531557E+03  0.63072110530E+03 -0.14791804580E+04  0.16161823141E+04  0.46999998093E+01 0.  1.
</event>
<event>
 5   0  0.2206967E-06  0.2803936E+04  0.7818609E-02  0.8302047E-01
        1   -1    0    0  501    0  0.00000000000E+00  0.00000000000E+00  0.97741750530E+03  0.97741750531E+03  0.50400001928E-02 0.  1.
       -1   -1    0    0    0  501  0.00000000000E+00  0.00000000000E+00 -0.20109257388E+04  0.20109257388E+04  0.50400001928E-02 0. -1.
    10030    2    1    2    0    0  0.00000000000E+00  0.00000000000E+00 -0.10335082335E+04  0.29883432441E+04  0.28039358188E+04 0.  0.
        5    1    3    3  502    0  0.33047620396E+03  0.12816450605E+04 -0.10093915673E+04  0.16645485901E+04  0.46999998093E+01 0. -1.
       -5    1    3    3    0  502 -0.33047620396E+03 -0.12816450605E+04 -0.24116666119E+02  0.13237946540E+04  0.46999998093E+01 0.  1.
</event>
<event>
 5   0  0.2277133E-06  0.2802757E+04  0.7818609E-02  0.8302413E-01
       -1   -1    0    0    0  501  0.00000000000E+00  0.00000000000E+00  0.24914762130E+04  0.24914762130E+04  0.50400001928E-02 0. -1.
        1   -1    0    0  501    0  0.00000000000E+00  0.00000000000E+00 -0.78823189400E+03  0.78823189402E+03  0.50400001928E-02 0.  1.
    10030    2    1    2    0    0  0.00000000000E+00  0.00000000000E+00  0.17032443190E+04  0.32797081070E+04  0.28027565105E+04 0.  0.
        1    1    3    3  502    0  0.63661846991E+03  0.39749824925E+03 -0.53322776159E+03  0.92066268532E+03  0.50400001928E-02 0.  1.
       -1    1    3    3    0  502 -0.63661846991E+03 -0.39749824925E+03  0.22364720806E+04  0.23590454217E+04  0.50400001928E-02 0. -1.
</event>
<event>
 5   0  0.2234068E-06  0.2748892E+04  0.7818609E-02  0.8319313E-01
        1   -1    0    0  501    0  0.00000000000E+00  0.00000000000E+00  0.20990096924E+04  0.20990096924E+04  0.50400001928E-02 0. -1.
       -1   -1    0    0    0  501  0.00000000000E+00  0.00000000000E+00 -0.89999700283E+03  0.89999700285E+03  0.50400001928E-02 0.  1.
    10030    2    1    2    0    0  0.00000000000E+00  0.00000000000E+00  0.11990126895E+04  0.29990066952E+04  0.27488924549E+04 0.  0.
        3    1    3    3  502    0  0.70116456317E+03 -0.11110925448E+04  0.10398978348E+04  0.16755733063E+04  0.10100000352E+00 0.  1.
       -3    1    3    3    0  502 -0.70116456317E+03  0.11110925448E+04  0.15911485474E+03  0.13234333889E+04  0.10100000352E+00 0. -1.
</event>
<event>
 5   0  0.2234068E-06  0.2842318E+04  0.7818609E-02  0.8290249E-01
       -1   -1    0    0    0  501  0.00000000000E+00  0.00000000000E+00  0.96795393575E+03  0.96795393576E+03  0.50400001928E-02 0.  1.
        1   -1    0    0  501    0  0.00000000000E+00  0.00000000000E+00 -0.20865586348E+04  0.20865586348E+04  0.50400001928E-02 0. -1.
    10030    2    1    2    0    0  0.00000000000E+00  0.00000000000E+00 -0.11186046990E+04  0.30545125705E+04  0.28423178167E+04 0.  0.
        3    1    3    3  502    0 -0.75312332025E+03  0.74861611645E+03 -0.15743096981E+04  0.18989659978E+04  0.10100000352E+00 0. -1.
       -3    1    3    3    0  502  0.75312332025E+03 -0.74861611645E+03  0.45570499904E+03  0.11555465727E+04  0.10100000352E+00 0.  1.
</event>
<event>
 5   0  0.2267565E-06  0.2811948E+04  0.7818609E-02  0.8299569E-01
       -1   -1    0    0    0  501  0.00000000000E+00  0.00000000000E+00  0.10217235395E+04  0.10217235395E+04  0.50400001928E-02 0. -1.
        1   -1    0    0  501    0  0.00000000000E+00  0.00000000000E+00 -0.19347339244E+04  0.19347339244E+04  0.50400001928E-02 0.  1.
    10030    2    1    2    0    0  0.00000000000E+00  0.00000000000E+00 -0.91301038486E+03  0.29564574639E+04  0.28119482166E+04 0.  0.
        4    1    3    3  502    0 -0.62864055348E+03  0.24202121744E+03 -0.17540251149E+04  0.18789276015E+04  0.12699999809E+01 0.  1.
       -4    1    3    3    0  502  0.62864055348E+03 -0.24202121744E+03  0.84101473005E+03  0.10775298623E+04  0.12699999809E+01 0. -1.
</event>
<event>
 5   0  0.2234068E-06  0.2780205E+04  0.7818609E-02  0.8309440E-01
        1   -1    0    0  501    0  0.00000000000E+00  0.00000000000E+00  0.18474094364E+04  0.18474094364E+04  0.50400001928E-02 0. -1.
       -1   -1    0    0    0  501  0.00000000000E+00  0.00000000000E+00 -0.10459968852E+04  0.10459968852E+04  0.50400001928E-02 0.  1.
    10030    2    1    2    0    0  0.00000000000E+00  0.00000000000E+00  0.80141255120E+03  0.28934063216E+04  0.27802046803E+04 0.  0.
        3    1    3    3  502    0  0.11732742683E+03 -0.40378383983E+03  0.17796376260E+04  0.18286380737E+04  0.10100000352E+00 0. -1.
       -3    1    3    3    0  502 -0.11732742683E+03  0.40378383983E+03 -0.97822507484E+03  0.10647682479E+04  0.10100000352E+00 0.  1.
</event>
<event>
 5   0  0.2277133E-06  0.2846827E+04  0.7818609E-02  0.8288876E-01
       -1   -1    0    0    0  501  0.00000000000E+00  0.00000000000E+00  0.20021536034E+04  0.20021536034E+04  0.50400001928E-02 0. -1.
        1   -1    0    0  501    0  0.00000000000E+00  0.00000000000E+00 -0.10119634017E+04  0.10119634017E+04  0.50400001928E-02 0.  1.
    10030    2    1    2    0    0  0.00000000000E+00  0.00000000000E+00  0.99019020169E+03  0.30141170051E+04  0.28468271259E+04 0.  0.
        1    1    3    3  502    0  0.55506656645E+03 -0.50624046797E+03  0.17751608436E+04  0.19275825080E+04  0.50400001928E-02 0. -1.
       -1    1    3    3    0  502 -0.55506656645E+03  0.50624046797E+03 -0.78497064189E+03  0.10865344970E+04  0.50400001928E-02 0.  1.
</event>
<event>
 5   0  0.2206967E-06  0.2780972E+04  0.7818609E-02  0.8309200E-01
        1   -1    0    0  501    0  0.00000000000E+00  0.00000000000E+00  0.19231060677E+04  0.19231060677E+04  0.50400001928E-02 0. -1.
       -1   -1    0    0    0  501  0.00000000000E+00  0.00000000000E+00 -0.10053797786E+04  0.10053797786E+04  0.50400001928E-02 0.  1.
    10030    2    1    2    0    0  0.00000000000E+00  0.00000000000E+00  0.91772628917E+03  0.29284858463E+04  0.27809724577E+04 0.  0.
        5    1    3    3  502    0 -0.93311348973E+03  0.92129698248E+02 -0.62236273768E+03  0.11254093181E+04  0.46999998093E+01 0.  1.
       -5    1    3    3    0  502  0.93311348973E+03 -0.92129698248E+02  0.15400890269E+04  0.18030765282E+04  0.46999998093E+01 0. -1.
</event>
<event>
 5   0  0.5625245E-06  0.2792591E+04  0.7818609E-02  0.8305572E-01
       -2   -1    0    0    0  501  0.00000000000E+00  0.00000000000E+00  0.13040360201E+04  0.13040360201E+04  0.25500000920E-02 0.  1.
        2   -1    0    0  501    0  0.00000000000E+00  0.00000000000E+00 -0.14950818547E+04  0.14950818547E+04  0.25500000920E-02 0. -1.
    10030    2    1    2    0    0  0.00000000000E+00  0.00000000000E+00 -0.19104583461E+03  0.27991178749E+04  0.27925906192E+04 0.  0.
        3    1    3    3  502    0  0.86682760277E+03 -0.57420072584E+03  0.83861247915E+03  0.13358021810E+04  0.10100000352E+00 0.  1.
       -3    1    3    3    0  502 -0.86682760277E+03  0.57420072584E+03 -0.10296583138E+04  0.14633156938E+04  0.10100000352E+00 0. -1.
</event>
<event>
 5   0  0.5916603E-06  0.2799289E+04  0.7818609E-02  0.8303489E-01
       -2   -1    0    0    0  501  0.00000000000E+00  0.00000000000E+00  0.11526307869E+04  0.11526307869E+04  0.25500000920E-02 0.  1.
        2   -1    0    0  501    0  0.00000000000E+00  0.00000000000E+00 -0.16995944496E+04  0.16995944496E+04  0.25500000920E-02 0. -1.
    10030    2    1    2    0    0  0.00000000000E+00  0.00000000000E+00 -0.54696366273E+03  0.28522252366E+04  0.27992891154E+04 0.  0.
        2    1    3    3  502    0 -0.12603276065E+04  0.27047725594E+03 -0.82915838434E+03  0.15326732359E+04  0.25500000920E-02 0.  1.
       -2    1    3    3    0  502  0.12603276065E+04 -0.27047725594E+03  0.28219472162E+03  0.13195520007E+04  0.25500000920E-02 0. -1.
</event>
<event>
 5   0  0.2206967E-06  0.2798622E+04  0.7818609E-02  0.8303696E-01
        1   -1    0    0  501    0  0.00000000000E+00  0.00000000000E+00  0.16711793277E+04  0.16711793277E+04  0.50400001928E-02 0. -1.
       -1   -1    0    0    0  501  0.00000000000E+00  0.00000000000E+00 -0.11716703279E+04  0.11716703279E+04  0.50400001928E-02 0.  1.
    10030    2    1    2    0    0  0.00000000000E+00  0.00000000000E+00  0.49950899981E+03  0.28428496556E+04  0.27986219687E+04 0.  0.
        5    1    3    3  502    0  0.27112905018E+03 -0.36004832324E+03 -0.10959083391E+04  0.11849822507E+04  0.46999998093E+01 0.  1.
       -5    1    3    3    0  502 -0.27112905018E+03  0.36004832324E+03  0.15954173389E+04  0.16578674049E+04  0.46999998093E+01 0. -1.
</event>
<event>
 5   0  0.5625245E-06  0.2799435E+04  0.7818609E-02  0.8303444E-01
        2   -1    0    0  501    0  0.00000000000E+00  0.00000000000E+00  0.19968357581E+04  0.19968357581E+04  0.25500000920E-02 0. -1.
       -2   -1    0    0    0  501  0.00000000000E+00  0.00000000000E+00 -0.98115717026E+03  0.98115717027E+03  0.25500000920E-02 0.  1.
    10030    2    1    2    0    0  0.00000000000E+00  0.00000000000E+00  0.10156785878E+04  0.29779929283E+04  0.27994354587E+04 0.  0.
        3    1    3    3  502    0  0.96391849937E+02  0.13154407737E+04  0.94095017321E+01  0.13190012763E+04  0.10100000352E+00 0.  1.
       -3    1    3    3    0  502 -0.96391849937E+02 -0.13154407737E+04  0.10062690861E+04  0.16589916521E+04  0.10100000352E+00 0. -1.
</event>
<event>
 5   0  0.5584205E-06  0.2792654E+04  0.7818609E-02  0.8305553E-01
        2   -1    0    0  501    0  0.00000000000E+00  0.00000000000E+00  0.14464570397E+04  0.14464570397E+04  0.25500000920E-02 0. -1.
       -2   -1    0    0    0  501  0.00000000000E+00  0.00000000000E+00 -0.13479343230E+04  0.13479343230E+04  0.25500000920E-02 0.  1.
    10030    2    1    2    0    0  0.00000000000E+00  0.00000000000E+00  0.98522716662E+02  0.27943913627E+04  0.27926539997E+04 0.  0.
        1    1    3    3  502    0  0.81390999586E+03 -0.61183055776E+03 -0.90681355992E+03  0.13634870536E+04  0.50400001928E-02 0.  1.
       -1    1    3    3    0  502 -0.81390999586E+03  0.61183055776E+03  0.10053362766E+04  0.14309043091E+04  0.50400001928E-02 0. -1.
</event>
<event>
 5   0  0.5546570E-06  0.2783538E+04  0.7818609E-02  0.8308398E-01
       -2   -1    0    0    0  501  0.00000000000E+00  0.00000000000E+00  0.88218509865E+03  0.88218509866E+03  0.25500000920E-02 0. -1.
        2   -1    0    0  501    0  0.00000000000E+00  0.00000000000E+00 -0.21957074260E+04  0.21957074260E+04  0.25500000920E-02 0.  1.
    10030    2    1    2    0    0  0.00000000000E+00  0.00000000000E+00 -0.13135223273E+04  0.30778925247E+04  0.27835375853E+04 0.  0.
        4    1    3    3  502    0  0.68339174131E+03 -0.43526520538E+03 -0.19080360065E+04  0.20729406857E+04  0.12699999809E+01 0.  1.
       -4    1    3    3    0  502 -0.68339174131E+03  0.43526520538E+03  0.59451367918E+03  0.10049518390E+04  0.12699999809E+01 0. -1.
</event>
<event>
 5   0  0.5916603E-06  0.2783992E+04  0.7818609E-02  0.8308256E-01
       -2   -1    0    0    0  501  0.00000000000E+00  0.00000000000E+00  0.63026766056E+03  0.63026766056E+03  0.25500000920E-02 0.  1.
        2   -1    0    0  501    0  0.00000000000E+00  0.00000000000E+00 -0.30743325662E+04  0.30743325662E+04  0.25500000920E-02 0. -1.
    10030    2    1    2    0    0  0.00000000000E+00  0.00000000000E+00 -0.24440649056E+04  0.37046002268E+04  0.27839916625E+04 0.  0.
        2    1    3    3  502    0  0.50475989746E+03 -0.35703382050E+03 -0.28815964478E+04  0.29471772581E+04  0.25500000920E-02 0. -1.
       -2    1    3    3    0  502 -0.50475989746E+03  0.35703382050E+03  0.43753154212E+03  0.75742296864E+03  0.25500000920E-02 0.  1.
</event>
<event>
 5   0  0.2206967E-06  0.2793534E+04  0.7818609E-02  0.8305279E-01
       -1   -1    0    0    0  501  0.00000000000E+00  0.00000000000E+00  0.22504171180E+04  0.22504171180E+04  0.50400001928E-02 0. -1.
        1   -1    0    0  501    0  0.00000000000E+00  0.00000000000E+00 -0.86693151487E+03  0.86693151489E+03  0.50400001928E-02 0.  1.
    10030    2    1    2    0    0  0.00000000000E+00  0.00000000000E+00  0.13834856031E+04  0.31173486329E+04  0.27935336198E+04 0.  0.
        5    1    3    3  502    0  0.93449683948E+03  0.76718577381E+03  0.14721479509E+04  0.19050196938E+04  0.46999998093E+01 0. -1.
       -5    1    3    3    0  502 -0.93449683948E+03 -0.76718577381E+03 -0.88662347791E+02  0.12123289390E+04  0.46999998093E+01 0.  1.
</event>
<event>
 5   0  0.5916603E-06  0.2804870E+04  0.7818609E-02  0.8301758E-01
        2   -1    0    0  501    0  0.00000000000E+00  0.00000000000E+00  0.17568813590E+04  0.17568813590E+04  0.25500000920E-02 0.  1.
       -2   -1    0    0    0  501  0.00000000000E+00  0.00000000000E+00 -0.11194970054E+04  0.11194970054E+04  0.25500000920E-02 0. -1.
    10030    2    1    2    0    0  0.00000000000E+00  0.00000000000E+00  0.63738435358E+03  0.28763783644E+04  0.28048696370E+04 0.  0.
        2    1    3    3  502    0  0.10921968417E+04  0.80735994793E+03  0.67702788326E+03  0.15175937471E+04  0.25500000920E-02 0.  1.
       -2    1    3    3    0  502 -0.10921968417E+04 -0.80735994793E+03 -0.39643529677E+02  0.13587846172E+04  0.25500000920E-02 0. -1.
</event>
<event>
 5   0  0.2206967E-06  0.2801516E+04  0.7818609E-02  0.8302798E-01
        1   -1    0    0  501    0  0.00000000000E+00  0.00000000000E+00  0.18030924626E+04  0.18030924626E+04  0.50400001928E-02 0.  1.
       -1   -1    0    0    0  501  0.00000000000E+00  0.00000000000E+00 -0.10881985621E+04  0.10881985621E+04  0.50400001928E-02 0. -1.
    10030    2    1    2    0    0  0.00000000000E+00  0.00000000000E+00  0.71489390051E+03  0.28912910247E+04  0.28015157505E+04 0.  0.
        5    1    3    3  502    0 -0.15741320266E+03  0.57214763512E+03 -0.95205894016E+03  0.11218601287E+04  0.46999998093E+01 0. -1.
       -5    1    3    3    0  502  0.15741320266E+03 -0.57214763512E+03  0.16669528407E+04  0.17694308960E+04  0.46999998093E+01 0.  1.
</event>
<event>
 5   0  0.2267565E-06  0.2720953E+04  0.7818609E-02  0.8328238E-01
        1   -1    0    0  501    0  0.00000000000E+00  0.00000000000E+00  0.10806600935E+04  0.10806600935E+04  0.50400001928E-02 0. -1.
       -1   -1    0    0    0  501  0.00000000000E+00  0.00000000000E+00 -0.17127456045E+04  0.17127456045E+04  0.50400001928E-02 0.  1.
    10030    2    1    2    0    0  0.00000000000E+00  0.00000000000E+00 -0.63208551098E+03  0.27934056979E+04  0.27209526457E+04 0.  0.
        4    1    3    3  502    0 -0.72270150581E+02 -0.30675621976E+03  0.10426679919E+04  0.10892568601E+04  0.12699999809E+01 0. -1.
       -4    1    3    3    0  502  0.72270150581E+02  0.30675621976E+03 -0.16747535029E+04  0.17041488378E+04  0.12699999809E+01 0.  1.
</event>
<event>
 5   0  0.2190865E-06  0.2794893E+04  0.7818609E-02  0.8304855E-01
        1   -1    0    0  501    0  0.00000000000E+00  0.00000000000E+00  0.13883472556E+04  0.13883472556E+04  0.50400001928E-02 0. -1.
       -1   -1    0    0    0  501  0.00000000000E+00  0.00000000000E+00 -0.14066058035E+04  0.14066058035E+04  0.50400001928E-02 0.  1.
    10030    2    1    2    0    0  0.00000000000E+00  0.00000000000E+00 -0.18258547989E+02  0.27949530591E+04  0.27948934198E+04 0.  0.
        2    1    3    3  502    0 -0.20005986323E+03 -0.48811446254E+02 -0.13913493486E+04  0.14065061379E+04  0.25500000920E-02 0.  1.
       -2    1    3    3    0  502  0.20005986323E+03  0.48811446254E+02  0.13730908006E+04  0.13884469212E+04  0.25500000920E-02 0. -1.
</event>
<event>
 5   0  0.2267565E-06  0.2800934E+04  0.7818609E-02  0.8302979E-01
       -1   -1    0    0    0  501  0.00000000000E+00  0.00000000000E+00  0.77108218105E+03  0.77108218106E+03  0.50400001928E-02 0.  1.
        1   -1    0    0  501    0  0.00000000000E+00  0.00000000000E+00 -0.25435778363E+04  0.25435778364E+04  0.50400001928E-02 0. -1.
    10030    2    1    2    0    0  0.00000000000E+00  0.00000000000E+00 -0.17724956553E+04  0.33146600174E+04  0.28009338055E+04 0.  0.
        4    1    3    3  502    0 -0.26622723440E+03  0.21040275765E+03  0.72169563528E+03  0.79749135647E+03  0.12699999809E+01 0.  1.
       -4    1    3    3    0  502  0.26622723440E+03 -0.21040275765E+03 -0.24941912906E+04  0.25171686609E+04  0.12699999809E+01 0. -1.
</event>
<event>
 5   0  0.5584205E-06  0.2803018E+04  0.7818609E-02  0.8302332E-01
        2   -1    0    0  501    0  0.00000000000E+00  0.00000000000E+00  0.20921392526E+04  0.20921392526E+04  0.25500000920E-02 0.  1.
       -2   -1    0    0    0  501  0.00000000000E+00  0.00000000000E+00 -0.93886044180E+03  0.93886044180E+03  0.25500000920E-02 0. -1.
    10030    2    1    2    0    0  0.00000000000E+00  0.00000000000E+00  0.11532788108E+04  0.30309996944E+04  0.28030175047E+04 0.  0.
        1    1    3    3  502    0 -0.11503252270E+04  0.55583756074E+03 -0.46441350622E+02  0.12784210264E+04  0.50400001928E-02 0.  1.
       -1    1    3    3    0  502  0.11503252270E+04 -0.55583756074E+03  0.11997201614E+04  0.17525786680E+04  0.50400001928E-02 0. -1.
</event>
<event>
 5   0  0.5546570E-06  0.2782915E+04  0.7818609E-02  0.8308592E-01
       -2   -1    0    0    0  501  0.00000000000E+00  0.00000000000E+00  0.75980194199E+03  0.75980194199E+03  0.25500000920E-02 0.  1.
        2   -1    0    0  501    0  0.00000000000E+00  0.00000000000E+00 -0.25482356946E+04  0.25482356946E+04  0.25500000920E-02 0. -1.
    10030    2    1    2    0    0  0.00000000000E+00  0.00000000000E+00 -0.17884337527E+04  0.33080376366E+04  0.27829153271E+04 0.  0.
        4    1    3    3  502    0  0.11641586722E+04 -0.68005961745E+03 -0.13032494451E+04  0.18751552539E+04  0.12699999809E+01 0. -1.
       -4    1    3    3    0  502 -0.11641586722E+04  0.68005961745E+03 -0.48518430759E+03  0.14328823827E+04  0.12699999809E+01 0.  1.
</event>
<event>
 5   0  0.2234068E-06  0.2794494E+04  0.7818609E-02  0.8304980E-01
        1   -1    0    0  501    0  0.00000000000E+00  0.00000000000E+00  0.14784955388E+04  0.14784955388E+04  0.50400001928E-02 0. -1.
       -1   -1    0    0    0  501  0.00000000000E+00  0.00000000000E+00 -0.13204637425E+04  0.13204637425E+04  0.50400001928E-02 0.  1.
    10030    2    1    2    0    0  0.00000000000E+00  0.00000000000E+00  0.15803179634E+03  0.27989592813E+04  0.27944944104E+04 0.  0.
        3    1    3    3  502    0  0.53505877360E+03 -0.12894887920E+04  0.22087542708E+02  0.13962654137E+04  0.10100000352E+00 0.  1.
       -3    1    3    3    0  502 -0.53505877360E+03  0.12894887920E+04  0.13594425363E+03  0.14026938676E+04  0.10100000352E+00 0. -1.
</event>
<event>
 5   0  0.5625245E-06  0.2797475E+04  0.7818609E-02  0.8304053E-01
        2   -1    0    0  501    0  0.00000000000E+00  0.00000000000E+00  0.18836328593E+04  0.18836328594E+04  0.25500000920E-02 0.  1.
       -2   -1    0    0    0  501  0.00000000000E+00  0.00000000000E+00 -0.10386668721E+04  0.10386668721E+04  0.25500000920E-02 0. -1.
    10030    2    1    2    0    0  0.00000000000E+00  0.00000000000E+00  0.84496598725E+03  0.29222997315E+04  0.27974753262E+04 0.  0.
        3    1    3    3  502    0 -0.13267791907E+03 -0.10757066485E+04  0.13460826789E+04  0.17282033481E+04  0.10100000352E+00 0.  1.
       -3    1    3    3    0  502  0.13267791907E+03  0.10757066485E+04 -0.50111669170E+03  0.11940963833E+04  0.10100000352E+00 0. -1.
</event>
<event>
 5   0  0.2234068E-06  0.2759316E+04  0.7818609E-02  0.8316012E-01
        1   -1    0    0  501    0  0.00000000000E+00  0.00000000000E+00  0.14675687095E+04  0.14675687095E+04  0.50400001928E-02 0. -1.
       -1   -1    0    0    0  501  0.00000000000E+00  0.00000000000E+00 -0.12970129254E+04  0.12970129254E+04  0.50400001928E-02 0.  1.
    10030    2    1    2    0    0  0.00000000000E+00  0.00000000000E+00  0.17055578413E+03  0.27645816349E+04  0.27593155565E+04 0.  0.
        3    1    3    3  502    0  0.26781497108E+03 -0.10807780406E+04 -0.73092372178E+03  0.13319367586E+04  0.10100000352E+00 0.  1.
       -3    1    3    3    0  502 -0.26781497108E+03  0.10807780406E+04  0.90147950591E+03  0.14326448763E+04  0.10100000352E+00 0. -1.
</event>
<event>
 5   0  0.2190865E-06  0.2911506E+04  0.7818609E-02  0.8269462E-01
        1   -1    0    0  501    0  0.00000000000E+00  0.00000000000E+00  0.24051798893E+04  0.24051798893E+04  0.50400001928E-02 0.  1.
       -1   -1    0    0    0  501  0.00000000000E+00  0.00000000000E+00 -0.88110503199E+03  0.88110503201E+03  0.50400001928E-02 0. -1.
    10030    2    1    2    0    0  0.00000000000E+00  0.00000000000E+00  0.15240748573E+04  0.32862849213E+04  0.29115055235E+04 0.  0.
        2    1    3    3  502    0 -0.70519121061E+03  0.11978173794E+04  0.27373566149E+03  0.14166835674E+04  0.25500000920E-02 0. -1.
       -2    1    3    3    0  502  0.70519121061E+03 -0.11978173794E+04  0.12503391958E+04  0.18696013539E+04  0.25500000920E-02 0.  1.
</event>
<event>
 5   0  0.5916603E-06  0.2864154E+04  0.7818609E-02  0.8283623E-01
       -2   -1    0    0    0  501  0.00000000000E+00  0.00000000000E+00  0.76399346441E+03  0.76399346442E+03  0.25500000920E-02 0.  1.
        2   -1    0    0  501    0  0.00000000000E+00  0.00000000000E+00 -0.26843737759E+04  0.26843737759E+04  0.25500000920E-02 0. -1.
    10030    2    1    2    0    0  0.00000000000E+00  0.00000000000E+00 -0.19203803115E+04  0.34483672404E+04  0.28641536417E+04 0.  0.
        2    1    3    3  502    0  0.78836516873E+03 -0.49325952728E+02  0.47798787196E+03  0.92326870121E+03  0.25500000920E-02 0.  1.
       -2    1    3    3    0  502 -0.78836516873E+03  0.49325952728E+02 -0.23983681835E+04  0.25250985392E+04  0.25500000920E-02 0. -1.
</event>
<event>
 5   0  0.1901375E-06  0.2802642E+04  0.7818609E-02  0.8302449E-01
        3   -1    0    0  501    0  0.00000000000E+00  0.00000000000E+00  0.17682360248E+04  0.17682360277E+04  0.10100000352E+00 0. -1.
       -3   -1    0    0    0  501  0.00000000000E+00  0.00000000000E+00 -0.11105419384E+04  0.11105419430E+04  0.10100000352E+00 0.  1.
    10030    2    1    2    0    0  0.00000000000E+00  0.00000000000E+00  0.65769408644E+03  0.28787779707E+04  0.28026418060E+04 0.  0.
        1    1    3    3  502    0 -0.55526723967E+02  0.46133708746E+03  0.16867995996E+04  0.17496308223E+04  0.50400001928E-02 0. -1.
       -1    1    3    3    0  502  0.55526723967E+02 -0.46133708746E+03 -0.10291055131E+04  0.11291471483E+04  0.50400001928E-02 0.  1.
</event>
<event>
 5   0  0.2277133E-06  0.2533067E+04  0.7818609E-02  0.8391299E-01
       -1   -1    0    0    0  501  0.00000000000E+00  0.00000000000E+00  0.71933999143E+03  0.71933999144E+03  0.50400001928E-02 0.  1.
        1   -1    0    0  501    0  0.00000000000E+00  0.00000000000E+00 -0.22299698959E+04  0.22299698959E+04  0.50400001928E-02 0. -1.
    10030    2    1    2    0    0  0.00000000000E+00  0.00000000000E+00 -0.15106299045E+04  0.29493098874E+04  0.25330665414E+04 0.  0.
        1    1    3    3  502    0  0.11299430993E+03  0.93048229173E+03  0.23644128965E+03  0.96667962261E+03  0.50400001928E-02 0.  1.
       -1    1    3    3    0  502 -0.11299430993E+03 -0.93048229173E+03 -0.17470711942E+04  0.19826302648E+04  0.50400001928E-02 0. -1.
</event>
<event>
 5   0  0.5546570E-06  0.2797278E+04  0.7818609E-02  0.8304114E-01
       -2   -1    0    0    0  501  0.00000000000E+00  0.00000000000E+00  0.84114469192E+03  0.84114469192E+03  0.25500000920E-02 0. -1.
        2   -1    0    0  501    0  0.00000000000E+00  0.00000000000E+00 -0.23256293566E+04  0.23256293566E+04  0.25500000920E-02 0.  1.
    10030    2    1    2    0    0  0.00000000000E+00  0.00000000000E+00 -0.14844846647E+04  0.31667740485E+04  0.27972778115E+04 0.  0.
        4    1    3    3  502    0  0.90126078041E+03 -0.42199748485E+03  0.37034276832E+03  0.10618419141E+04  0.12699999809E+01 0. -1.
       -4    1    3    3    0  502 -0.90126078041E+03  0.42199748485E+03 -0.18548274330E+04  0.21049321344E+04  0.12699999809E+01 0.  1.
</event>
<event>
 5   0  0.2277133E-06  0.2794399E+04  0.7818609E-02  0.8305009E-01
       -1   -1    0    0    0  501  0.00000000000E+00  0.00000000000E+00  0.97403966740E+03  0.97403966742E+03  0.50400001928E-02 0.  1.
        1   -1    0    0  501    0  0.00000000000E+00  0.00000000000E+00 -0.20041962959E+04  0.20041962959E+04  0.50400001928E-02 0. -1.
    10030    2    1    2    0    0  0.00000000000E+00  0.00000000000E+00 -0.10301566285E+04  0.29782359633E+04  0.27943991794E+04 0.  0.
        1    1    3    3  502    0 -0.28442380231E+03  0.90714486989E+03  0.57617471176E+03  0.11116591262E+04  0.50400001928E-02 0.  1.
       -1    1    3    3    0  502  0.28442380231E+03 -0.90714486989E+03 -0.16063313402E+04  0.18665768371E+04  0.50400001928E-02 0. -1.
</event>
<event>
 5   0  0.5546570E-06  0.2805321E+04  0.7818609E-02  0.8301618E-01
        2   -1    0    0  501    0  0.00000000000E+00  0.00000000000E+00  0.19525893798E+04  0.19525893798E+04  0.25500000920E-02 0.  1.
       -2   -1    0    0    0  501  0.00000000000E+00  0.00000000000E+00 -0.10076140534E+04  0.10076140534E+04  0.25500000920E-02 0. -1.
    10030    2    1    2    0    0  0.00000000000E+00  0.00000000000E+00  0.94497532647E+03  0.29602034332E+04  0.28053210152E+04 0.  0.
        4    1    3    3  502    0 -0.45810706242E+03  0.13034186592E+04  0.21684655903E+03  0.13984943064E+04  0.12699999809E+01 0. -1.
       -4    1    3    3    0  502  0.45810706242E+03 -0.13034186592E+04  0.72812876744E+03  0.15617091268E+04  0.12699999809E+01 0.  1.
</event>
<event>
 5   0  0.5866136E-06  0.2807608E+04  0.7818609E-02  0.8300910E-01
       -2   -1    0    0    0  501  0.00000000000E+00  0.00000000000E+00  0.17668079796E+04  0.17668079796E+04  0.25500000920E-02 0.  1.
        2   -1    0    0  501    0  0.00000000000E+00  0.00000000000E+00 -0.11153822798E+04  0.11153822798E+04  0.25500000920E-02 0. -1.
    10030    2    1    2    0    0  0.00000000000E+00  0.00000000000E+00  0.65142569977E+03  0.28821902594E+04  0.28076084573E+04 0.  0.
        5    1    3    3  502    0  0.12329961386E+04 -0.66752942967E+02  0.10112154723E+04  0.15960307812E+04  0.46999998093E+01 0.  1.
       -5    1    3    3    0  502 -0.12329961386E+04  0.66752942967E+02 -0.35978977250E+03  0.12861594783E+04  0.46999998093E+01 0. -1.
</event>
<event>
 5   0  0.2267565E-06  0.2812979E+04  0.7818609E-02  0.8299250E-01
        1   -1    0    0  501    0  0.00000000000E+00  0.00000000000E+00  0.16143753133E+04  0.16143753133E+04  0.50400001928E-02 0.  1.
       -1   -1    0    0    0  501  0.00000000000E+00  0.00000000000E+00 -0.12253732061E+04  0.12253732062E+04  0.50400001928E-02 0. -1.
    10030    2    1    2    0    0  0.00000000000E+00  0.00000000000E+00  0.38900210715E+03  0.28397485194E+04  0.28129786729E+04 0.  0.
        4    1    3    3  502    0  0.28219585661E+03  0.71269493502E+03  0.13849783678E+04  0.15829514409E+04  0.12699999809E+01 0.  1.
       -4    1    3    3    0  502 -0.28219585661E+03 -0.71269493502E+03 -0.99597626070E+03  0.12567970786E+04  0.12699999809E+01 0. -1.
</event>
<event>
 5   0  0.5866136E-06  0.2795063E+04  0.7818609E-02  0.8304803E-01
       -2   -1    0    0    0  501  0.00000000000E+00  0.00000000000E+00  0.14267908685E+04  0.14267908685E+04  0.25500000920E-02 0. -1.
        2   -1    0    0  501    0  0.00000000000E+00  0.00000000000E+00 -0.13688718696E+04  0.13688718696E+04  0.25500000920E-02 0.  1.
    10030    2    1    2    0    0  0.00000000000E+00  0.00000000000E+00  0.57918998950E+02  0.27956627381E+04  0.27950627067E+04 0.  0.
        5    1    3    3  502    0  0.14664680199E+03 -0.31730463189E+03  0.13823517027E+04  0.14258702024E+04  0.46999998093E+01 0. -1.
       -5    1    3    3    0  502 -0.14664680199E+03  0.31730463189E+03 -0.13244327038E+04  0.13697925357E+04  0.46999998093E+01 0.  1.
</event>
<event>
 5   0  0.2190865E-06  0.2798512E+04  0.7818609E-02  0.8303730E-01
       -1   -1    0    0    0  501  0.00000000000E+00  0.00000000000E+00  0.94017595119E+03  0.94017595121E+03  0.50400001928E-02 0.  1.
        1   -1    0    0  501    0  0.00000000000E+00  0.00000000000E+00 -0.20825008802E+04  0.20825008802E+04  0.50400001928E-02 0. -1.
    10030    2    1    2    0    0  0.00000000000E+00  0.00000000000E+00 -0.11423249290E+04  0.30226768314E+04  0.27985119231E+04 0.  0.
        2    1    3    3  502    0  0.11297047139E+04  0.71772265502E+03 -0.13035573958E+03  0.13447494818E+04  0.25500000920E-02 0. -1.
       -2    1    3    3    0  502 -0.11297047139E+04 -0.71772265502E+03 -0.10119691895E+04  0.16779273496E+04  0.25500000920E-02 0.  1.
</event>
<event>
 5   0  0.5916603E-06  0.2840597E+04  0.7818609E-02  0.8290774E-01
        2   -1    0    0  501    0  0.00000000000E+00  0.00000000000E+00  0.15827596820E+04  0.15827596820E+04  0.25500000920E-02 0. -1.
       -2   -1    0    0    0  501  0.00000000000E+00  0.00000000000E+00 -0.12745131521E+04  0.12745131521E+04  0.25500000920E-02 0.  1.
    10030    2    1    2    0    0  0.00000000000E+00  0.00000000000E+00  0.30824652989E+03  0.28572728342E+04  0.28405971424E+04 0.  0.
        2    1    3    3  502    0  0.78655862432E+03 -0.85261852231E+03  0.97845558944E+03  0.15175665239E+04  0.25500000920E-02 0. -1.
       -2    1    3    3    0  502 -0.78655862432E+03  0.85261852231E+03 -0.67020905955E+03  0.13397063102E+04  0.25500000920E-02 0.  1.
</event>
<event>
 5   0  0.2206967E-06  0.2773601E+04  0.7818609E-02  0.8311511E-01
       -1   -1    0    0    0  501  0.00000000000E+00  0.00000000000E+00  0.10324761839E+04  0.10324761840E+04  0.50400001928E-02 0.  1.
        1   -1    0    0  501    0  0.00000000000E+00  0.00000000000E+00 -0.18627211831E+04  0.18627211831E+04  0.50400001928E-02 0. -1.
    10030    2    1    2    0    0  0.00000000000E+00  0.00000000000E+00 -0.83024499914E+03  0.28951973670E+04  0.27736007347E+04 0.  0.
        5    1    3    3  502    0 -0.33579585739E+03  0.37699485255E+03  0.93313393864E+03  0.10609641908E+04  0.46999998093E+01 0.  1.
       -5    1    3    3    0  502  0.33579585739E+03 -0.37699485255E+03 -0.17633789378E+04  0.18342331763E+04  0.46999998093E+01 0. -1.
</event>
</LesHouchesEvents>
